<LesHouchesEvents version="3.0">
<header>
<!--
#*********************************************************************
#                                                                    *
#                        MadGraph5_aMC@NLO                           *
#                                                                    *
#                           Going Beyond                             *
#                                                                    *
#                   http://madgraph.hep.uiuc.edu                     *
#                   http://madgraph.phys.ucl.ac.be                   *
#                   http://amcatnlo.cern.ch                          *
#                                                                    *
#                     The MadGraph5_aMC@NLO team                     *
#                                                                    *
#....................................................................*
#                                                                    *
# This file contains all the information necessary to reproduce      *
# the events generated:                                              *
#                                                                    *
# 1. software version                                                *
# 2. proc_card          : code generation info including model       *
# 3. param_card         : model primary parameters in the LH format  *
# 4. run_card           : running parameters (collider and cuts)     *
# 5. pythia_card        : present only if pythia has been run        *
# 6. pgs_card           : present only if pgs has been run           *
# 7. delphes_cards      : present only if delphes has been run       *
#                                                                    *
#                                                                    *
#*********************************************************************
-->
<MGVersion>
#5.2.2.3
</MGVersion>
<MG5ProcCard>
#************************************************************
#*                     MadGraph5_aMC@NLO                    *
#*                                                          *
#*                *                       *                 *
#*                  *        * *        *                   *
#*                    * * * * 5 * * * *                     *
#*                  *        * *        *                   *
#*                *                       *                 *
#*                                                          *
#*                                                          *
#*         VERSION 2.2.3                 2015-02-10         *
#*                                                          *
#*    The MadGraph5_aMC@NLO Development Team - Find us at   *
#*    https://server06.fynu.ucl.ac.be/projects/madgraph     *
#*                                                          *
#************************************************************
#*                                                          *
#*               Command File for MadGraph5_aMC@NLO         *
#*                                                          *
#*     run as ./bin/mg5_aMC  filename                       *
#*                                                          *
#************************************************************
set group_subprocesses Auto
set ignore_six_quark_processes False
set loop_optimized_output True
set gauge unitary
set complex_mass_scheme False
import model sm
define p = g u c d s u~ c~ d~ s~
define j = g u c d s u~ c~ d~ s~
define l+ = e+ mu+
define l- = e- mu-
define vl = ve vm vt
define vl~ = ve~ vm~ vt~
import model Zprime_UFO
generate p p > zph, zph > j j
add process p p > zph, zph > b b~
output Dijet_signal
</MG5ProcCard>
<MGProcCard>
#*********************************************************************
#                        MadGraph/MadEvent                           *
#                   http://madgraph.hep.uiuc.edu                     *
#                                                                    *
#                          proc_card.dat                             *
#*********************************************************************
#                                                                    *
#            This Files is generated by MADGRAPH 5                   *
#                                                                    *
# WARNING: This Files is generated for MADEVENT (compatibility issue)*
#          This files is NOT a valid MG4 proc_card.dat               *
#          Running this in MG4 will NEVER reproduce the result of MG5*
#                                                                    *
#*********************************************************************
#*********************************************************************
# Process(es) requested : mg2 input                                  *
#*********************************************************************
# Begin PROCESS # This is TAG. Do not modify this line
p p > zph , zph > j j           #Process
# Be carefull the coupling are here in MG5 convention
          
end_coup           # End the couplings input

done               # this tells MG there are no more procs
# End PROCESS  # This is TAG. Do not modify this line
#*********************************************************************
# Model information                                                  *
#*********************************************************************
# Begin MODEL  # This is TAG. Do not modify this line
Zprime_UFO
# End   MODEL  # This is TAG. Do not modify this line
#*********************************************************************
# Start multiparticle definitions                                    *
#*********************************************************************
# Begin MULTIPARTICLES # This is TAG. Do not modify this line

# End  MULTIPARTICLES # This is TAG. Do not modify this line
</MGProcCard>
<MGRunCard>
#*********************************************************************
#                       MadGraph5_aMC@NLO                            *
#                                                                    *
#                     run_card.dat MadEvent                          *
#                                                                    *
#  This file is used to set the parameters of the run.               *
#                                                                    *
#  Some notation/conventions:                                        *
#                                                                    *
#   Lines starting with a '# ' are info or comments                  *
#                                                                    *
#   mind the format:   value    = variable     ! comment             *
#*********************************************************************
#
#*******************                                                 
# Running parameters
#*******************                                                 
#                                                                    
#*********************************************************************
# Tag name for the run (one word)                                    *
#*********************************************************************
  tag_1     = run_tag ! name of the run 
#*********************************************************************
# Run to generate the grid pack                                      *
#*********************************************************************
  .false.     = gridpack  !True = setting up the grid pack
#*********************************************************************
# Number of events and rnd seed                                      *
# Warning: Do not generate more than 1M events in a single run       *
# If you want to run Pythia, avoid more than 50k events in a run.    *
#*********************************************************************
  2000 = nevents ! Number of unweighted events requested 
 561 = iseed   ! rnd seed (0=assigned automatically=default))
#*********************************************************************
# Collider type and energy                                           *
# lpp: 0=No PDF, 1=proton, -1=antiproton, 2=photon from proton,      *
#                                         3=photon from electron     *
#*********************************************************************
        1     = lpp1    ! beam 1 type 
        1     = lpp2    ! beam 2 type
     4000     = ebeam1  ! beam 1 total energy in GeV
     4000     = ebeam2  ! beam 2 total energy in GeV
#*********************************************************************
# Beam polarization from -100 (left-handed) to 100 (right-handed)    *
#*********************************************************************
        0     = polbeam1 ! beam polarization for beam 1
        0     = polbeam2 ! beam polarization for beam 2
#*********************************************************************
# PDF CHOICE: this automatically fixes also alpha_s and its evol.    *
#*********************************************************************
 'nn23lo1'    = pdlabel     ! PDF set                                     
 230000    = lhaid     ! if pdlabel=lhapdf, this is the lhapdf number
#*********************************************************************
# Renormalization and factorization scales                           *
#*********************************************************************
 F        = fixed_ren_scale  ! if .true. use fixed ren scale
 F        = fixed_fac_scale  ! if .true. use fixed fac scale
 91.1880  = scale            ! fixed ren scale
 91.1880  = dsqrt_q2fact1    ! fixed fact scale for pdf1
 91.1880  = dsqrt_q2fact2    ! fixed fact scale for pdf2
 1        = scalefact        ! scale factor for event-by-event scales
#*********************************************************************
# Matching - Warning! ickkw > 1 is still beta
#*********************************************************************
 0        = ickkw            ! 0 no matching, 1 MLM, 2 CKKW matching
 1        = highestmult      ! for ickkw=2, highest mult group
 1        = ktscheme         ! for ickkw=1, 1 Durham kT, 2 Pythia pTE
 1        = alpsfact         ! scale factor for QCD emission vx
 F        = chcluster        ! cluster only according to channel diag
 T        = pdfwgt           ! for ickkw=1, perform pdf reweighting
 5        = asrwgtflavor     ! highest quark flavor for a_s reweight
 T        = clusinfo         ! include clustering tag in output
 3.0      = lhe_version       ! Change the way clustering information pass to shower.        
#*********************************************************************
#**********************************************************
#
#**********************************************************
# Automatic ptj and mjj cuts if xqcut > 0
# (turn off for VBF and single top processes)
#**********************************************************
   T  = auto_ptj_mjj  ! Automatic setting of ptj and mjj
#**********************************************************
#                                                                    
#**********************************
# BW cutoff (M+/-bwcutoff*Gamma)
#**********************************
  15  = bwcutoff      ! (M+/-bwcutoff*Gamma)
#**********************************************************
# Apply pt/E/eta/dr/mij cuts on decay products or not
# (note that etmiss/ptll/ptheavy/ht/sorted cuts always apply)
#**********************************************************
   T  = cut_decays    ! Cut decay products 
#*************************************************************
# Number of helicities to sum per event (0 = all helicities)
# 0 gives more stable result, but longer run time (needed for
# long decay chains e.g.).
# Use >=2 if most helicities contribute, e.g. pure QCD.
#*************************************************************
   0  = nhel          ! Number of helicities used per event
#*******************                                                 
# Standard Cuts
#*******************                                                 
#                                                                    
#*********************************************************************
# Minimum and maximum pt's (for max, -1 means no cut)                *
#*********************************************************************
 20  = ptj       ! minimum pt for the jets 
  0  = ptb       ! minimum pt for the b 
 10  = pta       ! minimum pt for the photons 
 10  = ptl       ! minimum pt for the charged leptons 
  0  = misset    ! minimum missing Et (sum of neutrino's momenta)
  0  = ptheavy   ! minimum pt for one heavy final state
 1.0 = ptonium   ! minimum pt for the quarkonium states
 -1  = ptjmax    ! maximum pt for the jets
 -1  = ptbmax    ! maximum pt for the b
 -1  = ptamax    ! maximum pt for the photons
 -1  = ptlmax    ! maximum pt for the charged leptons
 -1  = missetmax ! maximum missing Et (sum of neutrino's momenta)
#*********************************************************************
# Minimum and maximum E's (in the center of mass frame)              *
#*********************************************************************
  0  = ej     ! minimum E for the jets 
  0  = eb     ! minimum E for the b 
  0  = ea     ! minimum E for the photons 
  0  = el     ! minimum E for the charged leptons 
 -1   = ejmax ! maximum E for the jets
 -1   = ebmax ! maximum E for the b
 -1   = eamax ! maximum E for the photons
 -1   = elmax ! maximum E for the charged leptons
#*********************************************************************
# Maximum and minimum absolute rapidity (for max, -1 means no cut)   *
#*********************************************************************
   5  = etaj    ! max rap for the jets 
  -1  = etab    ! max rap for the b
 2.5  = etaa    ! max rap for the photons 
 2.5  = etal    ! max rap for the charged leptons 
 0.6  = etaonium ! max rap for the quarkonium states
   0  = etajmin ! min rap for the jets
   0  = etabmin ! min rap for the b
   0  = etaamin ! min rap for the photons
   0  = etalmin ! main rap for the charged leptons
#*********************************************************************
# Minimum and maximum DeltaR distance                                *
#*********************************************************************
 0.4 = drjj    ! min distance between jets 
 0   = drbb    ! min distance between b's 
 0.4 = drll    ! min distance between leptons 
 0.4 = draa    ! min distance between gammas 
 0   = drbj    ! min distance between b and jet 
 0.4 = draj    ! min distance between gamma and jet 
 0.4 = drjl    ! min distance between jet and lepton 
 0   = drab    ! min distance between gamma and b 
 0   = drbl    ! min distance between b and lepton 
 0.4 = dral    ! min distance between gamma and lepton 
 -1  = drjjmax ! max distance between jets
 -1  = drbbmax ! max distance between b's
 -1  = drllmax ! max distance between leptons
 -1  = draamax ! max distance between gammas
 -1  = drbjmax ! max distance between b and jet
 -1  = drajmax ! max distance between gamma and jet
 -1  = drjlmax ! max distance between jet and lepton
 -1  = drabmax ! max distance between gamma and b
 -1  = drblmax ! max distance between b and lepton
 -1  = dralmax ! maxdistance between gamma and lepton
#*********************************************************************
# Minimum and maximum invariant mass for pairs                       *
# WARNING: for four lepton final state mmll cut require to have      *
#          different lepton masses for each flavor!                  *           
#*********************************************************************
 0   = mmjj    ! min invariant mass of a jet pair 
 0   = mmbb    ! min invariant mass of a b pair 
 0   = mmaa    ! min invariant mass of gamma gamma pair
 0   = mmll    ! min invariant mass of l+l- (same flavour) lepton pair
 -1  = mmjjmax ! max invariant mass of a jet pair
 -1  = mmbbmax ! max invariant mass of a b pair
 -1  = mmaamax ! max invariant mass of gamma gamma pair
 -1  = mmllmax ! max invariant mass of l+l- (same flavour) lepton pair
#*********************************************************************
# Minimum and maximum invariant mass for all letpons                 *
#*********************************************************************
 0   = mmnl    ! min invariant mass for all letpons (l+- and vl) 
 -1  = mmnlmax ! max invariant mass for all letpons (l+- and vl) 
#*********************************************************************
# Minimum and maximum pt for 4-momenta sum of leptons                *
#*********************************************************************
 0   = ptllmin  ! Minimum pt for 4-momenta sum of leptons(l and vl)
 -1  = ptllmax  ! Maximum pt for 4-momenta sum of leptons(l and vl)
#*********************************************************************
# Inclusive cuts                                                     *
#*********************************************************************
 0  = xptj ! minimum pt for at least one jet  
 0  = xptb ! minimum pt for at least one b 
 0  = xpta ! minimum pt for at least one photon 
 0  = xptl ! minimum pt for at least one charged lepton 
#*********************************************************************
# Control the pt's of the jets sorted by pt                          *
#*********************************************************************
 0   = ptj1min ! minimum pt for the leading jet in pt
 0   = ptj2min ! minimum pt for the second jet in pt
 0   = ptj3min ! minimum pt for the third jet in pt
 0   = ptj4min ! minimum pt for the fourth jet in pt
 -1  = ptj1max ! maximum pt for the leading jet in pt 
 -1  = ptj2max ! maximum pt for the second jet in pt
 -1  = ptj3max ! maximum pt for the third jet in pt
 -1  = ptj4max ! maximum pt for the fourth jet in pt
 0   = cutuse  ! reject event if fails any (0) / all (1) jet pt cuts
#*********************************************************************
# Control the pt's of leptons sorted by pt                           *
#*********************************************************************
 0   = ptl1min ! minimum pt for the leading lepton in pt
 0   = ptl2min ! minimum pt for the second lepton in pt
 0   = ptl3min ! minimum pt for the third lepton in pt
 0   = ptl4min ! minimum pt for the fourth lepton in pt
 -1  = ptl1max ! maximum pt for the leading lepton in pt 
 -1  = ptl2max ! maximum pt for the second lepton in pt
 -1  = ptl3max ! maximum pt for the third lepton in pt
 -1  = ptl4max ! maximum pt for the fourth lepton in pt
#*********************************************************************
# Control the Ht(k)=Sum of k leading jets                            *
#*********************************************************************
 0   = htjmin ! minimum jet HT=Sum(jet pt)
 -1  = htjmax ! maximum jet HT=Sum(jet pt)
 0   = ihtmin  !inclusive Ht for all partons (including b)
 -1  = ihtmax  !inclusive Ht for all partons (including b)
 0   = ht2min ! minimum Ht for the two leading jets
 0   = ht3min ! minimum Ht for the three leading jets
 0   = ht4min ! minimum Ht for the four leading jets
 -1  = ht2max ! maximum Ht for the two leading jets
 -1  = ht3max ! maximum Ht for the three leading jets
 -1  = ht4max ! maximum Ht for the four leading jets
#***********************************************************************
# Photon-isolation cuts, according to hep-ph/9801442                   *
# When ptgmin=0, all the other parameters are ignored                  *
# When ptgmin>0, pta and draj are not going to be used                 *
#***********************************************************************
   0 = ptgmin ! Min photon transverse momentum
 0.4 = R0gamma ! Radius of isolation code
 1.0 = xn ! n parameter of eq.(3.4) in hep-ph/9801442
 1.0 = epsgamma ! epsilon_gamma parameter of eq.(3.4) in hep-ph/9801442
 .true. = isoEM ! isolate photons from EM energy (photons and leptons)
#*********************************************************************
# WBF cuts                                                           *
#*********************************************************************
 0   = xetamin ! minimum rapidity for two jets in the WBF case  
 0   = deltaeta ! minimum rapidity for two jets in the WBF case 
#*********************************************************************
# KT DURHAM CUT                                                      *
#*********************************************************************
 -1    =  ktdurham        
 0.4  =  dparameter 
#*********************************************************************
# maximal pdg code for quark to be considered as a light jet         *
# (otherwise b cuts are applied)                                     *
#*********************************************************************
 4 = maxjetflavor    ! Maximum jet pdg code
#*********************************************************************
# Jet measure cuts                                                   *
#*********************************************************************
 0   = xqcut   ! minimum kt jet measure between partons
#*********************************************************************
#
#*********************************************************************
# Store info for systematics studies                                 *
# WARNING: If use_syst is T, matched Pythia output is                *
#          meaningful ONLY if plotted taking matchscale              *
#          reweighting into account!                                 *
#*********************************************************************
   F  = use_syst      ! Enable systematics studies
#
#**************************************
# Parameter of the systematics study
#  will be used by SysCalc (if installed)
#**************************************                                  
#
0.5 1 2 = sys_scalefact  # factorization/renormalization scale factor
0.5 1 2 = sys_alpsfact  # \alpha_s emission scale factors
30 50 = sys_matchscale # variation of merging scale
# PDF sets and number of members (0 or none for all members).
CT10nlo.LHgrid = sys_pdf # matching scales
# MSTW2008nlo68cl.LHgrid 1  = sys_pdf
</MGRunCard>
<slha>
######################################################################
## PARAM_CARD AUTOMATICALY GENERATED BY MG5 FOLLOWING UFO MODEL   ####
######################################################################
##                                                                  ##
##  Width set on Auto will be computed following the information    ##
##        present in the decay.py files of the model.               ##
##        See  arXiv:1402.1178 for more details.                    ##
##                                                                  ##
######################################################################

###################################
## INFORMATION FOR CKMBLOCK
###################################
Block ckmblock 
    1 2.277360e-01 # cabi 

###################################
## INFORMATION FOR FRBLOCK
###################################
Block frblock 
    1 2.000000e-01 # gz 

###################################
## INFORMATION FOR MASS
###################################
Block mass 
    1 5.040000e-03 # MD 
    2 2.550000e-03 # MU 
    3 1.010000e-01 # MS 
    4 1.270000e+00 # MC 
    5 4.700000e+00 # MB 
    6 1.720000e+02 # MT 
   11 5.110000e-04 # Me 
   13 1.056600e-01 # MM 
   15 1.777000e+00 # MTA 
   23 9.118760e+01 # MZ 
   25 1.200000e+02 # MH 
  10030 1.200000e+03 # MZph 
  10031 3.000000e+02 # MZpl 
## Dependent parameters, given by model restrictions.
## Those values should be edited following the 
## analytical expression. MG5 ignores those values 
## but they are important for interfacing the output of MG5
## to external program such as Pythia.
  12 0.000000 # ve : 0.0 
  14 0.000000 # vm : 0.0 
  16 0.000000 # vt : 0.0 
  21 0.000000 # g : 0.0 
  22 0.000000 # a : 0.0 
  24 79.824360 # w+ : cmath.sqrt(MZ__exp__2/2. + cmath.sqrt(MZ__exp__4/4. - (aEW*cmath.pi*MZ__exp__2)/(Gf*sqrt__2))) 

###################################
## INFORMATION FOR SMINPUTS
###################################
Block sminputs 
    1 1.279000e+02 # aEWM1 
    2 1.166370e-05 # Gf 
    3 1.184000e-01 # aS 

###################################
## INFORMATION FOR YUKAWA
###################################
Block yukawa 
    1 5.040000e-03 # ymdo 
    2 2.550000e-03 # ymup 
    3 1.010000e-01 # yms 
    4 1.270000e+00 # ymc 
    5 4.700000e+00 # ymb 
    6 1.720000e+02 # ymt 
   11 5.110000e-04 # yme 
   13 1.056600e-01 # ymm 
   15 1.777000e+00 # ymtau 

###################################
## INFORMATION FOR DECAY
###################################
DECAY   6 1.508336e+00 # WT 
DECAY  23 2.495200e+00 # WZ 
DECAY  24 2.085000e+00 # WW 
DECAY  25 5.753088e-03 # WH 
## Dependent parameters, given by model restrictions.
## Those values should be edited following the 
## analytical expression. MG5 ignores those values 
## but they are important for interfacing the output of MG5
## to external program such as Pythia.
DECAY  1 0.000000 # d : 0.0 
DECAY  2 0.000000 # u : 0.0 
DECAY  3 0.000000 # s : 0.0 
DECAY  4 0.000000 # c : 0.0 
DECAY  5 0.000000 # b : 0.0 
DECAY  11 0.000000 # e- : 0.0 
DECAY  12 0.000000 # ve : 0.0 
DECAY  13 0.000000 # mu- : 0.0 
DECAY  14 0.000000 # vm : 0.0 
DECAY  15 0.000000 # ta- : 0.0 
DECAY  16 0.000000 # vt : 0.0 
DECAY  21 0.000000 # g : 0.0 
DECAY  22 0.000000 # a : 0.0 
DECAY  10030 0.308725 # zph : (gz__exp__2*MZph*(5 + cmath.sqrt(1 - (4*MT__exp__2)/MZph__exp__2)))/(144.*cmath.pi) 
DECAY  10031 0.132629 # zpl : (5*gz__exp__2*MZpl)/(144.*cmath.pi) 
#===========================================================
# QUANTUM NUMBERS OF NEW STATE(S) (NON SM PDG CODE)
#===========================================================

Block QNUMBERS 10030  # zph 
        1 0  # 3 times electric charge
        2 3  # number of spin states (2S+1)
        3 1  # colour rep (1: singlet, 3: triplet, 8: octet)
        4 0  # Particle/Antiparticle distinction (0=own anti)
Block QNUMBERS 10031  # zpl 
        1 0  # 3 times electric charge
        2 3  # number of spin states (2S+1)
        3 1  # colour rep (1: singlet, 3: triplet, 8: octet)
        4 0  # Particle/Antiparticle distinction (0=own anti)
</slha>
## END BANNER##
<MGGenerationInfo>
#  Number of Events        :         4034
#  Integrated weight (pb)  :  0.30718E-01
#  Max wgt                 :  0.10231E-04
#  Average wgt             :  0.76148E-05
</MGGenerationInfo>
</header>
<init>
     2212     2212  0.40000000000E+04  0.40000000000E+04 0 0  247000  247000 2   1
  0.30719163728E-01  0.58849229374E-04  0.10230630000E-04   0
</init>
<event>
 5   0  0.1012657E-04  0.1199961E+04  0.7818609E-02  0.9112890E-01
       -2   -1    0    0    0  501  0.00000000000E+00  0.00000000000E+00  0.66583046082E+03  0.66583046082E+03  0.25500000920E-02 0. -1.
        2   -1    0    0  501    0  0.00000000000E+00  0.00000000000E+00 -0.54064326803E+03  0.54064326804E+03  0.25500000920E-02 0.  1.
    10030    2    1    2    0    0  0.00000000000E+00  0.00000000000E+00  0.12518719279E+03  0.12064737289E+04  0.11999612599E+04 0.  0.
        1    1    3    3  502    0 -0.16879765683E+03 -0.83432912845E+02  0.63535457572E+03  0.66266819511E+03  0.50400001928E-02 0. -1.
       -1    1    3    3    0  502  0.16879765683E+03  0.83432912845E+02 -0.51016738293E+03  0.54380553375E+03  0.50400001928E-02 0.  1.
</event>
<event>
 5   0  0.1012657E-04  0.1200340E+04  0.7818609E-02  0.9112559E-01
        2   -1    0    0  501    0  0.00000000000E+00  0.00000000000E+00  0.25606885042E+04  0.25606885042E+04  0.25500000920E-02 0. -1.
       -2   -1    0    0    0  501  0.00000000000E+00  0.00000000000E+00 -0.14066683339E+03  0.14066683341E+03  0.25500000920E-02 0.  1.
    10030    2    1    2    0    0  0.00000000000E+00  0.00000000000E+00  0.24200216708E+04  0.27013553376E+04  0.12003398572E+04 0.  0.
        1    1    3    3  502    0 -0.20166677041E+03 -0.27478527120E+03  0.98287084880E+02  0.35473480606E+03  0.50400001928E-02 0.  1.
       -1    1    3    3    0  502  0.20166677041E+03  0.27478527120E+03  0.23217345859E+04  0.23466205315E+04  0.50400001928E-02 0. -1.
</event>
<event>
 5   0  0.1023063E-04  0.1200154E+04  0.7818609E-02  0.9112722E-01
       -2   -1    0    0    0  501  0.00000000000E+00  0.00000000000E+00  0.13883957549E+03  0.13883957552E+03  0.25500000920E-02 0.  1.
        2   -1    0    0  501    0  0.00000000000E+00  0.00000000000E+00 -0.25935850672E+04  0.25935850672E+04  0.25500000920E-02 0. -1.
    10030    2    1    2    0    0  0.00000000000E+00  0.00000000000E+00 -0.24547454917E+04  0.27324246427E+04  0.12001537398E+04 0.  0.
        3    1    3    3  502    0  0.43211285012E+03 -0.11378783035E+03 -0.21392674647E+04  0.21854369086E+04  0.10100000352E+00 0. -1.
       -3    1    3    3    0  502 -0.43211285012E+03  0.11378783035E+03 -0.31547802697E+03  0.54698773412E+03  0.10100000352E+00 0.  1.
</event>
<event>
 5   0  0.1012657E-04  0.1200650E+04  0.7818609E-02  0.9112288E-01
        2   -1    0    0  501    0  0.00000000000E+00  0.00000000000E+00  0.12296173853E+04  0.12296173853E+04  0.25500000920E-02 0.  1.
       -2   -1    0    0    0  501  0.00000000000E+00  0.00000000000E+00 -0.29309127008E+03  0.29309127009E+03  0.25500000920E-02 0. -1.
    10030    2    1    2    0    0  0.00000000000E+00  0.00000000000E+00  0.93652611524E+03  0.15227086554E+04  0.12006500259E+04 0.  0.
        1    1    3    3  502    0 -0.44703297365E+03  0.88097656337E+02  0.96399679849E+03  0.10662502071E+04  0.50400001928E-02 0.  1.
       -1    1    3    3    0  502  0.44703297365E+03 -0.88097656337E+02 -0.27470683246E+02  0.45645844833E+03  0.50400001928E-02 0. -1.
</event>
<event>
 5   0  0.1023063E-04  0.1200444E+04  0.7818609E-02  0.9112468E-01
       -2   -1    0    0    0  501  0.00000000000E+00  0.00000000000E+00  0.86290523354E+03  0.86290523354E+03  0.25500000920E-02 0. -1.
        2   -1    0    0  501    0  0.00000000000E+00  0.00000000000E+00 -0.41750388855E+03  0.41750388856E+03  0.25500000920E-02 0.  1.
    10030    2    1    2    0    0  0.00000000000E+00  0.00000000000E+00  0.44540134499E+03  0.12804091221E+04  0.12004437354E+04 0.  0.
        3    1    3    3  502    0  0.44723692494E+03 -0.84757173123E+02  0.63999273495E+03  0.78536320032E+03  0.10100000352E+00 0. -1.
       -3    1    3    3    0  502 -0.44723692494E+03  0.84757173123E+02 -0.19459138996E+03  0.49504592178E+03  0.10100000352E+00 0.  1.
</event>
<event>
 5   0  0.5620246E-05  0.1199864E+04  0.7818609E-02  0.9112976E-01
        1   -1    0    0  501    0  0.00000000000E+00  0.00000000000E+00  0.61343705394E+03  0.61343705396E+03  0.50400001928E-02 0. -1.
       -1   -1    0    0    0  501  0.00000000000E+00  0.00000000000E+00 -0.58672396502E+03  0.58672396504E+03  0.50400001928E-02 0.  1.
    10030    2    1    2    0    0  0.00000000000E+00  0.00000000000E+00  0.26713088923E+02  0.12001610190E+04  0.11998636933E+04 0.  0.
        1    1    3    3  502    0  0.20620747938E+03  0.15549794999E+03 -0.52827286734E+03  0.58802496494E+03  0.50400001928E-02 0.  1.
       -1    1    3    3    0  502 -0.20620747938E+03 -0.15549794999E+03  0.55498595626E+03  0.61213605406E+03  0.50400001928E-02 0. -1.
</event>
<event>
 5   0  0.5745487E-05  0.1200156E+04  0.7818609E-02  0.9112720E-01
       -1   -1    0    0    0  501  0.00000000000E+00  0.00000000000E+00  0.23517594815E+03  0.23517594820E+03  0.50400001928E-02 0. -1.
        1   -1    0    0  501    0  0.00000000000E+00  0.00000000000E+00 -0.15311671621E+04  0.15311671621E+04  0.50400001928E-02 0.  1.
    10030    2    1    2    0    0  0.00000000000E+00  0.00000000000E+00 -0.12959912140E+04  0.17663431103E+04  0.12001561385E+04 0.  0.
        3    1    3    3  502    0 -0.21283662009E+03  0.51800614022E+03 -0.33075037397E+03  0.65040418836E+03  0.10100000352E+00 0. -1.
       -3    1    3    3    0  502  0.21283662009E+03 -0.51800614022E+03 -0.96524084000E+03  0.11159389220E+04  0.10100000352E+00 0.  1.
</event>
<event>
 5   0  0.1012657E-04  0.1200436E+04  0.7818609E-02  0.9112475E-01
       -2   -1    0    0    0  501  0.00000000000E+00  0.00000000000E+00  0.71787573286E+03  0.71787573286E+03  0.25500000920E-02 0.  1.
        2   -1    0    0  501    0  0.00000000000E+00  0.00000000000E+00 -0.50184396154E+03  0.50184396154E+03  0.25500000920E-02 0. -1.
    10030    2    1    2    0    0  0.00000000000E+00  0.00000000000E+00  0.21603177132E+03  0.12197196944E+04  0.12004359236E+04 0.  0.
        1    1    3    3  502    0 -0.54841790184E+03  0.23970522112E+02 -0.13862790564E+03  0.56617530610E+03  0.50400001928E-02 0.  1.
       -1    1    3    3    0  502  0.54841790184E+03 -0.23970522112E+02  0.35465967696E+03  0.65354438830E+03  0.50400001928E-02 0. -1.
</event>
<event>
 5   0  0.5447807E-05  0.1200002E+04  0.7818609E-02  0.9112855E-01
        1   -1    0    0  501    0  0.00000000000E+00  0.00000000000E+00  0.59467397046E+03  0.59467397048E+03  0.50400001928E-02 0.  1.
       -1   -1    0    0    0  501  0.00000000000E+00  0.00000000000E+00 -0.60537542287E+03  0.60537542289E+03  0.50400001928E-02 0. -1.
    10030    2    1    2    0    0  0.00000000000E+00  0.00000000000E+00 -0.10701452411E+02  0.12000493934E+04  0.12000016773E+04 0.  0.
        2    1    3    3  502    0 -0.11952321776E+03 -0.20156047205E+03  0.54701948122E+03  0.59509892986E+03  0.25500000920E-02 0.  1.
       -2    1    3    3    0  502  0.11952321776E+03  0.20156047205E+03 -0.55772093363E+03  0.60495046351E+03  0.25500000920E-02 0. -1.
</event>
<event>
 5   0  0.1012657E-04  0.1199592E+04  0.7818609E-02  0.9113214E-01
        2   -1    0    0  501    0  0.00000000000E+00  0.00000000000E+00  0.20295336614E+04  0.20295336614E+04  0.25500000920E-02 0. -1.
       -2   -1    0    0    0  501  0.00000000000E+00  0.00000000000E+00 -0.17726006905E+03  0.17726006906E+03  0.25500000920E-02 0.  1.
    10030    2    1    2    0    0  0.00000000000E+00  0.00000000000E+00  0.18522735924E+04  0.22067937305E+04  0.11995920590E+04 0.  0.
        1    1    3    3  502    0 -0.18205731459E+03  0.17680386998E+03 -0.73626611401E+02  0.26424487160E+03  0.50400001928E-02 0.  1.
       -1    1    3    3    0  502  0.18205731459E+03 -0.17680386998E+03  0.19259002038E+04  0.19425488589E+04  0.50400001928E-02 0. -1.
</event>
<event>
 5   0  0.3839750E-05  0.1199475E+04  0.7818609E-02  0.9113317E-01
       -4   -1    0    0    0  501  0.00000000000E+00  0.00000000000E+00  0.50403941023E+03  0.50404101020E+03  0.12699999809E+01 0. -1.
        4   -1    0    0  501    0  0.00000000000E+00  0.00000000000E+00 -0.71360122914E+03  0.71360235925E+03  0.12699999809E+01 0.  1.
    10030    2    1    2    0    0  0.00000000000E+00  0.00000000000E+00 -0.20956181891E+03  0.12176433695E+04  0.11994745596E+04 0.  0.
        4    1    3    3  502    0  0.26299495656E+03  0.16660508591E+03  0.41558442223E+03  0.51926450556E+03  0.12699999809E+01 0. -1.
       -4    1    3    3    0  502 -0.26299495656E+03 -0.16660508591E+03 -0.62514624114E+03  0.69837886390E+03  0.12699999809E+01 0.  1.
</event>
<event>
 5   0  0.1004006E-04  0.1200129E+04  0.7818609E-02  0.9112744E-01
        2   -1    0    0  501    0  0.00000000000E+00  0.00000000000E+00  0.10996954044E+04  0.10996954044E+04  0.25500000920E-02 0.  1.
       -2   -1    0    0    0  501  0.00000000000E+00  0.00000000000E+00 -0.32743352663E+03  0.32743352664E+03  0.25500000920E-02 0. -1.
    10030    2    1    2    0    0  0.00000000000E+00  0.00000000000E+00  0.77226187776E+03  0.14271289310E+04  0.12001285673E+04 0.  0.
        5    1    3    3  502    0  0.37252593111E+03 -0.20583075147E+03 -0.11685588965E+03  0.44138334421E+03  0.46999998093E+01 0. -1.
       -5    1    3    3    0  502 -0.37252593111E+03  0.20583075147E+03  0.88911776741E+03  0.98574558682E+03  0.46999998093E+01 0.  1.
</event>
<event>
 5   0  0.5625746E-05  0.1197990E+04  0.7818609E-02  0.9114618E-01
        1   -1    0    0  501    0  0.00000000000E+00  0.00000000000E+00  0.46556730959E+03  0.46556730962E+03  0.50400001928E-02 0. -1.
       -1   -1    0    0    0  501  0.00000000000E+00  0.00000000000E+00 -0.77066133021E+03  0.77066133022E+03  0.50400001928E-02 0.  1.
    10030    2    1    2    0    0  0.00000000000E+00  0.00000000000E+00 -0.30509402061E+03  0.12362286398E+04  0.11979895194E+04 0.  0.
        5    1    3    3  502    0  0.54615932554E+02  0.86514992122E+02  0.45646459249E+03  0.46781380713E+03  0.46999998093E+01 0. -1.
       -5    1    3    3    0  502 -0.54615932554E+02 -0.86514992122E+02 -0.76155861310E+03  0.76841483271E+03  0.46999998093E+01 0.  1.
</event>
<event>
 5   0  0.3839750E-05  0.1194460E+04  0.7818609E-02  0.9117719E-01
       -3   -1    0    0    0  501  0.00000000000E+00  0.00000000000E+00  0.15769884314E+04  0.15769884347E+04  0.10100000352E+00 0. -1.
        3   -1    0    0  501    0  0.00000000000E+00  0.00000000000E+00 -0.22618033617E+03  0.22618035872E+03  0.10100000352E+00 0.  1.
    10030    2    1    2    0    0  0.00000000000E+00  0.00000000000E+00  0.13508080953E+04  0.18031687934E+04  0.11944602075E+04 0.  0.
        1    1    3    3  502    0 -0.30779026564E+03 -0.56411005620E+02  0.14433292664E+04  0.14768603253E+04  0.50400001928E-02 0. -1.
       -1    1    3    3    0  502  0.30779026564E+03  0.56411005620E+02 -0.92521171176E+02  0.32630846805E+03  0.50400001928E-02 0.  1.
</event>
<event>
 5   0  0.5620246E-05  0.1200078E+04  0.7818609E-02  0.9112789E-01
        1   -1    0    0  501    0  0.00000000000E+00  0.00000000000E+00  0.10479684736E+04  0.10479684736E+04  0.50400001928E-02 0. -1.
       -1   -1    0    0    0  501  0.00000000000E+00  0.00000000000E+00 -0.34356627734E+03  0.34356627737E+03  0.50400001928E-02 0.  1.
    10030    2    1    2    0    0  0.00000000000E+00  0.00000000000E+00  0.70440219626E+03  0.13915347510E+04  0.12000777096E+04 0.  0.
        1    1    3    3  502    0  0.16130726217E+03  0.33656157988E+03  0.89700209492E+03  0.97154850017E+03  0.50400001928E-02 0. -1.
       -1    1    3    3    0  502 -0.16130726217E+03 -0.33656157988E+03 -0.19259989866E+03  0.41998625081E+03  0.50400001928E-02 0.  1.
</event>
<event>
 5   0  0.5745487E-05  0.1200094E+04  0.7818609E-02  0.9112775E-01
        1   -1    0    0  501    0  0.00000000000E+00  0.00000000000E+00  0.44985329088E+03  0.44985329091E+03  0.50400001928E-02 0.  1.
       -1   -1    0    0    0  501  0.00000000000E+00  0.00000000000E+00 -0.80038575175E+03  0.80038575177E+03  0.50400001928E-02 0. -1.
    10030    2    1    2    0    0  0.00000000000E+00  0.00000000000E+00 -0.35053246087E+03  0.12502390427E+04  0.12000936037E+04 0.  0.
        3    1    3    3  502    0 -0.50482140355E+03 -0.27301092225E+03 -0.35773188551E+03  0.67627784620E+03  0.10100000352E+00 0. -1.
       -3    1    3    3    0  502  0.50482140355E+03  0.27301092225E+03  0.71994246331E+01  0.57396119648E+03  0.10100000352E+00 0.  1.
</event>
<event>
 5   0  0.5745487E-05  0.1198337E+04  0.7818609E-02  0.9114313E-01
        1   -1    0    0  501    0  0.00000000000E+00  0.00000000000E+00  0.64684585786E+03  0.64684585788E+03  0.50400001928E-02 0.  1.
       -1   -1    0    0    0  501  0.00000000000E+00  0.00000000000E+00 -0.55500576162E+03  0.55500576164E+03  0.50400001928E-02 0. -1.
    10030    2    1    2    0    0  0.00000000000E+00  0.00000000000E+00  0.91840096242E+02  0.12018516195E+04  0.11983374784E+04 0.  0.
        3    1    3    3  502    0 -0.16129043341E+03 -0.15826253555E+03 -0.51063207658E+03  0.55839659911E+03  0.10100000352E+00 0. -1.
       -3    1    3    3    0  502  0.16129043341E+03  0.15826253555E+03  0.60247217282E+03  0.64345502041E+03  0.10100000352E+00 0.  1.
</event>
<event>
 5   0  0.1012657E-04  0.1201757E+04  0.7818609E-02  0.9111320E-01
       -2   -1    0    0    0  501  0.00000000000E+00  0.00000000000E+00  0.23264657379E+03  0.23264657381E+03  0.25500000920E-02 0. -1.
        2   -1    0    0  501    0  0.00000000000E+00  0.00000000000E+00 -0.15519470835E+04  0.15519470835E+04  0.25500000920E-02 0.  1.
    10030    2    1    2    0    0  0.00000000000E+00  0.00000000000E+00 -0.13193005097E+04  0.17845936573E+04  0.12017573327E+04 0.  0.
        1    1    3    3  502    0  0.11641470094E+03 -0.54910874806E+01 -0.15350025393E+04  0.15394204528E+04  0.50400001928E-02 0.  1.
       -1    1    3    3    0  502 -0.11641470094E+03  0.54910874806E+01  0.21570202960E+03  0.24517320456E+03  0.50400001928E-02 0. -1.
</event>
<event>
 5   0  0.5732931E-05  0.1199833E+04  0.7818609E-02  0.9113003E-01
       -1   -1    0    0    0  501  0.00000000000E+00  0.00000000000E+00  0.24693952777E+03  0.24693952783E+03  0.50400001928E-02 0.  1.
        1   -1    0    0  501    0  0.00000000000E+00  0.00000000000E+00 -0.14574410049E+04  0.14574410050E+04  0.50400001928E-02 0. -1.
    10030    2    1    2    0    0  0.00000000000E+00  0.00000000000E+00 -0.12105014772E+04  0.17043805328E+04  0.11998329777E+04 0.  0.
        4    1    3    3  502    0  0.25201958802E+03 -0.22219051255E+03 -0.13112561589E+04  0.13536162025E+04  0.12699999809E+01 0. -1.
       -4    1    3    3    0  502 -0.25201958802E+03  0.22219051255E+03  0.10075468169E+03  0.35076433028E+03  0.12699999809E+01 0.  1.
</event>
<event>
 5   0  0.5620246E-05  0.1199750E+04  0.7818609E-02  0.9113075E-01
       -1   -1    0    0    0  501  0.00000000000E+00  0.00000000000E+00  0.31216664427E+03  0.31216664431E+03  0.50400001928E-02 0.  1.
        1   -1    0    0  501    0  0.00000000000E+00  0.00000000000E+00 -0.11527502368E+04  0.11527502369E+04  0.50400001928E-02 0. -1.
    10030    2    1    2    0    0  0.00000000000E+00  0.00000000000E+00 -0.84058359258E+03  0.14649168812E+04  0.11997502626E+04 0.  0.
        1    1    3    3  502    0 -0.20975760708E+03 -0.46174858678E+03 -0.29108056379E+02  0.50799339572E+03  0.50400001928E-02 0.  1.
       -1    1    3    3    0  502  0.20975760708E+03  0.46174858678E+03 -0.81147553620E+03  0.95692348545E+03  0.50400001928E-02 0. -1.
</event>
<event>
 5   0  0.9941209E-05  0.1199891E+04  0.7818609E-02  0.9112952E-01
       -2   -1    0    0    0  501  0.00000000000E+00  0.00000000000E+00  0.57889229278E+03  0.57889229278E+03  0.25500000920E-02 0. -1.
        2   -1    0    0  501    0  0.00000000000E+00  0.00000000000E+00 -0.62176466049E+03  0.62176466049E+03  0.25500000920E-02 0.  1.
    10030    2    1    2    0    0  0.00000000000E+00  0.00000000000E+00 -0.42872367708E+02  0.12006569533E+04  0.11998912782E+04 0.  0.
        2    1    3    3  502    0 -0.13659402149E+03  0.24486064955E+03 -0.55217081830E+03  0.61927964361E+03  0.25500000920E-02 0.  1.
       -2    1    3    3    0  502  0.13659402149E+03 -0.24486064955E+03  0.50929845059E+03  0.58137730966E+03  0.25500000920E-02 0. -1.
</event>
<event>
 5   0  0.5745487E-05  0.1199953E+04  0.7818609E-02  0.9112898E-01
       -1   -1    0    0    0  501  0.00000000000E+00  0.00000000000E+00  0.56590705086E+03  0.56590705088E+03  0.50400001928E-02 0.  1.
        1   -1    0    0  501    0  0.00000000000E+00  0.00000000000E+00 -0.63609723490E+03  0.63609723492E+03  0.50400001928E-02 0. -1.
    10030    2    1    2    0    0  0.00000000000E+00  0.00000000000E+00 -0.70190184038E+02  0.12020042858E+04  0.11999531829E+04 0.  0.
        3    1    3    3  502    0  0.54764028265E+03 -0.17785130934E+03  0.13380787069E+03  0.59113917471E+03  0.10100000352E+00 0.  1.
       -3    1    3    3    0  502 -0.54764028265E+03  0.17785130934E+03 -0.20399805473E+03  0.61086511109E+03  0.10100000352E+00 0. -1.
</event>
<event>
 5   0  0.3839750E-05  0.1200234E+04  0.7818609E-02  0.9112652E-01
        3   -1    0    0  501    0  0.00000000000E+00  0.00000000000E+00  0.84698274144E+03  0.84698274747E+03  0.10100000352E+00 0. -1.
       -3   -1    0    0    0  501  0.00000000000E+00  0.00000000000E+00 -0.42520384665E+03  0.42520385864E+03  0.10100000352E+00 0.  1.
    10030    2    1    2    0    0  0.00000000000E+00  0.00000000000E+00  0.42177889480E+03  0.12721866061E+04  0.12002338625E+04 0.  0.
        3    1    3    3  502    0  0.97967708085E+02 -0.13721980801E+03 -0.39958351494E+03  0.43369798611E+03  0.10100000352E+00 0.  1.
       -3    1    3    3    0  502 -0.97967708085E+02  0.13721980801E+03  0.82136240974E+03  0.83848862000E+03  0.10100000352E+00 0. -1.
</event>
<event>
 5   0  0.1023063E-04  0.1199782E+04  0.7818609E-02  0.9113048E-01
       -2   -1    0    0    0  501  0.00000000000E+00  0.00000000000E+00  0.43011974191E+03  0.43011974191E+03  0.25500000920E-02 0. -1.
        2   -1    0    0  501    0  0.00000000000E+00  0.00000000000E+00 -0.83667173415E+03  0.83667173415E+03  0.25500000920E-02 0.  1.
    10030    2    1    2    0    0  0.00000000000E+00  0.00000000000E+00 -0.40655199224E+03  0.12667914761E+04  0.11997816974E+04 0.  0.
        3    1    3    3  502    0 -0.43875692146E+03 -0.30236037918E+03  0.87686497472E+02  0.54001700627E+03  0.10100000352E+00 0.  1.
       -3    1    3    3    0  502  0.43875692146E+03  0.30236037918E+03 -0.49423848972E+03  0.72677446979E+03  0.10100000352E+00 0. -1.
</event>
<event>
 5   0  0.5620246E-05  0.1199370E+04  0.7818609E-02  0.9113408E-01
       -1   -1    0    0    0  501  0.00000000000E+00  0.00000000000E+00  0.21715953642E+03  0.21715953648E+03  0.50400001928E-02 0. -1.
        1   -1    0    0  501    0  0.00000000000E+00  0.00000000000E+00 -0.16560283907E+04  0.16560283907E+04  0.50400001928E-02 0.  1.
    10030    2    1    2    0    0  0.00000000000E+00  0.00000000000E+00 -0.14388688543E+04  0.18731879272E+04  0.11993704310E+04 0.  0.
        1    1    3    3  502    0 -0.19358433331E+03 -0.48383276189E+03 -0.11828822915E+04  0.12925863806E+04  0.50400001928E-02 0.  1.
       -1    1    3    3    0  502  0.19358433331E+03  0.48383276189E+03 -0.25598656271E+03  0.58060154659E+03  0.50400001928E-02 0. -1.
</event>
<event>
 5   0  0.9941209E-05  0.1200187E+04  0.7818609E-02  0.9112693E-01
        2   -1    0    0  501    0  0.00000000000E+00  0.00000000000E+00  0.61398472257E+03  0.61398472257E+03  0.25500000920E-02 0. -1.
       -2   -1    0    0    0  501  0.00000000000E+00  0.00000000000E+00 -0.58651684707E+03  0.58651684707E+03  0.25500000920E-02 0.  1.
    10030    2    1    2    0    0  0.00000000000E+00  0.00000000000E+00  0.27467875501E+02  0.12005015696E+04  0.12001872914E+04 0.  0.
        2    1    3    3  502    0  0.59515745768E+03  0.56221694951E+02 -0.38616228554E+02  0.59905299559E+03  0.25500000920E-02 0. -1.
       -2    1    3    3    0  502 -0.59515745768E+03 -0.56221694951E+02  0.66084104056E+02  0.60144857405E+03  0.25500000920E-02 0.  1.
</event>
<event>
 5   0  0.5447807E-05  0.1199262E+04  0.7818609E-02  0.9113503E-01
        1   -1    0    0  501    0  0.00000000000E+00  0.00000000000E+00  0.65473280510E+03  0.65473280512E+03  0.50400001928E-02 0.  1.
       -1   -1    0    0    0  501  0.00000000000E+00  0.00000000000E+00 -0.54916629100E+03  0.54916629103E+03  0.50400001928E-02 0. -1.
    10030    2    1    2    0    0  0.00000000000E+00  0.00000000000E+00  0.10556651410E+03  0.12038990961E+04  0.11992617499E+04 0.  0.
        2    1    3    3  502    0  0.15132866578E+03 -0.16365998466E+03  0.61159745952E+03  0.65095038840E+03  0.25500000920E-02 0.  1.
       -2    1    3    3    0  502 -0.15132866578E+03  0.16365998466E+03 -0.50603094542E+03  0.55294870774E+03  0.25500000920E-02 0. -1.
</event>
<event>
 5   0  0.1023063E-04  0.1199507E+04  0.7818609E-02  0.9113288E-01
       -2   -1    0    0    0  501  0.00000000000E+00  0.00000000000E+00  0.35005250847E+03  0.35005250848E+03  0.25500000920E-02 0. -1.
        2   -1    0    0  501    0  0.00000000000E+00  0.00000000000E+00 -0.10275717684E+04  0.10275717684E+04  0.25500000920E-02 0.  1.
    10030    2    1    2    0    0  0.00000000000E+00  0.00000000000E+00 -0.67751925996E+03  0.13776242769E+04  0.11995066906E+04 0.  0.
        3    1    3    3  502    0 -0.58760986745E+03 -0.67472461631E+02 -0.45283779654E+03  0.74491608224E+03  0.10100000352E+00 0.  1.
       -3    1    3    3    0  502  0.58760986745E+03  0.67472461631E+02 -0.22468146342E+03  0.63270819467E+03  0.10100000352E+00 0. -1.
</event>
<event>
 5   0  0.1004006E-04  0.1199320E+04  0.7818609E-02  0.9113452E-01
       -2   -1    0    0    0  501  0.00000000000E+00  0.00000000000E+00  0.41202361688E+03  0.41202361689E+03  0.25500000920E-02 0. -1.
        2   -1    0    0  501    0  0.00000000000E+00  0.00000000000E+00 -0.87274687128E+03  0.87274687128E+03  0.25500000920E-02 0.  1.
    10030    2    1    2    0    0  0.00000000000E+00  0.00000000000E+00 -0.46072325439E+03  0.12847704882E+04  0.11993203451E+04 0.  0.
        5    1    3    3  502    0 -0.28285521763E+03 -0.27631015915E+02 -0.79599690861E+03  0.84522406242E+03  0.46999998093E+01 0.  1.
       -5    1    3    3    0  502  0.28285521763E+03  0.27631015915E+02  0.33527365422E+03  0.43954642575E+03  0.46999998093E+01 0. -1.
</event>
<event>
 5   0  0.5447807E-05  0.1200263E+04  0.7818609E-02  0.9112626E-01
        1   -1    0    0  501    0  0.00000000000E+00  0.00000000000E+00  0.14063057165E+04  0.14063057165E+04  0.50400001928E-02 0. -1.
       -1   -1    0    0    0  501  0.00000000000E+00  0.00000000000E+00 -0.25610218361E+03  0.25610218366E+03  0.50400001928E-02 0.  1.
    10030    2    1    2    0    0  0.00000000000E+00  0.00000000000E+00  0.11502035329E+04  0.16624079002E+04  0.12002632459E+04 0.  0.
        2    1    3    3  502    0  0.33300961787E+03 -0.49698675764E+03  0.64104347827E+03  0.87682836627E+03  0.25500000920E-02 0.  1.
       -2    1    3    3    0  502 -0.33300961787E+03  0.49698675764E+03  0.50916005463E+03  0.78557953391E+03  0.25500000920E-02 0. -1.
</event>
<event>
 5   0  0.1023063E-04  0.1199107E+04  0.7818609E-02  0.9113639E-01
       -2   -1    0    0    0  501  0.00000000000E+00  0.00000000000E+00  0.18660809548E+03  0.18660809550E+03  0.25500000920E-02 0.  1.
        2   -1    0    0  501    0  0.00000000000E+00  0.00000000000E+00 -0.19263062997E+04  0.19263062997E+04  0.25500000920E-02 0. -1.
    10030    2    1    2    0    0  0.00000000000E+00  0.00000000000E+00 -0.17396982043E+04  0.21129143952E+04  0.11991069175E+04 0.  0.
        3    1    3    3  502    0  0.55356807739E+02  0.19060869296E+03  0.12703648757E+03  0.23565722855E+03  0.10100000352E+00 0.  1.
       -3    1    3    3    0  502 -0.55356807739E+02 -0.19060869296E+03 -0.18667346918E+04  0.18772571667E+04  0.10100000352E+00 0. -1.
</event>
<event>
 5   0  0.1012657E-04  0.1200038E+04  0.7818609E-02  0.9112823E-01
        2   -1    0    0  501    0  0.00000000000E+00  0.00000000000E+00  0.12009974492E+04  0.12009974492E+04  0.25500000920E-02 0.  1.
       -2   -1    0    0    0  501  0.00000000000E+00  0.00000000000E+00 -0.29976990363E+03  0.29976990364E+03  0.25500000920E-02 0. -1.
    10030    2    1    2    0    0  0.00000000000E+00  0.00000000000E+00  0.90122754555E+03  0.15007673528E+04  0.12000381487E+04 0.  0.
        1    1    3    3  502    0 -0.42105315204E+03  0.30463296824E+03  0.75567517578E+02  0.52516421424E+03  0.50400001928E-02 0. -1.
       -1    1    3    3    0  502  0.42105315204E+03 -0.30463296824E+03  0.82566002798E+03  0.97560313858E+03  0.50400001928E-02 0.  1.
</event>
<event>
 5   0  0.5745487E-05  0.1200084E+04  0.7818609E-02  0.9112783E-01
       -1   -1    0    0    0  501  0.00000000000E+00  0.00000000000E+00  0.38715927984E+03  0.38715927988E+03  0.50400001928E-02 0. -1.
        1   -1    0    0  501    0  0.00000000000E+00  0.00000000000E+00 -0.92998066852E+03  0.92998066853E+03  0.50400001928E-02 0.  1.
    10030    2    1    2    0    0  0.00000000000E+00  0.00000000000E+00 -0.54282138867E+03  0.13171399484E+04  0.12000844069E+04 0.  0.
        3    1    3    3  502    0 -0.53784316396E+03  0.19199996504E+03 -0.69298339726E+02  0.57527517388E+03  0.10100000352E+00 0. -1.
       -3    1    3    3    0  502  0.53784316396E+03 -0.19199996504E+03 -0.47352304895E+03  0.74186477453E+03  0.10100000352E+00 0.  1.
</event>
<event>
 5   0  0.1023063E-04  0.1199812E+04  0.7818609E-02  0.9113021E-01
        2   -1    0    0  501    0  0.00000000000E+00  0.00000000000E+00  0.34205397707E+03  0.34205397708E+03  0.25500000920E-02 0. -1.
       -2   -1    0    0    0  501  0.00000000000E+00  0.00000000000E+00 -0.10521355804E+04  0.10521355804E+04  0.25500000920E-02 0.  1.
    10030    2    1    2    0    0  0.00000000000E+00  0.00000000000E+00 -0.71008160331E+03  0.13941895574E+04  0.11998119181E+04 0.  0.
        3    1    3    3  502    0 -0.35748979083E+03 -0.33394174895E+03 -0.75852848158E+03  0.90259709162E+03  0.10100000352E+00 0.  1.
       -3    1    3    3    0  502  0.35748979083E+03  0.33394174895E+03  0.48446878273E+02  0.49159246583E+03  0.10100000352E+00 0. -1.
</event>
<event>
 5   0  0.5732931E-05  0.1200618E+04  0.7818609E-02  0.9112316E-01
        1   -1    0    0  501    0  0.00000000000E+00  0.00000000000E+00  0.55779895393E+03  0.55779895395E+03  0.50400001928E-02 0.  1.
       -1   -1    0    0    0  501  0.00000000000E+00  0.00000000000E+00 -0.64605833582E+03  0.64605833584E+03  0.50400001928E-02 0. -1.
    10030    2    1    2    0    0  0.00000000000E+00  0.00000000000E+00 -0.88259381899E+02  0.12038572898E+04  0.12006176143E+04 0.  0.
        4    1    3    3  502    0  0.23988214607E+03 -0.50876297456E+03  0.16616424759E+03  0.58651119202E+03  0.12699999809E+01 0.  1.
       -4    1    3    3    0  502 -0.23988214607E+03  0.50876297456E+03 -0.25442362949E+03  0.61734609777E+03  0.12699999809E+01 0. -1.
</event>
<event>
 5   0  0.5620246E-05  0.1200519E+04  0.7818609E-02  0.9112403E-01
       -1   -1    0    0    0  501  0.00000000000E+00  0.00000000000E+00  0.17557505152E+03  0.17557505159E+03  0.50400001928E-02 0. -1.
        1   -1    0    0  501    0  0.00000000000E+00  0.00000000000E+00 -0.20521774978E+04  0.20521774978E+04  0.50400001928E-02 0.  1.
    10030    2    1    2    0    0  0.00000000000E+00  0.00000000000E+00 -0.18766024462E+04  0.22277525494E+04  0.12005185046E+04 0.  0.
        1    1    3    3  502    0 -0.28158297150E+03  0.12520483406E+03 -0.18941833079E+04  0.19190871852E+04  0.50400001928E-02 0.  1.
       -1    1    3    3    0  502  0.28158297150E+03 -0.12520483406E+03  0.17580861687E+02  0.30866536417E+03  0.50400001928E-02 0. -1.
</event>
<event>
 5   0  0.5745487E-05  0.1198087E+04  0.7818609E-02  0.9114532E-01
       -1   -1    0    0    0  501  0.00000000000E+00  0.00000000000E+00  0.98286107083E+03  0.98286107085E+03  0.50400001928E-02 0.  1.
        1   -1    0    0  501    0  0.00000000000E+00  0.00000000000E+00 -0.36511102393E+03  0.36511102396E+03  0.50400001928E-02 0. -1.
    10030    2    1    2    0    0  0.00000000000E+00  0.00000000000E+00  0.61775004691E+03  0.13479720948E+04  0.11980874959E+04 0.  0.
        3    1    3    3  502    0 -0.67235211512E+02 -0.42543084067E+03 -0.15955373602E+03  0.45931403064E+03  0.10100000352E+00 0. -1.
       -3    1    3    3    0  502  0.67235211512E+02  0.42543084067E+03  0.77730378293E+03  0.88865806417E+03  0.10100000352E+00 0.  1.
</event>
<event>
 5   0  0.9838215E-05  0.1201730E+04  0.7818609E-02  0.9111344E-01
        2   -1    0    0  501    0  0.00000000000E+00  0.00000000000E+00  0.99327468141E+03  0.99327468141E+03  0.25500000920E-02 0. -1.
       -2   -1    0    0    0  501  0.00000000000E+00  0.00000000000E+00 -0.36348317920E+03  0.36348317921E+03  0.25500000920E-02 0.  1.
    10030    2    1    2    0    0  0.00000000000E+00  0.00000000000E+00  0.62979150220E+03  0.13567578606E+04  0.12017298183E+04 0.  0.
        4    1    3    3  502    0  0.31145963898E+03 -0.41419788018E+03  0.65821331417E+03  0.83774302176E+03  0.12699999809E+01 0. -1.
       -4    1    3    3    0  502 -0.31145963898E+03  0.41419788018E+03 -0.28421811965E+02  0.51901483886E+03  0.12699999809E+01 0.  1.
</event>
<event>
 5   0  0.9838215E-05  0.1200322E+04  0.7818609E-02  0.9112574E-01
       -2   -1    0    0    0  501  0.00000000000E+00  0.00000000000E+00  0.80431516718E+03  0.80431516718E+03  0.25500000920E-02 0.  1.
        2   -1    0    0  501    0  0.00000000000E+00  0.00000000000E+00 -0.44782628920E+03  0.44782628920E+03  0.25500000920E-02 0. -1.
    10030    2    1    2    0    0  0.00000000000E+00  0.00000000000E+00  0.35648887798E+03  0.12521414564E+04  0.12003224178E+04 0.  0.
        4    1    3    3  502    0  0.18964103639E+03  0.33018235963E+03  0.66217653982E+03  0.76384782260E+03  0.12699999809E+01 0.  1.
       -4    1    3    3    0  502 -0.18964103639E+03 -0.33018235963E+03 -0.30568766184E+03  0.48829363379E+03  0.12699999809E+01 0. -1.
</event>
<event>
 5   0  0.3839750E-05  0.1196432E+04  0.7818609E-02  0.9115986E-01
        4   -1    0    0  501    0  0.00000000000E+00  0.00000000000E+00  0.63317019261E+03  0.63317146628E+03  0.12699999809E+01 0.  1.
       -4   -1    0    0    0  501  0.00000000000E+00  0.00000000000E+00 -0.56518863106E+03  0.56519005793E+03  0.12699999809E+01 0. -1.
    10030    2    1    2    0    0  0.00000000000E+00  0.00000000000E+00  0.67981561550E+02  0.11983615242E+04  0.11964317156E+04 0.  0.
        3    1    3    3  502    0  0.33897254223E+03  0.98399490045E+02  0.51775777430E+03  0.62662426307E+03  0.10100000352E+00 0.  1.
       -3    1    3    3    0  502 -0.33897254223E+03 -0.98399490045E+02 -0.44977621275E+03  0.57173726114E+03  0.10100000352E+00 0. -1.
</event>
<event>
 5   0  0.5745487E-05  0.1200222E+04  0.7818609E-02  0.9112662E-01
        1   -1    0    0  501    0  0.00000000000E+00  0.00000000000E+00  0.11689119173E+04  0.11689119173E+04  0.50400001928E-02 0. -1.
       -1   -1    0    0    0  501  0.00000000000E+00  0.00000000000E+00 -0.30809260902E+03  0.30809260906E+03  0.50400001928E-02 0.  1.
    10030    2    1    2    0    0  0.00000000000E+00  0.00000000000E+00  0.86081930829E+03  0.14770045264E+04  0.12002218501E+04 0.  0.
        3    1    3    3  502    0  0.30128925899E+03  0.38925457195E+03  0.85284904030E+03  0.98470596378E+03  0.10100000352E+00 0. -1.
       -3    1    3    3    0  502 -0.30128925899E+03 -0.38925457195E+03  0.79702679915E+01  0.49229856260E+03  0.10100000352E+00 0.  1.
</event>
<event>
 5   0  0.5625746E-05  0.1200133E+04  0.7818609E-02  0.9112740E-01
       -1   -1    0    0    0  501  0.00000000000E+00  0.00000000000E+00  0.61651777357E+03  0.61651777359E+03  0.50400001928E-02 0.  1.
        1   -1    0    0  501    0  0.00000000000E+00  0.00000000000E+00 -0.58405417553E+03  0.58405417555E+03  0.50400001928E-02 0. -1.
    10030    2    1    2    0    0  0.00000000000E+00  0.00000000000E+00  0.32463598039E+02  0.12005719491E+04  0.12001329592E+04 0.  0.
        5    1    3    3  502    0  0.17388090642E+03  0.56745247645E+03  0.10469947575E+03  0.60267815032E+03  0.46999998093E+01 0. -1.
       -5    1    3    3    0  502 -0.17388090642E+03 -0.56745247645E+03 -0.72235877712E+02  0.59789379883E+03  0.46999998093E+01 0.  1.
</event>
<event>
 5   0  0.9941209E-05  0.1199745E+04  0.7818609E-02  0.9113080E-01
       -2   -1    0    0    0  501  0.00000000000E+00  0.00000000000E+00  0.24969736625E+03  0.24969736626E+03  0.25500000920E-02 0.  1.
        2   -1    0    0  501    0  0.00000000000E+00  0.00000000000E+00 -0.14411320810E+04  0.14411320810E+04  0.25500000920E-02 0. -1.
    10030    2    1    2    0    0  0.00000000000E+00  0.00000000000E+00 -0.11914347147E+04  0.16908294472E+04  0.11997447813E+04 0.  0.
        2    1    3    3  502    0 -0.10167346672E+03 -0.30120525359E+03 -0.13126532178E+04  0.13506000774E+04  0.25500000920E-02 0. -1.
       -2    1    3    3    0  502  0.10167346672E+03  0.30120525359E+03  0.12121850312E+03  0.34022936988E+03  0.25500000920E-02 0.  1.
</event>
<event>
 5   0  0.1023063E-04  0.1192739E+04  0.7818609E-02  0.9119236E-01
       -2   -1    0    0    0  501  0.00000000000E+00  0.00000000000E+00  0.19786894050E+03  0.19786894052E+03  0.25500000920E-02 0. -1.
        2   -1    0    0  501    0  0.00000000000E+00  0.00000000000E+00 -0.17974355891E+04  0.17974355891E+04  0.25500000920E-02 0.  1.
    10030    2    1    2    0    0  0.00000000000E+00  0.00000000000E+00 -0.15995666486E+04  0.19953045296E+04  0.11927391595E+04 0.  0.
        3    1    3    3  502    0 -0.29289859133E+03  0.12186450756E+03 -0.16445709220E+04  0.16748892712E+04  0.10100000352E+00 0.  1.
       -3    1    3    3    0  502  0.29289859133E+03 -0.12186450756E+03  0.45004273424E+02  0.32041525843E+03  0.10100000352E+00 0. -1.
</event>
<event>
 5   0  0.1012657E-04  0.1200045E+04  0.7818609E-02  0.9112817E-01
        2   -1    0    0  501    0  0.00000000000E+00  0.00000000000E+00  0.59241256689E+03  0.59241256689E+03  0.25500000920E-02 0. -1.
       -2   -1    0    0    0  501  0.00000000000E+00  0.00000000000E+00 -0.60773000854E+03  0.60773000855E+03  0.25500000920E-02 0.  1.
    10030    2    1    2    0    0  0.00000000000E+00  0.00000000000E+00 -0.15317441656E+02  0.12001425754E+04  0.12000448231E+04 0.  0.
        1    1    3    3  502    0 -0.25299667652E+03 -0.26129357981E+03 -0.48492420843E+03  0.60616263587E+03  0.50400001928E-02 0.  1.
       -1    1    3    3    0  502  0.25299667652E+03  0.26129357981E+03  0.46960676677E+03  0.59397993957E+03  0.50400001928E-02 0. -1.
</event>
<event>
 5   0  0.9941209E-05  0.1199819E+04  0.7818609E-02  0.9113015E-01
       -2   -1    0    0    0  501  0.00000000000E+00  0.00000000000E+00  0.42404202236E+03  0.42404202237E+03  0.25500000920E-02 0.  1.
        2   -1    0    0  501    0  0.00000000000E+00  0.00000000000E+00 -0.84871601056E+03  0.84871601057E+03  0.25500000920E-02 0. -1.
    10030    2    1    2    0    0  0.00000000000E+00  0.00000000000E+00 -0.42467398820E+03  0.12727580329E+04  0.11998187422E+04 0.  0.
        2    1    3    3  502    0  0.59826606933E+03 -0.33748091160E+02 -0.24289866847E+03  0.64657635784E+03  0.25500000920E-02 0. -1.
       -2    1    3    3    0  502 -0.59826606933E+03  0.33748091160E+02 -0.18177531973E+03  0.62618167510E+03  0.25500000920E-02 0.  1.
</event>
<event>
 5   0  0.1023063E-04  0.1200576E+04  0.7818609E-02  0.9112353E-01
        2   -1    0    0  501    0  0.00000000000E+00  0.00000000000E+00  0.13752585296E+04  0.13752585296E+04  0.25500000920E-02 0. -1.
       -2   -1    0    0    0  501  0.00000000000E+00  0.00000000000E+00 -0.26202025196E+03  0.26202025197E+03  0.25500000920E-02 0.  1.
    10030    2    1    2    0    0  0.00000000000E+00  0.00000000000E+00  0.11132382777E+04  0.16372787816E+04  0.12005758393E+04 0.  0.
        3    1    3    3  502    0  0.23733997680E+02  0.59981176096E+03  0.55273186382E+03  0.81599630803E+03  0.10100000352E+00 0.  1.
       -3    1    3    3    0  502 -0.23733997680E+02 -0.59981176096E+03  0.56050641384E+03  0.82128247357E+03  0.10100000352E+00 0. -1.
</event>
<event>
 5   0  0.5745487E-05  0.1200226E+04  0.7818609E-02  0.9112659E-01
        1   -1    0    0  501    0  0.00000000000E+00  0.00000000000E+00  0.74198547052E+03  0.74198547054E+03  0.50400001928E-02 0.  1.
       -1   -1    0    0    0  501  0.00000000000E+00  0.00000000000E+00 -0.48536743378E+03  0.48536743380E+03  0.50400001928E-02 0. -1.
    10030    2    1    2    0    0  0.00000000000E+00  0.00000000000E+00  0.25661803674E+03  0.12273529043E+04  0.12002259516E+04 0.  0.
        3    1    3    3  502    0 -0.18902022860E+03 -0.20985965965E+03  0.66977228404E+03  0.72688695561E+03  0.10100000352E+00 0.  1.
       -3    1    3    3    0  502  0.18902022860E+03  0.20985965965E+03 -0.41315424730E+03  0.50046594872E+03  0.10100000352E+00 0. -1.
</event>
<event>
 5   0  0.1004006E-04  0.1199831E+04  0.7818609E-02  0.9113005E-01
        2   -1    0    0  501    0  0.00000000000E+00  0.00000000000E+00  0.17182262393E+04  0.17182262393E+04  0.25500000920E-02 0.  1.
       -2   -1    0    0    0  501  0.00000000000E+00  0.00000000000E+00 -0.20945922729E+03  0.20945922730E+03  0.25500000920E-02 0. -1.
    10030    2    1    2    0    0  0.00000000000E+00  0.00000000000E+00  0.15087670120E+04  0.19276854666E+04  0.11998305554E+04 0.  0.
        5    1    3    3  502    0 -0.27498524619E+03  0.15378672140E+01 -0.10220420472E+03  0.29340593061E+03  0.46999998093E+01 0. -1.
       -5    1    3    3    0  502  0.27498524619E+03 -0.15378672140E+01  0.16109712167E+04  0.16342795360E+04  0.46999998093E+01 0.  1.
</event>
<event>
 5   0  0.5625746E-05  0.1200680E+04  0.7818609E-02  0.9112262E-01
        1   -1    0    0  501    0  0.00000000000E+00  0.00000000000E+00  0.63602534223E+03  0.63602534225E+03  0.50400001928E-02 0. -1.
       -1   -1    0    0    0  501  0.00000000000E+00  0.00000000000E+00 -0.56665669151E+03  0.56665669153E+03  0.50400001928E-02 0.  1.
    10030    2    1    2    0    0  0.00000000000E+00  0.00000000000E+00  0.69368650719E+02  0.12026820338E+04  0.12006798344E+04 0.  0.
        5    1    3    3  502    0  0.69538593543E+02  0.29893019671E+03  0.55148173653E+03  0.63114901111E+03  0.46999998093E+01 0. -1.
       -5    1    3    3    0  502 -0.69538593543E+02 -0.29893019671E+03 -0.48211308581E+03  0.57153302267E+03  0.46999998093E+01 0.  1.
</event>
<event>
 5   0  0.5745487E-05  0.1199959E+04  0.7818609E-02  0.9112893E-01
        1   -1    0    0  501    0  0.00000000000E+00  0.00000000000E+00  0.98802793768E+03  0.98802793769E+03  0.50400001928E-02 0. -1.
       -1   -1    0    0    0  501  0.00000000000E+00  0.00000000000E+00 -0.36433713480E+03  0.36433713483E+03  0.50400001928E-02 0.  1.
    10030    2    1    2    0    0  0.00000000000E+00  0.00000000000E+00  0.62369080288E+03  0.13523650725E+04  0.11999587792E+04 0.  0.
        3    1    3    3  502    0  0.24718739769E+02  0.46908861196E+03  0.73250861151E+03  0.87018619738E+03  0.10100000352E+00 0. -1.
       -3    1    3    3    0  502 -0.24718739769E+02 -0.46908861196E+03 -0.10881780864E+03  0.48217887515E+03  0.10100000352E+00 0.  1.
</event>
<event>
 5   0  0.1023063E-04  0.1201298E+04  0.7818609E-02  0.9111721E-01
       -2   -1    0    0    0  501  0.00000000000E+00  0.00000000000E+00  0.15633658564E+04  0.15633658564E+04  0.25500000920E-02 0. -1.
        2   -1    0    0  501    0  0.00000000000E+00  0.00000000000E+00 -0.23077074702E+03  0.23077074704E+03  0.25500000920E-02 0.  1.
    10030    2    1    2    0    0  0.00000000000E+00  0.00000000000E+00  0.13325951094E+04  0.17941366034E+04  0.12012978091E+04 0.  0.
        3    1    3    3  502    0  0.46354433753E+03 -0.31548226862E+03  0.34466895704E+03  0.65817863443E+03  0.10100000352E+00 0.  1.
       -3    1    3    3    0  502 -0.46354433753E+03  0.31548226862E+03  0.98792615235E+03  0.11359579690E+04  0.10100000352E+00 0. -1.
</event>
<event>
 5   0  0.5620246E-05  0.1199664E+04  0.7818609E-02  0.9113151E-01
       -1   -1    0    0    0  501  0.00000000000E+00  0.00000000000E+00  0.24625188819E+03  0.24625188825E+03  0.50400001928E-02 0.  1.
        1   -1    0    0  501    0  0.00000000000E+00  0.00000000000E+00 -0.14610986172E+04  0.14610986172E+04  0.50400001928E-02 0. -1.
    10030    2    1    2    0    0  0.00000000000E+00  0.00000000000E+00 -0.12148467290E+04  0.17073505055E+04  0.11996637752E+04 0.  0.
        1    1    3    3  502    0  0.28989329221E+03  0.52497821835E+03 -0.58953171353E+03  0.84094464259E+03  0.50400001928E-02 0.  1.
       -1    1    3    3    0  502 -0.28989329221E+03 -0.52497821835E+03 -0.62531501547E+03  0.86640586286E+03  0.50400001928E-02 0. -1.
</event>
<event>
 5   0  0.5745487E-05  0.1199833E+04  0.7818609E-02  0.9113003E-01
       -1   -1    0    0    0  501  0.00000000000E+00  0.00000000000E+00  0.87267713954E+03  0.87267713955E+03  0.50400001928E-02 0.  1.
        1   -1    0    0  501    0  0.00000000000E+00  0.00000000000E+00 -0.41240873017E+03  0.41240873020E+03  0.50400001928E-02 0. -1.
    10030    2    1    2    0    0  0.00000000000E+00  0.00000000000E+00  0.46026840937E+03  0.12850858698E+04  0.11998327733E+04 0.  0.
        3    1    3    3  502    0  0.41950066863E+03 -0.19935675976E+03  0.63681860182E+03  0.78820166866E+03  0.10100000352E+00 0.  1.
       -3    1    3    3    0  502 -0.41950066863E+03  0.19935675976E+03 -0.17655019245E+03  0.49688420110E+03  0.10100000352E+00 0. -1.
</event>
<event>
 5   0  0.5447807E-05  0.1199996E+04  0.7818609E-02  0.9112860E-01
       -1   -1    0    0    0  501  0.00000000000E+00  0.00000000000E+00  0.21204807469E+03  0.21204807475E+03  0.50400001928E-02 0. -1.
        1   -1    0    0  501    0  0.00000000000E+00  0.00000000000E+00 -0.16977172858E+04  0.16977172858E+04  0.50400001928E-02 0.  1.
    10030    2    1    2    0    0  0.00000000000E+00  0.00000000000E+00 -0.14856692111E+04  0.19097653605E+04  0.11999961364E+04 0.  0.
        2    1    3    3  502    0 -0.40043645115E+03 -0.64527842893E+02 -0.39185217106E+02  0.40749070562E+03  0.25500000920E-02 0. -1.
       -2    1    3    3    0  502  0.40043645115E+03  0.64527842893E+02 -0.14464839940E+04  0.15022746549E+04  0.25500000920E-02 0.  1.
</event>
<event>
 5   0  0.5625746E-05  0.1199729E+04  0.7818609E-02  0.9113094E-01
       -1   -1    0    0    0  501  0.00000000000E+00  0.00000000000E+00  0.62161122902E+03  0.62161122904E+03  0.50400001928E-02 0. -1.
        1   -1    0    0  501    0  0.00000000000E+00  0.00000000000E+00 -0.57887855219E+03  0.57887855222E+03  0.50400001928E-02 0.  1.
    10030    2    1    2    0    0  0.00000000000E+00  0.00000000000E+00  0.42732676829E+02  0.12004897813E+04  0.11997289832E+04 0.  0.
        5    1    3    3  502    0  0.58890169723E+03  0.11311586968E+03  0.66972554928E+01  0.59972272943E+03  0.46999998093E+01 0. -1.
       -5    1    3    3    0  502 -0.58890169723E+03 -0.11311586968E+03  0.36035421336E+02  0.60076705183E+03  0.46999998093E+01 0.  1.
</event>
<event>
 5   0  0.9838215E-05  0.1199624E+04  0.7818609E-02  0.9113186E-01
        2   -1    0    0  501    0  0.00000000000E+00  0.00000000000E+00  0.75380788164E+03  0.75380788164E+03  0.25500000920E-02 0.  1.
       -2   -1    0    0    0  501  0.00000000000E+00  0.00000000000E+00 -0.47727604997E+03  0.47727604998E+03  0.25500000920E-02 0. -1.
    10030    2    1    2    0    0  0.00000000000E+00  0.00000000000E+00  0.27653183167E+03  0.12310839316E+04  0.11996240214E+04 0.  0.
        4    1    3    3  502    0  0.19071949650E+03  0.13721766777E+03  0.70461764162E+03  0.74275853982E+03  0.12699999809E+01 0.  1.
       -4    1    3    3    0  502 -0.19071949650E+03 -0.13721766777E+03 -0.42808580995E+03  0.48832539180E+03  0.12699999809E+01 0. -1.
</event>
<event>
 5   0  0.1012657E-04  0.1200341E+04  0.7818609E-02  0.9112558E-01
        2   -1    0    0  501    0  0.00000000000E+00  0.00000000000E+00  0.13580921370E+04  0.13580921370E+04  0.25500000920E-02 0. -1.
       -2   -1    0    0    0  501  0.00000000000E+00  0.00000000000E+00 -0.26522862777E+03  0.26522862779E+03  0.25500000920E-02 0.  1.
    10030    2    1    2    0    0  0.00000000000E+00  0.00000000000E+00  0.10928635092E+04  0.16233207648E+04  0.12003414746E+04 0.  0.
        1    1    3    3  502    0  0.44638377971E+03  0.12604966512E+03  0.10615064924E+04  0.11584226476E+04  0.50400001928E-02 0. -1.
       -1    1    3    3    0  502 -0.44638377971E+03 -0.12604966512E+03  0.31357016775E+02  0.46489811722E+03  0.50400001928E-02 0.  1.
</event>
<event>
 5   0  0.5732931E-05  0.1199858E+04  0.7818609E-02  0.9112981E-01
        1   -1    0    0  501    0  0.00000000000E+00  0.00000000000E+00  0.69877530163E+03  0.69877530164E+03  0.50400001928E-02 0. -1.
       -1   -1    0    0    0  501  0.00000000000E+00  0.00000000000E+00 -0.51506525966E+03  0.51506525969E+03  0.50400001928E-02 0.  1.
    10030    2    1    2    0    0  0.00000000000E+00  0.00000000000E+00  0.18371004196E+03  0.12138405613E+04  0.11998581286E+04 0.  0.
        4    1    3    3  502    0  0.35542763383E+03 -0.44986395068E+03  0.27056837626E+03  0.63396785103E+03  0.12699999809E+01 0. -1.
       -4    1    3    3    0  502 -0.35542763383E+03  0.44986395068E+03 -0.86858334298E+02  0.57987271030E+03  0.12699999809E+01 0.  1.
</event>
<event>
 5   0  0.9941209E-05  0.1200069E+04  0.7818609E-02  0.9112796E-01
        2   -1    0    0  501    0  0.00000000000E+00  0.00000000000E+00  0.12619367593E+04  0.12619367593E+04  0.25500000920E-02 0. -1.
       -2   -1    0    0    0  501  0.00000000000E+00  0.00000000000E+00 -0.28530857216E+03  0.28530857217E+03  0.25500000920E-02 0.  1.
    10030    2    1    2    0    0  0.00000000000E+00  0.00000000000E+00  0.97662818713E+03  0.15472453315E+04  0.12000689563E+04 0.  0.
        2    1    3    3  502    0 -0.58876390089E+03 -0.99758041501E+02  0.56400776652E+03  0.82140085132E+03  0.25500000920E-02 0. -1.
       -2    1    3    3    0  502  0.58876390089E+03  0.99758041501E+02  0.41262042060E+03  0.72584448014E+03  0.25500000920E-02 0.  1.
</event>
<event>
 5   0  0.5625746E-05  0.1200456E+04  0.7818609E-02  0.9112457E-01
        1   -1    0    0  501    0  0.00000000000E+00  0.00000000000E+00  0.82193959781E+03  0.82193959783E+03  0.50400001928E-02 0. -1.
       -1   -1    0    0    0  501  0.00000000000E+00  0.00000000000E+00 -0.43832132316E+03  0.43832132319E+03  0.50400001928E-02 0.  1.
    10030    2    1    2    0    0  0.00000000000E+00  0.00000000000E+00  0.38361827465E+03  0.12602609210E+04  0.12004560002E+04 0.  0.
        5    1    3    3  502    0  0.21731405589E+03  0.49548686154E+03 -0.80979960183E+02  0.54709457390E+03  0.46999998093E+01 0.  1.
       -5    1    3    3    0  502 -0.21731405589E+03 -0.49548686154E+03  0.46459823484E+03  0.71316634711E+03  0.46999998093E+01 0. -1.
</event>
<event>
 5   0  0.9941209E-05  0.1200440E+04  0.7818609E-02  0.9112471E-01
        2   -1    0    0  501    0  0.00000000000E+00  0.00000000000E+00  0.47907542884E+03  0.47907542884E+03  0.25500000920E-02 0. -1.
       -2   -1    0    0    0  501  0.00000000000E+00  0.00000000000E+00 -0.75199879882E+03  0.75199879883E+03  0.25500000920E-02 0.  1.
    10030    2    1    2    0    0  0.00000000000E+00  0.00000000000E+00 -0.27292336999E+03  0.12310742277E+04  0.12004401643E+04 0.  0.
        2    1    3    3  502    0 -0.25106246965E+03  0.43276921841E+03 -0.47649909358E+03  0.69092180908E+03  0.25500000920E-02 0.  1.
       -2    1    3    3    0  502  0.25106246965E+03 -0.43276921841E+03  0.20357572359E+03  0.54015241859E+03  0.25500000920E-02 0. -1.
</event>
<event>
 5   0  0.5447807E-05  0.1199969E+04  0.7818609E-02  0.9112884E-01
        1   -1    0    0  501    0  0.00000000000E+00  0.00000000000E+00  0.10043195125E+04  0.10043195125E+04  0.50400001928E-02 0.  1.
       -1   -1    0    0    0  501  0.00000000000E+00  0.00000000000E+00 -0.35843321490E+03  0.35843321494E+03  0.50400001928E-02 0. -1.
    10030    2    1    2    0    0  0.00000000000E+00  0.00000000000E+00  0.64588629761E+03  0.13627527275E+04  0.11999691191E+04 0.  0.
        2    1    3    3  502    0 -0.16678771018E+03 -0.27648008875E+03 -0.25134666659E+03  0.40918764223E+03  0.25500000920E-02 0. -1.
       -2    1    3    3    0  502  0.16678771018E+03  0.27648008875E+03  0.89723296419E+03  0.95356508524E+03  0.25500000920E-02 0.  1.
</event>
<event>
 5   0  0.5447807E-05  0.1201963E+04  0.7818609E-02  0.9111140E-01
       -1   -1    0    0    0  501  0.00000000000E+00  0.00000000000E+00  0.79739676393E+03  0.79739676394E+03  0.50400001928E-02 0.  1.
        1   -1    0    0  501    0  0.00000000000E+00  0.00000000000E+00 -0.45294736968E+03  0.45294736971E+03  0.50400001928E-02 0. -1.
    10030    2    1    2    0    0  0.00000000000E+00  0.00000000000E+00  0.34444939425E+03  0.12503441336E+04  0.12019630058E+04 0.  0.
        2    1    3    3  502    0 -0.22230174740E+03 -0.12592296538E+02 -0.40845771389E+03  0.46520354349E+03  0.25500000920E-02 0. -1.
       -2    1    3    3    0  502  0.22230174740E+03  0.12592296538E+02  0.75290710814E+03  0.78514059016E+03  0.25500000920E-02 0.  1.
</event>
<event>
 5   0  0.5447807E-05  0.1202558E+04  0.7818609E-02  0.9110621E-01
        1   -1    0    0  501    0  0.00000000000E+00  0.00000000000E+00  0.40812258719E+03  0.40812258722E+03  0.50400001928E-02 0.  1.
       -1   -1    0    0    0  501  0.00000000000E+00  0.00000000000E+00 -0.88585244209E+03  0.88585244210E+03  0.50400001928E-02 0. -1.
    10030    2    1    2    0    0  0.00000000000E+00  0.00000000000E+00 -0.47772985490E+03  0.12939750293E+04  0.12025579247E+04 0.  0.
        2    1    3    3  502    0  0.85752699046E+02 -0.45514298667E+03 -0.65145570137E+03  0.79931420265E+03  0.25500000920E-02 0. -1.
       -2    1    3    3    0  502 -0.85752699046E+02  0.45514298667E+03  0.17372584647E+03  0.49466082667E+03  0.25500000920E-02 0.  1.
</event>
<event>
 5   0  0.9941209E-05  0.1199969E+04  0.7818609E-02  0.9112884E-01
       -2   -1    0    0    0  501  0.00000000000E+00  0.00000000000E+00  0.96996195492E+03  0.96996195492E+03  0.25500000920E-02 0.  1.
        2   -1    0    0  501    0  0.00000000000E+00  0.00000000000E+00 -0.37112915974E+03  0.37112915975E+03  0.25500000920E-02 0. -1.
    10030    2    1    2    0    0  0.00000000000E+00  0.00000000000E+00  0.59883279518E+03  0.13410911147E+04  0.11999686084E+04 0.  0.
        2    1    3    3  502    0  0.16736711190E+03 -0.51048077202E+03  0.59800485215E+03  0.80387323127E+03  0.25500000920E-02 0.  1.
       -2    1    3    3    0  502 -0.16736711190E+03  0.51048077202E+03  0.82794302296E+00  0.53721788340E+03  0.25500000920E-02 0. -1.
</event>
<event>
 5   0  0.5625746E-05  0.1199225E+04  0.7818609E-02  0.9113535E-01
       -1   -1    0    0    0  501  0.00000000000E+00  0.00000000000E+00  0.38189702956E+03  0.38189702959E+03  0.50400001928E-02 0. -1.
        1   -1    0    0  501    0  0.00000000000E+00  0.00000000000E+00 -0.94144549627E+03  0.94144549628E+03  0.50400001928E-02 0.  1.
    10030    2    1    2    0    0  0.00000000000E+00  0.00000000000E+00 -0.55954846671E+03  0.13233425259E+04  0.11992251474E+04 0.  0.
        5    1    3    3  502    0 -0.19556954601E+03  0.16547134806E+03 -0.87799323445E+03  0.91461599816E+03  0.46999998093E+01 0.  1.
       -5    1    3    3    0  502  0.19556954601E+03 -0.16547134806E+03  0.31844476774E+03  0.40872652771E+03  0.46999998093E+01 0. -1.
</event>
<event>
 5   0  0.1004006E-04  0.1200271E+04  0.7818609E-02  0.9112620E-01
        2   -1    0    0  501    0  0.00000000000E+00  0.00000000000E+00  0.88680088610E+03  0.88680088610E+03  0.25500000920E-02 0.  1.
       -2   -1    0    0    0  501  0.00000000000E+00  0.00000000000E+00 -0.40613672160E+03  0.40613672161E+03  0.25500000920E-02 0. -1.
    10030    2    1    2    0    0  0.00000000000E+00  0.00000000000E+00  0.48066416450E+03  0.12929376077E+04  0.12002706438E+04 0.  0.
        5    1    3    3  502    0 -0.48554962469E+03 -0.17085934872E+03  0.57267901390E+03  0.77002253087E+03  0.46999998093E+01 0.  1.
       -5    1    3    3    0  502  0.48554962469E+03  0.17085934872E+03 -0.92014849399E+02  0.52291507684E+03  0.46999998093E+01 0. -1.
</event>
<event>
 5   0  0.1004006E-04  0.1199093E+04  0.7818609E-02  0.9113651E-01
        2   -1    0    0  501    0  0.00000000000E+00  0.00000000000E+00  0.90771285371E+03  0.90771285371E+03  0.25500000920E-02 0. -1.
       -2   -1    0    0    0  501  0.00000000000E+00  0.00000000000E+00 -0.39600170718E+03  0.39600170719E+03  0.25500000920E-02 0.  1.
    10030    2    1    2    0    0  0.00000000000E+00  0.00000000000E+00  0.51171114653E+03  0.13037145609E+04  0.11990927232E+04 0.  0.
        5    1    3    3  502    0 -0.95836322020E+02 -0.26868096880E+03 -0.31746663204E+03  0.42682691582E+03  0.46999998093E+01 0.  1.
       -5    1    3    3    0  502  0.95836322020E+02  0.26868096880E+03  0.82917777857E+03  0.87688764508E+03  0.46999998093E+01 0. -1.
</event>
<event>
 5   0  0.9838215E-05  0.1199592E+04  0.7818609E-02  0.9113214E-01
       -2   -1    0    0    0  501  0.00000000000E+00  0.00000000000E+00  0.36652045509E+03  0.36652045510E+03  0.25500000920E-02 0. -1.
        2   -1    0    0  501    0  0.00000000000E+00  0.00000000000E+00 -0.98154146842E+03  0.98154146843E+03  0.25500000920E-02 0.  1.
    10030    2    1    2    0    0  0.00000000000E+00  0.00000000000E+00 -0.61502101333E+03  0.13480619235E+04  0.11995916400E+04 0.  0.
        4    1    3    3  502    0 -0.32918520655E+03  0.36048210330E+03  0.84107769635E+02  0.49536448886E+03  0.12699999809E+01 0. -1.
       -4    1    3    3    0  502  0.32918520655E+03 -0.36048210330E+03 -0.69912878296E+03  0.85269743466E+03  0.12699999809E+01 0.  1.
</event>
<event>
 5   0  0.5732931E-05  0.1199966E+04  0.7818609E-02  0.9112886E-01
       -1   -1    0    0    0  501  0.00000000000E+00  0.00000000000E+00  0.12419309754E+04  0.12419309754E+04  0.50400001928E-02 0.  1.
        1   -1    0    0  501    0  0.00000000000E+00  0.00000000000E+00 -0.28985483296E+03  0.28985483300E+03  0.50400001928E-02 0. -1.
    10030    2    1    2    0    0  0.00000000000E+00  0.00000000000E+00  0.95207614248E+03  0.15317858084E+04  0.11999661586E+04 0.  0.
        4    1    3    3  502    0  0.10880441982E+03  0.29456991784E+03  0.11286506699E+04  0.11715219955E+04  0.12699999809E+01 0.  1.
       -4    1    3    3    0  502 -0.10880441982E+03 -0.29456991784E+03 -0.17657452747E+03  0.36026381295E+03  0.12699999809E+01 0. -1.
</event>
<event>
 5   0  0.5447807E-05  0.1200159E+04  0.7818609E-02  0.9112717E-01
        1   -1    0    0  501    0  0.00000000000E+00  0.00000000000E+00  0.69083000233E+03  0.69083000235E+03  0.50400001928E-02 0.  1.
       -1   -1    0    0    0  501  0.00000000000E+00  0.00000000000E+00 -0.52125042336E+03  0.52125042339E+03  0.50400001928E-02 0. -1.
    10030    2    1    2    0    0  0.00000000000E+00  0.00000000000E+00  0.16957957897E+03  0.12120804257E+04  0.12001590415E+04 0.  0.
        2    1    3    3  502    0 -0.55382894959E+03 -0.22977440208E+03  0.60621981976E+02  0.60265894663E+03  0.25500000920E-02 0. -1.
       -2    1    3    3    0  502  0.55382894959E+03  0.22977440208E+03  0.10895759699E+03  0.60942147911E+03  0.25500000920E-02 0.  1.
</event>
<event>
 5   0  0.3839750E-05  0.1194640E+04  0.7818609E-02  0.9117561E-01
       -3   -1    0    0    0  501  0.00000000000E+00  0.00000000000E+00  0.27871482810E+03  0.27871484640E+03  0.10100000352E+00 0.  1.
        3   -1    0    0  501    0  0.00000000000E+00  0.00000000000E+00 -0.12801299975E+04  0.12801300015E+04  0.10100000352E+00 0. -1.
    10030    2    1    2    0    0  0.00000000000E+00  0.00000000000E+00 -0.10014151694E+04  0.15588448479E+04  0.11946400790E+04 0.  0.
        5    1    3    3  502    0 -0.28575320053E+03 -0.15989722226E+03  0.15113405177E+03  0.36067382065E+03  0.46999998093E+01 0.  1.
       -5    1    3    3    0  502  0.28575320053E+03  0.15989722226E+03 -0.11525492211E+04  0.11981710272E+04  0.46999998093E+01 0. -1.
</event>
<event>
 5   0  0.9941209E-05  0.1200032E+04  0.7818609E-02  0.9112829E-01
        2   -1    0    0  501    0  0.00000000000E+00  0.00000000000E+00  0.11406461269E+04  0.11406461269E+04  0.25500000920E-02 0.  1.
       -2   -1    0    0    0  501  0.00000000000E+00  0.00000000000E+00 -0.31562729909E+03  0.31562729910E+03  0.25500000920E-02 0. -1.
    10030    2    1    2    0    0  0.00000000000E+00  0.00000000000E+00  0.82501882778E+03  0.14562734260E+04  0.12000317600E+04 0.  0.
        2    1    3    3  502    0 -0.10895936484E+02  0.49381335047E+03 -0.89046250846E+00  0.49393434732E+03  0.25500000920E-02 0. -1.
       -2    1    3    3    0  502  0.10895936484E+02 -0.49381335047E+03  0.82590929029E+03  0.96233907866E+03  0.25500000920E-02 0.  1.
</event>
<event>
 5   0  0.5447807E-05  0.1200285E+04  0.7818609E-02  0.9112607E-01
       -1   -1    0    0    0  501  0.00000000000E+00  0.00000000000E+00  0.32334268313E+03  0.32334268317E+03  0.50400001928E-02 0.  1.
        1   -1    0    0  501    0  0.00000000000E+00  0.00000000000E+00 -0.11138981575E+04  0.11138981575E+04  0.50400001928E-02 0. -1.
    10030    2    1    2    0    0  0.00000000000E+00  0.00000000000E+00 -0.79055547437E+03  0.14372408407E+04  0.12002846646E+04 0.  0.
        2    1    3    3  502    0 -0.52413689711E+03 -0.16123577409E+03 -0.10330847227E+03  0.55802249257E+03  0.25500000920E-02 0.  1.
       -2    1    3    3    0  502  0.52413689711E+03  0.16123577409E+03 -0.68724700211E+03  0.87921834812E+03  0.25500000920E-02 0. -1.
</event>
<event>
 5   0  0.1023063E-04  0.1199496E+04  0.7818609E-02  0.9113297E-01
        2   -1    0    0  501    0  0.00000000000E+00  0.00000000000E+00  0.83508719154E+03  0.83508719154E+03  0.25500000920E-02 0. -1.
       -2   -1    0    0    0  501  0.00000000000E+00  0.00000000000E+00 -0.43073095797E+03  0.43073095797E+03  0.25500000920E-02 0.  1.
    10030    2    1    2    0    0  0.00000000000E+00  0.00000000000E+00  0.40435623357E+03  0.12658181495E+04  0.11994964043E+04 0.  0.
        3    1    3    3  502    0 -0.23788789348E+03  0.49836993947E+03 -0.44711905063E+02  0.55404188568E+03  0.10100000352E+00 0. -1.
       -3    1    3    3    0  502  0.23788789348E+03 -0.49836993947E+03  0.44906813864E+03  0.71177626384E+03  0.10100000352E+00 0.  1.
</event>
<event>
 5   0  0.1004006E-04  0.1199961E+04  0.7818609E-02  0.9112890E-01
       -2   -1    0    0    0  501  0.00000000000E+00  0.00000000000E+00  0.30076414077E+03  0.30076414078E+03  0.25500000920E-02 0.  1.
        2   -1    0    0  501    0  0.00000000000E+00  0.00000000000E+00 -0.11968742840E+04  0.11968742840E+04  0.25500000920E-02 0. -1.
    10030    2    1    2    0    0  0.00000000000E+00  0.00000000000E+00 -0.89611014322E+03  0.14976384248E+04  0.11999614421E+04 0.  0.
        5    1    3    3  502    0 -0.10650739371E+03  0.18059538281E+03  0.25353050663E+03  0.32902632873E+03  0.46999998093E+01 0.  1.
       -5    1    3    3    0  502  0.10650739371E+03 -0.18059538281E+03 -0.11496406499E+04  0.11686120960E+04  0.46999998093E+01 0. -1.
</event>
<event>
 5   0  0.5625746E-05  0.1199337E+04  0.7818609E-02  0.9113437E-01
       -1   -1    0    0    0  501  0.00000000000E+00  0.00000000000E+00  0.86421480922E+03  0.86421480924E+03  0.50400001928E-02 0. -1.
        1   -1    0    0  501    0  0.00000000000E+00  0.00000000000E+00 -0.41610271966E+03  0.41610271969E+03  0.50400001928E-02 0.  1.
    10030    2    1    2    0    0  0.00000000000E+00  0.00000000000E+00  0.44811208956E+03  0.12803175289E+04  0.11993367042E+04 0.  0.
        5    1    3    3  502    0  0.57795591155E+03 -0.25016275273E+02  0.39257974223E+03  0.69914218420E+03  0.46999998093E+01 0. -1.
       -5    1    3    3    0  502 -0.57795591155E+03  0.25016275273E+02  0.55532347330E+02  0.58117534473E+03  0.46999998093E+01 0.  1.
</event>
<event>
 5   0  0.5745487E-05  0.1201039E+04  0.7818609E-02  0.9111947E-01
        1   -1    0    0  501    0  0.00000000000E+00  0.00000000000E+00  0.16253378442E+04  0.16253378442E+04  0.50400001928E-02 0. -1.
       -1   -1    0    0    0  501  0.00000000000E+00  0.00000000000E+00 -0.22187618352E+03  0.22187618357E+03  0.50400001928E-02 0.  1.
    10030    2    1    2    0    0  0.00000000000E+00  0.00000000000E+00  0.14034616606E+04  0.18472140277E+04  0.12010391465E+04 0.  0.
        3    1    3    3  502    0  0.51582126923E+03  0.91397199441E+02  0.25017603583E+03  0.58052828437E+03  0.10100000352E+00 0.  1.
       -3    1    3    3    0  502 -0.51582126923E+03 -0.91397199441E+02  0.11532856248E+04  0.12666857434E+04  0.10100000352E+00 0. -1.
</event>
<event>
 5   0  0.1023063E-04  0.1199744E+04  0.7818609E-02  0.9113081E-01
       -2   -1    0    0    0  501  0.00000000000E+00  0.00000000000E+00  0.29768157248E+03  0.29768157249E+03  0.25500000920E-02 0. -1.
        2   -1    0    0  501    0  0.00000000000E+00  0.00000000000E+00 -0.12088298685E+04  0.12088298685E+04  0.25500000920E-02 0.  1.
    10030    2    1    2    0    0  0.00000000000E+00  0.00000000000E+00 -0.91114829602E+03  0.15065114410E+04  0.11997439329E+04 0.  0.
        3    1    3    3  502    0 -0.19208997532E+03 -0.56130299706E+03 -0.34405922566E+03  0.68581074217E+03  0.10100000352E+00 0. -1.
       -3    1    3    3    0  502  0.19208997532E+03  0.56130299706E+03 -0.56708907036E+03  0.82070069882E+03  0.10100000352E+00 0.  1.
</event>
<event>
 5   0  0.1012657E-04  0.1199891E+04  0.7818609E-02  0.9112952E-01
       -2   -1    0    0    0  501  0.00000000000E+00  0.00000000000E+00  0.33310440801E+03  0.33310440802E+03  0.25500000920E-02 0. -1.
        2   -1    0    0  501    0  0.00000000000E+00  0.00000000000E+00 -0.10805450482E+04  0.10805450482E+04  0.25500000920E-02 0.  1.
    10030    2    1    2    0    0  0.00000000000E+00  0.00000000000E+00 -0.74744064015E+03  0.14136494562E+04  0.11998905260E+04 0.  0.
        1    1    3    3  502    0  0.43688006560E+02  0.29636902714E+03 -0.98612091923E+03  0.10306200607E+04  0.50400001928E-02 0.  1.
       -1    1    3    3    0  502 -0.43688006560E+02 -0.29636902714E+03  0.23868027908E+03  0.38302939549E+03  0.50400001928E-02 0. -1.
</event>
<event>
 5   0  0.1012657E-04  0.1199407E+04  0.7818609E-02  0.9113376E-01
        2   -1    0    0  501    0  0.00000000000E+00  0.00000000000E+00  0.49479773047E+03  0.49479773047E+03  0.25500000920E-02 0.  1.
       -2   -1    0    0    0  501  0.00000000000E+00  0.00000000000E+00 -0.72685114436E+03  0.72685114436E+03  0.25500000920E-02 0. -1.
    10030    2    1    2    0    0  0.00000000000E+00  0.00000000000E+00 -0.23205341389E+03  0.12216488748E+04  0.11994070145E+04 0.  0.
        1    1    3    3  502    0 -0.49788346683E+03 -0.25601636823E+03 -0.33498280889E+03  0.65241536587E+03  0.50400001928E-02 0.  1.
       -1    1    3    3    0  502  0.49788346683E+03  0.25601636823E+03  0.10292939499E+03  0.56923350897E+03  0.50400001928E-02 0. -1.
</event>
<event>
 5   0  0.9941209E-05  0.1204908E+04  0.7818609E-02  0.9108571E-01
       -2   -1    0    0    0  501  0.00000000000E+00  0.00000000000E+00  0.15101458198E+03  0.15101458200E+03  0.25500000920E-02 0. -1.
        2   -1    0    0  501    0  0.00000000000E+00  0.00000000000E+00 -0.24034167439E+04  0.24034167439E+04  0.25500000920E-02 0.  1.
    10030    2    1    2    0    0  0.00000000000E+00  0.00000000000E+00 -0.22524021619E+04  0.25544313259E+04  0.12049082536E+04 0.  0.
        2    1    3    3  502    0  0.43632864176E+03  0.14140605025E+03 -0.29810914675E+03  0.54703511592E+03  0.25500000920E-02 0. -1.
       -2    1    3    3    0  502 -0.43632864176E+03 -0.14140605025E+03 -0.19542930151E+04  0.20073962099E+04  0.25500000920E-02 0.  1.
</event>
<event>
 5   0  0.5620246E-05  0.1199871E+04  0.7818609E-02  0.9112969E-01
        1   -1    0    0  501    0  0.00000000000E+00  0.00000000000E+00  0.38648056479E+03  0.38648056483E+03  0.50400001928E-02 0. -1.
       -1   -1    0    0    0  501  0.00000000000E+00  0.00000000000E+00 -0.93128308529E+03  0.93128308530E+03  0.50400001928E-02 0.  1.
    10030    2    1    2    0    0  0.00000000000E+00  0.00000000000E+00 -0.54480252050E+03  0.13177636501E+04  0.11998713478E+04 0.  0.
        1    1    3    3  502    0 -0.14722288742E+02 -0.38177602547E+02 -0.92974881836E+03  0.93064877392E+03  0.50400001928E-02 0.  1.
       -1    1    3    3    0  502  0.14722288742E+02  0.38177602547E+02  0.38494629786E+03  0.38711487621E+03  0.50400001928E-02 0. -1.
</event>
<event>
 5   0  0.1012657E-04  0.1202201E+04  0.7818609E-02  0.9110932E-01
        2   -1    0    0  501    0  0.00000000000E+00  0.00000000000E+00  0.11702349758E+04  0.11702349758E+04  0.25500000920E-02 0. -1.
       -2   -1    0    0    0  501  0.00000000000E+00  0.00000000000E+00 -0.30875988030E+03  0.30875988031E+03  0.25500000920E-02 0.  1.
    10030    2    1    2    0    0  0.00000000000E+00  0.00000000000E+00  0.86147509545E+03  0.14789948561E+04  0.12022006672E+04 0.  0.
        1    1    3    3  502    0 -0.35479360174E+03  0.38712127160E+03  0.70842037077E+02  0.52986788259E+03  0.50400001928E-02 0.  1.
       -1    1    3    3    0  502  0.35479360174E+03 -0.38712127160E+03  0.79063305837E+03  0.94912697348E+03  0.50400001928E-02 0. -1.
</event>
<event>
 5   0  0.9838215E-05  0.1199551E+04  0.7818609E-02  0.9113250E-01
       -2   -1    0    0    0  501  0.00000000000E+00  0.00000000000E+00  0.17437238522E+03  0.17437238524E+03  0.25500000920E-02 0.  1.
        2   -1    0    0  501    0  0.00000000000E+00  0.00000000000E+00 -0.20630024038E+04  0.20630024038E+04  0.25500000920E-02 0. -1.
    10030    2    1    2    0    0  0.00000000000E+00  0.00000000000E+00 -0.18886300186E+04  0.22373747890E+04  0.11995509992E+04 0.  0.
        4    1    3    3  502    0 -0.40422434847E+03  0.44039477263E+03 -0.85324246292E+03  0.10418105361E+04  0.12699999809E+01 0.  1.
       -4    1    3    3    0  502  0.40422434847E+03 -0.44039477263E+03 -0.10353875556E+04  0.11955642529E+04  0.12699999809E+01 0. -1.
</event>
<event>
 5   0  0.1023063E-04  0.1200137E+04  0.7818609E-02  0.9112737E-01
        2   -1    0    0  501    0  0.00000000000E+00  0.00000000000E+00  0.19079822843E+04  0.19079822843E+04  0.25500000920E-02 0.  1.
       -2   -1    0    0    0  501  0.00000000000E+00  0.00000000000E+00 -0.18872412486E+03  0.18872412488E+03  0.25500000920E-02 0. -1.
    10030    2    1    2    0    0  0.00000000000E+00  0.00000000000E+00  0.17192581594E+04  0.20967064092E+04  0.12001371370E+04 0.  0.
        3    1    3    3  502    0  0.36238018639E+03  0.47200942074E+03  0.99461650969E+03  0.11590402514E+04  0.10100000352E+00 0. -1.
       -3    1    3    3    0  502 -0.36238018639E+03 -0.47200942074E+03  0.72464164975E+03  0.93766615781E+03  0.10100000352E+00 0.  1.
</event>
<event>
 5   0  0.5745487E-05  0.1200294E+04  0.7818609E-02  0.9112599E-01
       -1   -1    0    0    0  501  0.00000000000E+00  0.00000000000E+00  0.32006253295E+03  0.32006253299E+03  0.50400001928E-02 0. -1.
        1   -1    0    0  501    0  0.00000000000E+00  0.00000000000E+00 -0.11253321379E+04  0.11253321379E+04  0.50400001928E-02 0.  1.
    10030    2    1    2    0    0  0.00000000000E+00  0.00000000000E+00 -0.80526960493E+03  0.14453946709E+04  0.12002943880E+04 0.  0.
        3    1    3    3  502    0  0.12393813877E+03 -0.58047250632E+03 -0.50944709327E+03  0.78220543586E+03  0.10100000352E+00 0.  1.
       -3    1    3    3    0  502 -0.12393813877E+03  0.58047250632E+03 -0.29582251165E+03  0.66318923501E+03  0.10100000352E+00 0. -1.
</event>
<event>
 5   0  0.3839750E-05  0.1200246E+04  0.7818609E-02  0.9112641E-01
        4   -1    0    0  501    0  0.00000000000E+00  0.00000000000E+00  0.40154516316E+03  0.40154717152E+03  0.12699999809E+01 0. -1.
       -4   -1    0    0    0  501  0.00000000000E+00  0.00000000000E+00 -0.89689993633E+03  0.89690083548E+03  0.12699999809E+01 0.  1.
    10030    2    1    2    0    0  0.00000000000E+00  0.00000000000E+00 -0.49535477318E+03  0.12984480070E+04  0.12002461729E+04 0.  0.
        5    1    3    3  502    0  0.23377002787E+03 -0.56093283222E+02 -0.84251084992E+03  0.87615153061E+03  0.46999998093E+01 0.  1.
       -5    1    3    3    0  502 -0.23377002787E+03  0.56093283222E+02  0.34715607675E+03  0.42229647639E+03  0.46999998093E+01 0. -1.
</event>
<event>
 5   0  0.1012657E-04  0.1200086E+04  0.7818609E-02  0.9112781E-01
       -2   -1    0    0    0  501  0.00000000000E+00  0.00000000000E+00  0.23230824160E+03  0.23230824161E+03  0.25500000920E-02 0. -1.
        2   -1    0    0  501    0  0.00000000000E+00  0.00000000000E+00 -0.15498883992E+04  0.15498883992E+04  0.25500000920E-02 0.  1.
    10030    2    1    2    0    0  0.00000000000E+00  0.00000000000E+00 -0.13175801576E+04  0.17821966408E+04  0.12000864114E+04 0.  0.
        1    1    3    3  502    0  0.25838978943E+03  0.19279211290E+03 -0.14103488636E+04  0.14467266497E+04  0.50400001928E-02 0.  1.
       -1    1    3    3    0  502 -0.25838978943E+03 -0.19279211290E+03  0.92768705972E+02  0.33546999107E+03  0.50400001928E-02 0. -1.
</event>
<event>
 5   0  0.9838215E-05  0.1199756E+04  0.7818609E-02  0.9113070E-01
        2   -1    0    0  501    0  0.00000000000E+00  0.00000000000E+00  0.51791037710E+03  0.51791037710E+03  0.25500000920E-02 0.  1.
       -2   -1    0    0    0  501  0.00000000000E+00  0.00000000000E+00 -0.69481825269E+03  0.69481825270E+03  0.25500000920E-02 0. -1.
    10030    2    1    2    0    0  0.00000000000E+00  0.00000000000E+00 -0.17690787559E+03  0.12127286298E+04  0.11997559473E+04 0.  0.
        4    1    3    3  502    0  0.14443090601E+03 -0.44677335766E+02 -0.67524413060E+03  0.69196286010E+03  0.12699999809E+01 0. -1.
       -4    1    3    3    0  502 -0.14443090601E+03  0.44677335766E+02  0.49833625501E+03  0.52076576970E+03  0.12699999809E+01 0.  1.
</event>
<event>
 5   0  0.1023063E-04  0.1199580E+04  0.7818609E-02  0.9113224E-01
        2   -1    0    0  501    0  0.00000000000E+00  0.00000000000E+00  0.11740248928E+04  0.11740248928E+04  0.25500000920E-02 0.  1.
       -2   -1    0    0    0  501  0.00000000000E+00  0.00000000000E+00 -0.30642290376E+03  0.30642290377E+03  0.25500000920E-02 0. -1.
    10030    2    1    2    0    0  0.00000000000E+00  0.00000000000E+00  0.86760198904E+03  0.14804477966E+04  0.11995801211E+04 0.  0.
        3    1    3    3  502    0 -0.51509275417E+03 -0.27970675570E+03  0.27676111473E+03  0.64819220869E+03  0.10100000352E+00 0. -1.
       -3    1    3    3    0  502  0.51509275417E+03  0.27970675570E+03  0.59084087432E+03  0.83225558788E+03  0.10100000352E+00 0.  1.
</event>
<event>
 5   0  0.5620246E-05  0.1190663E+04  0.7818609E-02  0.9121069E-01
       -1   -1    0    0    0  501  0.00000000000E+00  0.00000000000E+00  0.66914968289E+03  0.66914968291E+03  0.50400001928E-02 0.  1.
        1   -1    0    0  501    0  0.00000000000E+00  0.00000000000E+00 -0.52965654606E+03  0.52965654608E+03  0.50400001928E-02 0. -1.
    10030    2    1    2    0    0  0.00000000000E+00  0.00000000000E+00  0.13949313683E+03  0.11988062290E+04  0.11906628572E+04 0.  0.
        1    1    3    3  502    0  0.43577886346E+03  0.43571324089E+02  0.47576361514E+03  0.64664727297E+03  0.50400001928E-02 0.  1.
       -1    1    3    3    0  502 -0.43577886346E+03 -0.43571324089E+02 -0.33627047831E+03  0.55215895603E+03  0.50400001928E-02 0. -1.
</event>
<event>
 5   0  0.9941209E-05  0.1200531E+04  0.7818609E-02  0.9112392E-01
       -2   -1    0    0    0  501  0.00000000000E+00  0.00000000000E+00  0.18072748815E+03  0.18072748817E+03  0.25500000920E-02 0.  1.
        2   -1    0    0  501    0  0.00000000000E+00  0.00000000000E+00 -0.19937112234E+04  0.19937112234E+04  0.25500000920E-02 0. -1.
    10030    2    1    2    0    0  0.00000000000E+00  0.00000000000E+00 -0.18129837352E+04  0.21744387116E+04  0.12005305852E+04 0.  0.
        2    1    3    3  502    0 -0.44872224071E+03  0.46863044226E+02 -0.16236357376E+04  0.16851530502E+04  0.25500000920E-02 0. -1.
       -2    1    3    3    0  502  0.44872224071E+03 -0.46863044226E+02 -0.18934799769E+03  0.48928566140E+03  0.25500000920E-02 0.  1.
</event>
<event>
 5   0  0.5620246E-05  0.1199870E+04  0.7818609E-02  0.9112971E-01
        1   -1    0    0  501    0  0.00000000000E+00  0.00000000000E+00  0.75204883883E+03  0.75204883884E+03  0.50400001928E-02 0. -1.
       -1   -1    0    0    0  501  0.00000000000E+00  0.00000000000E+00 -0.47858842675E+03  0.47858842678E+03  0.50400001928E-02 0.  1.
    10030    2    1    2    0    0  0.00000000000E+00  0.00000000000E+00  0.27346041207E+03  0.12306372656E+04  0.11998697773E+04 0.  0.
        1    1    3    3  502    0 -0.45319021541E+03  0.35037169658E+02  0.53832242671E+03  0.70455660505E+03  0.50400001928E-02 0. -1.
       -1    1    3    3    0  502  0.45319021541E+03 -0.35037169658E+02 -0.26486201463E+03  0.52608066057E+03  0.50400001928E-02 0.  1.
</event>
<event>
 5   0  0.5447807E-05  0.1200293E+04  0.7818609E-02  0.9112600E-01
       -1   -1    0    0    0  501  0.00000000000E+00  0.00000000000E+00  0.35807722170E+03  0.35807722173E+03  0.50400001928E-02 0. -1.
        1   -1    0    0  501    0  0.00000000000E+00  0.00000000000E+00 -0.10058602216E+04  0.10058602216E+04  0.50400001928E-02 0.  1.
    10030    2    1    2    0    0  0.00000000000E+00  0.00000000000E+00 -0.64778299991E+03  0.13639374434E+04  0.12002926870E+04 0.  0.
        2    1    3    3  502    0 -0.36808346983E+03 -0.16307605820E+03 -0.82965277666E+03  0.92217296173E+03  0.25500000920E-02 0.  1.
       -2    1    3    3    0  502  0.36808346983E+03  0.16307605820E+03  0.18186977674E+03  0.44176448162E+03  0.25500000920E-02 0. -1.
</event>
<event>
 5   0  0.1004006E-04  0.1199943E+04  0.7818609E-02  0.9112906E-01
       -2   -1    0    0    0  501  0.00000000000E+00  0.00000000000E+00  0.25328528463E+03  0.25328528464E+03  0.25500000920E-02 0.  1.
        2   -1    0    0  501    0  0.00000000000E+00  0.00000000000E+00 -0.14211872643E+04  0.14211872643E+04  0.25500000920E-02 0. -1.
    10030    2    1    2    0    0  0.00000000000E+00  0.00000000000E+00 -0.11679019797E+04  0.16744725490E+04  0.11999430333E+04 0.  0.
        5    1    3    3  502    0 -0.90205743438E+02 -0.32116392725E+03 -0.12798091199E+04  0.13225796073E+04  0.46999998093E+01 0. -1.
       -5    1    3    3    0  502  0.90205743438E+02  0.32116392725E+03  0.11190714025E+03  0.35189294161E+03  0.46999998093E+01 0.  1.
</event>
<event>
 5   0  0.5620246E-05  0.1200050E+04  0.7818609E-02  0.9112813E-01
       -1   -1    0    0    0  501  0.00000000000E+00  0.00000000000E+00  0.55613761003E+03  0.55613761005E+03  0.50400001928E-02 0. -1.
        1   -1    0    0  501    0  0.00000000000E+00  0.00000000000E+00 -0.64737525058E+03  0.64737525060E+03  0.50400001928E-02 0.  1.
    10030    2    1    2    0    0  0.00000000000E+00  0.00000000000E+00 -0.91237640557E+02  0.12035128607E+04  0.12000495401E+04 0.  0.
        1    1    3    3  502    0 -0.25166345136E+03 -0.38799809585E+03  0.33778372899E+03  0.57269089632E+03  0.50400001928E-02 0. -1.
       -1    1    3    3    0  502  0.25166345136E+03  0.38799809585E+03 -0.42902136955E+03  0.63082196433E+03  0.50400001928E-02 0.  1.
</event>
<event>
 5   0  0.9838215E-05  0.1198570E+04  0.7818609E-02  0.9114109E-01
       -2   -1    0    0    0  501  0.00000000000E+00  0.00000000000E+00  0.42342914997E+03  0.42342914997E+03  0.25500000920E-02 0. -1.
        2   -1    0    0  501    0  0.00000000000E+00  0.00000000000E+00 -0.84817628940E+03  0.84817628940E+03  0.25500000920E-02 0.  1.
    10030    2    1    2    0    0  0.00000000000E+00  0.00000000000E+00 -0.42474713943E+03  0.12716054394E+04  0.11985700901E+04 0.  0.
        4    1    3    3  502    0 -0.65522872810E+02  0.18029809377E+02 -0.84407363712E+03  0.84680590377E+03  0.12699999809E+01 0.  1.
       -4    1    3    3    0  502  0.65522872810E+02 -0.18029809377E+02  0.41932649769E+03  0.42479953560E+03  0.12699999809E+01 0. -1.
</event>
<event>
 5   0  0.5625746E-05  0.1200033E+04  0.7818609E-02  0.9112828E-01
       -1   -1    0    0    0  501  0.00000000000E+00  0.00000000000E+00  0.55355562950E+03  0.55355562952E+03  0.50400001928E-02 0.  1.
        1   -1    0    0  501    0  0.00000000000E+00  0.00000000000E+00 -0.65037668908E+03  0.65037668910E+03  0.50400001928E-02 0. -1.
    10030    2    1    2    0    0  0.00000000000E+00  0.00000000000E+00 -0.96821059578E+02  0.12039323186E+04  0.12000327955E+04 0.  0.
        5    1    3    3  502    0  0.37652544269E+03  0.16434044770E+03  0.39029569150E+03  0.56668510528E+03  0.46999998093E+01 0.  1.
       -5    1    3    3    0  502 -0.37652544269E+03 -0.16434044770E+03 -0.48711675107E+03  0.63724721335E+03  0.46999998093E+01 0. -1.
</event>
<event>
 5   0  0.1023063E-04  0.1199833E+04  0.7818609E-02  0.9113002E-01
        2   -1    0    0  501    0  0.00000000000E+00  0.00000000000E+00  0.20170573103E+04  0.20170573103E+04  0.25500000920E-02 0.  1.
       -2   -1    0    0    0  501  0.00000000000E+00  0.00000000000E+00 -0.17842828457E+03  0.17842828459E+03  0.25500000920E-02 0. -1.
    10030    2    1    2    0    0  0.00000000000E+00  0.00000000000E+00  0.18386290257E+04  0.21954855949E+04  0.11998334481E+04 0.  0.
        3    1    3    3  502    0  0.44450869189E+03  0.39060723401E+03  0.10998847767E+04  0.12489629781E+04  0.10100000352E+00 0.  1.
       -3    1    3    3    0  502 -0.44450869189E+03 -0.39060723401E+03  0.73874424900E+03  0.94652261677E+03  0.10100000352E+00 0. -1.
</event>
<event>
 5   0  0.1023063E-04  0.1199101E+04  0.7818609E-02  0.9113643E-01
       -2   -1    0    0    0  501  0.00000000000E+00  0.00000000000E+00  0.81864993267E+03  0.81864993268E+03  0.25500000920E-02 0.  1.
        2   -1    0    0  501    0  0.00000000000E+00  0.00000000000E+00 -0.43909006654E+03  0.43909006655E+03  0.25500000920E-02 0. -1.
    10030    2    1    2    0    0  0.00000000000E+00  0.00000000000E+00  0.37955986613E+03  0.12577399992E+04  0.11991014193E+04 0.  0.
        3    1    3    3  502    0  0.52113988141E+02 -0.14448428737E+03 -0.41810337437E+03  0.44542341532E+03  0.10100000352E+00 0. -1.
       -3    1    3    3    0  502 -0.52113988141E+02  0.14448428737E+03  0.79766324050E+03  0.81231658391E+03  0.10100000352E+00 0.  1.
</event>
<event>
 5   0  0.5745487E-05  0.1200008E+04  0.7818609E-02  0.9112850E-01
       -1   -1    0    0    0  501  0.00000000000E+00  0.00000000000E+00  0.69682785277E+03  0.69682785278E+03  0.50400001928E-02 0. -1.
        1   -1    0    0  501    0  0.00000000000E+00  0.00000000000E+00 -0.51663347184E+03  0.51663347187E+03  0.50400001928E-02 0.  1.
    10030    2    1    2    0    0  0.00000000000E+00  0.00000000000E+00  0.18019438092E+03  0.12134613247E+04  0.12000076548E+04 0.  0.
        3    1    3    3  502    0 -0.36075655493E+03  0.46147447955E+03  0.22155697803E+03  0.62625193965E+03  0.10100000352E+00 0. -1.
       -3    1    3    3    0  502  0.36075655493E+03 -0.46147447955E+03 -0.41362597111E+02  0.58720938500E+03  0.10100000352E+00 0.  1.
</event>
<event>
 5   0  0.9941209E-05  0.1199547E+04  0.7818609E-02  0.9113253E-01
       -2   -1    0    0    0  501  0.00000000000E+00  0.00000000000E+00  0.87719255795E+03  0.87719255795E+03  0.25500000920E-02 0.  1.
        2   -1    0    0  501    0  0.00000000000E+00  0.00000000000E+00 -0.41009069756E+03  0.41009069757E+03  0.25500000920E-02 0. -1.
    10030    2    1    2    0    0  0.00000000000E+00  0.00000000000E+00  0.46710186038E+03  0.12872832555E+04  0.11995474280E+04 0.  0.
        2    1    3    3  502    0  0.16710698923E+03  0.48836258078E+02 -0.38237838499E+03  0.42014634982E+03  0.25500000920E-02 0. -1.
       -2    1    3    3    0  502 -0.16710698923E+03 -0.48836258078E+02  0.84948024537E+03  0.86713690571E+03  0.25500000920E-02 0.  1.
</event>
<event>
 5   0  0.9838215E-05  0.1199769E+04  0.7818609E-02  0.9113059E-01
       -2   -1    0    0    0  501  0.00000000000E+00  0.00000000000E+00  0.34145864942E+03  0.34145864943E+03  0.25500000920E-02 0. -1.
        2   -1    0    0  501    0  0.00000000000E+00  0.00000000000E+00 -0.10538942092E+04  0.10538942093E+04  0.25500000920E-02 0.  1.
    10030    2    1    2    0    0  0.00000000000E+00  0.00000000000E+00 -0.71243555982E+03  0.13953528587E+04  0.11997688000E+04 0.  0.
        4    1    3    3  502    0  0.40160300632E+03 -0.14180979697E+03 -0.84753572885E+03  0.94853224393E+03  0.12699999809E+01 0.  1.
       -4    1    3    3    0  502 -0.40160300632E+03  0.14180979697E+03  0.13510016902E+03  0.44682061476E+03  0.12699999809E+01 0. -1.
</event>
<event>
 5   0  0.9838215E-05  0.1199475E+04  0.7818609E-02  0.9113316E-01
       -2   -1    0    0    0  501  0.00000000000E+00  0.00000000000E+00  0.29895500048E+03  0.29895500049E+03  0.25500000920E-02 0.  1.
        2   -1    0    0  501    0  0.00000000000E+00  0.00000000000E+00 -0.12031419200E+04  0.12031419200E+04  0.25500000920E-02 0. -1.
    10030    2    1    2    0    0  0.00000000000E+00  0.00000000000E+00 -0.90418691953E+03  0.15020969205E+04  0.11994753741E+04 0.  0.
        4    1    3    3  502    0 -0.94932256098E+02  0.48845283160E+03 -0.32835708230E+02  0.49867634652E+03  0.12699999809E+01 0.  1.
       -4    1    3    3    0  502  0.94932256098E+02 -0.48845283160E+03 -0.87135121130E+03  0.10034205740E+04  0.12699999809E+01 0. -1.
</event>
<event>
 5   0  0.5732931E-05  0.1202516E+04  0.7818609E-02  0.9110657E-01
       -1   -1    0    0    0  501  0.00000000000E+00  0.00000000000E+00  0.53177765583E+03  0.53177765585E+03  0.50400001928E-02 0.  1.
        1   -1    0    0  501    0  0.00000000000E+00  0.00000000000E+00 -0.67981602924E+03  0.67981602925E+03  0.50400001928E-02 0. -1.
    10030    2    1    2    0    0  0.00000000000E+00  0.00000000000E+00 -0.14803837340E+03  0.12115936851E+04  0.12025156539E+04 0.  0.
        4    1    3    3  502    0 -0.29040518422E+02 -0.34192911627E+03  0.42341887290E+03  0.54501745577E+03  0.12699999809E+01 0.  1.
       -4    1    3    3    0  502  0.29040518422E+02  0.34192911627E+03 -0.57145724630E+03  0.66657622934E+03  0.12699999809E+01 0. -1.
</event>
<event>
 5   0  0.5745487E-05  0.1199926E+04  0.7818609E-02  0.9112921E-01
        1   -1    0    0  501    0  0.00000000000E+00  0.00000000000E+00  0.96759555863E+03  0.96759555864E+03  0.50400001928E-02 0. -1.
       -1   -1    0    0    0  501  0.00000000000E+00  0.00000000000E+00 -0.37201036844E+03  0.37201036848E+03  0.50400001928E-02 0.  1.
    10030    2    1    2    0    0  0.00000000000E+00  0.00000000000E+00  0.59558519018E+03  0.13396059271E+04  0.11999259649E+04 0.  0.
        3    1    3    3  502    0 -0.24576145606E+03  0.10182641680E+03  0.89815423709E+03  0.93672213396E+03  0.10100000352E+00 0. -1.
       -3    1    3    3    0  502  0.24576145606E+03 -0.10182641680E+03 -0.30256904690E+03  0.40288379316E+03  0.10100000352E+00 0.  1.
</event>
<event>
 5   0  0.5620246E-05  0.1200500E+04  0.7818609E-02  0.9112419E-01
        1   -1    0    0  501    0  0.00000000000E+00  0.00000000000E+00  0.80497991337E+03  0.80497991339E+03  0.50400001928E-02 0. -1.
       -1   -1    0    0    0  501  0.00000000000E+00  0.00000000000E+00 -0.44758869912E+03  0.44758869914E+03  0.50400001928E-02 0.  1.
    10030    2    1    2    0    0  0.00000000000E+00  0.00000000000E+00  0.35739121426E+03  0.12525686125E+04  0.12004997497E+04 0.  0.
        1    1    3    3  502    0  0.66445062852E+02 -0.42948588168E+03  0.61069075102E+03  0.74954403630E+03  0.50400001928E-02 0.  1.
       -1    1    3    3    0  502 -0.66445062852E+02  0.42948588168E+03 -0.25329953677E+03  0.50302457623E+03  0.50400001928E-02 0. -1.
</event>
<event>
 5   0  0.5447807E-05  0.1200325E+04  0.7818609E-02  0.9112572E-01
       -1   -1    0    0    0  501  0.00000000000E+00  0.00000000000E+00  0.99802912816E+03  0.99802912818E+03  0.50400001928E-02 0.  1.
        1   -1    0    0  501    0  0.00000000000E+00  0.00000000000E+00 -0.36090616056E+03  0.36090616059E+03  0.50400001928E-02 0. -1.
    10030    2    1    2    0    0  0.00000000000E+00  0.00000000000E+00  0.63712296760E+03  0.13589352888E+04  0.12003247241E+04 0.  0.
        2    1    3    3  502    0  0.45860734590E+03  0.16506473123E+03  0.71501702198E+03  0.86534178504E+03  0.25500000920E-02 0.  1.
       -2    1    3    3    0  502 -0.45860734590E+03 -0.16506473123E+03 -0.77894054374E+02  0.49359350373E+03  0.25500000920E-02 0. -1.
</event>
<event>
 5   0  0.5620246E-05  0.1200341E+04  0.7818609E-02  0.9112559E-01
       -1   -1    0    0    0  501  0.00000000000E+00  0.00000000000E+00  0.48156267115E+03  0.48156267117E+03  0.50400001928E-02 0.  1.
        1   -1    0    0  501    0  0.00000000000E+00  0.00000000000E+00 -0.74799057078E+03  0.74799057080E+03  0.50400001928E-02 0. -1.
    10030    2    1    2    0    0  0.00000000000E+00  0.00000000000E+00 -0.26642789963E+03  0.12295532420E+04  0.12003405138E+04 0.  0.
        1    1    3    3  502    0  0.31582022378E+03 -0.21481455963E+03 -0.60742405997E+03  0.71753166999E+03  0.50400001928E-02 0. -1.
       -1    1    3    3    0  502 -0.31582022378E+03  0.21481455963E+03  0.34099616034E+03  0.51202157198E+03  0.50400001928E-02 0.  1.
</event>
<event>
 5   0  0.9941209E-05  0.1199833E+04  0.7818609E-02  0.9113002E-01
       -2   -1    0    0    0  501  0.00000000000E+00  0.00000000000E+00  0.24765422165E+03  0.24765422167E+03  0.25500000920E-02 0. -1.
        2   -1    0    0  501    0  0.00000000000E+00  0.00000000000E+00 -0.14532357529E+04  0.14532357529E+04  0.25500000920E-02 0.  1.
    10030    2    1    2    0    0  0.00000000000E+00  0.00000000000E+00 -0.12055815313E+04  0.17008899746E+04  0.11998332706E+04 0.  0.
        2    1    3    3  502    0 -0.47287416553E+03  0.21228995817E+03 -0.17462945968E+03  0.54696659036E+03  0.25500000920E-02 0. -1.
       -2    1    3    3    0  502  0.47287416553E+03 -0.21228995817E+03 -0.10309520716E+04  0.11539233842E+04  0.25500000920E-02 0.  1.
</event>
<event>
 5   0  0.5732931E-05  0.1200216E+04  0.7818609E-02  0.9112668E-01
       -1   -1    0    0    0  501  0.00000000000E+00  0.00000000000E+00  0.99317694138E+03  0.99317694140E+03  0.50400001928E-02 0.  1.
        1   -1    0    0  501    0  0.00000000000E+00  0.00000000000E+00 -0.36260362406E+03  0.36260362410E+03  0.50400001928E-02 0. -1.
    10030    2    1    2    0    0  0.00000000000E+00  0.00000000000E+00  0.63057331732E+03  0.13557805655E+04  0.12002159111E+04 0.  0.
        4    1    3    3  502    0 -0.12461128848E+03 -0.40849475061E+03  0.79151238371E+03  0.89938278890E+03  0.12699999809E+01 0.  1.
       -4    1    3    3    0  502  0.12461128848E+03  0.40849475061E+03 -0.16093906639E+03  0.45639777660E+03  0.12699999809E+01 0. -1.
</event>
<event>
 5   0  0.9941209E-05  0.1199822E+04  0.7818609E-02  0.9113013E-01
        2   -1    0    0  501    0  0.00000000000E+00  0.00000000000E+00  0.94942163480E+03  0.94942163480E+03  0.25500000920E-02 0. -1.
       -2   -1    0    0    0  501  0.00000000000E+00  0.00000000000E+00 -0.37906556056E+03  0.37906556057E+03  0.25500000920E-02 0.  1.
    10030    2    1    2    0    0  0.00000000000E+00  0.00000000000E+00  0.57035607424E+03  0.13284871954E+04  0.11998217271E+04 0.  0.
        2    1    3    3  502    0  0.58081916668E+03  0.90985774287E+02  0.15293975904E+03  0.60747006956E+03  0.25500000920E-02 0.  1.
       -2    1    3    3    0  502 -0.58081916668E+03 -0.90985774287E+02  0.41741631520E+03  0.72101712581E+03  0.25500000920E-02 0. -1.
</event>
<event>
 5   0  0.5620246E-05  0.1199856E+04  0.7818609E-02  0.9112982E-01
       -1   -1    0    0    0  501  0.00000000000E+00  0.00000000000E+00  0.24002173409E+03  0.24002173415E+03  0.50400001928E-02 0. -1.
        1   -1    0    0  501    0  0.00000000000E+00  0.00000000000E+00 -0.14995046208E+04  0.14995046208E+04  0.50400001928E-02 0.  1.
    10030    2    1    2    0    0  0.00000000000E+00  0.00000000000E+00 -0.12594828867E+04  0.17395263549E+04  0.11998561571E+04 0.  0.
        1    1    3    3  502    0  0.25840896540E+03 -0.28309126846E+03  0.39356088551E+02  0.38531125264E+03  0.50400001928E-02 0. -1.
       -1    1    3    3    0  502 -0.25840896540E+03  0.28309126846E+03 -0.12988389752E+04  0.13542151023E+04  0.50400001928E-02 0.  1.
</event>
<event>
 5   0  0.5745487E-05  0.1199959E+04  0.7818609E-02  0.9112893E-01
        1   -1    0    0  501    0  0.00000000000E+00  0.00000000000E+00  0.10721656251E+04  0.10721656251E+04  0.50400001928E-02 0.  1.
       -1   -1    0    0    0  501  0.00000000000E+00  0.00000000000E+00 -0.33574591468E+03  0.33574591471E+03  0.50400001928E-02 0. -1.
    10030    2    1    2    0    0  0.00000000000E+00  0.00000000000E+00  0.73641971040E+03  0.14079115398E+04  0.11999587135E+04 0.  0.
        3    1    3    3  502    0  0.30959813563E+03  0.43191292603E+03  0.69500167773E+03  0.87488692041E+03  0.10100000352E+00 0.  1.
       -3    1    3    3    0  502 -0.30959813563E+03 -0.43191292603E+03  0.41418032676E+02  0.53302461940E+03  0.10100000352E+00 0. -1.
</event>
<event>
 5   0  0.9941209E-05  0.1198023E+04  0.7818609E-02  0.9114589E-01
       -2   -1    0    0    0  501  0.00000000000E+00  0.00000000000E+00  0.23112080179E+03  0.23112080181E+03  0.25500000920E-02 0.  1.
        2   -1    0    0  501    0  0.00000000000E+00  0.00000000000E+00 -0.15524978117E+04  0.15524978117E+04  0.25500000920E-02 0. -1.
    10030    2    1    2    0    0  0.00000000000E+00  0.00000000000E+00 -0.13213770099E+04  0.17836186135E+04  0.11980226025E+04 0.  0.
        2    1    3    3  502    0 -0.55781406986E+01  0.55317122441E+03 -0.31863635160E+03  0.63840319841E+03  0.25500000920E-02 0.  1.
       -2    1    3    3    0  502  0.55781406986E+01 -0.55317122441E+03 -0.10027406583E+04  0.11452154151E+04  0.25500000920E-02 0. -1.
</event>
<event>
 5   0  0.1012657E-04  0.1198643E+04  0.7818609E-02  0.9114045E-01
        2   -1    0    0  501    0  0.00000000000E+00  0.00000000000E+00  0.25326535875E+03  0.25326535877E+03  0.25500000920E-02 0. -1.
       -2   -1    0    0    0  501  0.00000000000E+00  0.00000000000E+00 -0.14182217200E+04  0.14182217200E+04  0.25500000920E-02 0.  1.
    10030    2    1    2    0    0  0.00000000000E+00  0.00000000000E+00 -0.11649563612E+04  0.16714870787E+04  0.11986432876E+04 0.  0.
        1    1    3    3  502    0 -0.19937314701E+03  0.49025048017E+03 -0.19030555193E+03  0.56241567205E+03  0.50400001928E-02 0. -1.
       -1    1    3    3    0  502  0.19937314701E+03 -0.49025048017E+03 -0.97465080927E+03  0.11090714067E+04  0.50400001928E-02 0.  1.
</event>
<event>
 5   0  0.1004006E-04  0.1200312E+04  0.7818609E-02  0.9112584E-01
        2   -1    0    0  501    0  0.00000000000E+00  0.00000000000E+00  0.12049358603E+04  0.12049358603E+04  0.25500000920E-02 0.  1.
       -2   -1    0    0    0  501  0.00000000000E+00  0.00000000000E+00 -0.29892635402E+03  0.29892635403E+03  0.25500000920E-02 0. -1.
    10030    2    1    2    0    0  0.00000000000E+00  0.00000000000E+00  0.90600950627E+03  0.15038622143E+04  0.12003117654E+04 0.  0.
        5    1    3    3  502    0 -0.36555402141E+03  0.15497349210E+03  0.10168323136E+04  0.10916119136E+04  0.46999998093E+01 0.  1.
       -5    1    3    3    0  502  0.36555402141E+03 -0.15497349210E+03 -0.11082280738E+03  0.41225030073E+03  0.46999998093E+01 0. -1.
</event>
<event>
 5   0  0.5732931E-05  0.1203262E+04  0.7818609E-02  0.9110007E-01
       -1   -1    0    0    0  501  0.00000000000E+00  0.00000000000E+00  0.16486876585E+03  0.16486876593E+03  0.50400001928E-02 0. -1.
        1   -1    0    0  501    0  0.00000000000E+00  0.00000000000E+00 -0.21954404857E+04  0.21954404857E+04  0.50400001928E-02 0.  1.
    10030    2    1    2    0    0  0.00000000000E+00  0.00000000000E+00 -0.20305717199E+04  0.23603092517E+04  0.12032615069E+04 0.  0.
        4    1    3    3  502    0 -0.20211442612E+03 -0.49840575706E+03 -0.48638493040E+03  0.72514167811E+03  0.12699999809E+01 0. -1.
       -4    1    3    3    0  502  0.20211442612E+03  0.49840575706E+03 -0.15441867895E+04  0.16351675735E+04  0.12699999809E+01 0.  1.
</event>
<event>
 5   0  0.5620246E-05  0.1198315E+04  0.7818609E-02  0.9114332E-01
        1   -1    0    0  501    0  0.00000000000E+00  0.00000000000E+00  0.13801960193E+04  0.13801960193E+04  0.50400001928E-02 0.  1.
       -1   -1    0    0    0  501  0.00000000000E+00  0.00000000000E+00 -0.26010062718E+03  0.26010062723E+03  0.50400001928E-02 0. -1.
    10030    2    1    2    0    0  0.00000000000E+00  0.00000000000E+00  0.11200953921E+04  0.16402966465E+04  0.11983152345E+04 0.  0.
        1    1    3    3  502    0  0.26941298425E+03 -0.53102270916E+03  0.65106627869E+03  0.88230140712E+03  0.50400001928E-02 0. -1.
       -1    1    3    3    0  502 -0.26941298425E+03  0.53102270916E+03  0.46902911343E+03  0.75799523943E+03  0.50400001928E-02 0.  1.
</event>
<event>
 5   0  0.5745487E-05  0.1199773E+04  0.7818609E-02  0.9113055E-01
        1   -1    0    0  501    0  0.00000000000E+00  0.00000000000E+00  0.74534418518E+03  0.74534418519E+03  0.50400001928E-02 0. -1.
       -1   -1    0    0    0  501  0.00000000000E+00  0.00000000000E+00 -0.48281563658E+03  0.48281563661E+03  0.50400001928E-02 0.  1.
    10030    2    1    2    0    0  0.00000000000E+00  0.00000000000E+00  0.26252854860E+03  0.12281598218E+04  0.11997730240E+04 0.  0.
        3    1    3    3  502    0 -0.49748324342E+03 -0.32785189463E+03  0.20282811069E+03  0.62937722788E+03  0.10100000352E+00 0. -1.
       -3    1    3    3    0  502  0.49748324342E+03  0.32785189463E+03  0.59700437909E+02  0.59878259392E+03  0.10100000352E+00 0.  1.
</event>
<event>
 5   0  0.1023063E-04  0.1198431E+04  0.7818609E-02  0.9114231E-01
        2   -1    0    0  501    0  0.00000000000E+00  0.00000000000E+00  0.11033343695E+04  0.11033343695E+04  0.25500000920E-02 0.  1.
       -2   -1    0    0    0  501  0.00000000000E+00  0.00000000000E+00 -0.32543090965E+03  0.32543090966E+03  0.25500000920E-02 0. -1.
    10030    2    1    2    0    0  0.00000000000E+00  0.00000000000E+00  0.77790345985E+03  0.14287652792E+04  0.11984308199E+04 0.  0.
        3    1    3    3  502    0 -0.21621502732E+03 -0.32303371881E+03 -0.15472052603E+03  0.41837563613E+03  0.10100000352E+00 0. -1.
       -3    1    3    3    0  502  0.21621502732E+03  0.32303371881E+03  0.93262398587E+03  0.10103896430E+04  0.10100000352E+00 0.  1.
</event>
<event>
 5   0  0.9941209E-05  0.1204576E+04  0.7818609E-02  0.9108861E-01
        2   -1    0    0  501    0  0.00000000000E+00  0.00000000000E+00  0.80803839987E+03  0.80803839988E+03  0.25500000920E-02 0.  1.
       -2   -1    0    0    0  501  0.00000000000E+00  0.00000000000E+00 -0.44892773918E+03  0.44892773918E+03  0.25500000920E-02 0. -1.
    10030    2    1    2    0    0  0.00000000000E+00  0.00000000000E+00  0.35911066069E+03  0.12569661391E+04  0.12045760284E+04 0.  0.
        2    1    3    3  502    0  0.50176685299E+03 -0.19387226348E+03  0.46225212985E+03  0.70924851841E+03  0.25500000920E-02 0.  1.
       -2    1    3    3    0  502 -0.50176685299E+03  0.19387226348E+03 -0.10314146915E+03  0.54771762065E+03  0.25500000920E-02 0. -1.
</event>
<event>
 5   0  0.3839750E-05  0.1199790E+04  0.7818609E-02  0.9113040E-01
        4   -1    0    0  501    0  0.00000000000E+00  0.00000000000E+00  0.19880646575E+03  0.19881052217E+03  0.12699999809E+01 0. -1.
       -4   -1    0    0    0  501  0.00000000000E+00  0.00000000000E+00 -0.18101494631E+04  0.18101499086E+04  0.12699999809E+01 0.  1.
    10030    2    1    2    0    0  0.00000000000E+00  0.00000000000E+00 -0.16113429973E+04  0.20089604308E+04  0.11997898805E+04 0.  0.
        5    1    3    3  502    0  0.34008231520E+03 -0.13234872231E+03 -0.16028810392E+04  0.16439044623E+04  0.46999998093E+01 0.  1.
       -5    1    3    3    0  502 -0.34008231520E+03  0.13234872231E+03 -0.84619581903E+01  0.36505596851E+03  0.46999998093E+01 0. -1.
</event>
<event>
 5   0  0.5447807E-05  0.1199602E+04  0.7818609E-02  0.9113205E-01
        1   -1    0    0  501    0  0.00000000000E+00  0.00000000000E+00  0.16875723594E+04  0.16875723594E+04  0.50400001928E-02 0. -1.
       -1   -1    0    0    0  501  0.00000000000E+00  0.00000000000E+00 -0.21318275239E+03  0.21318275245E+03  0.50400001928E-02 0.  1.
    10030    2    1    2    0    0  0.00000000000E+00  0.00000000000E+00  0.14743896070E+04  0.19007551118E+04  0.11996021349E+04 0.  0.
        2    1    3    3  502    0 -0.32699953709E+03  0.17497954645E+03  0.14841170752E+04  0.15297548927E+04  0.25500000920E-02 0. -1.
       -2    1    3    3    0  502  0.32699953709E+03 -0.17497954645E+03 -0.97274682089E+01  0.37100021910E+03  0.25500000920E-02 0.  1.
</event>
<event>
 5   0  0.9838215E-05  0.1199766E+04  0.7818609E-02  0.9113062E-01
       -2   -1    0    0    0  501  0.00000000000E+00  0.00000000000E+00  0.46224702724E+03  0.46224702725E+03  0.25500000920E-02 0. -1.
        2   -1    0    0  501    0  0.00000000000E+00  0.00000000000E+00 -0.77850027153E+03  0.77850027154E+03  0.25500000920E-02 0.  1.
    10030    2    1    2    0    0  0.00000000000E+00  0.00000000000E+00 -0.31625324429E+03  0.12407472988E+04  0.11997657042E+04 0.  0.
        4    1    3    3  502    0  0.32937645220E+02  0.15254069950E+03  0.44088592712E+03  0.46769174369E+03  0.12699999809E+01 0. -1.
       -4    1    3    3    0  502 -0.32937645220E+02 -0.15254069950E+03 -0.75713917141E+03  0.77305555510E+03  0.12699999809E+01 0.  1.
</event>
<event>
 5   0  0.5745487E-05  0.1199109E+04  0.7818609E-02  0.9113636E-01
       -1   -1    0    0    0  501  0.00000000000E+00  0.00000000000E+00  0.72423355914E+03  0.72423355915E+03  0.50400001928E-02 0. -1.
        1   -1    0    0  501    0  0.00000000000E+00  0.00000000000E+00 -0.49633965461E+03  0.49633965463E+03  0.50400001928E-02 0.  1.
    10030    2    1    2    0    0  0.00000000000E+00  0.00000000000E+00  0.22789390453E+03  0.12205732138E+04  0.11991093939E+04 0.  0.
        3    1    3    3  502    0  0.11511089424E+03 -0.37736999323E+03  0.57347792147E+03  0.69608589008E+03  0.10100000352E+00 0. -1.
       -3    1    3    3    0  502 -0.11511089424E+03  0.37736999323E+03 -0.34558401694E+03  0.52448732370E+03  0.10100000352E+00 0.  1.
</event>
<event>
 5   0  0.1012657E-04  0.1200324E+04  0.7818609E-02  0.9112573E-01
        2   -1    0    0  501    0  0.00000000000E+00  0.00000000000E+00  0.46297634339E+03  0.46297634339E+03  0.25500000920E-02 0. -1.
       -2   -1    0    0    0  501  0.00000000000E+00  0.00000000000E+00 -0.77799731144E+03  0.77799731145E+03  0.25500000920E-02 0.  1.
    10030    2    1    2    0    0  0.00000000000E+00  0.00000000000E+00 -0.31502096806E+03  0.12409736548E+04  0.12003238737E+04 0.  0.
        1    1    3    3  502    0 -0.27924578372E+03 -0.27965055599E+03  0.30946240221E+03  0.50194583333E+03  0.50400001928E-02 0. -1.
       -1    1    3    3    0  502  0.27924578372E+03  0.27965055599E+03 -0.62448337027E+03  0.73902782151E+03  0.50400001928E-02 0.  1.
</event>
<event>
 5   0  0.3839750E-05  0.1200085E+04  0.7818609E-02  0.9112783E-01
        4   -1    0    0  501    0  0.00000000000E+00  0.00000000000E+00  0.90558335344E+03  0.90558424398E+03  0.12699999809E+01 0.  1.
       -4   -1    0    0    0  501  0.00000000000E+00  0.00000000000E+00 -0.39758769999E+03  0.39758972834E+03  0.12699999809E+01 0. -1.
    10030    2    1    2    0    0  0.00000000000E+00  0.00000000000E+00  0.50799565345E+03  0.13031739723E+04  0.12000845046E+04 0.  0.
        5    1    3    3  502    0  0.12042255712E+03  0.12742838187E+03  0.87712860154E+03  0.89449217907E+03  0.46999998093E+01 0.  1.
       -5    1    3    3    0  502 -0.12042255712E+03 -0.12742838187E+03 -0.36913294809E+03  0.40868179325E+03  0.46999998093E+01 0. -1.
</event>
<event>
 5   0  0.5732931E-05  0.1201256E+04  0.7818609E-02  0.9111758E-01
        1   -1    0    0  501    0  0.00000000000E+00  0.00000000000E+00  0.92576750998E+03  0.92576750999E+03  0.50400001928E-02 0. -1.
       -1   -1    0    0    0  501  0.00000000000E+00  0.00000000000E+00 -0.38968090238E+03  0.38968090241E+03  0.50400001928E-02 0.  1.
    10030    2    1    2    0    0  0.00000000000E+00  0.00000000000E+00  0.53608660759E+03  0.13154484124E+04  0.12012558740E+04 0.  0.
        4    1    3    3  502    0  0.30250617561E+02  0.45065472233E+03  0.70159276010E+03  0.83440924764E+03  0.12699999809E+01 0. -1.
       -4    1    3    3    0  502 -0.30250617561E+02 -0.45065472233E+03 -0.16550615251E+03  0.48103916477E+03  0.12699999809E+01 0.  1.
</event>
<event>
 5   0  0.9838215E-05  0.1196624E+04  0.7818609E-02  0.9115817E-01
       -2   -1    0    0    0  501  0.00000000000E+00  0.00000000000E+00  0.16726286479E+03  0.16726286481E+03  0.25500000920E-02 0. -1.
        2   -1    0    0  501    0  0.00000000000E+00  0.00000000000E+00 -0.21402072892E+04  0.21402072892E+04  0.25500000920E-02 0.  1.
    10030    2    1    2    0    0  0.00000000000E+00  0.00000000000E+00 -0.19729444244E+04  0.23074701540E+04  0.11966239216E+04 0.  0.
        4    1    3    3  502    0  0.31623218988E+03 -0.22158831535E+03 -0.18677603230E+04  0.19072583507E+04  0.12699999809E+01 0.  1.
       -4    1    3    3    0  502 -0.31623218988E+03  0.22158831535E+03 -0.10518410147E+03  0.40021180332E+03  0.12699999809E+01 0. -1.
</event>
<event>
 5   0  0.9941209E-05  0.1200639E+04  0.7818609E-02  0.9112297E-01
       -2   -1    0    0    0  501  0.00000000000E+00  0.00000000000E+00  0.72101912813E+03  0.72101912813E+03  0.25500000920E-02 0. -1.
        2   -1    0    0  501    0  0.00000000000E+00  0.00000000000E+00 -0.49982539830E+03  0.49982539830E+03  0.25500000920E-02 0.  1.
    10030    2    1    2    0    0  0.00000000000E+00  0.00000000000E+00  0.22119372983E+03  0.12208445264E+04  0.12006392846E+04 0.  0.
        2    1    3    3  502    0 -0.49105249949E+03  0.53588809671E+01 -0.24049982713E+03  0.54681024288E+03  0.25500000920E-02 0.  1.
       -2    1    3    3    0  502  0.49105249949E+03 -0.53588809671E+01  0.46169355696E+03  0.67403428355E+03  0.25500000920E-02 0. -1.
</event>
<event>
 5   0  0.5625746E-05  0.1200963E+04  0.7818609E-02  0.9112014E-01
        1   -1    0    0  501    0  0.00000000000E+00  0.00000000000E+00  0.23849251413E+03  0.23849251418E+03  0.50400001928E-02 0.  1.
       -1   -1    0    0    0  501  0.00000000000E+00  0.00000000000E+00 -0.15119059868E+04  0.15119059868E+04  0.50400001928E-02 0. -1.
    10030    2    1    2    0    0  0.00000000000E+00  0.00000000000E+00 -0.12734134727E+04  0.17503985010E+04  0.12009633799E+04 0.  0.
        5    1    3    3  502    0  0.62388710092E+02  0.21762259504E+03  0.17388112139E+03  0.28549724936E+03  0.46999998093E+01 0.  1.
       -5    1    3    3    0  502 -0.62388710092E+02 -0.21762259504E+03 -0.14472945941E+04  0.14649012516E+04  0.46999998093E+01 0. -1.
</event>
<event>
 5   0  0.1004006E-04  0.1199665E+04  0.7818609E-02  0.9113150E-01
        2   -1    0    0  501    0  0.00000000000E+00  0.00000000000E+00  0.80241971116E+03  0.80241971117E+03  0.25500000920E-02 0. -1.
       -2   -1    0    0    0  501  0.00000000000E+00  0.00000000000E+00 -0.44839238287E+03  0.44839238287E+03  0.25500000920E-02 0.  1.
    10030    2    1    2    0    0  0.00000000000E+00  0.00000000000E+00  0.35402732830E+03  0.12508120940E+04  0.11996647638E+04 0.  0.
        5    1    3    3  502    0 -0.25907801388E+03 -0.52755064404E+03  0.30189369472E+03  0.66075183860E+03  0.46999998093E+01 0. -1.
       -5    1    3    3    0  502  0.25907801388E+03  0.52755064404E+03  0.52133633574E+02  0.59006025544E+03  0.46999998093E+01 0.  1.
</event>
<event>
 5   0  0.9941209E-05  0.1200007E+04  0.7818609E-02  0.9112851E-01
        2   -1    0    0  501    0  0.00000000000E+00  0.00000000000E+00  0.41090404174E+03  0.41090404175E+03  0.25500000920E-02 0. -1.
       -2   -1    0    0    0  501  0.00000000000E+00  0.00000000000E+00 -0.87612657434E+03  0.87612657434E+03  0.25500000920E-02 0.  1.
    10030    2    1    2    0    0  0.00000000000E+00  0.00000000000E+00 -0.46522253260E+03  0.12870306161E+04  0.12000065841E+04 0.  0.
        2    1    3    3  502    0 -0.12229771662E+03 -0.11414369937E+02  0.39727553161E+03  0.41583033482E+03  0.25500000920E-02 0. -1.
       -2    1    3    3    0  502  0.12229771662E+03  0.11414369937E+02 -0.86249806421E+03  0.87120028128E+03  0.25500000920E-02 0.  1.
</event>
<event>
 5   0  0.3839750E-05  0.1199915E+04  0.7818609E-02  0.9112931E-01
        4   -1    0    0  501    0  0.00000000000E+00  0.00000000000E+00  0.32153985635E+03  0.32154236443E+03  0.12699999809E+01 0. -1.
       -4   -1    0    0    0  501  0.00000000000E+00  0.00000000000E+00 -0.11194456003E+04  0.11194463207E+04  0.12699999809E+01 0.  1.
    10030    2    1    2    0    0  0.00000000000E+00  0.00000000000E+00 -0.79790574397E+03  0.14409886852E+04  0.11999145030E+04 0.  0.
        2    1    3    3  502    0  0.15666020990E+03  0.38309392680E+03  0.12264197501E+03  0.43167630484E+03  0.25500000920E-02 0. -1.
       -2    1    3    3    0  502 -0.15666020990E+03 -0.38309392680E+03 -0.92054771899E+03  0.10093123803E+04  0.25500000920E-02 0.  1.
</event>
<event>
 5   0  0.5745487E-05  0.1199698E+04  0.7818609E-02  0.9113121E-01
        1   -1    0    0  501    0  0.00000000000E+00  0.00000000000E+00  0.61203935828E+03  0.61203935830E+03  0.50400001928E-02 0.  1.
       -1   -1    0    0    0  501  0.00000000000E+00  0.00000000000E+00 -0.58790164959E+03  0.58790164961E+03  0.50400001928E-02 0. -1.
    10030    2    1    2    0    0  0.00000000000E+00  0.00000000000E+00  0.24137708690E+02  0.11999410079E+04  0.11996982093E+04 0.  0.
        3    1    3    3  502    0  0.42900952970E+03 -0.39187778005E+03  0.16110091282E+03  0.60296839501E+03  0.10100000352E+00 0.  1.
       -3    1    3    3    0  502 -0.42900952970E+03  0.39187778005E+03 -0.13696320413E+03  0.59697261290E+03  0.10100000352E+00 0. -1.
</event>
<event>
 5   0  0.1012657E-04  0.1199671E+04  0.7818609E-02  0.9113144E-01
       -2   -1    0    0    0  501  0.00000000000E+00  0.00000000000E+00  0.43400829843E+03  0.43400829843E+03  0.25500000920E-02 0.  1.
        2   -1    0    0  501    0  0.00000000000E+00  0.00000000000E+00 -0.82902257788E+03  0.82902257789E+03  0.25500000920E-02 0. -1.
    10030    2    1    2    0    0  0.00000000000E+00  0.00000000000E+00 -0.39501427946E+03  0.12630308763E+04  0.11996710856E+04 0.  0.
        1    1    3    3  502    0 -0.49601933644E+03 -0.71840989789E+02  0.14945287048E+03  0.52300331783E+03  0.50400001928E-02 0.  1.
       -1    1    3    3    0  502  0.49601933644E+03  0.71840989789E+02 -0.54446714994E+03  0.74002755849E+03  0.50400001928E-02 0. -1.
</event>
<event>
 5   0  0.5745487E-05  0.1200080E+04  0.7818609E-02  0.9112786E-01
       -1   -1    0    0    0  501  0.00000000000E+00  0.00000000000E+00  0.56637643102E+03  0.56637643104E+03  0.50400001928E-02 0.  1.
        1   -1    0    0  501    0  0.00000000000E+00  0.00000000000E+00 -0.63570492101E+03  0.63570492103E+03  0.50400001928E-02 0. -1.
    10030    2    1    2    0    0  0.00000000000E+00  0.00000000000E+00 -0.69328489992E+02  0.12020813521E+04  0.12000804713E+04 0.  0.
        3    1    3    3  502    0  0.12549376969E+03 -0.15726886241E+03  0.53158004785E+03  0.56838326752E+03  0.10100000352E+00 0.  1.
       -3    1    3    3    0  502 -0.12549376969E+03  0.15726886241E+03 -0.60090853785E+03  0.63369808456E+03  0.10100000352E+00 0. -1.
</event>
<event>
 5   0  0.9941209E-05  0.1199632E+04  0.7818609E-02  0.9113179E-01
        2   -1    0    0  501    0  0.00000000000E+00  0.00000000000E+00  0.36095391987E+03  0.36095391988E+03  0.25500000920E-02 0.  1.
       -2   -1    0    0    0  501  0.00000000000E+00  0.00000000000E+00 -0.99674516098E+03  0.99674516098E+03  0.25500000920E-02 0. -1.
    10030    2    1    2    0    0  0.00000000000E+00  0.00000000000E+00 -0.63579124111E+03  0.13576990809E+04  0.11996317318E+04 0.  0.
        2    1    3    3  502    0 -0.59700915315E+03  0.49953491983E+02 -0.35115853779E+03  0.69442609325E+03  0.25500000920E-02 0.  1.
       -2    1    3    3    0  502  0.59700915315E+03 -0.49953491983E+02 -0.28463270331E+03  0.66327298762E+03  0.25500000920E-02 0. -1.
</event>
<event>
 5   0  0.1023063E-04  0.1200017E+04  0.7818609E-02  0.9112842E-01
       -2   -1    0    0    0  501  0.00000000000E+00  0.00000000000E+00  0.37030079490E+03  0.37030079491E+03  0.25500000920E-02 0.  1.
        2   -1    0    0  501    0  0.00000000000E+00  0.00000000000E+00 -0.97220982884E+03  0.97220982885E+03  0.25500000920E-02 0. -1.
    10030    2    1    2    0    0  0.00000000000E+00  0.00000000000E+00 -0.60190903394E+03  0.13425106238E+04  0.12000167873E+04 0.  0.
        3    1    3    3  502    0  0.40123210809E+03 -0.27354204998E+03  0.93309388295E+02  0.49448873578E+03  0.10100000352E+00 0.  1.
       -3    1    3    3    0  502 -0.40123210809E+03  0.27354204998E+03 -0.69521842223E+03  0.84802188798E+03  0.10100000352E+00 0. -1.
</event>
<event>
 5   0  0.1012657E-04  0.1200115E+04  0.7818609E-02  0.9112756E-01
        2   -1    0    0  501    0  0.00000000000E+00  0.00000000000E+00  0.10341485037E+04  0.10341485037E+04  0.25500000920E-02 0.  1.
       -2   -1    0    0    0  501  0.00000000000E+00  0.00000000000E+00 -0.34817935286E+03  0.34817935287E+03  0.25500000920E-02 0. -1.
    10030    2    1    2    0    0  0.00000000000E+00  0.00000000000E+00  0.68596915086E+03  0.13823278566E+04  0.12001152558E+04 0.  0.
        1    1    3    3  502    0 -0.41109321182E+03 -0.21260017600E+03 -0.96936840006E+02  0.47285644187E+03  0.50400001928E-02 0. -1.
       -1    1    3    3    0  502  0.41109321182E+03  0.21260017600E+03  0.78290599086E+03  0.90947141472E+03  0.50400001928E-02 0.  1.
</event>
<event>
 5   0  0.1004006E-04  0.1200342E+04  0.7818609E-02  0.9112557E-01
        2   -1    0    0  501    0  0.00000000000E+00  0.00000000000E+00  0.85489093138E+03  0.85489093139E+03  0.25500000920E-02 0. -1.
       -2   -1    0    0    0  501  0.00000000000E+00  0.00000000000E+00 -0.42134625019E+03  0.42134625019E+03  0.25500000920E-02 0.  1.
    10030    2    1    2    0    0  0.00000000000E+00  0.00000000000E+00  0.43354468120E+03  0.12762371816E+04  0.12003417651E+04 0.  0.
        5    1    3    3  502    0 -0.20351173647E+03  0.56258372554E+03  0.16616532488E+03  0.62092711352E+03  0.46999998093E+01 0.  1.
       -5    1    3    3    0  502  0.20351173647E+03 -0.56258372554E+03  0.26737935631E+03  0.65531006806E+03  0.46999998093E+01 0. -1.
</event>
<event>
 5   0  0.5732931E-05  0.1199763E+04  0.7818609E-02  0.9113064E-01
        1   -1    0    0  501    0  0.00000000000E+00  0.00000000000E+00  0.52305582966E+03  0.52305582968E+03  0.50400001928E-02 0.  1.
       -1   -1    0    0    0  501  0.00000000000E+00  0.00000000000E+00 -0.68799166842E+03  0.68799166844E+03  0.50400001928E-02 0. -1.
    10030    2    1    2    0    0  0.00000000000E+00  0.00000000000E+00 -0.16493583876E+03  0.12110474981E+04  0.11997633983E+04 0.  0.
        4    1    3    3  502    0  0.16138523446E+02  0.14315362203E+03  0.50533454498E+03  0.52546933944E+03  0.12699999809E+01 0.  1.
       -4    1    3    3    0  502 -0.16138523446E+02 -0.14315362203E+03 -0.67027038375E+03  0.68557815868E+03  0.12699999809E+01 0. -1.
</event>
<event>
 5   0  0.5625746E-05  0.1199226E+04  0.7818609E-02  0.9113534E-01
       -1   -1    0    0    0  501  0.00000000000E+00  0.00000000000E+00  0.33377665375E+03  0.33377665378E+03  0.50400001928E-02 0. -1.
        1   -1    0    0  501    0  0.00000000000E+00  0.00000000000E+00 -0.10771751919E+04  0.10771751920E+04  0.50400001928E-02 0.  1.
    10030    2    1    2    0    0  0.00000000000E+00  0.00000000000E+00 -0.74339853820E+03  0.14109518457E+04  0.11992263024E+04 0.  0.
        5    1    3    3  502    0 -0.14017626181E+03 -0.30132183870E+03 -0.95887948440E+03  0.10148478657E+04  0.46999998093E+01 0.  1.
       -5    1    3    3    0  502  0.14017626181E+03  0.30132183870E+03  0.21548094620E+03  0.39610398007E+03  0.46999998093E+01 0. -1.
</event>
<event>
 5   0  0.3839750E-05  0.1201569E+04  0.7818609E-02  0.9111484E-01
       -3   -1    0    0    0  501  0.00000000000E+00  0.00000000000E+00  0.91549086660E+03  0.91549087218E+03  0.10100000352E+00 0. -1.
        3   -1    0    0  501    0  0.00000000000E+00  0.00000000000E+00 -0.39426072246E+03  0.39426073539E+03  0.10100000352E+00 0.  1.
    10030    2    1    2    0    0  0.00000000000E+00  0.00000000000E+00  0.52123014415E+03  0.13097516076E+04  0.12015691451E+04 0.  0.
        3    1    3    3  502    0  0.50378976208E+03  0.50474586928E+02 -0.91906618240E+02  0.51458589660E+03  0.10100000352E+00 0.  1.
       -3    1    3    3    0  502 -0.50378976208E+03 -0.50474586928E+02  0.61313676239E+03  0.79516571097E+03  0.10100000352E+00 0. -1.
</event>
<event>
 5   0  0.9838215E-05  0.1200197E+04  0.7818609E-02  0.9112684E-01
        2   -1    0    0  501    0  0.00000000000E+00  0.00000000000E+00  0.13445772919E+04  0.13445772919E+04  0.25500000920E-02 0.  1.
       -2   -1    0    0    0  501  0.00000000000E+00  0.00000000000E+00 -0.26783022185E+03  0.26783022186E+03  0.25500000920E-02 0. -1.
    10030    2    1    2    0    0  0.00000000000E+00  0.00000000000E+00  0.10767470700E+04  0.16124075137E+04  0.12001973744E+04 0.  0.
        4    1    3    3  502    0 -0.17445828411E+03 -0.89794852494E+02  0.13002636224E+04  0.13149851364E+04  0.12699999809E+01 0.  1.
       -4    1    3    3    0  502  0.17445828411E+03  0.89794852494E+02 -0.22351655238E+03  0.29742237729E+03  0.12699999809E+01 0. -1.
</event>
<event>
 5   0  0.5732931E-05  0.1199812E+04  0.7818609E-02  0.9113021E-01
       -1   -1    0    0    0  501  0.00000000000E+00  0.00000000000E+00  0.26558591170E+03  0.26558591175E+03  0.50400001928E-02 0. -1.
        1   -1    0    0  501    0  0.00000000000E+00  0.00000000000E+00 -0.13550684172E+04  0.13550684172E+04  0.50400001928E-02 0.  1.
    10030    2    1    2    0    0  0.00000000000E+00  0.00000000000E+00 -0.10894825055E+04  0.16206543290E+04  0.11998117870E+04 0.  0.
        4    1    3    3  502    0  0.21684432925E+03 -0.13049241323E+03 -0.12794286430E+04  0.13042196895E+04  0.12699999809E+01 0.  1.
       -4    1    3    3    0  502 -0.21684432925E+03  0.13049241323E+03  0.18994613747E+03  0.31643463950E+03  0.12699999809E+01 0. -1.
</event>
<event>
 5   0  0.3839750E-05  0.1199647E+04  0.7818609E-02  0.9113166E-01
        3   -1    0    0  501    0  0.00000000000E+00  0.00000000000E+00  0.67829743154E+03  0.67829743906E+03  0.10100000352E+00 0. -1.
       -3   -1    0    0    0  501  0.00000000000E+00  0.00000000000E+00 -0.53042822359E+03  0.53042823321E+03  0.10100000352E+00 0.  1.
    10030    2    1    2    0    0  0.00000000000E+00  0.00000000000E+00  0.14786920795E+03  0.12087256723E+04  0.11996468014E+04 0.  0.
        5    1    3    3  502    0  0.49782437217E+03  0.39462420180E+02  0.40868324338E+03  0.64531424248E+03  0.46999998093E+01 0. -1.
       -5    1    3    3    0  502 -0.49782437217E+03 -0.39462420180E+02 -0.26081403543E+03  0.56341142978E+03  0.46999998093E+01 0.  1.
</event>
<event>
 5   0  0.5620246E-05  0.1200148E+04  0.7818609E-02  0.9112727E-01
        1   -1    0    0  501    0  0.00000000000E+00  0.00000000000E+00  0.54277328499E+03  0.54277328501E+03  0.50400001928E-02 0. -1.
       -1   -1    0    0    0  501  0.00000000000E+00  0.00000000000E+00 -0.66342395761E+03  0.66342395763E+03  0.50400001928E-02 0.  1.
    10030    2    1    2    0    0  0.00000000000E+00  0.00000000000E+00 -0.12065067262E+03  0.12061972426E+04  0.12001479923E+04 0.  0.
        1    1    3    3  502    0  0.32332898677E+03 -0.40721966137E+03 -0.36136692819E+03  0.63321050457E+03  0.50400001928E-02 0.  1.
       -1    1    3    3    0  502 -0.32332898677E+03  0.40721966137E+03  0.24071625556E+03  0.57298673807E+03  0.50400001928E-02 0. -1.
</event>
<event>
 5   0  0.1012657E-04  0.1199862E+04  0.7818609E-02  0.9112977E-01
        2   -1    0    0  501    0  0.00000000000E+00  0.00000000000E+00  0.74636130826E+03  0.74636130827E+03  0.25500000920E-02 0. -1.
       -2   -1    0    0    0  501  0.00000000000E+00  0.00000000000E+00 -0.48222939146E+03  0.48222939147E+03  0.25500000920E-02 0.  1.
    10030    2    1    2    0    0  0.00000000000E+00  0.00000000000E+00  0.26413191680E+03  0.12285906997E+04  0.11998622579E+04 0.  0.
        1    1    3    3  502    0  0.19285779302E+03 -0.56589439141E+03  0.18312745574E+03  0.62527294490E+03  0.50400001928E-02 0.  1.
       -1    1    3    3    0  502 -0.19285779302E+03  0.56589439141E+03  0.81004461069E+02  0.60331775483E+03  0.50400001928E-02 0. -1.
</event>
<event>
 5   0  0.5625746E-05  0.1199697E+04  0.7818609E-02  0.9113121E-01
       -1   -1    0    0    0  501  0.00000000000E+00  0.00000000000E+00  0.16533229443E+03  0.16533229451E+03  0.50400001928E-02 0.  1.
        1   -1    0    0  501    0  0.00000000000E+00  0.00000000000E+00 -0.21763348095E+04  0.21763348095E+04  0.50400001928E-02 0. -1.
    10030    2    1    2    0    0  0.00000000000E+00  0.00000000000E+00 -0.20110025150E+04  0.23416671040E+04  0.11996973412E+04 0.  0.
        5    1    3    3  502    0 -0.38009683613E+03 -0.24838385422E+03 -0.17705496744E+04  0.18278502082E+04  0.46999998093E+01 0. -1.
       -5    1    3    3    0  502  0.38009683613E+03  0.24838385422E+03 -0.24045284061E+03  0.51381689582E+03  0.46999998093E+01 0.  1.
</event>
<event>
 5   0  0.9838215E-05  0.1200243E+04  0.7818609E-02  0.9112644E-01
       -2   -1    0    0    0  501  0.00000000000E+00  0.00000000000E+00  0.89374938062E+03  0.89374938062E+03  0.25500000920E-02 0. -1.
        2   -1    0    0  501    0  0.00000000000E+00  0.00000000000E+00 -0.40296084224E+03  0.40296084225E+03  0.25500000920E-02 0.  1.
    10030    2    1    2    0    0  0.00000000000E+00  0.00000000000E+00  0.49078853838E+03  0.12967102229E+04  0.12002433140E+04 0.  0.
        4    1    3    3  502    0 -0.33469015178E+03 -0.32375907721E+03  0.65437916520E+03  0.80315075953E+03  0.12699999809E+01 0. -1.
       -4    1    3    3    0  502  0.33469015178E+03  0.32375907721E+03 -0.16359062682E+03  0.49355946335E+03  0.12699999809E+01 0.  1.
</event>
<event>
 5   0  0.1012657E-04  0.1199929E+04  0.7818609E-02  0.9112918E-01
        2   -1    0    0  501    0  0.00000000000E+00  0.00000000000E+00  0.10251076695E+04  0.10251076695E+04  0.25500000920E-02 0.  1.
       -2   -1    0    0    0  501  0.00000000000E+00  0.00000000000E+00 -0.35114125531E+03  0.35114125531E+03  0.25500000920E-02 0. -1.
    10030    2    1    2    0    0  0.00000000000E+00  0.00000000000E+00  0.67396641423E+03  0.13762489249E+04  0.11999293211E+04 0.  0.
        1    1    3    3  502    0 -0.35463401467E+03  0.37865800971E+03 -0.86449947988E+01  0.51886598331E+03  0.50400001928E-02 0. -1.
       -1    1    3    3    0  502  0.35463401467E+03 -0.37865800971E+03  0.68261140903E+03  0.85738294154E+03  0.50400001928E-02 0.  1.
</event>
<event>
 5   0  0.1023063E-04  0.1200107E+04  0.7818609E-02  0.9112763E-01
       -2   -1    0    0    0  501  0.00000000000E+00  0.00000000000E+00  0.13188559674E+03  0.13188559676E+03  0.25500000920E-02 0. -1.
        2   -1    0    0  501    0  0.00000000000E+00  0.00000000000E+00 -0.27301250756E+04  0.27301250756E+04  0.25500000920E-02 0.  1.
    10030    2    1    2    0    0  0.00000000000E+00  0.00000000000E+00 -0.25982394788E+04  0.28620106723E+04  0.12001069532E+04 0.  0.
        3    1    3    3  502    0 -0.10459787125E+03 -0.46122875930E+03 -0.21798540600E+04  0.22305686307E+04  0.10100000352E+00 0.  1.
       -3    1    3    3    0  502  0.10459787125E+03  0.46122875930E+03 -0.41838541882E+03  0.63144204164E+03  0.10100000352E+00 0. -1.
</event>
<event>
 5   0  0.9941209E-05  0.1200658E+04  0.7818609E-02  0.9112281E-01
        2   -1    0    0  501    0  0.00000000000E+00  0.00000000000E+00  0.11883620512E+04  0.11883620512E+04  0.25500000920E-02 0.  1.
       -2   -1    0    0    0  501  0.00000000000E+00  0.00000000000E+00 -0.30327008791E+03  0.30327008792E+03  0.25500000920E-02 0. -1.
    10030    2    1    2    0    0  0.00000000000E+00  0.00000000000E+00  0.88509196332E+03  0.14916321391E+04  0.12006575927E+04 0.  0.
        2    1    3    3  502    0  0.58858267659E+03 -0.15368270786E+02  0.58811221158E+03  0.83219091821E+03  0.25500000920E-02 0.  1.
       -2    1    3    3    0  502 -0.58858267659E+03  0.15368270786E+02  0.29697975173E+03  0.65944122094E+03  0.25500000920E-02 0. -1.
</event>
<event>
 5   0  0.1012657E-04  0.1200356E+04  0.7818609E-02  0.9112545E-01
       -2   -1    0    0    0  501  0.00000000000E+00  0.00000000000E+00  0.53344453565E+03  0.53344453565E+03  0.25500000920E-02 0.  1.
        2   -1    0    0  501    0  0.00000000000E+00  0.00000000000E+00 -0.67526009023E+03  0.67526009023E+03  0.25500000920E-02 0. -1.
    10030    2    1    2    0    0  0.00000000000E+00  0.00000000000E+00 -0.14181555458E+03  0.12087046259E+04  0.12003562892E+04 0.  0.
        1    1    3    3  502    0 -0.98654129636E+02  0.10973871099E+02  0.52512168894E+03  0.53442104315E+03  0.50400001928E-02 0.  1.
       -1    1    3    3    0  502  0.98654129636E+02 -0.10973871099E+02 -0.66693724351E+03  0.67428358274E+03  0.50400001928E-02 0. -1.
</event>
<event>
 5   0  0.1004006E-04  0.1199915E+04  0.7818609E-02  0.9112931E-01
       -2   -1    0    0    0  501  0.00000000000E+00  0.00000000000E+00  0.14418730594E+03  0.14418730597E+03  0.25500000920E-02 0.  1.
        2   -1    0    0  501    0  0.00000000000E+00  0.00000000000E+00 -0.24963978355E+04  0.24963978355E+04  0.25500000920E-02 0. -1.
    10030    2    1    2    0    0  0.00000000000E+00  0.00000000000E+00 -0.23522105295E+04  0.26405851415E+04  0.11999147945E+04 0.  0.
        5    1    3    3  502    0 -0.33614192157E+03  0.23880774340E+03 -0.21351070291E+04  0.21745630930E+04  0.46999998093E+01 0. -1.
       -5    1    3    3    0  502  0.33614192157E+03 -0.23880774340E+03 -0.21710350046E+03  0.46602204846E+03  0.46999998093E+01 0.  1.
</event>
<event>
 5   0  0.9941209E-05  0.1200660E+04  0.7818609E-02  0.9112279E-01
        2   -1    0    0  501    0  0.00000000000E+00  0.00000000000E+00  0.11003998667E+04  0.11003998667E+04  0.25500000920E-02 0.  1.
       -2   -1    0    0    0  501  0.00000000000E+00  0.00000000000E+00 -0.32751370091E+03  0.32751370092E+03  0.25500000920E-02 0. -1.
    10030    2    1    2    0    0  0.00000000000E+00  0.00000000000E+00  0.77288616578E+03  0.14279135676E+04  0.12006598733E+04 0.  0.
        2    1    3    3  502    0  0.45146133196E+03  0.16015164013E+03  0.81677321571E+03  0.94688139068E+03  0.25500000920E-02 0.  1.
       -2    1    3    3    0  502 -0.45146133196E+03 -0.16015164013E+03 -0.43887049940E+02  0.48103217694E+03  0.25500000920E-02 0. -1.
</event>
<event>
 5   0  0.5745487E-05  0.1199854E+04  0.7818609E-02  0.9112985E-01
        1   -1    0    0  501    0  0.00000000000E+00  0.00000000000E+00  0.11937692287E+04  0.11937692287E+04  0.50400001928E-02 0.  1.
       -1   -1    0    0    0  501  0.00000000000E+00  0.00000000000E+00 -0.30149234961E+03  0.30149234965E+03  0.50400001928E-02 0. -1.
    10030    2    1    2    0    0  0.00000000000E+00  0.00000000000E+00  0.89227687905E+03  0.14952615783E+04  0.11998538072E+04 0.  0.
        3    1    3    3  502    0  0.58526633479E+03  0.12491190580E+03  0.49860659066E+03  0.77894044014E+03  0.10100000352E+00 0. -1.
       -3    1    3    3    0  502 -0.58526633479E+03 -0.12491190580E+03  0.39367028839E+03  0.71632113818E+03  0.10100000352E+00 0.  1.
</event>
<event>
 5   0  0.5620246E-05  0.1200185E+04  0.7818609E-02  0.9112695E-01
       -1   -1    0    0    0  501  0.00000000000E+00  0.00000000000E+00  0.57040775217E+03  0.57040775219E+03  0.50400001928E-02 0. -1.
        1   -1    0    0  501    0  0.00000000000E+00  0.00000000000E+00 -0.63132219180E+03  0.63132219182E+03  0.50400001928E-02 0.  1.
    10030    2    1    2    0    0  0.00000000000E+00  0.00000000000E+00 -0.60914439633E+02  0.12017299440E+04  0.12001851063E+04 0.  0.
        1    1    3    3  502    0 -0.48643536655E+03  0.30327010942E+03 -0.20822150107E+03  0.60987565834E+03  0.50400001928E-02 0. -1.
       -1    1    3    3    0  502  0.48643536655E+03 -0.30327010942E+03  0.14730706144E+03  0.59185428567E+03  0.50400001928E-02 0.  1.
</event>
<event>
 5   0  0.9941209E-05  0.1199634E+04  0.7818609E-02  0.9113177E-01
       -2   -1    0    0    0  501  0.00000000000E+00  0.00000000000E+00  0.11509858849E+04  0.11509858849E+04  0.25500000920E-02 0.  1.
        2   -1    0    0  501    0  0.00000000000E+00  0.00000000000E+00 -0.31258438752E+03  0.31258438753E+03  0.25500000920E-02 0. -1.
    10030    2    1    2    0    0  0.00000000000E+00  0.00000000000E+00  0.83840149737E+03  0.14635702724E+04  0.11996336406E+04 0.  0.
        2    1    3    3  502    0  0.26713890459E+03  0.41288061719E+03  0.20685597057E+00  0.49176583980E+03  0.25500000920E-02 0. -1.
       -2    1    3    3    0  502 -0.26713890459E+03 -0.41288061719E+03  0.83819464140E+03  0.97180443263E+03  0.25500000920E-02 0.  1.
</event>
<event>
 5   0  0.1004006E-04  0.1203043E+04  0.7818609E-02  0.9110197E-01
       -2   -1    0    0    0  501  0.00000000000E+00  0.00000000000E+00  0.72455058058E+03  0.72455058059E+03  0.25500000920E-02 0.  1.
        2   -1    0    0  501    0  0.00000000000E+00  0.00000000000E+00 -0.49938302922E+03  0.49938302922E+03  0.25500000920E-02 0. -1.
    10030    2    1    2    0    0  0.00000000000E+00  0.00000000000E+00  0.22516755136E+03  0.12239336098E+04  0.12030432474E+04 0.  0.
        5    1    3    3  502    0 -0.50438513761E+03  0.33962489294E+02 -0.21903394553E+03  0.55095896128E+03  0.46999998093E+01 0. -1.
       -5    1    3    3    0  502  0.50438513761E+03 -0.33962489294E+02  0.44420149689E+03  0.67297464853E+03  0.46999998093E+01 0.  1.
</event>
<event>
 5   0  0.1004006E-04  0.1200307E+04  0.7818609E-02  0.9112588E-01
        2   -1    0    0  501    0  0.00000000000E+00  0.00000000000E+00  0.95902397933E+03  0.95902397933E+03  0.25500000920E-02 0. -1.
       -2   -1    0    0    0  501  0.00000000000E+00  0.00000000000E+00 -0.37557349926E+03  0.37557349927E+03  0.25500000920E-02 0.  1.
    10030    2    1    2    0    0  0.00000000000E+00  0.00000000000E+00  0.58345048007E+03  0.13345974786E+04  0.12003066138E+04 0.  0.
        5    1    3    3  502    0 -0.66868810958E+02  0.31070443038E+03 -0.27430079340E+03  0.41984722959E+03  0.46999998093E+01 0.  1.
       -5    1    3    3    0  502  0.66868810958E+02 -0.31070443038E+03  0.85775127347E+03  0.91475024901E+03  0.46999998093E+01 0. -1.
</event>
<event>
 5   0  0.5732931E-05  0.1200005E+04  0.7818609E-02  0.9112852E-01
       -1   -1    0    0    0  501  0.00000000000E+00  0.00000000000E+00  0.30029774217E+03  0.30029774221E+03  0.50400001928E-02 0. -1.
        1   -1    0    0  501    0  0.00000000000E+00  0.00000000000E+00 -0.11988196864E+04  0.11988196864E+04  0.50400001928E-02 0.  1.
    10030    2    1    2    0    0  0.00000000000E+00  0.00000000000E+00 -0.89852194420E+03  0.14991174286E+04  0.12000047419E+04 0.  0.
        4    1    3    3  502    0  0.18219416564E+03  0.22018262627E+03 -0.11083281456E+04  0.11445820172E+04  0.12699999809E+01 0.  1.
       -4    1    3    3    0  502 -0.18219416564E+03 -0.22018262627E+03  0.20980620137E+03  0.35453541140E+03  0.12699999809E+01 0. -1.
</event>
<event>
 5   0  0.5625746E-05  0.1201364E+04  0.7818609E-02  0.9111664E-01
       -1   -1    0    0    0  501  0.00000000000E+00  0.00000000000E+00  0.34118891385E+03  0.34118891389E+03  0.50400001928E-02 0.  1.
        1   -1    0    0  501    0  0.00000000000E+00  0.00000000000E+00 -0.10575331203E+04  0.10575331203E+04  0.50400001928E-02 0. -1.
    10030    2    1    2    0    0  0.00000000000E+00  0.00000000000E+00 -0.71634420647E+03  0.13987220342E+04  0.12013635199E+04 0.  0.
        5    1    3    3  502    0 -0.40942471154E+03  0.53320100361E+02 -0.86610312120E+03  0.95949379054E+03  0.46999998093E+01 0. -1.
       -5    1    3    3    0  502  0.40942471154E+03 -0.53320100361E+02  0.14975891473E+03  0.43922824369E+03  0.46999998093E+01 0.  1.
</event>
<event>
 5   0  0.1012657E-04  0.1200103E+04  0.7818609E-02  0.9112767E-01
        2   -1    0    0  501    0  0.00000000000E+00  0.00000000000E+00  0.10577742522E+04  0.10577742522E+04  0.25500000920E-02 0. -1.
       -2   -1    0    0    0  501  0.00000000000E+00  0.00000000000E+00 -0.34039547051E+03  0.34039547052E+03  0.25500000920E-02 0.  1.
    10030    2    1    2    0    0  0.00000000000E+00  0.00000000000E+00  0.71737878166E+03  0.13981697227E+04  0.12001026027E+04 0.  0.
        1    1    3    3  502    0  0.57273903556E+03 -0.17348946097E+03  0.40991107866E+03  0.72536589964E+03  0.50400001928E-02 0. -1.
       -1    1    3    3    0  502 -0.57273903556E+03  0.17348946097E+03  0.30746770301E+03  0.67280382307E+03  0.50400001928E-02 0.  1.
</event>
<event>
 5   0  0.9838215E-05  0.1200266E+04  0.7818609E-02  0.9112624E-01
       -2   -1    0    0    0  501  0.00000000000E+00  0.00000000000E+00  0.28244996826E+03  0.28244996827E+03  0.25500000920E-02 0. -1.
        2   -1    0    0  501    0  0.00000000000E+00  0.00000000000E+00 -0.12751261498E+04  0.12751261498E+04  0.25500000920E-02 0.  1.
    10030    2    1    2    0    0  0.00000000000E+00  0.00000000000E+00 -0.99267618154E+03  0.15575761181E+04  0.12002655382E+04 0.  0.
        4    1    3    3  502    0 -0.31924059317E+03 -0.42026334028E+03 -0.12559310800E+03  0.54250444532E+03  0.12699999809E+01 0. -1.
       -4    1    3    3    0  502  0.31924059317E+03  0.42026334028E+03 -0.86708307354E+03  0.10150716728E+04  0.12699999809E+01 0.  1.
</event>
<event>
 5   0  0.9941209E-05  0.1191440E+04  0.7818609E-02  0.9120382E-01
        2   -1    0    0  501    0  0.00000000000E+00  0.00000000000E+00  0.17815900573E+04  0.17815900573E+04  0.25500000920E-02 0. -1.
       -2   -1    0    0    0  501  0.00000000000E+00  0.00000000000E+00 -0.19919414878E+03  0.19919414880E+03  0.25500000920E-02 0.  1.
    10030    2    1    2    0    0  0.00000000000E+00  0.00000000000E+00  0.15823959085E+04  0.19807842061E+04  0.11914399942E+04 0.  0.
        2    1    3    3  502    0  0.93999765043E+02 -0.54606503244E+03  0.42749373409E+03  0.69983845863E+03  0.25500000920E-02 0.  1.
       -2    1    3    3    0  502 -0.93999765043E+02  0.54606503244E+03  0.11549021744E+04  0.12809457474E+04  0.25500000920E-02 0. -1.
</event>
<event>
 5   0  0.9941209E-05  0.1201171E+04  0.7818609E-02  0.9111832E-01
        2   -1    0    0  501    0  0.00000000000E+00  0.00000000000E+00  0.72927127358E+03  0.72927127358E+03  0.25500000920E-02 0.  1.
       -2   -1    0    0    0  501  0.00000000000E+00  0.00000000000E+00 -0.49460713608E+03  0.49460713608E+03  0.25500000920E-02 0. -1.
    10030    2    1    2    0    0  0.00000000000E+00  0.00000000000E+00  0.23466413750E+03  0.12238784097E+04  0.12011707223E+04 0.  0.
        2    1    3    3  502    0 -0.34339303107E+03  0.95697690285E+00  0.61937718827E+03  0.70820038897E+03  0.25500000920E-02 0.  1.
       -2    1    3    3    0  502  0.34339303107E+03 -0.95697690285E+00 -0.38471305076E+03  0.51567802069E+03  0.25500000920E-02 0. -1.
</event>
<event>
 5   0  0.3839750E-05  0.1200094E+04  0.7818609E-02  0.9112774E-01
        4   -1    0    0  501    0  0.00000000000E+00  0.00000000000E+00  0.25297422567E+03  0.25297741353E+03  0.12699999809E+01 0.  1.
       -4   -1    0    0    0  501  0.00000000000E+00  0.00000000000E+00 -0.14232805742E+04  0.14232811408E+04  0.12699999809E+01 0. -1.
    10030    2    1    2    0    0  0.00000000000E+00  0.00000000000E+00 -0.11703063485E+04  0.16762585543E+04  0.12000940762E+04 0.  0.
        3    1    3    3  502    0 -0.33791084262E+03  0.12170534751E+03  0.86258019580E+02  0.36937296235E+03  0.10100000352E+00 0.  1.
       -3    1    3    3    0  502  0.33791084262E+03 -0.12170534751E+03 -0.12565643681E+04  0.13068855920E+04  0.10100000352E+00 0. -1.
</event>
<event>
 5   0  0.5620246E-05  0.1200591E+04  0.7818609E-02  0.9112339E-01
        1   -1    0    0  501    0  0.00000000000E+00  0.00000000000E+00  0.75178273484E+03  0.75178273486E+03  0.50400001928E-02 0. -1.
       -1   -1    0    0    0  501  0.00000000000E+00  0.00000000000E+00 -0.47933377277E+03  0.47933377279E+03  0.50400001928E-02 0.  1.
    10030    2    1    2    0    0  0.00000000000E+00  0.00000000000E+00  0.27244896208E+03  0.12311165077E+04  0.12005912787E+04 0.  0.
        1    1    3    3  502    0  0.23191818450E+03  0.49674938497E+03  0.38700091846E+03  0.67105566586E+03  0.50400001928E-02 0.  1.
       -1    1    3    3    0  502 -0.23191818450E+03 -0.49674938497E+03 -0.11455195638E+03  0.56006084179E+03  0.50400001928E-02 0. -1.
</event>
<event>
 5   0  0.1004006E-04  0.1200677E+04  0.7818609E-02  0.9112265E-01
        2   -1    0    0  501    0  0.00000000000E+00  0.00000000000E+00  0.20091790666E+04  0.20091790666E+04  0.25500000920E-02 0. -1.
       -2   -1    0    0    0  501  0.00000000000E+00  0.00000000000E+00 -0.17937973964E+03  0.17937973965E+03  0.25500000920E-02 0.  1.
    10030    2    1    2    0    0  0.00000000000E+00  0.00000000000E+00  0.18297993270E+04  0.21885588063E+04  0.12006765058E+04 0.  0.
        5    1    3    3  502    0 -0.33756039188E+03  0.17554262046E+03  0.17613050896E+04  0.18019378287E+04  0.46999998093E+01 0. -1.
       -5    1    3    3    0  502  0.33756039188E+03 -0.17554262046E+03  0.68494237382E+02  0.38662097760E+03  0.46999998093E+01 0.  1.
</event>
<event>
 5   0  0.1012657E-04  0.1200129E+04  0.7818609E-02  0.9112743E-01
       -2   -1    0    0    0  501  0.00000000000E+00  0.00000000000E+00  0.86669558339E+03  0.86669558340E+03  0.25500000920E-02 0. -1.
        2   -1    0    0  501    0  0.00000000000E+00  0.00000000000E+00 -0.41546028998E+03  0.41546028999E+03  0.25500000920E-02 0.  1.
    10030    2    1    2    0    0  0.00000000000E+00  0.00000000000E+00  0.45123529341E+03  0.12821558734E+04  0.12001293237E+04 0.  0.
        1    1    3    3  502    0 -0.34452016393E+03  0.34836064041E+03  0.59574794836E+03  0.77133967689E+03  0.50400001928E-02 0. -1.
       -1    1    3    3    0  502  0.34452016393E+03 -0.34836064041E+03 -0.14451265495E+03  0.51081619650E+03  0.50400001928E-02 0.  1.
</event>
<event>
 5   0  0.5732931E-05  0.1200225E+04  0.7818609E-02  0.9112660E-01
        1   -1    0    0  501    0  0.00000000000E+00  0.00000000000E+00  0.10622484802E+04  0.10622484803E+04  0.50400001928E-02 0.  1.
       -1   -1    0    0    0  501  0.00000000000E+00  0.00000000000E+00 -0.33903080398E+03  0.33903080402E+03  0.50400001928E-02 0. -1.
    10030    2    1    2    0    0  0.00000000000E+00  0.00000000000E+00  0.72321767626E+03  0.14012792843E+04  0.12002249061E+04 0.  0.
        4    1    3    3  502    0 -0.17861310336E+03  0.25863025639E+03  0.95845982838E+03  0.10086818655E+04  0.12699999809E+01 0.  1.
       -4    1    3    3    0  502  0.17861310336E+03 -0.25863025639E+03 -0.23524215212E+03  0.39259741880E+03  0.12699999809E+01 0. -1.
</event>
<event>
 5   0  0.5745487E-05  0.1196660E+04  0.7818609E-02  0.9115785E-01
        1   -1    0    0  501    0  0.00000000000E+00  0.00000000000E+00  0.85474973482E+03  0.85474973483E+03  0.50400001928E-02 0.  1.
       -1   -1    0    0    0  501  0.00000000000E+00  0.00000000000E+00 -0.41883459802E+03  0.41883459805E+03  0.50400001928E-02 0. -1.
    10030    2    1    2    0    0  0.00000000000E+00  0.00000000000E+00  0.43591513680E+03  0.12735843329E+04  0.11966599544E+04 0.  0.
        3    1    3    3  502    0  0.21446350667E+03  0.30908232944E+03  0.71313185560E+03  0.80627757983E+03  0.10100000352E+00 0.  1.
       -3    1    3    3    0  502 -0.21446350667E+03 -0.30908232944E+03 -0.27721671879E+03  0.46730675305E+03  0.10100000352E+00 0. -1.
</event>
<event>
 5   0  0.1004006E-04  0.1199759E+04  0.7818609E-02  0.9113068E-01
       -2   -1    0    0    0  501  0.00000000000E+00  0.00000000000E+00  0.77042222014E+03  0.77042222014E+03  0.25500000920E-02 0.  1.
        2   -1    0    0  501    0  0.00000000000E+00  0.00000000000E+00 -0.46708824574E+03  0.46708824575E+03  0.25500000920E-02 0. -1.
    10030    2    1    2    0    0  0.00000000000E+00  0.00000000000E+00  0.30333397440E+03  0.12375104659E+04  0.11997585812E+04 0.  0.
        5    1    3    3  502    0  0.33883008005E+03 -0.49318044104E+03  0.19543207305E+03  0.62948276843E+03  0.46999998093E+01 0.  1.
       -5    1    3    3    0  502 -0.33883008005E+03  0.49318044104E+03  0.10790190135E+03  0.60802769747E+03  0.46999998093E+01 0. -1.
</event>
<event>
 5   0  0.1004006E-04  0.1200114E+04  0.7818609E-02  0.9112757E-01
        2   -1    0    0  501    0  0.00000000000E+00  0.00000000000E+00  0.78945722686E+03  0.78945722686E+03  0.25500000920E-02 0.  1.
       -2   -1    0    0    0  501  0.00000000000E+00  0.00000000000E+00 -0.45609613279E+03  0.45609613279E+03  0.25500000920E-02 0. -1.
    10030    2    1    2    0    0  0.00000000000E+00  0.00000000000E+00  0.33336109407E+03  0.12455533597E+04  0.12001139749E+04 0.  0.
        5    1    3    3  502    0 -0.43395030098E+03 -0.23671605829E+03 -0.18634370270E+03  0.52829293153E+03  0.46999998093E+01 0. -1.
       -5    1    3    3    0  502  0.43395030098E+03  0.23671605829E+03  0.51970479677E+03  0.71726042813E+03  0.46999998093E+01 0.  1.
</event>
<event>
 5   0  0.9941209E-05  0.1200407E+04  0.7818609E-02  0.9112500E-01
        2   -1    0    0  501    0  0.00000000000E+00  0.00000000000E+00  0.12504308874E+04  0.12504308874E+04  0.25500000920E-02 0. -1.
       -2   -1    0    0    0  501  0.00000000000E+00  0.00000000000E+00 -0.28809608712E+03  0.28809608713E+03  0.25500000920E-02 0.  1.
    10030    2    1    2    0    0  0.00000000000E+00  0.00000000000E+00  0.96233480030E+03  0.15385269745E+04  0.12004070075E+04 0.  0.
        2    1    3    3  502    0 -0.31337841719E+03  0.18570393004E+03  0.10925557703E+04  0.11516814200E+04  0.25500000920E-02 0. -1.
       -2    1    3    3    0  502  0.31337841719E+03 -0.18570393004E+03 -0.13022097003E+03  0.38684555450E+03  0.25500000920E-02 0.  1.
</event>
<event>
 5   0  0.9838215E-05  0.1200048E+04  0.7818609E-02  0.9112814E-01
        2   -1    0    0  501    0  0.00000000000E+00  0.00000000000E+00  0.85300965031E+03  0.85300965031E+03  0.25500000920E-02 0.  1.
       -2   -1    0    0    0  501  0.00000000000E+00  0.00000000000E+00 -0.42206919051E+03  0.42206919052E+03  0.25500000920E-02 0. -1.
    10030    2    1    2    0    0  0.00000000000E+00  0.00000000000E+00  0.43094045980E+03  0.12750788408E+04  0.12000484867E+04 0.  0.
        4    1    3    3  502    0 -0.48186117556E+03 -0.16840942474E+03  0.55058720410E+03  0.75079944664E+03  0.12699999809E+01 0.  1.
       -4    1    3    3    0  502  0.48186117556E+03  0.16840942474E+03 -0.11964674430E+03  0.52427939419E+03  0.12699999809E+01 0. -1.
</event>
<event>
 5   0  0.5620246E-05  0.1201675E+04  0.7818609E-02  0.9111392E-01
        1   -1    0    0  501    0  0.00000000000E+00  0.00000000000E+00  0.10875265809E+04  0.10875265809E+04  0.50400001928E-02 0.  1.
       -1   -1    0    0    0  501  0.00000000000E+00  0.00000000000E+00 -0.33195124523E+03  0.33195124527E+03  0.50400001928E-02 0. -1.
    10030    2    1    2    0    0  0.00000000000E+00  0.00000000000E+00  0.75557533566E+03  0.14194778262E+04  0.12016751687E+04 0.  0.
        1    1    3    3  502    0 -0.56023337388E+03  0.89320922033E+02  0.14401328175E+03  0.58530290079E+03  0.50400001928E-02 0. -1.
       -1    1    3    3    0  502  0.56023337388E+03 -0.89320922033E+02  0.61156205392E+03  0.83417492538E+03  0.50400001928E-02 0.  1.
</event>
<event>
 5   0  0.5620246E-05  0.1200042E+04  0.7818609E-02  0.9112820E-01
       -1   -1    0    0    0  501  0.00000000000E+00  0.00000000000E+00  0.34939528670E+03  0.34939528674E+03  0.50400001928E-02 0. -1.
        1   -1    0    0  501    0  0.00000000000E+00  0.00000000000E+00 -0.10304234097E+04  0.10304234097E+04  0.50400001928E-02 0.  1.
    10030    2    1    2    0    0  0.00000000000E+00  0.00000000000E+00 -0.68102812301E+03  0.13798186965E+04  0.12000418038E+04 0.  0.
        1    1    3    3  502    0 -0.42050676769E+03 -0.44088409588E+02  0.14900664965E+03  0.44829980058E+03  0.50400001928E-02 0. -1.
       -1    1    3    3    0  502  0.42050676769E+03  0.44088409588E+02 -0.83003477267E+03  0.93151889589E+03  0.50400001928E-02 0.  1.
</event>
<event>
 5   0  0.5745487E-05  0.1200136E+04  0.7818609E-02  0.9112738E-01
       -1   -1    0    0    0  501  0.00000000000E+00  0.00000000000E+00  0.53065567633E+03  0.53065567635E+03  0.50400001928E-02 0.  1.
        1   -1    0    0  501    0  0.00000000000E+00  0.00000000000E+00 -0.67855945366E+03  0.67855945368E+03  0.50400001928E-02 0. -1.
    10030    2    1    2    0    0  0.00000000000E+00  0.00000000000E+00 -0.14790377733E+03  0.12092151300E+04  0.12001357021E+04 0.  0.
        3    1    3    3  502    0 -0.54821337929E+03  0.23812937089E+03 -0.12762693891E+03  0.61117276792E+03  0.10100000352E+00 0. -1.
       -3    1    3    3    0  502  0.54821337929E+03 -0.23812937089E+03 -0.20276838426E+02  0.59804236212E+03  0.10100000352E+00 0.  1.
</event>
<event>
 5   0  0.1012657E-04  0.1199944E+04  0.7818609E-02  0.9112906E-01
       -2   -1    0    0    0  501  0.00000000000E+00  0.00000000000E+00  0.28358923004E+03  0.28358923005E+03  0.25500000920E-02 0. -1.
        2   -1    0    0  501    0  0.00000000000E+00  0.00000000000E+00 -0.12693225807E+04  0.12693225807E+04  0.25500000920E-02 0.  1.
    10030    2    1    2    0    0  0.00000000000E+00  0.00000000000E+00 -0.98573335068E+03  0.15529118108E+04  0.11999436876E+04 0.  0.
        1    1    3    3  502    0 -0.38970625385E+03 -0.36423234835E+03 -0.84829997415E+03  0.10020723597E+04  0.50400001928E-02 0.  1.
       -1    1    3    3    0  502  0.38970625385E+03  0.36423234835E+03 -0.13743337653E+03  0.55083945110E+03  0.50400001928E-02 0. -1.
</event>
<event>
 5   0  0.3839750E-05  0.1200202E+04  0.7818609E-02  0.9112679E-01
        3   -1    0    0  501    0  0.00000000000E+00  0.00000000000E+00  0.17676812214E+04  0.17676812243E+04  0.10100000352E+00 0.  1.
       -3   -1    0    0    0  501  0.00000000000E+00  0.00000000000E+00 -0.20372533776E+03  0.20372536280E+03  0.10100000352E+00 0. -1.
    10030    2    1    2    0    0  0.00000000000E+00  0.00000000000E+00  0.15639558837E+04  0.19714065871E+04  0.12002024519E+04 0.  0.
        4    1    3    3  502    0  0.40801456132E+03 -0.38521359878E+03  0.11314017022E+04  0.12629080820E+04  0.12699999809E+01 0.  1.
       -4    1    3    3    0  502 -0.40801456132E+03  0.38521359878E+03  0.43255418146E+03  0.70849850511E+03  0.12699999809E+01 0. -1.
</event>
<event>
 5   0  0.9838215E-05  0.1200461E+04  0.7818609E-02  0.9112453E-01
        2   -1    0    0  501    0  0.00000000000E+00  0.00000000000E+00  0.79200087839E+03  0.79200087840E+03  0.25500000920E-02 0. -1.
       -2   -1    0    0    0  501  0.00000000000E+00  0.00000000000E+00 -0.45489452204E+03  0.45489452205E+03  0.25500000920E-02 0.  1.
    10030    2    1    2    0    0  0.00000000000E+00  0.00000000000E+00  0.33710635635E+03  0.12468954004E+04  0.12004613464E+04 0.  0.
        4    1    3    3  502    0  0.55742590175E+03  0.15458977336E+03  0.21904164073E+01  0.57847043554E+03  0.12699999809E+01 0.  1.
       -4    1    3    3    0  502 -0.55742590175E+03 -0.15458977336E+03  0.33491593995E+03  0.66842496490E+03  0.12699999809E+01 0. -1.
</event>
<event>
 5   0  0.5732931E-05  0.1200162E+04  0.7818609E-02  0.9112715E-01
       -1   -1    0    0    0  501  0.00000000000E+00  0.00000000000E+00  0.77838338794E+03  0.77838338796E+03  0.50400001928E-02 0.  1.
        1   -1    0    0  501    0  0.00000000000E+00  0.00000000000E+00 -0.46262169173E+03  0.46262169176E+03  0.50400001928E-02 0. -1.
    10030    2    1    2    0    0  0.00000000000E+00  0.00000000000E+00  0.31576169621E+03  0.12410050797E+04  0.12001617221E+04 0.  0.
        4    1    3    3  502    0  0.46793390706E+03 -0.19644838320E+03 -0.17323749182E+03  0.53625269240E+03  0.12699999809E+01 0. -1.
       -4    1    3    3    0  502 -0.46793390706E+03  0.19644838320E+03  0.48899918803E+03  0.70475238732E+03  0.12699999809E+01 0.  1.
</event>
<event>
 5   0  0.5625746E-05  0.1200039E+04  0.7818609E-02  0.9112822E-01
       -1   -1    0    0    0  501  0.00000000000E+00  0.00000000000E+00  0.73298404835E+03  0.73298404837E+03  0.50400001928E-02 0. -1.
        1   -1    0    0  501    0  0.00000000000E+00  0.00000000000E+00 -0.49117488654E+03  0.49117488656E+03  0.50400001928E-02 0.  1.
    10030    2    1    2    0    0  0.00000000000E+00  0.00000000000E+00  0.24180916181E+03  0.12241589349E+04  0.12000389274E+04 0.  0.
        5    1    3    3  502    0 -0.77661705507E+02  0.40514157556E+02  0.72640769099E+03  0.73168501487E+03  0.46999998093E+01 0. -1.
       -5    1    3    3    0  502  0.77661705507E+02 -0.40514157556E+02 -0.48459852917E+03  0.49247392006E+03  0.46999998093E+01 0.  1.
</event>
<event>
 5   0  0.1012657E-04  0.1200157E+04  0.7818609E-02  0.9112719E-01
       -2   -1    0    0    0  501  0.00000000000E+00  0.00000000000E+00  0.17209085789E+03  0.17209085791E+03  0.25500000920E-02 0.  1.
        2   -1    0    0  501    0  0.00000000000E+00  0.00000000000E+00 -0.20924656103E+04  0.20924656103E+04  0.25500000920E-02 0. -1.
    10030    2    1    2    0    0  0.00000000000E+00  0.00000000000E+00 -0.19203747524E+04  0.22645564682E+04  0.12001569931E+04 0.  0.
        1    1    3    3  502    0  0.30786561415E+03  0.41254504444E+03 -0.15421297649E+04  0.16257733120E+04  0.50400001928E-02 0.  1.
       -1    1    3    3    0  502 -0.30786561415E+03 -0.41254504444E+03 -0.37824498741E+03  0.63878315616E+03  0.50400001928E-02 0. -1.
</event>
<event>
 5   0  0.5745487E-05  0.1206691E+04  0.7818609E-02  0.9107020E-01
       -1   -1    0    0    0  501  0.00000000000E+00  0.00000000000E+00  0.70219484502E+03  0.70219484504E+03  0.50400001928E-02 0. -1.
        1   -1    0    0  501    0  0.00000000000E+00  0.00000000000E+00 -0.51841171082E+03  0.51841171084E+03  0.50400001928E-02 0.  1.
    10030    2    1    2    0    0  0.00000000000E+00  0.00000000000E+00  0.18378313420E+03  0.12206065559E+04  0.12066913954E+04 0.  0.
        3    1    3    3  502    0  0.50032825115E+03 -0.32186164155E+03 -0.97799233111E+01  0.59499490107E+03  0.10100000352E+00 0.  1.
       -3    1    3    3    0  502 -0.50032825115E+03  0.32186164155E+03  0.19356305751E+03  0.62561165481E+03  0.10100000352E+00 0. -1.
</event>
<event>
 5   0  0.9941209E-05  0.1199917E+04  0.7818609E-02  0.9112929E-01
        2   -1    0    0  501    0  0.00000000000E+00  0.00000000000E+00  0.75099633642E+03  0.75099633643E+03  0.25500000920E-02 0. -1.
       -2   -1    0    0    0  501  0.00000000000E+00  0.00000000000E+00 -0.47929674633E+03  0.47929674634E+03  0.25500000920E-02 0.  1.
    10030    2    1    2    0    0  0.00000000000E+00  0.00000000000E+00  0.27169959009E+03  0.12302930828E+04  0.11999168314E+04 0.  0.
        2    1    3    3  502    0  0.26240294849E+02  0.51374046602E+03  0.45242538821E+03  0.68505952399E+03  0.25500000920E-02 0. -1.
       -2    1    3    3    0  502 -0.26240294849E+02 -0.51374046602E+03 -0.18072579813E+03  0.54523355878E+03  0.25500000920E-02 0.  1.
</event>
<event>
 5   0  0.9941209E-05  0.1198953E+04  0.7818609E-02  0.9113774E-01
       -2   -1    0    0    0  501  0.00000000000E+00  0.00000000000E+00  0.17955146199E+03  0.17955146201E+03  0.25500000920E-02 0. -1.
        2   -1    0    0  501    0  0.00000000000E+00  0.00000000000E+00 -0.20014982860E+04  0.20014982860E+04  0.25500000920E-02 0.  1.
    10030    2    1    2    0    0  0.00000000000E+00  0.00000000000E+00 -0.18219468240E+04  0.21810497480E+04  0.11989527821E+04 0.  0.
        2    1    3    3  502    0 -0.31731916881E+03  0.85726620042E+02  0.10099125291E+01  0.32869671159E+03  0.25500000920E-02 0. -1.
       -2    1    3    3    0  502  0.31731916881E+03 -0.85726620042E+02 -0.18229567365E+04  0.18523530364E+04  0.25500000920E-02 0.  1.
</event>
<event>
 5   0  0.9838215E-05  0.1200115E+04  0.7818609E-02  0.9112756E-01
        2   -1    0    0  501    0  0.00000000000E+00  0.00000000000E+00  0.12410746715E+04  0.12410746715E+04  0.25500000920E-02 0.  1.
       -2   -1    0    0    0  501  0.00000000000E+00  0.00000000000E+00 -0.29012665505E+03  0.29012665506E+03  0.25500000920E-02 0. -1.
    10030    2    1    2    0    0  0.00000000000E+00  0.00000000000E+00  0.95094801645E+03  0.15312013266E+04  0.12001147330E+04 0.  0.
        4    1    3    3  502    0  0.35302112328E+02 -0.58376976446E+03  0.30413596837E+03  0.65919168471E+03  0.12699999809E+01 0. -1.
       -4    1    3    3    0  502 -0.35302112328E+02  0.58376976446E+03  0.64681204808E+03  0.87200964185E+03  0.12699999809E+01 0.  1.
</event>
<event>
 5   0  0.1023063E-04  0.1200227E+04  0.7818609E-02  0.9112658E-01
       -2   -1    0    0    0  501  0.00000000000E+00  0.00000000000E+00  0.62574548780E+03  0.62574548780E+03  0.25500000920E-02 0.  1.
        2   -1    0    0  501    0  0.00000000000E+00  0.00000000000E+00 -0.57553116888E+03  0.57553116888E+03  0.25500000920E-02 0. -1.
    10030    2    1    2    0    0  0.00000000000E+00  0.00000000000E+00  0.50214318921E+02  0.12012766567E+04  0.12002266986E+04 0.  0.
        3    1    3    3  502    0  0.35584397604E+03  0.39052632817E+03 -0.25974728331E+03  0.58873118626E+03  0.10100000352E+00 0. -1.
       -3    1    3    3    0  502 -0.35584397604E+03 -0.39052632817E+03  0.30996160223E+03  0.61254547043E+03  0.10100000352E+00 0.  1.
</event>
<event>
 5   0  0.1012657E-04  0.1201077E+04  0.7818609E-02  0.9111915E-01
        2   -1    0    0  501    0  0.00000000000E+00  0.00000000000E+00  0.46840246776E+03  0.46840246776E+03  0.25500000920E-02 0. -1.
       -2   -1    0    0    0  501  0.00000000000E+00  0.00000000000E+00 -0.76994940068E+03  0.76994940069E+03  0.25500000920E-02 0.  1.
    10030    2    1    2    0    0  0.00000000000E+00  0.00000000000E+00 -0.30154693293E+03  0.12383518685E+04  0.12010765160E+04 0.  0.
        1    1    3    3  502    0  0.28502089045E+03 -0.50644933254E+03  0.53129834513E+01  0.58116784344E+03  0.50400001928E-02 0. -1.
       -1    1    3    3    0  502 -0.28502089045E+03  0.50644933254E+03 -0.30685991638E+03  0.65718402501E+03  0.50400001928E-02 0.  1.
</event>
<event>
 5   0  0.1004006E-04  0.1200824E+04  0.7818609E-02  0.9112135E-01
       -2   -1    0    0    0  501  0.00000000000E+00  0.00000000000E+00  0.32797401272E+03  0.32797401273E+03  0.25500000920E-02 0. -1.
        2   -1    0    0  501    0  0.00000000000E+00  0.00000000000E+00 -0.10991564857E+04  0.10991564857E+04  0.25500000920E-02 0.  1.
    10030    2    1    2    0    0  0.00000000000E+00  0.00000000000E+00 -0.77118247294E+03  0.14271304984E+04  0.12008243222E+04 0.  0.
        5    1    3    3  502    0  0.37957397261E+03  0.29382246062E+03 -0.81420274047E+03  0.94517523858E+03  0.46999998093E+01 0.  1.
       -5    1    3    3    0  502 -0.37957397261E+03 -0.29382246062E+03  0.43020267531E+02  0.48195525981E+03  0.46999998093E+01 0. -1.
</event>
<event>
 5   0  0.5732931E-05  0.1199365E+04  0.7818609E-02  0.9113413E-01
        1   -1    0    0  501    0  0.00000000000E+00  0.00000000000E+00  0.17542164007E+04  0.17542164007E+04  0.50400001928E-02 0. -1.
       -1   -1    0    0    0  501  0.00000000000E+00  0.00000000000E+00 -0.20500269486E+03  0.20500269492E+03  0.50400001928E-02 0.  1.
    10030    2    1    2    0    0  0.00000000000E+00  0.00000000000E+00  0.15492137058E+04  0.19592190956E+04  0.11993649813E+04 0.  0.
        4    1    3    3  502    0 -0.35781042739E+03  0.35396073778E+03  0.24200796389E+03  0.55846752218E+03  0.12699999809E+01 0.  1.
       -4    1    3    3    0  502  0.35781042739E+03 -0.35396073778E+03  0.13072057419E+04  0.14007515734E+04  0.12699999809E+01 0. -1.
</event>
<event>
 5   0  0.5625746E-05  0.1200107E+04  0.7818609E-02  0.9112763E-01
        1   -1    0    0  501    0  0.00000000000E+00  0.00000000000E+00  0.17699387494E+04  0.17699387494E+04  0.50400001928E-02 0.  1.
       -1   -1    0    0    0  501  0.00000000000E+00  0.00000000000E+00 -0.20343303843E+03  0.20343303849E+03  0.50400001928E-02 0. -1.
    10030    2    1    2    0    0  0.00000000000E+00  0.00000000000E+00  0.15665057110E+04  0.19733717879E+04  0.12001066914E+04 0.  0.
        5    1    3    3  502    0 -0.35970793003E+03  0.45864783402E+03  0.10175009490E+04  0.11726371569E+04  0.46999998093E+01 0.  1.
       -5    1    3    3    0  502  0.35970793003E+03 -0.45864783402E+03  0.54900476197E+03  0.80073463097E+03  0.46999998093E+01 0. -1.
</event>
<event>
 5   0  0.9838215E-05  0.1200305E+04  0.7818609E-02  0.9112590E-01
        2   -1    0    0  501    0  0.00000000000E+00  0.00000000000E+00  0.80196256890E+03  0.80196256890E+03  0.25500000920E-02 0.  1.
       -2   -1    0    0    0  501  0.00000000000E+00  0.00000000000E+00 -0.44912675471E+03  0.44912675472E+03  0.25500000920E-02 0. -1.
    10030    2    1    2    0    0  0.00000000000E+00  0.00000000000E+00  0.35283581419E+03  0.12510893236E+04  0.12003047046E+04 0.  0.
        4    1    3    3  502    0  0.12061903645E+03  0.24404131380E+03 -0.38107277349E+03  0.46831953450E+03  0.12699999809E+01 0. -1.
       -4    1    3    3    0  502 -0.12061903645E+03 -0.24404131380E+03  0.73390858768E+03  0.78276978912E+03  0.12699999809E+01 0.  1.
</event>
<event>
 5   0  0.9941209E-05  0.1199976E+04  0.7818609E-02  0.9112877E-01
        2   -1    0    0  501    0  0.00000000000E+00  0.00000000000E+00  0.56834611427E+03  0.56834611428E+03  0.25500000920E-02 0.  1.
       -2   -1    0    0    0  501  0.00000000000E+00  0.00000000000E+00 -0.63339195497E+03  0.63339195497E+03  0.25500000920E-02 0. -1.
    10030    2    1    2    0    0  0.00000000000E+00  0.00000000000E+00 -0.65045840693E+02  0.12017380692E+04  0.11999764271E+04 0.  0.
        2    1    3    3  502    0 -0.29381583796E+03 -0.15154322755E+03 -0.53395024934E+03  0.62800952638E+03  0.25500000920E-02 0. -1.
       -2    1    3    3    0  502  0.29381583796E+03  0.15154322755E+03  0.46890440864E+03  0.57372854287E+03  0.25500000920E-02 0.  1.
</event>
<event>
 5   0  0.5625746E-05  0.1200362E+04  0.7818609E-02  0.9112540E-01
        1   -1    0    0  501    0  0.00000000000E+00  0.00000000000E+00  0.77985949612E+03  0.77985949614E+03  0.50400001928E-02 0. -1.
       -1   -1    0    0    0  501  0.00000000000E+00  0.00000000000E+00 -0.46189984434E+03  0.46189984437E+03  0.50400001928E-02 0.  1.
    10030    2    1    2    0    0  0.00000000000E+00  0.00000000000E+00  0.31795965178E+03  0.12417593405E+04  0.12003615787E+04 0.  0.
        5    1    3    3  502    0  0.38350732046E+03  0.41160108214E+03  0.37523867637E+03  0.67625399807E+03  0.46999998093E+01 0. -1.
       -5    1    3    3    0  502 -0.38350732046E+03 -0.41160108214E+03 -0.57279024597E+02  0.56550534243E+03  0.46999998093E+01 0.  1.
</event>
<event>
 5   0  0.5447807E-05  0.1200029E+04  0.7818609E-02  0.9112831E-01
        1   -1    0    0  501    0  0.00000000000E+00  0.00000000000E+00  0.52217703573E+03  0.52217703576E+03  0.50400001928E-02 0.  1.
       -1   -1    0    0    0  501  0.00000000000E+00  0.00000000000E+00 -0.68945444580E+03  0.68945444582E+03  0.50400001928E-02 0. -1.
    10030    2    1    2    0    0  0.00000000000E+00  0.00000000000E+00 -0.16727741007E+03  0.12116314816E+04  0.12000287977E+04 0.  0.
        2    1    3    3  502    0 -0.45704593328E+02  0.55425504467E+03 -0.31104898327E+03  0.63721192267E+03  0.25500000920E-02 0. -1.
       -2    1    3    3    0  502  0.45704593328E+02 -0.55425504467E+03  0.14377157320E+03  0.57441955891E+03  0.25500000920E-02 0.  1.
</event>
<event>
 5   0  0.1004006E-04  0.1199877E+04  0.7818609E-02  0.9112965E-01
        2   -1    0    0  501    0  0.00000000000E+00  0.00000000000E+00  0.88165641423E+03  0.88165641423E+03  0.25500000920E-02 0.  1.
       -2   -1    0    0    0  501  0.00000000000E+00  0.00000000000E+00 -0.40823832532E+03  0.40823832532E+03  0.25500000920E-02 0. -1.
    10030    2    1    2    0    0  0.00000000000E+00  0.00000000000E+00  0.47341808891E+03  0.12898947396E+04  0.11998765571E+04 0.  0.
        5    1    3    3  502    0  0.22227820157E+03  0.55105287152E+03  0.32559843330E+03  0.67757161678E+03  0.46999998093E+01 0.  1.
       -5    1    3    3    0  502 -0.22227820157E+03 -0.55105287152E+03  0.14781965561E+03  0.61232312277E+03  0.46999998093E+01 0. -1.
</event>
<event>
 5   0  0.5447807E-05  0.1199934E+04  0.7818609E-02  0.9112914E-01
        1   -1    0    0  501    0  0.00000000000E+00  0.00000000000E+00  0.99864964516E+03  0.99864964517E+03  0.50400001928E-02 0.  1.
       -1   -1    0    0    0  501  0.00000000000E+00  0.00000000000E+00 -0.36044729541E+03  0.36044729544E+03  0.50400001928E-02 0. -1.
    10030    2    1    2    0    0  0.00000000000E+00  0.00000000000E+00  0.63820234975E+03  0.13590969406E+04  0.11999342710E+04 0.  0.
        2    1    3    3  502    0  0.17081330592E+03 -0.56609784044E+03  0.20405781615E+03  0.62552661236E+03  0.25500000920E-02 0. -1.
       -2    1    3    3    0  502 -0.17081330592E+03  0.56609784044E+03  0.43414453360E+03  0.73357032825E+03  0.25500000920E-02 0.  1.
</event>
<event>
 5   0  0.5745487E-05  0.1200211E+04  0.7818609E-02  0.9112672E-01
        1   -1    0    0  501    0  0.00000000000E+00  0.00000000000E+00  0.52611102721E+03  0.52611102723E+03  0.50400001928E-02 0.  1.
       -1   -1    0    0    0  501  0.00000000000E+00  0.00000000000E+00 -0.68450686652E+03  0.68450686653E+03  0.50400001928E-02 0. -1.
    10030    2    1    2    0    0  0.00000000000E+00  0.00000000000E+00 -0.15839583931E+03  0.12106178938E+04  0.12002109993E+04 0.  0.
        3    1    3    3  502    0 -0.36263832328E+02 -0.49585040172E+03 -0.41818324915E+03  0.64966139373E+03  0.10100000352E+00 0. -1.
       -3    1    3    3    0  502  0.36263832328E+02  0.49585040172E+03  0.25978740985E+03  0.56095650004E+03  0.10100000352E+00 0.  1.
</event>
<event>
 5   0  0.5620246E-05  0.1198913E+04  0.7818609E-02  0.9113808E-01
       -1   -1    0    0    0  501  0.00000000000E+00  0.00000000000E+00  0.28920579824E+03  0.28920579828E+03  0.50400001928E-02 0. -1.
        1   -1    0    0  501    0  0.00000000000E+00  0.00000000000E+00 -0.12425344366E+04  0.12425344366E+04  0.50400001928E-02 0.  1.
    10030    2    1    2    0    0  0.00000000000E+00  0.00000000000E+00 -0.95332863834E+03  0.15317402349E+04  0.11989131138E+04 0.  0.
        1    1    3    3  502    0 -0.55928515786E+03 -0.56068270803E+02 -0.74283818542E+03  0.93153212963E+03  0.50400001928E-02 0.  1.
       -1    1    3    3    0  502  0.55928515786E+03  0.56068270803E+02 -0.21049045291E+03  0.60020810524E+03  0.50400001928E-02 0. -1.
</event>
<event>
 5   0  0.1012657E-04  0.1199952E+04  0.7818609E-02  0.9112898E-01
       -2   -1    0    0    0  501  0.00000000000E+00  0.00000000000E+00  0.13394300872E+03  0.13394300875E+03  0.25500000920E-02 0.  1.
        2   -1    0    0  501    0  0.00000000000E+00  0.00000000000E+00 -0.26874964120E+04  0.26874964120E+04  0.25500000920E-02 0. -1.
    10030    2    1    2    0    0  0.00000000000E+00  0.00000000000E+00 -0.25535534033E+04  0.28214394208E+04  0.11999522580E+04 0.  0.
        1    1    3    3  502    0  0.16134943424E+03 -0.51937157746E+03 -0.18724984114E+04  0.19498796825E+04  0.50400001928E-02 0. -1.
       -1    1    3    3    0  502 -0.16134943424E+03  0.51937157746E+03 -0.68105499189E+03  0.87155973829E+03  0.50400001928E-02 0.  1.
</event>
<event>
 5   0  0.3839750E-05  0.1200497E+04  0.7818609E-02  0.9112421E-01
       -3   -1    0    0    0  501  0.00000000000E+00  0.00000000000E+00  0.42690620161E+03  0.42690621355E+03  0.10100000352E+00 0.  1.
        3   -1    0    0  501    0  0.00000000000E+00  0.00000000000E+00 -0.84397578141E+03  0.84397578746E+03  0.10100000352E+00 0. -1.
    10030    2    1    2    0    0  0.00000000000E+00  0.00000000000E+00 -0.41706957981E+03  0.12708820010E+04  0.12004974078E+04 0.  0.
        1    1    3    3  502    0  0.38672326805E+03 -0.20706970858E+03 -0.64227037846E+03  0.77778145345E+03  0.50400001928E-02 0. -1.
       -1    1    3    3    0  502 -0.38672326805E+03  0.20706970858E+03  0.22520079865E+03  0.49310054756E+03  0.50400001928E-02 0.  1.
</event>
<event>
 5   0  0.1023063E-04  0.1199905E+04  0.7818609E-02  0.9112939E-01
        2   -1    0    0  501    0  0.00000000000E+00  0.00000000000E+00  0.10934311284E+04  0.10934311284E+04  0.25500000920E-02 0. -1.
       -2   -1    0    0    0  501  0.00000000000E+00  0.00000000000E+00 -0.32918692437E+03  0.32918692438E+03  0.25500000920E-02 0.  1.
    10030    2    1    2    0    0  0.00000000000E+00  0.00000000000E+00  0.76424420400E+03  0.14226180527E+04  0.11999053799E+04 0.  0.
        3    1    3    3  502    0 -0.16444228412E+03  0.46600623896E+03  0.78547326864E+03  0.92799318182E+03  0.10100000352E+00 0. -1.
       -3    1    3    3    0  502  0.16444228412E+03 -0.46600623896E+03 -0.21229064647E+02  0.49462487093E+03  0.10100000352E+00 0.  1.
</event>
<event>
 5   0  0.1004006E-04  0.1200184E+04  0.7818609E-02  0.9112695E-01
        2   -1    0    0  501    0  0.00000000000E+00  0.00000000000E+00  0.75408717862E+03  0.75408717863E+03  0.25500000920E-02 0.  1.
       -2   -1    0    0    0  501  0.00000000000E+00  0.00000000000E+00 -0.47754508524E+03  0.47754508525E+03  0.25500000920E-02 0. -1.
    10030    2    1    2    0    0  0.00000000000E+00  0.00000000000E+00  0.27654209338E+03  0.12316322639E+04  0.12001843625E+04 0.  0.
        5    1    3    3  502    0  0.36119718442E+03 -0.15877260819E+03  0.60224216730E+03  0.71999296192E+03  0.46999998093E+01 0.  1.
       -5    1    3    3    0  502 -0.36119718442E+03  0.15877260819E+03 -0.32570007392E+03  0.51163930195E+03  0.46999998093E+01 0. -1.
</event>
<event>
 5   0  0.9838215E-05  0.1200164E+04  0.7818609E-02  0.9112713E-01
        2   -1    0    0  501    0  0.00000000000E+00  0.00000000000E+00  0.10310073411E+04  0.10310073411E+04  0.25500000920E-02 0. -1.
       -2   -1    0    0    0  501  0.00000000000E+00  0.00000000000E+00 -0.34926867248E+03  0.34926867249E+03  0.25500000920E-02 0.  1.
    10030    2    1    2    0    0  0.00000000000E+00  0.00000000000E+00  0.68173866862E+03  0.13802760136E+04  0.12001642643E+04 0.  0.
        4    1    3    3  502    0 -0.23847120210E+03  0.54604326928E+03  0.25901852822E+03  0.64971068717E+03  0.12699999809E+01 0.  1.
       -4    1    3    3    0  502  0.23847120210E+03 -0.54604326928E+03  0.42272014039E+03  0.73056532641E+03  0.12699999809E+01 0. -1.
</event>
<event>
 5   0  0.1012657E-04  0.1200430E+04  0.7818609E-02  0.9112480E-01
       -2   -1    0    0    0  501  0.00000000000E+00  0.00000000000E+00  0.44217306346E+03  0.44217306347E+03  0.25500000920E-02 0.  1.
        2   -1    0    0  501    0  0.00000000000E+00  0.00000000000E+00 -0.81474421586E+03  0.81474421586E+03  0.25500000920E-02 0. -1.
    10030    2    1    2    0    0  0.00000000000E+00  0.00000000000E+00 -0.37257115240E+03  0.12569172793E+04  0.12004298328E+04 0.  0.
        1    1    3    3  502    0  0.22599659408E+03 -0.49598062497E+03  0.76912536675E+02  0.55044234867E+03  0.50400001928E-02 0. -1.
       -1    1    3    3    0  502 -0.22599659408E+03  0.49598062497E+03 -0.44948368907E+03  0.70647493066E+03  0.50400001928E-02 0.  1.
</event>
<event>
 5   0  0.5447807E-05  0.1199823E+04  0.7818609E-02  0.9113011E-01
       -1   -1    0    0    0  501  0.00000000000E+00  0.00000000000E+00  0.48127263901E+03  0.48127263904E+03  0.50400001928E-02 0.  1.
        1   -1    0    0  501    0  0.00000000000E+00  0.00000000000E+00 -0.74779655291E+03  0.74779655292E+03  0.50400001928E-02 0. -1.
    10030    2    1    2    0    0  0.00000000000E+00  0.00000000000E+00 -0.26652391389E+03  0.12290691920E+04  0.11998233545E+04 0.  0.
        2    1    3    3  502    0  0.46881728398E+02 -0.42113937664E+03 -0.56827506576E+03  0.70886728052E+03  0.25500000920E-02 0. -1.
       -2    1    3    3    0  502 -0.46881728398E+02  0.42113937664E+03  0.30175115187E+03  0.52020191145E+03  0.25500000920E-02 0.  1.
</event>
<event>
 5   0  0.5745487E-05  0.1199669E+04  0.7818609E-02  0.9113147E-01
       -1   -1    0    0    0  501  0.00000000000E+00  0.00000000000E+00  0.19459486415E+03  0.19459486421E+03  0.50400001928E-02 0.  1.
        1   -1    0    0  501    0  0.00000000000E+00  0.00000000000E+00 -0.18489755576E+04  0.18489755576E+04  0.50400001928E-02 0. -1.
    10030    2    1    2    0    0  0.00000000000E+00  0.00000000000E+00 -0.16543806935E+04  0.20435704218E+04  0.11996685334E+04 0.  0.
        3    1    3    3  502    0 -0.38246915120E+03 -0.23743120208E+03 -0.15024619697E+04  0.15684540822E+04  0.10100000352E+00 0. -1.
       -3    1    3    3    0  502  0.38246915120E+03  0.23743120208E+03 -0.15191872373E+03  0.47511633961E+03  0.10100000352E+00 0.  1.
</event>
<event>
 5   0  0.3839750E-05  0.1201641E+04  0.7818609E-02  0.9111421E-01
        3   -1    0    0  501    0  0.00000000000E+00  0.00000000000E+00  0.99414762053E+03  0.99414762566E+03  0.10100000352E+00 0. -1.
       -3   -1    0    0    0  501  0.00000000000E+00  0.00000000000E+00 -0.36311025715E+03  0.36311027119E+03  0.10100000352E+00 0.  1.
    10030    2    1    2    0    0  0.00000000000E+00  0.00000000000E+00  0.63103736338E+03  0.13572578969E+04  0.12016408967E+04 0.  0.
        5    1    3    3  502    0  0.25900913539E+03  0.13764964351E+03 -0.27672265218E+03  0.40327493451E+03  0.46999998093E+01 0.  1.
       -5    1    3    3    0  502 -0.25900913539E+03 -0.13764964351E+03  0.90776001557E+03  0.95398296234E+03  0.46999998093E+01 0. -1.
</event>
<event>
 5   0  0.1023063E-04  0.1200028E+04  0.7818609E-02  0.9112832E-01
        2   -1    0    0  501    0  0.00000000000E+00  0.00000000000E+00  0.11210205504E+04  0.11210205504E+04  0.25500000920E-02 0. -1.
       -2   -1    0    0    0  501  0.00000000000E+00  0.00000000000E+00 -0.32115083808E+03  0.32115083809E+03  0.25500000920E-02 0.  1.
    10030    2    1    2    0    0  0.00000000000E+00  0.00000000000E+00  0.79986971228E+03  0.14421713885E+04  0.12000278151E+04 0.  0.
        3    1    3    3  502    0 -0.28436234674E+03 -0.18274652393E+03 -0.19583672891E+03  0.39065364563E+03  0.10100000352E+00 0.  1.
       -3    1    3    3    0  502  0.28436234674E+03  0.18274652393E+03  0.99570644119E+03  0.10515177428E+04  0.10100000352E+00 0. -1.
</event>
<event>
 5   0  0.1023063E-04  0.1200017E+04  0.7818609E-02  0.9112841E-01
       -2   -1    0    0    0  501  0.00000000000E+00  0.00000000000E+00  0.19813611023E+03  0.19813611024E+03  0.25500000920E-02 0. -1.
        2   -1    0    0  501    0  0.00000000000E+00  0.00000000000E+00 -0.18169849509E+04  0.18169849509E+04  0.25500000920E-02 0.  1.
    10030    2    1    2    0    0  0.00000000000E+00  0.00000000000E+00 -0.16188488407E+04  0.20151210612E+04  0.12000172174E+04 0.  0.
        3    1    3    3  502    0 -0.50057820971E+03 -0.30150978824E+02 -0.25623489317E+03  0.56315535711E+03  0.10100000352E+00 0. -1.
       -3    1    3    3    0  502  0.50057820971E+03  0.30150978824E+02 -0.13626139475E+04  0.14519657041E+04  0.10100000352E+00 0.  1.
</event>
<event>
 5   0  0.5447807E-05  0.1198537E+04  0.7818609E-02  0.9114138E-01
       -1   -1    0    0    0  501  0.00000000000E+00  0.00000000000E+00  0.29601098362E+03  0.29601098366E+03  0.50400001928E-02 0. -1.
        1   -1    0    0  501    0  0.00000000000E+00  0.00000000000E+00 -0.12132083251E+04  0.12132083252E+04  0.50400001928E-02 0.  1.
    10030    2    1    2    0    0  0.00000000000E+00  0.00000000000E+00 -0.91719734153E+03  0.15092193088E+04  0.11985374249E+04 0.  0.
        2    1    3    3  502    0 -0.15833515339E+03 -0.95757395468E+01 -0.11862926939E+04  0.11968508977E+04  0.25500000920E-02 0.  1.
       -2    1    3    3    0  502  0.15833515339E+03  0.95757395468E+01  0.26909535240E+03  0.31236841114E+03  0.25500000920E-02 0. -1.
</event>
<event>
 5   0  0.5620246E-05  0.1200813E+04  0.7818609E-02  0.9112145E-01
       -1   -1    0    0    0  501  0.00000000000E+00  0.00000000000E+00  0.24878476583E+03  0.24878476589E+03  0.50400001928E-02 0. -1.
        1   -1    0    0  501    0  0.00000000000E+00  0.00000000000E+00 -0.14489962289E+04  0.14489962289E+04  0.50400001928E-02 0.  1.
    10030    2    1    2    0    0  0.00000000000E+00  0.00000000000E+00 -0.12002114630E+04  0.16977809948E+04  0.12008133702E+04 0.  0.
        1    1    3    3  502    0 -0.47510299780E+02 -0.35554928667E+03  0.80628424075E+02  0.36765944382E+03  0.50400001928E-02 0. -1.
       -1    1    3    3    0  502  0.47510299780E+02  0.35554928667E+03 -0.12808398871E+04  0.13301215509E+04  0.50400001928E-02 0.  1.
</event>
<event>
 5   0  0.1004006E-04  0.1201323E+04  0.7818609E-02  0.9111699E-01
        2   -1    0    0  501    0  0.00000000000E+00  0.00000000000E+00  0.73899793485E+03  0.73899793486E+03  0.25500000920E-02 0. -1.
       -2   -1    0    0    0  501  0.00000000000E+00  0.00000000000E+00 -0.48822076099E+03  0.48822076099E+03  0.25500000920E-02 0.  1.
    10030    2    1    2    0    0  0.00000000000E+00  0.00000000000E+00  0.25077717387E+03  0.12272186959E+04  0.12013228278E+04 0.  0.
        5    1    3    3  502    0 -0.53948139042E+03 -0.26326742404E+03  0.10439972341E+03  0.60932035861E+03  0.46999998093E+01 0.  1.
       -5    1    3    3    0  502  0.53948139042E+03  0.26326742404E+03  0.14637745046E+03  0.61789833725E+03  0.46999998093E+01 0. -1.
</event>
<event>
 5   0  0.5732931E-05  0.1200252E+04  0.7818609E-02  0.9112636E-01
       -1   -1    0    0    0  501  0.00000000000E+00  0.00000000000E+00  0.17598549759E+03  0.17598549766E+03  0.50400001928E-02 0. -1.
        1   -1    0    0  501    0  0.00000000000E+00  0.00000000000E+00 -0.20464829173E+04  0.20464829173E+04  0.50400001928E-02 0.  1.
    10030    2    1    2    0    0  0.00000000000E+00  0.00000000000E+00 -0.18704974197E+04  0.22224684149E+04  0.12002521645E+04 0.  0.
        4    1    3    3  502    0  0.27520207919E+03 -0.52328475352E+03 -0.11257689079E+04  0.12715818355E+04  0.12699999809E+01 0.  1.
       -4    1    3    3    0  502 -0.27520207919E+03  0.52328475352E+03 -0.74472851181E+03  0.95088657938E+03  0.12699999809E+01 0. -1.
</event>
<event>
 5   0  0.5620246E-05  0.1199513E+04  0.7818609E-02  0.9113282E-01
        1   -1    0    0  501    0  0.00000000000E+00  0.00000000000E+00  0.61279569003E+03  0.61279569005E+03  0.50400001928E-02 0.  1.
       -1   -1    0    0    0  501  0.00000000000E+00  0.00000000000E+00 -0.58699522521E+03  0.58699522523E+03  0.50400001928E-02 0. -1.
    10030    2    1    2    0    0  0.00000000000E+00  0.00000000000E+00  0.25800464814E+02  0.11997909153E+04  0.11995134749E+04 0.  0.
        1    1    3    3  502    0 -0.10335166499E+03  0.30161105340E+03 -0.49521071806E+03  0.58896897159E+03  0.50400001928E-02 0. -1.
       -1    1    3    3    0  502  0.10335166499E+03 -0.30161105340E+03  0.52101118287E+03  0.61082194369E+03  0.50400001928E-02 0.  1.
</event>
<event>
 5   0  0.9838215E-05  0.1200482E+04  0.7818609E-02  0.9112435E-01
        2   -1    0    0  501    0  0.00000000000E+00  0.00000000000E+00  0.59481814271E+03  0.59481814271E+03  0.25500000920E-02 0.  1.
       -2   -1    0    0    0  501  0.00000000000E+00  0.00000000000E+00 -0.60571329278E+03  0.60571329278E+03  0.25500000920E-02 0. -1.
    10030    2    1    2    0    0  0.00000000000E+00  0.00000000000E+00 -0.10895150072E+02  0.12005314355E+04  0.12004819963E+04 0.  0.
        4    1    3    3  502    0 -0.20919654503E+03  0.35761321451E+03 -0.43978934696E+03  0.60420748774E+03  0.12699999809E+01 0. -1.
       -4    1    3    3    0  502  0.20919654503E+03 -0.35761321451E+03  0.42889419688E+03  0.59632394776E+03  0.12699999809E+01 0.  1.
</event>
<event>
 5   0  0.5620246E-05  0.1199930E+04  0.7818609E-02  0.9112918E-01
        1   -1    0    0  501    0  0.00000000000E+00  0.00000000000E+00  0.45620707676E+03  0.45620707679E+03  0.50400001928E-02 0.  1.
       -1   -1    0    0    0  501  0.00000000000E+00  0.00000000000E+00 -0.78902345078E+03  0.78902345080E+03  0.50400001928E-02 0. -1.
    10030    2    1    2    0    0  0.00000000000E+00  0.00000000000E+00 -0.33281637402E+03  0.12452305276E+04  0.11999301346E+04 0.  0.
        1    1    3    3  502    0 -0.17695660364E+03 -0.55157995154E+03 -0.32852359826E+03  0.66594431986E+03  0.50400001928E-02 0.  1.
       -1    1    3    3    0  502  0.17695660364E+03  0.55157995154E+03 -0.42927757643E+01  0.57928620773E+03  0.50400001928E-02 0. -1.
</event>
<event>
 5   0  0.5620246E-05  0.1200172E+04  0.7818609E-02  0.9112706E-01
        1   -1    0    0  501    0  0.00000000000E+00  0.00000000000E+00  0.38036204825E+03  0.38036204828E+03  0.50400001928E-02 0. -1.
       -1   -1    0    0    0  501  0.00000000000E+00  0.00000000000E+00 -0.94673859566E+03  0.94673859567E+03  0.50400001928E-02 0.  1.
    10030    2    1    2    0    0  0.00000000000E+00  0.00000000000E+00 -0.56637654741E+03  0.13271006440E+04  0.12001723733E+04 0.  0.
        1    1    3    3  502    0  0.87731732873E+02  0.36057452752E+03 -0.80464753536E+03  0.88609734400E+03  0.50400001928E-02 0.  1.
       -1    1    3    3    0  502 -0.87731732873E+02 -0.36057452752E+03  0.23827098795E+03  0.44100329995E+03  0.50400001928E-02 0. -1.
</event>
<event>
 5   0  0.5620246E-05  0.1200089E+04  0.7818609E-02  0.9112778E-01
        1   -1    0    0  501    0  0.00000000000E+00  0.00000000000E+00  0.13081409145E+04  0.13081409145E+04  0.50400001928E-02 0.  1.
       -1   -1    0    0    0  501  0.00000000000E+00  0.00000000000E+00 -0.27524066167E+03  0.27524066171E+03  0.50400001928E-02 0. -1.
    10030    2    1    2    0    0  0.00000000000E+00  0.00000000000E+00  0.10329002528E+04  0.15833815762E+04  0.12000892815E+04 0.  0.
        1    1    3    3  502    0 -0.41547595798E+03  0.42131955863E+03  0.38501957098E+03  0.70595361902E+03  0.50400001928E-02 0. -1.
       -1    1    3    3    0  502  0.41547595798E+03 -0.42131955863E+03  0.64788068186E+03  0.87742795721E+03  0.50400001928E-02 0.  1.
</event>
<event>
 5   0  0.5625746E-05  0.1199087E+04  0.7818609E-02  0.9113656E-01
        1   -1    0    0  501    0  0.00000000000E+00  0.00000000000E+00  0.46640711480E+03  0.46640711483E+03  0.50400001928E-02 0.  1.
       -1   -1    0    0    0  501  0.00000000000E+00  0.00000000000E+00 -0.77068334934E+03  0.77068334935E+03  0.50400001928E-02 0. -1.
    10030    2    1    2    0    0  0.00000000000E+00  0.00000000000E+00 -0.30427623453E+03  0.12370904642E+04  0.11990866481E+04 0.  0.
        5    1    3    3  502    0 -0.15697942564E+03 -0.57789820084E+03 -0.12257262620E+03  0.61127326892E+03  0.46999998093E+01 0.  1.
       -5    1    3    3    0  502  0.15697942564E+03  0.57789820084E+03 -0.18170360833E+03  0.62581719526E+03  0.46999998093E+01 0. -1.
</event>
<event>
 5   0  0.5625746E-05  0.1199891E+04  0.7818609E-02  0.9112952E-01
       -1   -1    0    0    0  501  0.00000000000E+00  0.00000000000E+00  0.46291419198E+03  0.46291419201E+03  0.50400001928E-02 0.  1.
        1   -1    0    0  501    0  0.00000000000E+00  0.00000000000E+00 -0.77754094581E+03  0.77754094582E+03  0.50400001928E-02 0. -1.
    10030    2    1    2    0    0  0.00000000000E+00  0.00000000000E+00 -0.31462675383E+03  0.12404551378E+04  0.11998912262E+04 0.  0.
        5    1    3    3  502    0  0.63603493032E+02 -0.55582637193E+03  0.66629902259E+02  0.56342700853E+03  0.46999998093E+01 0.  1.
       -5    1    3    3    0  502 -0.63603493032E+02  0.55582637193E+03 -0.38125665609E+03  0.67702812931E+03  0.46999998093E+01 0. -1.
</event>
<event>
 5   0  0.5447807E-05  0.1200086E+04  0.7818609E-02  0.9112781E-01
       -1   -1    0    0    0  501  0.00000000000E+00  0.00000000000E+00  0.11785413472E+04  0.11785413472E+04  0.50400001928E-02 0. -1.
        1   -1    0    0  501    0  0.00000000000E+00  0.00000000000E+00 -0.30550617418E+03  0.30550617422E+03  0.50400001928E-02 0.  1.
    10030    2    1    2    0    0  0.00000000000E+00  0.00000000000E+00  0.87303517299E+03  0.14840475214E+04  0.12000860938E+04 0.  0.
        2    1    3    3  502    0  0.34161393611E+03  0.11096755022E+03 -0.15787981975E+03  0.39235177588E+03  0.25500000920E-02 0.  1.
       -2    1    3    3    0  502 -0.34161393611E+03 -0.11096755022E+03  0.10309149927E+04  0.10916957455E+04  0.25500000920E-02 0. -1.
</event>
<event>
 5   0  0.5447807E-05  0.1199784E+04  0.7818609E-02  0.9113046E-01
       -1   -1    0    0    0  501  0.00000000000E+00  0.00000000000E+00  0.21860932919E+03  0.21860932924E+03  0.50400001928E-02 0.  1.
        1   -1    0    0  501    0  0.00000000000E+00  0.00000000000E+00 -0.16461800297E+04  0.16461800297E+04  0.50400001928E-02 0. -1.
    10030    2    1    2    0    0  0.00000000000E+00  0.00000000000E+00 -0.14275707005E+04  0.18647893589E+04  0.11997838340E+04 0.  0.
        2    1    3    3  502    0 -0.24425643500E+03 -0.42262402811E+03 -0.17179686710E+03  0.51748085832E+03  0.25500000920E-02 0.  1.
       -2    1    3    3    0  502  0.24425643500E+03  0.42262402811E+03 -0.12557738334E+04  0.13473085006E+04  0.25500000920E-02 0. -1.
</event>
<event>
 5   0  0.5447807E-05  0.1200001E+04  0.7818609E-02  0.9112856E-01
        1   -1    0    0  501    0  0.00000000000E+00  0.00000000000E+00  0.14245593489E+04  0.14245593489E+04  0.50400001928E-02 0. -1.
       -1   -1    0    0    0  501  0.00000000000E+00  0.00000000000E+00 -0.25271001168E+03  0.25271001173E+03  0.50400001928E-02 0.  1.
    10030    2    1    2    0    0  0.00000000000E+00  0.00000000000E+00  0.11718493373E+04  0.16772693607E+04  0.12000006829E+04 0.  0.
        2    1    3    3  502    0 -0.33386117482E+03  0.34259450614E+03  0.10921363620E+04  0.11923070548E+04  0.25500000920E-02 0. -1.
       -2    1    3    3    0  502  0.33386117482E+03 -0.34259450614E+03  0.79712975252E+02  0.48496230587E+03  0.25500000920E-02 0.  1.
</event>
<event>
 5   0  0.1004006E-04  0.1199527E+04  0.7818609E-02  0.9113270E-01
        2   -1    0    0  501    0  0.00000000000E+00  0.00000000000E+00  0.12523659529E+04  0.12523659529E+04  0.25500000920E-02 0. -1.
       -2   -1    0    0    0  501  0.00000000000E+00  0.00000000000E+00 -0.28722946367E+03  0.28722946368E+03  0.25500000920E-02 0.  1.
    10030    2    1    2    0    0  0.00000000000E+00  0.00000000000E+00  0.96513648922E+03  0.15395954166E+04  0.11995272418E+04 0.  0.
        5    1    3    3  502    0  0.21901879017E+03 -0.49962338798E+03  0.80241924729E+03  0.97030484833E+03  0.46999998093E+01 0. -1.
       -5    1    3    3    0  502 -0.21901879017E+03  0.49962338798E+03  0.16271724193E+03  0.56929056824E+03  0.46999998093E+01 0.  1.
</event>
<event>
 5   0  0.5620246E-05  0.1200308E+04  0.7818609E-02  0.9112587E-01
        1   -1    0    0  501    0  0.00000000000E+00  0.00000000000E+00  0.14129655370E+04  0.14129655370E+04  0.50400001928E-02 0.  1.
       -1   -1    0    0    0  501  0.00000000000E+00  0.00000000000E+00 -0.25491399300E+03  0.25491399305E+03  0.50400001928E-02 0. -1.
    10030    2    1    2    0    0  0.00000000000E+00  0.00000000000E+00  0.11580515440E+04  0.16678795301E+04  0.12003077723E+04 0.  0.
        1    1    3    3  502    0  0.20296199631E+03  0.20795487873E+03 -0.15064437648E+03  0.32731106264E+03  0.50400001928E-02 0. -1.
       -1    1    3    3    0  502 -0.20296199631E+03 -0.20795487873E+03  0.13086959205E+04  0.13405684674E+04  0.50400001928E-02 0.  1.
</event>
<event>
 5   0  0.5625746E-05  0.1199990E+04  0.7818609E-02  0.9112865E-01
        1   -1    0    0  501    0  0.00000000000E+00  0.00000000000E+00  0.22893542539E+04  0.22893542539E+04  0.50400001928E-02 0. -1.
       -1   -1    0    0    0  501  0.00000000000E+00  0.00000000000E+00 -0.15724697665E+03  0.15724697673E+03  0.50400001928E-02 0.  1.
    10030    2    1    2    0    0  0.00000000000E+00  0.00000000000E+00  0.21321072772E+04  0.24466012306E+04  0.11999900583E+04 0.  0.
        5    1    3    3  502    0 -0.39902486342E+03  0.81010429305E+02  0.16759684092E+03  0.44033433022E+03  0.46999998093E+01 0.  1.
       -5    1    3    3    0  502  0.39902486342E+03 -0.81010429305E+02  0.19645104363E+04  0.20062669004E+04  0.46999998093E+01 0. -1.
</event>
<event>
 5   0  0.1023063E-04  0.1200212E+04  0.7818609E-02  0.9112671E-01
        2   -1    0    0  501    0  0.00000000000E+00  0.00000000000E+00  0.66816361224E+03  0.66816361225E+03  0.25500000920E-02 0.  1.
       -2   -1    0    0    0  501  0.00000000000E+00  0.00000000000E+00 -0.53898077821E+03  0.53898077822E+03  0.25500000920E-02 0. -1.
    10030    2    1    2    0    0  0.00000000000E+00  0.00000000000E+00  0.12918283403E+03  0.12071443905E+04  0.12002122207E+04 0.  0.
        3    1    3    3  502    0 -0.82612388773E+02  0.28200531426E+02  0.66174385125E+03  0.66747660005E+03  0.10100000352E+00 0.  1.
       -3    1    3    3    0  502  0.82612388773E+02 -0.28200531426E+02 -0.53256101722E+03  0.53966779042E+03  0.10100000352E+00 0. -1.
</event>
<event>
 5   0  0.5732931E-05  0.1201541E+04  0.7818609E-02  0.9111508E-01
        1   -1    0    0  501    0  0.00000000000E+00  0.00000000000E+00  0.14451901275E+04  0.14451901275E+04  0.50400001928E-02 0. -1.
       -1   -1    0    0    0  501  0.00000000000E+00  0.00000000000E+00 -0.24974252006E+03  0.24974252011E+03  0.50400001928E-02 0.  1.
    10030    2    1    2    0    0  0.00000000000E+00  0.00000000000E+00  0.11954476074E+04  0.16949326476E+04  0.12015413841E+04 0.  0.
        4    1    3    3  502    0 -0.47395749211E+03 -0.36837887834E+03  0.56360198403E+03  0.82339997063E+03  0.12699999809E+01 0.  1.
       -4    1    3    3    0  502  0.47395749211E+03  0.36837887834E+03  0.63184562337E+03  0.87153267695E+03  0.12699999809E+01 0. -1.
</event>
<event>
 5   0  0.9838215E-05  0.1199876E+04  0.7818609E-02  0.9112965E-01
        2   -1    0    0  501    0  0.00000000000E+00  0.00000000000E+00  0.61450713687E+03  0.61450713688E+03  0.25500000920E-02 0.  1.
       -2   -1    0    0    0  501  0.00000000000E+00  0.00000000000E+00 -0.58571461903E+03  0.58571461903E+03  0.25500000920E-02 0. -1.
    10030    2    1    2    0    0  0.00000000000E+00  0.00000000000E+00  0.28792517845E+02  0.12002217559E+04  0.11998763496E+04 0.  0.
        4    1    3    3  502    0 -0.46993362448E+03  0.20345255339E+03 -0.29825354784E+03  0.59261061803E+03  0.12699999809E+01 0. -1.
       -4    1    3    3    0  502  0.46993362448E+03 -0.20345255339E+03  0.32704606569E+03  0.60761113788E+03  0.12699999809E+01 0.  1.
</event>
<event>
 5   0  0.1012657E-04  0.1199738E+04  0.7818609E-02  0.9113086E-01
        2   -1    0    0  501    0  0.00000000000E+00  0.00000000000E+00  0.85056518672E+03  0.85056518672E+03  0.25500000920E-02 0.  1.
       -2   -1    0    0    0  501  0.00000000000E+00  0.00000000000E+00 -0.42306290827E+03  0.42306290828E+03  0.25500000920E-02 0. -1.
    10030    2    1    2    0    0  0.00000000000E+00  0.00000000000E+00  0.42750227845E+03  0.12736280950E+04  0.11997376073E+04 0.  0.
        1    1    3    3  502    0 -0.55077710912E+03 -0.69806557435E+02  0.45493095956E+03  0.71776776006E+03  0.50400001928E-02 0.  1.
       -1    1    3    3    0  502  0.55077710912E+03  0.69806557435E+02 -0.27428681114E+02  0.55586033494E+03  0.50400001928E-02 0. -1.
</event>
<event>
 5   0  0.5745487E-05  0.1200039E+04  0.7818609E-02  0.9112823E-01
       -1   -1    0    0    0  501  0.00000000000E+00  0.00000000000E+00  0.46721311387E+03  0.46721311390E+03  0.50400001928E-02 0. -1.
        1   -1    0    0  501    0  0.00000000000E+00  0.00000000000E+00 -0.77057596597E+03  0.77057596599E+03  0.50400001928E-02 0.  1.
    10030    2    1    2    0    0  0.00000000000E+00  0.00000000000E+00 -0.30336285210E+03  0.12377890799E+04  0.12000386603E+04 0.  0.
        3    1    3    3  502    0 -0.37926658426E+02 -0.59351084772E+03 -0.23374312850E+03  0.63900658690E+03  0.10100000352E+00 0.  1.
       -3    1    3    3    0  502  0.37926658426E+02  0.59351084772E+03 -0.69619723601E+02  0.59878249298E+03  0.10100000352E+00 0. -1.
</event>
<event>
 5   0  0.1023063E-04  0.1200035E+04  0.7818609E-02  0.9112826E-01
        2   -1    0    0  501    0  0.00000000000E+00  0.00000000000E+00  0.59868787707E+03  0.59868787707E+03  0.25500000920E-02 0.  1.
       -2   -1    0    0    0  501  0.00000000000E+00  0.00000000000E+00 -0.60135011674E+03  0.60135011674E+03  0.25500000920E-02 0. -1.
    10030    2    1    2    0    0  0.00000000000E+00  0.00000000000E+00 -0.26622396702E+01  0.12000379938E+04  0.12000350408E+04 0.  0.
        3    1    3    3  502    0  0.24718959718E+03  0.14565071418E+03  0.52564663475E+03  0.59884991635E+03  0.10100000352E+00 0.  1.
       -3    1    3    3    0  502 -0.24718959718E+03 -0.14565071418E+03 -0.52830887442E+03  0.60118807746E+03  0.10100000352E+00 0. -1.
</event>
<event>
 5   0  0.5732931E-05  0.1199731E+04  0.7818609E-02  0.9113092E-01
       -1   -1    0    0    0  501  0.00000000000E+00  0.00000000000E+00  0.18745735195E+03  0.18745735201E+03  0.50400001928E-02 0.  1.
        1   -1    0    0  501    0  0.00000000000E+00  0.00000000000E+00 -0.19195765013E+04  0.19195765013E+04  0.50400001928E-02 0. -1.
    10030    2    1    2    0    0  0.00000000000E+00  0.00000000000E+00 -0.17321191493E+04  0.21070338533E+04  0.11997311830E+04 0.  0.
        4    1    3    3  502    0  0.59636511654E+03  0.64106058784E+02 -0.88138796562E+03  0.10661178630E+04  0.12699999809E+01 0. -1.
       -4    1    3    3    0  502 -0.59636511654E+03 -0.64106058784E+02 -0.85073118371E+03  0.10409159903E+04  0.12699999809E+01 0.  1.
</event>
<event>
 5   0  0.9941209E-05  0.1200178E+04  0.7818609E-02  0.9112701E-01
        2   -1    0    0  501    0  0.00000000000E+00  0.00000000000E+00  0.94032208791E+03  0.94032208791E+03  0.25500000920E-02 0. -1.
       -2   -1    0    0    0  501  0.00000000000E+00  0.00000000000E+00 -0.38296111587E+03  0.38296111588E+03  0.25500000920E-02 0.  1.
    10030    2    1    2    0    0  0.00000000000E+00  0.00000000000E+00  0.55736097204E+03  0.13232832038E+04  0.12001779803E+04 0.  0.
        2    1    3    3  502    0 -0.41321678703E+03 -0.32688058013E+03  0.59538522975E+03  0.79503622469E+03  0.25500000920E-02 0. -1.
       -2    1    3    3    0  502  0.41321678703E+03  0.32688058013E+03 -0.38024257717E+02  0.52824697910E+03  0.25500000920E-02 0.  1.
</event>
<event>
 5   0  0.5732931E-05  0.1199522E+04  0.7818609E-02  0.9113275E-01
       -1   -1    0    0    0  501  0.00000000000E+00  0.00000000000E+00  0.21059985807E+03  0.21059985813E+03  0.50400001928E-02 0. -1.
        1   -1    0    0  501    0  0.00000000000E+00  0.00000000000E+00 -0.17080425784E+04  0.17080425784E+04  0.50400001928E-02 0.  1.
    10030    2    1    2    0    0  0.00000000000E+00  0.00000000000E+00 -0.14974427203E+04  0.19186424365E+04  0.11995224461E+04 0.  0.
        4    1    3    3  502    0 -0.37028231983E+02 -0.57363854787E+03 -0.10224174038E+04  0.11729327492E+04  0.12699999809E+01 0.  1.
       -4    1    3    3    0  502  0.37028231983E+02  0.57363854787E+03 -0.47502531648E+03  0.74570968732E+03  0.12699999809E+01 0. -1.
</event>
<event>
 5   0  0.5732931E-05  0.1197847E+04  0.7818609E-02  0.9114743E-01
        1   -1    0    0  501    0  0.00000000000E+00  0.00000000000E+00  0.11505133735E+04  0.11505133735E+04  0.50400001928E-02 0. -1.
       -1   -1    0    0    0  501  0.00000000000E+00  0.00000000000E+00 -0.31178215691E+03  0.31178215695E+03  0.50400001928E-02 0.  1.
    10030    2    1    2    0    0  0.00000000000E+00  0.00000000000E+00  0.83873121662E+03  0.14622955305E+04  0.11978473044E+04 0.  0.
        4    1    3    3  502    0  0.87368954823E+02  0.12550330863E+03  0.11262781662E+04  0.11366127464E+04  0.12699999809E+01 0. -1.
       -4    1    3    3    0  502 -0.87368954823E+02 -0.12550330863E+03 -0.28754694957E+03  0.32568278408E+03  0.12699999809E+01 0.  1.
</event>
<event>
 5   0  0.5447807E-05  0.1199723E+04  0.7818609E-02  0.9113099E-01
       -1   -1    0    0    0  501  0.00000000000E+00  0.00000000000E+00  0.70438944312E+03  0.70438944314E+03  0.50400001928E-02 0. -1.
        1   -1    0    0  501    0  0.00000000000E+00  0.00000000000E+00 -0.51084499194E+03  0.51084499197E+03  0.50400001928E-02 0.  1.
    10030    2    1    2    0    0  0.00000000000E+00  0.00000000000E+00  0.19354445118E+03  0.12152344351E+04  0.11997230004E+04 0.  0.
        2    1    3    3  502    0  0.44360885722E+02  0.36559308014E+03  0.57639994792E+03  0.68400518156E+03  0.25500000920E-02 0. -1.
       -2    1    3    3    0  502 -0.44360885722E+02 -0.36559308014E+03 -0.38285549674E+03  0.53122925355E+03  0.25500000920E-02 0.  1.
</event>
<event>
 5   0  0.9941209E-05  0.1199590E+04  0.7818609E-02  0.9113215E-01
       -2   -1    0    0    0  501  0.00000000000E+00  0.00000000000E+00  0.40166985235E+03  0.40166985236E+03  0.25500000920E-02 0. -1.
        2   -1    0    0  501    0  0.00000000000E+00  0.00000000000E+00 -0.89564670666E+03  0.89564670666E+03  0.25500000920E-02 0.  1.
    10030    2    1    2    0    0  0.00000000000E+00  0.00000000000E+00 -0.49397685430E+03  0.12973165590E+04  0.11995903975E+04 0.  0.
        2    1    3    3  502    0 -0.13004151447E+03  0.13065036050E+03  0.37027588696E+03  0.41362367517E+03  0.25500000920E-02 0. -1.
       -2    1    3    3    0  502  0.13004151447E+03 -0.13065036050E+03 -0.86425274127E+03  0.88369288385E+03  0.25500000920E-02 0.  1.
</event>
<event>
 5   0  0.1012657E-04  0.1199723E+04  0.7818609E-02  0.9113099E-01
        2   -1    0    0  501    0  0.00000000000E+00  0.00000000000E+00  0.12282413961E+04  0.12282413961E+04  0.25500000920E-02 0. -1.
       -2   -1    0    0    0  501  0.00000000000E+00  0.00000000000E+00 -0.29296646186E+03  0.29296646187E+03  0.25500000920E-02 0.  1.
    10030    2    1    2    0    0  0.00000000000E+00  0.00000000000E+00  0.93527493423E+03  0.15212078580E+04  0.11997225281E+04 0.  0.
        1    1    3    3  502    0 -0.18746603058E+03 -0.25757265172E+03  0.11121166788E+04  0.11568451456E+04  0.50400001928E-02 0. -1.
       -1    1    3    3    0  502  0.18746603058E+03  0.25757265172E+03 -0.17684174457E+03  0.36436271239E+03  0.50400001928E-02 0.  1.
</event>
<event>
 5   0  0.3839750E-05  0.1200559E+04  0.7818609E-02  0.9112367E-01
        4   -1    0    0  501    0  0.00000000000E+00  0.00000000000E+00  0.65312169603E+03  0.65312293080E+03  0.12699999809E+01 0. -1.
       -4   -1    0    0    0  501  0.00000000000E+00  0.00000000000E+00 -0.55171005140E+03  0.55171151312E+03  0.12699999809E+01 0.  1.
    10030    2    1    2    0    0  0.00000000000E+00  0.00000000000E+00  0.10141164464E+03  0.12048344439E+04  0.12005589180E+04 0.  0.
        2    1    3    3  502    0 -0.17043223867E+03  0.40385196558E+03  0.46227836814E+03  0.63705953234E+03  0.25500000920E-02 0. -1.
       -2    1    3    3    0  502  0.17043223867E+03 -0.40385196558E+03 -0.36086672350E+03  0.56777491158E+03  0.25500000920E-02 0.  1.
</event>
<event>
 5   0  0.1012657E-04  0.1201465E+04  0.7818609E-02  0.9111575E-01
       -2   -1    0    0    0  501  0.00000000000E+00  0.00000000000E+00  0.37171069667E+03  0.37171069667E+03  0.25500000920E-02 0. -1.
        2   -1    0    0  501    0  0.00000000000E+00  0.00000000000E+00 -0.97086114039E+03  0.97086114039E+03  0.25500000920E-02 0.  1.
    10030    2    1    2    0    0  0.00000000000E+00  0.00000000000E+00 -0.59915044372E+03  0.13425718371E+04  0.12014648907E+04 0.  0.
        1    1    3    3  502    0 -0.37666649446E+03  0.35400012974E+03  0.42453969209E+02  0.51864831961E+03  0.50400001928E-02 0. -1.
       -1    1    3    3    0  502  0.37666649446E+03 -0.35400012974E+03 -0.64160441293E+03  0.82392351746E+03  0.50400001928E-02 0.  1.
</event>
<event>
 5   0  0.5620246E-05  0.1200113E+04  0.7818609E-02  0.9112757E-01
        1   -1    0    0  501    0  0.00000000000E+00  0.00000000000E+00  0.17310000523E+04  0.17310000523E+04  0.50400001928E-02 0. -1.
       -1   -1    0    0    0  501  0.00000000000E+00  0.00000000000E+00 -0.20801151939E+03  0.20801151946E+03  0.50400001928E-02 0.  1.
    10030    2    1    2    0    0  0.00000000000E+00  0.00000000000E+00  0.15229885329E+04  0.19390115718E+04  0.12001132464E+04 0.  0.
        1    1    3    3  502    0  0.38834485990E+03 -0.44036890327E+03  0.96154943890E+03  0.11266382847E+04  0.50400001928E-02 0. -1.
       -1    1    3    3    0  502 -0.38834485990E+03  0.44036890327E+03  0.56143909403E+03  0.81237328705E+03  0.50400001928E-02 0.  1.
</event>
<event>
 5   0  0.1004006E-04  0.1199880E+04  0.7818609E-02  0.9112961E-01
        2   -1    0    0  501    0  0.00000000000E+00  0.00000000000E+00  0.16219938771E+04  0.16219938771E+04  0.25500000920E-02 0.  1.
       -2   -1    0    0    0  501  0.00000000000E+00  0.00000000000E+00 -0.22190478542E+03  0.22190478543E+03  0.25500000920E-02 0. -1.
    10030    2    1    2    0    0  0.00000000000E+00  0.00000000000E+00  0.14000890916E+04  0.18438986625E+04  0.11998803328E+04 0.  0.
        5    1    3    3  502    0  0.77972074546E+01  0.99536749652E+02  0.16091086585E+04  0.16122100130E+04  0.46999998093E+01 0.  1.
       -5    1    3    3    0  502 -0.77972074546E+01 -0.99536749652E+02 -0.20901956689E+03  0.23168864952E+03  0.46999998093E+01 0. -1.
</event>
<event>
 5   0  0.3839750E-05  0.1199957E+04  0.7818609E-02  0.9112894E-01
       -3   -1    0    0    0  501  0.00000000000E+00  0.00000000000E+00  0.12758548627E+04  0.12758548667E+04  0.10100000352E+00 0. -1.
        3   -1    0    0  501    0  0.00000000000E+00  0.00000000000E+00 -0.28214339670E+03  0.28214341478E+03  0.10100000352E+00 0.  1.
    10030    2    1    2    0    0  0.00000000000E+00  0.00000000000E+00  0.99371146595E+03  0.15579982814E+04  0.11999567356E+04 0.  0.
        4    1    3    3  502    0 -0.36896834545E+03 -0.35892919622E+03  0.96658804075E+02  0.52374836052E+03  0.12699999809E+01 0.  1.
       -4    1    3    3    0  502  0.36896834545E+03  0.35892919622E+03  0.89705266188E+03  0.10342499209E+04  0.12699999809E+01 0. -1.
</event>
<event>
 5   0  0.9838215E-05  0.1199644E+04  0.7818609E-02  0.9113168E-01
       -2   -1    0    0    0  501  0.00000000000E+00  0.00000000000E+00  0.58366456612E+03  0.58366456612E+03  0.25500000920E-02 0.  1.
        2   -1    0    0  501    0  0.00000000000E+00  0.00000000000E+00 -0.61642653410E+03  0.61642653410E+03  0.25500000920E-02 0. -1.
    10030    2    1    2    0    0  0.00000000000E+00  0.00000000000E+00 -0.32761967979E+02  0.12000911002E+04  0.11996438231E+04 0.  0.
        4    1    3    3  502    0  0.39289693216E+03  0.38642072777E+03 -0.25331467084E+03  0.60651373729E+03  0.12699999809E+01 0. -1.
       -4    1    3    3    0  502 -0.39289693216E+03 -0.38642072777E+03  0.22055270286E+03  0.59357736294E+03  0.12699999809E+01 0.  1.
</event>
<event>
 5   0  0.9838215E-05  0.1200062E+04  0.7818609E-02  0.9112803E-01
       -2   -1    0    0    0  501  0.00000000000E+00  0.00000000000E+00  0.16511864669E+03  0.16511864671E+03  0.25500000920E-02 0. -1.
        2   -1    0    0  501    0  0.00000000000E+00  0.00000000000E+00 -0.21804743954E+04  0.21804743954E+04  0.25500000920E-02 0.  1.
    10030    2    1    2    0    0  0.00000000000E+00  0.00000000000E+00 -0.20153557488E+04  0.23455930422E+04  0.12000616340E+04 0.  0.
        4    1    3    3  502    0  0.21649641484E+03 -0.71470556318E+02  0.77158886878E+02  0.24069450509E+03  0.12699999809E+01 0. -1.
       -4    1    3    3    0  502 -0.21649641484E+03  0.71470556318E+02 -0.20925146356E+04  0.21048985371E+04  0.12699999809E+01 0.  1.
</event>
<event>
 5   0  0.5447807E-05  0.1200219E+04  0.7818609E-02  0.9112665E-01
       -1   -1    0    0    0  501  0.00000000000E+00  0.00000000000E+00  0.33800941367E+03  0.33800941371E+03  0.50400001928E-02 0. -1.
        1   -1    0    0  501    0  0.00000000000E+00  0.00000000000E+00 -0.10654477364E+04  0.10654477364E+04  0.50400001928E-02 0.  1.
    10030    2    1    2    0    0  0.00000000000E+00  0.00000000000E+00 -0.72743832272E+03  0.14034571501E+04  0.12002189212E+04 0.  0.
        2    1    3    3  502    0  0.51064087365E+03  0.29359353872E+03 -0.49796412136E+03  0.77131027089E+03  0.25500000920E-02 0. -1.
       -2    1    3    3    0  502 -0.51064087365E+03 -0.29359353872E+03 -0.22947420136E+03  0.63214687923E+03  0.25500000920E-02 0.  1.
</event>
<event>
 5   0  0.5620246E-05  0.1199268E+04  0.7818609E-02  0.9113498E-01
        1   -1    0    0  501    0  0.00000000000E+00  0.00000000000E+00  0.28686368805E+03  0.28686368809E+03  0.50400001928E-02 0.  1.
       -1   -1    0    0    0  501  0.00000000000E+00  0.00000000000E+00 -0.12534199819E+04  0.12534199819E+04  0.50400001928E-02 0. -1.
    10030    2    1    2    0    0  0.00000000000E+00  0.00000000000E+00 -0.96655629388E+03  0.15402836700E+04  0.11992675744E+04 0.  0.
        1    1    3    3  502    0 -0.32022076765E+03 -0.50575436202E+03 -0.43820000616E+03  0.74185447371E+03  0.50400001928E-02 0.  1.
       -1    1    3    3    0  502  0.32022076765E+03  0.50575436202E+03 -0.52835628772E+03  0.79842919632E+03  0.50400001928E-02 0. -1.
</event>
<event>
 5   0  0.5625746E-05  0.1199839E+04  0.7818609E-02  0.9112997E-01
        1   -1    0    0  501    0  0.00000000000E+00  0.00000000000E+00  0.85102128396E+03  0.85102128398E+03  0.50400001928E-02 0. -1.
       -1   -1    0    0    0  501  0.00000000000E+00  0.00000000000E+00 -0.42290789148E+03  0.42290789151E+03  0.50400001928E-02 0.  1.
    10030    2    1    2    0    0  0.00000000000E+00  0.00000000000E+00  0.42811339248E+03  0.12739291755E+04  0.11998393506E+04 0.  0.
        5    1    3    3  502    0  0.56289124399E+03 -0.20744575343E+03  0.21523598274E+03  0.63736089576E+03  0.46999998093E+01 0.  1.
       -5    1    3    3    0  502 -0.56289124399E+03  0.20744575343E+03  0.21287740974E+03  0.63656827973E+03  0.46999998093E+01 0. -1.
</event>
<event>
 5   0  0.9838215E-05  0.1199928E+04  0.7818609E-02  0.9112919E-01
        2   -1    0    0  501    0  0.00000000000E+00  0.00000000000E+00  0.23320367021E+04  0.23320367021E+04  0.25500000920E-02 0.  1.
       -2   -1    0    0    0  501  0.00000000000E+00  0.00000000000E+00 -0.15435302994E+03  0.15435302996E+03  0.25500000920E-02 0. -1.
    10030    2    1    2    0    0  0.00000000000E+00  0.00000000000E+00  0.21776836721E+04  0.24863897320E+04  0.11999282160E+04 0.  0.
        4    1    3    3  502    0 -0.17610150819E+03  0.50395873592E+03  0.52148631268E+03  0.74628127131E+03  0.12699999809E+01 0. -1.
       -4    1    3    3    0  502  0.17610150819E+03 -0.50395873592E+03  0.16561973595E+04  0.17401084607E+04  0.12699999809E+01 0.  1.
</event>
<event>
 5   0  0.1004006E-04  0.1199669E+04  0.7818609E-02  0.9113147E-01
       -2   -1    0    0    0  501  0.00000000000E+00  0.00000000000E+00  0.48424741864E+03  0.48424741865E+03  0.25500000920E-02 0. -1.
        2   -1    0    0  501    0  0.00000000000E+00  0.00000000000E+00 -0.74301113119E+03  0.74301113120E+03  0.25500000920E-02 0.  1.
    10030    2    1    2    0    0  0.00000000000E+00  0.00000000000E+00 -0.25876371255E+03  0.12272585498E+04  0.11996686581E+04 0.  0.
        5    1    3    3  502    0 -0.23773044095E+03 -0.54462389432E+03 -0.21279341796E+03  0.63121634765E+03  0.46999998093E+01 0. -1.
       -5    1    3    3    0  502  0.23773044095E+03  0.54462389432E+03 -0.45970294596E+02  0.59604220220E+03  0.46999998093E+01 0.  1.
</event>
<event>
 5   0  0.1012657E-04  0.1200312E+04  0.7818609E-02  0.9112583E-01
       -2   -1    0    0    0  501  0.00000000000E+00  0.00000000000E+00  0.32372984599E+03  0.32372984600E+03  0.25500000920E-02 0.  1.
        2   -1    0    0  501    0  0.00000000000E+00  0.00000000000E+00 -0.11126172402E+04  0.11126172402E+04  0.25500000920E-02 0. -1.
    10030    2    1    2    0    0  0.00000000000E+00  0.00000000000E+00 -0.78888739419E+03  0.14363470862E+04  0.12003123057E+04 0.  0.
        1    1    3    3  502    0  0.20117745320E+03 -0.36218622652E+03 -0.91403573558E+03  0.10035499770E+04  0.50400001928E-02 0. -1.
       -1    1    3    3    0  502 -0.20117745320E+03  0.36218622652E+03  0.12514834139E+03  0.43279710920E+03  0.50400001928E-02 0.  1.
</event>
<event>
 5   0  0.1012657E-04  0.1198815E+04  0.7818609E-02  0.9113894E-01
        2   -1    0    0  501    0  0.00000000000E+00  0.00000000000E+00  0.23145643820E+04  0.23145643820E+04  0.25500000920E-02 0. -1.
       -2   -1    0    0    0  501  0.00000000000E+00  0.00000000000E+00 -0.15522988300E+03  0.15522988302E+03  0.25500000920E-02 0.  1.
    10030    2    1    2    0    0  0.00000000000E+00  0.00000000000E+00  0.21593344990E+04  0.24697942650E+04  0.11988153456E+04 0.  0.
        1    1    3    3  502    0  0.37027550355E+03  0.31551524258E+03  0.35819934656E+03  0.60411968080E+03  0.50400001928E-02 0.  1.
       -1    1    3    3    0  502 -0.37027550355E+03 -0.31551524258E+03  0.18011351524E+04  0.18656745842E+04  0.50400001928E-02 0. -1.
</event>
<event>
 5   0  0.5625746E-05  0.1199779E+04  0.7818609E-02  0.9113050E-01
        1   -1    0    0  501    0  0.00000000000E+00  0.00000000000E+00  0.53525134874E+03  0.53525134877E+03  0.50400001928E-02 0. -1.
       -1   -1    0    0    0  501  0.00000000000E+00  0.00000000000E+00 -0.67233403080E+03  0.67233403082E+03  0.50400001928E-02 0.  1.
    10030    2    1    2    0    0  0.00000000000E+00  0.00000000000E+00 -0.13708268206E+03  0.12075853796E+04  0.11997794744E+04 0.  0.
        5    1    3    3  502    0  0.28807805160E+02  0.58457407001E+03  0.63801292091E+02  0.58876941823E+03  0.46999998093E+01 0. -1.
       -5    1    3    3    0  502 -0.28807805160E+02 -0.58457407001E+03 -0.20088397415E+03  0.61881596136E+03  0.46999998093E+01 0.  1.
</event>
<event>
 5   0  0.5625746E-05  0.1196351E+04  0.7818609E-02  0.9116057E-01
        1   -1    0    0  501    0  0.00000000000E+00  0.00000000000E+00  0.89257738896E+03  0.89257738898E+03  0.50400001928E-02 0.  1.
       -1   -1    0    0    0  501  0.00000000000E+00  0.00000000000E+00 -0.40087696022E+03  0.40087696025E+03  0.50400001928E-02 0. -1.
    10030    2    1    2    0    0  0.00000000000E+00  0.00000000000E+00  0.49170042874E+03  0.12934543492E+04  0.11963506350E+04 0.  0.
        5    1    3    3  502    0 -0.16950387885E+03  0.36264884559E+03 -0.23468652659E+03  0.46405345157E+03  0.46999998093E+01 0. -1.
       -5    1    3    3    0  502  0.16950387885E+03 -0.36264884559E+03  0.72638695534E+03  0.82940089766E+03  0.46999998093E+01 0.  1.
</event>
<event>
 5   0  0.9838215E-05  0.1199949E+04  0.7818609E-02  0.9112901E-01
       -2   -1    0    0    0  501  0.00000000000E+00  0.00000000000E+00  0.60426611113E+03  0.60426611114E+03  0.25500000920E-02 0.  1.
        2   -1    0    0  501    0  0.00000000000E+00  0.00000000000E+00 -0.59571375195E+03  0.59571375196E+03  0.25500000920E-02 0. -1.
    10030    2    1    2    0    0  0.00000000000E+00  0.00000000000E+00  0.85523591757E+01  0.11999798631E+04  0.11999493860E+04 0.  0.
        4    1    3    3  502    0  0.43161617161E+03 -0.37749598322E+03 -0.17228504462E+03  0.59873156459E+03  0.12699999809E+01 0. -1.
       -4    1    3    3    0  502 -0.43161617161E+03  0.37749598322E+03  0.18083740379E+03  0.60124829850E+03  0.12699999809E+01 0.  1.
</event>
<event>
 5   0  0.5732931E-05  0.1199868E+04  0.7818609E-02  0.9112973E-01
       -1   -1    0    0    0  501  0.00000000000E+00  0.00000000000E+00  0.37370553907E+03  0.37370553910E+03  0.50400001928E-02 0.  1.
        1   -1    0    0  501    0  0.00000000000E+00  0.00000000000E+00 -0.96311258159E+03  0.96311258160E+03  0.50400001928E-02 0. -1.
    10030    2    1    2    0    0  0.00000000000E+00  0.00000000000E+00 -0.58940704252E+03  0.13368181207E+04  0.11998675035E+04 0.  0.
        4    1    3    3  502    0 -0.14618117322E+03 -0.59310516932E+02  0.35018154582E+03  0.38407733694E+03  0.12699999809E+01 0.  1.
       -4    1    3    3    0  502  0.14618117322E+03  0.59310516932E+02 -0.93958858833E+03  0.95274078376E+03  0.12699999809E+01 0. -1.
</event>
<event>
 5   0  0.9838215E-05  0.1199478E+04  0.7818609E-02  0.9113314E-01
        2   -1    0    0  501    0  0.00000000000E+00  0.00000000000E+00  0.72702263204E+03  0.72702263204E+03  0.25500000920E-02 0.  1.
       -2   -1    0    0    0  501  0.00000000000E+00  0.00000000000E+00 -0.49473934034E+03  0.49473934035E+03  0.25500000920E-02 0. -1.
    10030    2    1    2    0    0  0.00000000000E+00  0.00000000000E+00  0.23228329169E+03  0.12217619724E+04  0.11994777153E+04 0.  0.
        4    1    3    3  502    0  0.19001695358E+03 -0.17364745807E+03  0.66789264203E+03  0.71578074612E+03  0.12699999809E+01 0.  1.
       -4    1    3    3    0  502 -0.19001695358E+03  0.17364745807E+03 -0.43560935033E+03  0.50598122627E+03  0.12699999809E+01 0. -1.
</event>
<event>
 5   0  0.5745487E-05  0.1200009E+04  0.7818609E-02  0.9112849E-01
        1   -1    0    0  501    0  0.00000000000E+00  0.00000000000E+00  0.23612391552E+03  0.23612391557E+03  0.50400001928E-02 0.  1.
       -1   -1    0    0    0  501  0.00000000000E+00  0.00000000000E+00 -0.15246457811E+04  0.15246457811E+04  0.50400001928E-02 0. -1.
    10030    2    1    2    0    0  0.00000000000E+00  0.00000000000E+00 -0.12885218656E+04  0.17607696967E+04  0.12000088861E+04 0.  0.
        3    1    3    3  502    0  0.59548073410E+03  0.66920645950E+02 -0.59952294819E+03  0.84764583002E+03  0.10100000352E+00 0. -1.
       -3    1    3    3    0  502 -0.59548073410E+03 -0.66920645950E+02 -0.68899891743E+03  0.91312386671E+03  0.10100000352E+00 0.  1.
</event>
<event>
 5   0  0.5732931E-05  0.1200082E+04  0.7818609E-02  0.9112785E-01
        1   -1    0    0  501    0  0.00000000000E+00  0.00000000000E+00  0.12037023132E+04  0.12037023132E+04  0.50400001928E-02 0. -1.
       -1   -1    0    0    0  501  0.00000000000E+00  0.00000000000E+00 -0.29911792300E+03  0.29911792305E+03  0.50400001928E-02 0.  1.
    10030    2    1    2    0    0  0.00000000000E+00  0.00000000000E+00  0.90458439015E+03  0.15028202362E+04  0.12000815570E+04 0.  0.
        4    1    3    3  502    0  0.13365437219E+03 -0.58496119425E+03  0.44971575723E+03  0.74985929692E+03  0.12699999809E+01 0. -1.
       -4    1    3    3    0  502 -0.13365437219E+03  0.58496119425E+03  0.45486863292E+03  0.75296093929E+03  0.12699999809E+01 0.  1.
</event>
<event>
 5   0  0.5447807E-05  0.1199822E+04  0.7818609E-02  0.9113013E-01
        1   -1    0    0  501    0  0.00000000000E+00  0.00000000000E+00  0.62158574361E+03  0.62158574363E+03  0.50400001928E-02 0. -1.
       -1   -1    0    0    0  501  0.00000000000E+00  0.00000000000E+00 -0.57899179320E+03  0.57899179322E+03  0.50400001928E-02 0.  1.
    10030    2    1    2    0    0  0.00000000000E+00  0.00000000000E+00  0.42593950410E+02  0.12005775369E+04  0.11998217273E+04 0.  0.
        2    1    3    3  502    0  0.43992987372E+03  0.10551806306E+03 -0.37293177610E+03  0.58630236658E+03  0.25500000920E-02 0.  1.
       -2    1    3    3    0  502 -0.43992987372E+03 -0.10551806306E+03  0.41552572651E+03  0.61427517028E+03  0.25500000920E-02 0. -1.
</event>
<event>
 5   0  0.1012657E-04  0.1200111E+04  0.7818609E-02  0.9112759E-01
       -2   -1    0    0    0  501  0.00000000000E+00  0.00000000000E+00  0.10106150605E+04  0.10106150605E+04  0.25500000920E-02 0. -1.
        2   -1    0    0  501    0  0.00000000000E+00  0.00000000000E+00 -0.35628457941E+03  0.35628457942E+03  0.25500000920E-02 0.  1.
    10030    2    1    2    0    0  0.00000000000E+00  0.00000000000E+00  0.65433048112E+03  0.13668996400E+04  0.12001109312E+04 0.  0.
        1    1    3    3  502    0  0.35714756596E+02  0.48733693629E+03 -0.69509376024E+02  0.49356295109E+03  0.50400001928E-02 0.  1.
       -1    1    3    3    0  502 -0.35714756596E+02 -0.48733693629E+03  0.72383985714E+03  0.87333668887E+03  0.50400001928E-02 0. -1.
</event>
<event>
 5   0  0.5620246E-05  0.1199444E+04  0.7818609E-02  0.9113344E-01
        1   -1    0    0  501    0  0.00000000000E+00  0.00000000000E+00  0.19082873816E+04  0.19082873816E+04  0.50400001928E-02 0. -1.
       -1   -1    0    0    0  501  0.00000000000E+00  0.00000000000E+00 -0.18847597098E+03  0.18847597105E+03  0.50400001928E-02 0.  1.
    10030    2    1    2    0    0  0.00000000000E+00  0.00000000000E+00  0.17198114106E+04  0.20967633527E+04  0.11994437331E+04 0.  0.
        1    1    3    3  502    0  0.29329723819E+03  0.29878122801E+03  0.16105220083E+04  0.16640536744E+04  0.50400001928E-02 0. -1.
       -1    1    3    3    0  502 -0.29329723819E+03 -0.29878122801E+03  0.10928940231E+03  0.43270967822E+03  0.50400001928E-02 0.  1.
</event>
<event>
 5   0  0.1012657E-04  0.1199451E+04  0.7818609E-02  0.9113337E-01
       -2   -1    0    0    0  501  0.00000000000E+00  0.00000000000E+00  0.26167317666E+03  0.26167317667E+03  0.25500000920E-02 0.  1.
        2   -1    0    0  501    0  0.00000000000E+00  0.00000000000E+00 -0.13745040728E+04  0.13745040728E+04  0.25500000920E-02 0. -1.
    10030    2    1    2    0    0  0.00000000000E+00  0.00000000000E+00 -0.11128308961E+04  0.16361772495E+04  0.11994512863E+04 0.  0.
        1    1    3    3  502    0 -0.54225223471E+03  0.21466787113E+02 -0.20817432698E+03  0.58123563159E+03  0.50400001928E-02 0.  1.
       -1    1    3    3    0  502  0.54225223471E+03 -0.21466787113E+02 -0.90465656915E+03  0.10549416179E+04  0.50400001928E-02 0. -1.
</event>
<event>
 5   0  0.9941209E-05  0.1198968E+04  0.7818609E-02  0.9113760E-01
        2   -1    0    0  501    0  0.00000000000E+00  0.00000000000E+00  0.85013670654E+03  0.85013670655E+03  0.25500000920E-02 0. -1.
       -2   -1    0    0    0  501  0.00000000000E+00  0.00000000000E+00 -0.42273328284E+03  0.42273328285E+03  0.25500000920E-02 0.  1.
    10030    2    1    2    0    0  0.00000000000E+00  0.00000000000E+00  0.42740342370E+03  0.12728699894E+04  0.11989680243E+04 0.  0.
        2    1    3    3  502    0  0.51146740556E+03 -0.28506487450E+03  0.77248431380E+02  0.59061680452E+03  0.25500000920E-02 0.  1.
       -2    1    3    3    0  502 -0.51146740556E+03  0.28506487450E+03  0.35015499232E+03  0.68225318488E+03  0.25500000920E-02 0. -1.
</event>
<event>
 5   0  0.9838215E-05  0.1200480E+04  0.7818609E-02  0.9112436E-01
        2   -1    0    0  501    0  0.00000000000E+00  0.00000000000E+00  0.79854321787E+03  0.79854321787E+03  0.25500000920E-02 0. -1.
       -2   -1    0    0    0  501  0.00000000000E+00  0.00000000000E+00 -0.45118168855E+03  0.45118168855E+03  0.25500000920E-02 0.  1.
    10030    2    1    2    0    0  0.00000000000E+00  0.00000000000E+00  0.34736152932E+03  0.12497249064E+04  0.12004800330E+04 0.  0.
        4    1    3    3  502    0  0.27574415500E+03 -0.53118625848E+03  0.22130430957E+03  0.63809943625E+03  0.12699999809E+01 0.  1.
       -4    1    3    3    0  502 -0.27574415500E+03  0.53118625848E+03  0.12605721976E+03  0.61162547018E+03  0.12699999809E+01 0. -1.
</event>
<event>
 5   0  0.5447807E-05  0.1199963E+04  0.7818609E-02  0.9112889E-01
        1   -1    0    0  501    0  0.00000000000E+00  0.00000000000E+00  0.19716133023E+04  0.19716133023E+04  0.50400001928E-02 0.  1.
       -1   -1    0    0    0  501  0.00000000000E+00  0.00000000000E+00 -0.18258032513E+03  0.18258032520E+03  0.50400001928E-02 0. -1.
    10030    2    1    2    0    0  0.00000000000E+00  0.00000000000E+00  0.17890329772E+04  0.21541936275E+04  0.11999629959E+04 0.  0.
        2    1    3    3  502    0  0.89892861722E+02  0.41217978430E+03  0.12864056078E+03  0.44104568364E+03  0.25500000920E-02 0. -1.
       -2    1    3    3    0  502 -0.89892861722E+02 -0.41217978430E+03  0.16603924164E+04  0.17131479439E+04  0.25500000920E-02 0.  1.
</event>
<event>
 5   0  0.5620246E-05  0.1200095E+04  0.7818609E-02  0.9112773E-01
       -1   -1    0    0    0  501  0.00000000000E+00  0.00000000000E+00  0.35088265538E+03  0.35088265541E+03  0.50400001928E-02 0. -1.
        1   -1    0    0  501    0  0.00000000000E+00  0.00000000000E+00 -0.10261473158E+04  0.10261473159E+04  0.50400001928E-02 0.  1.
    10030    2    1    2    0    0  0.00000000000E+00  0.00000000000E+00 -0.67526466046E+03  0.13770299713E+04  0.12000954879E+04 0.  0.
        1    1    3    3  502    0  0.19230858095E+03  0.44337168098E+03  0.70467512850E+02  0.48839196164E+03  0.50400001928E-02 0.  1.
       -1    1    3    3    0  502 -0.19230858095E+03 -0.44337168098E+03 -0.74573217331E+03  0.88863800962E+03  0.50400001928E-02 0. -1.
</event>
<event>
 5   0  0.9838215E-05  0.1199779E+04  0.7818609E-02  0.9113050E-01
       -2   -1    0    0    0  501  0.00000000000E+00  0.00000000000E+00  0.10962440429E+04  0.10962440429E+04  0.25500000920E-02 0. -1.
        2   -1    0    0  501    0  0.00000000000E+00  0.00000000000E+00 -0.32827331747E+03  0.32827331748E+03  0.25500000920E-02 0.  1.
    10030    2    1    2    0    0  0.00000000000E+00  0.00000000000E+00  0.76797072540E+03  0.14245173604E+04  0.11997794276E+04 0.  0.
        4    1    3    3  502    0 -0.35290183067E+03  0.10729064277E+03 -0.17772314224E+03  0.40943633486E+03  0.12699999809E+01 0.  1.
       -4    1    3    3    0  502  0.35290183067E+03 -0.10729064277E+03  0.94569386764E+03  0.10150810255E+04  0.12699999809E+01 0. -1.
</event>
<event>
 5   0  0.1004006E-04  0.1198149E+04  0.7818609E-02  0.9114479E-01
        2   -1    0    0  501    0  0.00000000000E+00  0.00000000000E+00  0.93587346311E+03  0.93587346311E+03  0.25500000920E-02 0. -1.
       -2   -1    0    0    0  501  0.00000000000E+00  0.00000000000E+00 -0.38348135256E+03  0.38348135257E+03  0.25500000920E-02 0.  1.
    10030    2    1    2    0    0  0.00000000000E+00  0.00000000000E+00  0.55239211055E+03  0.13193548157E+04  0.11981486076E+04 0.  0.
        5    1    3    3  502    0  0.42037321603E+03 -0.29168524725E+03  0.61928158252E+03  0.80332166202E+03  0.46999998093E+01 0. -1.
       -5    1    3    3    0  502 -0.42037321603E+03  0.29168524725E+03 -0.66889471971E+02  0.51603315366E+03  0.46999998093E+01 0.  1.
</event>
<event>
 5   0  0.5447807E-05  0.1200980E+04  0.7818609E-02  0.9111999E-01
        1   -1    0    0  501    0  0.00000000000E+00  0.00000000000E+00  0.10332607437E+04  0.10332607438E+04  0.50400001928E-02 0.  1.
       -1   -1    0    0    0  501  0.00000000000E+00  0.00000000000E+00 -0.34898088770E+03  0.34898088773E+03  0.50400001928E-02 0. -1.
    10030    2    1    2    0    0  0.00000000000E+00  0.00000000000E+00  0.68427985604E+03  0.13822416315E+04  0.12009800192E+04 0.  0.
        2    1    3    3  502    0  0.19070816585E+03  0.32779956925E+03 -0.19371084141E+03  0.42584745180E+03  0.25500000920E-02 0. -1.
       -2    1    3    3    0  502 -0.19070816585E+03 -0.32779956925E+03  0.87799069745E+03  0.95639417969E+03  0.25500000920E-02 0.  1.
</event>
<event>
 5   0  0.3839750E-05  0.1199637E+04  0.7818609E-02  0.9113174E-01
       -3   -1    0    0    0  501  0.00000000000E+00  0.00000000000E+00  0.28038381475E+03  0.28038383294E+03  0.10100000352E+00 0. -1.
        3   -1    0    0  501    0  0.00000000000E+00  0.00000000000E+00 -0.12831771487E+04  0.12831771527E+04  0.10100000352E+00 0.  1.
    10030    2    1    2    0    0  0.00000000000E+00  0.00000000000E+00 -0.10027933339E+04  0.15635609856E+04  0.11996368138E+04 0.  0.
        1    1    3    3  502    0 -0.40368114282E+03  0.26551510527E+03 -0.96464125678E+03  0.10788834462E+04  0.50400001928E-02 0.  1.
       -1    1    3    3    0  502  0.40368114282E+03 -0.26551510527E+03 -0.38152077169E+02  0.48467753941E+03  0.50400001928E-02 0. -1.
</event>
<event>
 5   0  0.5745487E-05  0.1200300E+04  0.7818609E-02  0.9112594E-01
       -1   -1    0    0    0  501  0.00000000000E+00  0.00000000000E+00  0.72938333235E+03  0.72938333237E+03  0.50400001928E-02 0.  1.
        1   -1    0    0  501    0  0.00000000000E+00  0.00000000000E+00 -0.49381452600E+03  0.49381452602E+03  0.50400001928E-02 0. -1.
    10030    2    1    2    0    0  0.00000000000E+00  0.00000000000E+00  0.23556880636E+03  0.12231978584E+04  0.12003001034E+04 0.  0.
        3    1    3    3  502    0 -0.17819502719E+02  0.21235307443E+03 -0.45396095400E+03  0.50148970164E+03  0.10100000352E+00 0. -1.
       -3    1    3    3    0  502  0.17819502719E+02 -0.21235307443E+03  0.68952976036E+03  0.72170815675E+03  0.10100000352E+00 0.  1.
</event>
<event>
 5   0  0.9941209E-05  0.1194592E+04  0.7818609E-02  0.9117603E-01
       -2   -1    0    0    0  501  0.00000000000E+00  0.00000000000E+00  0.38483289637E+03  0.38483289638E+03  0.25500000920E-02 0.  1.
        2   -1    0    0  501    0  0.00000000000E+00  0.00000000000E+00 -0.92705879432E+03  0.92705879433E+03  0.25500000920E-02 0. -1.
    10030    2    1    2    0    0  0.00000000000E+00  0.00000000000E+00 -0.54222589795E+03  0.13118916907E+04  0.11945923504E+04 0.  0.
        2    1    3    3  502    0  0.92159951633E+02  0.21317279750E+03 -0.87544451372E+03  0.90572578350E+03  0.25500000920E-02 0. -1.
       -2    1    3    3    0  502 -0.92159951633E+02 -0.21317279750E+03  0.33321861577E+03  0.40616590721E+03  0.25500000920E-02 0.  1.
</event>
<event>
 5   0  0.9838215E-05  0.1200593E+04  0.7818609E-02  0.9112338E-01
        2   -1    0    0  501    0  0.00000000000E+00  0.00000000000E+00  0.66482043448E+03  0.66482043448E+03  0.25500000920E-02 0.  1.
       -2   -1    0    0    0  501  0.00000000000E+00  0.00000000000E+00 -0.54203481569E+03  0.54203481569E+03  0.25500000920E-02 0. -1.
    10030    2    1    2    0    0  0.00000000000E+00  0.00000000000E+00  0.12278561879E+03  0.12068552502E+04  0.12005928897E+04 0.  0.
        4    1    3    3  502    0  0.35024251825E+03 -0.42170789482E+03 -0.18451936172E+03  0.57840848705E+03  0.12699999809E+01 0. -1.
       -4    1    3    3    0  502 -0.35024251825E+03  0.42170789482E+03  0.30730498050E+03  0.62844676313E+03  0.12699999809E+01 0.  1.
</event>
<event>
 5   0  0.5620246E-05  0.1199573E+04  0.7818609E-02  0.9113230E-01
        1   -1    0    0  501    0  0.00000000000E+00  0.00000000000E+00  0.11855562778E+04  0.11855562778E+04  0.50400001928E-02 0. -1.
       -1   -1    0    0    0  501  0.00000000000E+00  0.00000000000E+00 -0.30343899907E+03  0.30343899911E+03  0.50400001928E-02 0.  1.
    10030    2    1    2    0    0  0.00000000000E+00  0.00000000000E+00  0.88211727872E+03  0.14889952769E+04  0.11995732746E+04 0.  0.
        1    1    3    3  502    0 -0.56216621474E+02  0.31933938965E+03 -0.18526802819E+03  0.37344637715E+03  0.50400001928E-02 0.  1.
       -1    1    3    3    0  502  0.56216621474E+02 -0.31933938965E+03  0.10673853069E+04  0.11155488998E+04  0.50400001928E-02 0. -1.
</event>
<event>
 5   0  0.5620246E-05  0.1200832E+04  0.7818609E-02  0.9112128E-01
       -1   -1    0    0    0  501  0.00000000000E+00  0.00000000000E+00  0.60167323763E+03  0.60167323765E+03  0.50400001928E-02 0.  1.
        1   -1    0    0  501    0  0.00000000000E+00  0.00000000000E+00 -0.59916153397E+03  0.59916153399E+03  0.50400001928E-02 0. -1.
    10030    2    1    2    0    0  0.00000000000E+00  0.00000000000E+00  0.25117036610E+01  0.12008347716E+04  0.12008321449E+04 0.  0.
        1    1    3    3  502    0 -0.64271020160E+02 -0.77699960143E+02  0.59314515301E+03  0.60165540005E+03  0.50400001928E-02 0.  1.
       -1    1    3    3    0  502  0.64271020160E+02  0.77699960143E+02 -0.59063344935E+03  0.59917937160E+03  0.50400001928E-02 0. -1.
</event>
<event>
 5   0  0.1023063E-04  0.1199870E+04  0.7818609E-02  0.9112970E-01
       -2   -1    0    0    0  501  0.00000000000E+00  0.00000000000E+00  0.18319024353E+03  0.18319024355E+03  0.25500000920E-02 0. -1.
        2   -1    0    0  501    0  0.00000000000E+00  0.00000000000E+00 -0.19647459219E+04  0.19647459219E+04  0.25500000920E-02 0.  1.
    10030    2    1    2    0    0  0.00000000000E+00  0.00000000000E+00 -0.17815556783E+04  0.21479361654E+04  0.11998704662E+04 0.  0.
        3    1    3    3  502    0  0.61135809662E+02 -0.52846238583E+01 -0.19591131972E+04  0.19600739894E+04  0.10100000352E+00 0.  1.
       -3    1    3    3    0  502 -0.61135809662E+02  0.52846238583E+01  0.17755751884E+03  0.18786217599E+03  0.10100000352E+00 0. -1.
</event>
<event>
 5   0  0.5732931E-05  0.1199864E+04  0.7818609E-02  0.9112975E-01
        1   -1    0    0  501    0  0.00000000000E+00  0.00000000000E+00  0.13122732349E+04  0.13122732349E+04  0.50400001928E-02 0.  1.
       -1   -1    0    0    0  501  0.00000000000E+00  0.00000000000E+00 -0.27427103786E+03  0.27427103791E+03  0.50400001928E-02 0. -1.
    10030    2    1    2    0    0  0.00000000000E+00  0.00000000000E+00  0.10380021971E+04  0.15865442728E+04  0.11998642292E+04 0.  0.
        4    1    3    3  502    0 -0.11513700678E+03  0.16706201575E+03  0.12655283237E+04  0.12816902116E+04  0.12699999809E+01 0.  1.
       -4    1    3    3    0  502  0.11513700678E+03 -0.16706201575E+03 -0.22752612667E+03  0.30485406124E+03  0.12699999809E+01 0. -1.
</event>
<event>
 5   0  0.5620246E-05  0.1200442E+04  0.7818609E-02  0.9112470E-01
        1   -1    0    0  501    0  0.00000000000E+00  0.00000000000E+00  0.25142520222E+03  0.25142520227E+03  0.50400001928E-02 0.  1.
       -1   -1    0    0    0  501  0.00000000000E+00  0.00000000000E+00 -0.14328918825E+04  0.14328918825E+04  0.50400001928E-02 0. -1.
    10030    2    1    2    0    0  0.00000000000E+00  0.00000000000E+00 -0.11814666803E+04  0.16843170848E+04  0.12004418043E+04 0.  0.
        1    1    3    3  502    0  0.47631357140E+03  0.12116831582E+03 -0.10731389772E+03  0.50306326812E+03  0.50400001928E-02 0.  1.
       -1    1    3    3    0  502 -0.47631357140E+03 -0.12116831582E+03 -0.10741527826E+04  0.11812538167E+04  0.50400001928E-02 0. -1.
</event>
<event>
 5   0  0.3839750E-05  0.1199321E+04  0.7818609E-02  0.9113451E-01
        3   -1    0    0  501    0  0.00000000000E+00  0.00000000000E+00  0.35619755990E+03  0.35619757422E+03  0.10100000352E+00 0.  1.
       -3   -1    0    0    0  501  0.00000000000E+00  0.00000000000E+00 -0.10095321426E+04  0.10095321477E+04  0.10100000352E+00 0. -1.
    10030    2    1    2    0    0  0.00000000000E+00  0.00000000000E+00 -0.65333458274E+03  0.13657297219E+04  0.11993213065E+04 0.  0.
        3    1    3    3  502    0 -0.37939860554E+03 -0.42380529006E+03 -0.11048826941E+03  0.57944964721E+03  0.10100000352E+00 0.  1.
       -3    1    3    3    0  502  0.37939860554E+03  0.42380529006E+03 -0.54284631333E+03  0.78628007470E+03  0.10100000352E+00 0. -1.
</event>
<event>
 5   0  0.5620246E-05  0.1202129E+04  0.7818609E-02  0.9110995E-01
        1   -1    0    0  501    0  0.00000000000E+00  0.00000000000E+00  0.13121061788E+04  0.13121061788E+04  0.50400001928E-02 0. -1.
       -1   -1    0    0    0  501  0.00000000000E+00  0.00000000000E+00 -0.27534260749E+03  0.27534260753E+03  0.50400001928E-02 0.  1.
    10030    2    1    2    0    0  0.00000000000E+00  0.00000000000E+00  0.10367635713E+04  0.15874487863E+04  0.12021293385E+04 0.  0.
        1    1    3    3  502    0  0.16281041905E+03  0.57859308486E+03  0.52002381280E+03  0.79479680189E+03  0.50400001928E-02 0.  1.
       -1    1    3    3    0  502 -0.16281041905E+03 -0.57859308486E+03  0.51673975851E+03  0.79265198444E+03  0.50400001928E-02 0. -1.
</event>
<event>
 5   0  0.5745487E-05  0.1199956E+04  0.7818609E-02  0.9112895E-01
        1   -1    0    0  501    0  0.00000000000E+00  0.00000000000E+00  0.82024243635E+03  0.82024243637E+03  0.50400001928E-02 0.  1.
       -1   -1    0    0    0  501  0.00000000000E+00  0.00000000000E+00 -0.43886230675E+03  0.43886230678E+03  0.50400001928E-02 0. -1.
    10030    2    1    2    0    0  0.00000000000E+00  0.00000000000E+00  0.38138012960E+03  0.12591047431E+04  0.11999558121E+04 0.  0.
        3    1    3    3  502    0 -0.20337458534E+03 -0.25920777514E+03  0.71682799691E+03  0.78891842418E+03  0.10100000352E+00 0.  1.
       -3    1    3    3    0  502  0.20337458534E+03  0.25920777514E+03 -0.33544786731E+03  0.47018631896E+03  0.10100000352E+00 0. -1.
</event>
<event>
 5   0  0.1004006E-04  0.1200244E+04  0.7818609E-02  0.9112643E-01
        2   -1    0    0  501    0  0.00000000000E+00  0.00000000000E+00  0.65695503278E+03  0.65695503279E+03  0.25500000920E-02 0. -1.
       -2   -1    0    0    0  501  0.00000000000E+00  0.00000000000E+00 -0.54820567128E+03  0.54820567129E+03  0.25500000920E-02 0.  1.
    10030    2    1    2    0    0  0.00000000000E+00  0.00000000000E+00  0.10874936150E+03  0.12051607041E+04  0.12002440998E+04 0.  0.
        5    1    3    3  502    0  0.17570869677E+03 -0.71414695580E+02 -0.51729994769E+03  0.55099449248E+03  0.46999998093E+01 0.  1.
       -5    1    3    3    0  502 -0.17570869677E+03  0.71414695580E+02  0.62604930919E+03  0.65416621160E+03  0.46999998093E+01 0. -1.
</event>
<event>
 5   0  0.5732931E-05  0.1198732E+04  0.7818609E-02  0.9113967E-01
       -1   -1    0    0    0  501  0.00000000000E+00  0.00000000000E+00  0.25789653209E+03  0.25789653214E+03  0.50400001928E-02 0. -1.
        1   -1    0    0  501    0  0.00000000000E+00  0.00000000000E+00 -0.13929606133E+04  0.13929606133E+04  0.50400001928E-02 0.  1.
    10030    2    1    2    0    0  0.00000000000E+00  0.00000000000E+00 -0.11350640812E+04  0.16508571454E+04  0.11987321828E+04 0.  0.
        4    1    3    3  502    0  0.54055724709E+03 -0.19785686337E+03 -0.33754632465E+03  0.66729949045E+03  0.12699999809E+01 0. -1.
       -4    1    3    3    0  502 -0.54055724709E+03  0.19785686337E+03 -0.79751775654E+03  0.98355765498E+03  0.12699999809E+01 0.  1.
</event>
<event>
 5   0  0.5620246E-05  0.1199787E+04  0.7818609E-02  0.9113043E-01
        1   -1    0    0  501    0  0.00000000000E+00  0.00000000000E+00  0.94596138489E+03  0.94596138490E+03  0.50400001928E-02 0. -1.
       -1   -1    0    0    0  501  0.00000000000E+00  0.00000000000E+00 -0.38043032548E+03  0.38043032552E+03  0.50400001928E-02 0.  1.
    10030    2    1    2    0    0  0.00000000000E+00  0.00000000000E+00  0.56553105940E+03  0.13263917104E+04  0.11997873104E+04 0.  0.
        1    1    3    3  502    0  0.16112965209E+03  0.67401847374E+02 -0.35169897250E+03  0.39268045673E+03  0.50400001928E-02 0.  1.
       -1    1    3    3    0  502 -0.16112965209E+03 -0.67401847374E+02  0.91723003190E+03  0.93371125369E+03  0.50400001928E-02 0. -1.
</event>
<event>
 5   0  0.5620246E-05  0.1200740E+04  0.7818609E-02  0.9112209E-01
        1   -1    0    0  501    0  0.00000000000E+00  0.00000000000E+00  0.11621742978E+04  0.11621742978E+04  0.50400001928E-02 0.  1.
       -1   -1    0    0    0  501  0.00000000000E+00  0.00000000000E+00 -0.31014638378E+03  0.31014638382E+03  0.50400001928E-02 0. -1.
    10030    2    1    2    0    0  0.00000000000E+00  0.00000000000E+00  0.85202791399E+03  0.14723206816E+04  0.12007400315E+04 0.  0.
        1    1    3    3  502    0 -0.30926899794E+03 -0.11667781573E+03  0.10405518354E+04  0.10917917146E+04  0.50400001928E-02 0.  1.
       -1    1    3    3    0  502  0.30926899794E+03  0.11667781573E+03 -0.18852392144E+03  0.38052896703E+03  0.50400001928E-02 0. -1.
</event>
<event>
 5   0  0.1004006E-04  0.1200497E+04  0.7818609E-02  0.9112421E-01
        2   -1    0    0  501    0  0.00000000000E+00  0.00000000000E+00  0.10149646322E+04  0.10149646322E+04  0.25500000920E-02 0. -1.
       -2   -1    0    0    0  501  0.00000000000E+00  0.00000000000E+00 -0.35498622185E+03  0.35498622185E+03  0.25500000920E-02 0.  1.
    10030    2    1    2    0    0  0.00000000000E+00  0.00000000000E+00  0.65997841035E+03  0.13699508541E+04  0.12004973304E+04 0.  0.
        5    1    3    3  502    0  0.37688744308E+03 -0.43613225252E+03  0.52101178334E+03  0.77700119358E+03  0.46999998093E+01 0.  1.
       -5    1    3    3    0  502 -0.37688744308E+03  0.43613225252E+03  0.13896662701E+03  0.59294966048E+03  0.46999998093E+01 0. -1.
</event>
<event>
 5   0  0.9838215E-05  0.1200133E+04  0.7818609E-02  0.9112740E-01
       -2   -1    0    0    0  501  0.00000000000E+00  0.00000000000E+00  0.46465346486E+03  0.46465346486E+03  0.25500000920E-02 0.  1.
        2   -1    0    0  501    0  0.00000000000E+00  0.00000000000E+00 -0.77494271413E+03  0.77494271413E+03  0.25500000920E-02 0. -1.
    10030    2    1    2    0    0  0.00000000000E+00  0.00000000000E+00 -0.31028924927E+03  0.12395961790E+04  0.12001330213E+04 0.  0.
        4    1    3    3  502    0 -0.44621923314E+03  0.39638445899E+03 -0.91089588889E+02  0.60376416709E+03  0.12699999809E+01 0. -1.
       -4    1    3    3    0  502  0.44621923314E+03 -0.39638445899E+03 -0.21919966038E+03  0.63583201191E+03  0.12699999809E+01 0.  1.
</event>
<event>
 5   0  0.5625746E-05  0.1198767E+04  0.7818609E-02  0.9113936E-01
        1   -1    0    0  501    0  0.00000000000E+00  0.00000000000E+00  0.41197207983E+03  0.41197207986E+03  0.50400001928E-02 0.  1.
       -1   -1    0    0    0  501  0.00000000000E+00  0.00000000000E+00 -0.87205148249E+03  0.87205148250E+03  0.50400001928E-02 0. -1.
    10030    2    1    2    0    0  0.00000000000E+00  0.00000000000E+00 -0.46007940266E+03  0.12840235624E+04  0.11987674720E+04 0.  0.
        5    1    3    3  502    0 -0.53710068914E+03  0.84689299896E+02  0.40063803573E+02  0.54523080081E+03  0.46999998093E+01 0.  1.
       -5    1    3    3    0  502  0.53710068914E+03 -0.84689299896E+02 -0.50014320623E+03  0.73879276156E+03  0.46999998093E+01 0. -1.
</event>
<event>
 5   0  0.9838215E-05  0.1200093E+04  0.7818609E-02  0.9112775E-01
       -2   -1    0    0    0  501  0.00000000000E+00  0.00000000000E+00  0.26960591264E+03  0.26960591265E+03  0.25500000920E-02 0.  1.
        2   -1    0    0  501    0  0.00000000000E+00  0.00000000000E+00 -0.13354895125E+04  0.13354895125E+04  0.25500000920E-02 0. -1.
    10030    2    1    2    0    0  0.00000000000E+00  0.00000000000E+00 -0.10658835999E+04  0.16050954252E+04  0.12000931112E+04 0.  0.
        4    1    3    3  502    0  0.14319685067E+03  0.24141487139E+03 -0.12422678426E+04  0.12735845021E+04  0.12699999809E+01 0. -1.
       -4    1    3    3    0  502 -0.14319685067E+03 -0.24141487139E+03  0.17638424273E+03  0.33151092313E+03  0.12699999809E+01 0.  1.
</event>
<event>
 5   0  0.5745487E-05  0.1200672E+04  0.7818609E-02  0.9112269E-01
       -1   -1    0    0    0  501  0.00000000000E+00  0.00000000000E+00  0.66497543889E+03  0.66497543891E+03  0.50400001928E-02 0. -1.
        1   -1    0    0  501    0  0.00000000000E+00  0.00000000000E+00 -0.54197952762E+03  0.54197952765E+03  0.50400001928E-02 0.  1.
    10030    2    1    2    0    0  0.00000000000E+00  0.00000000000E+00  0.12299591127E+03  0.12069549666E+04  0.12006716025E+04 0.  0.
        3    1    3    3  502    0  0.20883972572E+03 -0.31998935420E+03  0.52695007328E+03  0.65090983076E+03  0.10100000352E+00 0. -1.
       -3    1    3    3    0  502 -0.20883972572E+03  0.31998935420E+03 -0.40395416201E+03  0.55604513580E+03  0.10100000352E+00 0.  1.
</event>
<event>
 5   0  0.9941209E-05  0.1200084E+04  0.7818609E-02  0.9112783E-01
        2   -1    0    0  501    0  0.00000000000E+00  0.00000000000E+00  0.77058394830E+03  0.77058394831E+03  0.25500000920E-02 0.  1.
       -2   -1    0    0    0  501  0.00000000000E+00  0.00000000000E+00 -0.46724328718E+03  0.46724328718E+03  0.25500000920E-02 0. -1.
    10030    2    1    2    0    0  0.00000000000E+00  0.00000000000E+00  0.30334066113E+03  0.12378272355E+04  0.12000836255E+04 0.  0.
        2    1    3    3  502    0 -0.16833240804E+03  0.87239973779E+02  0.73887625376E+03  0.76281369350E+03  0.25500000920E-02 0.  1.
       -2    1    3    3    0  502  0.16833240804E+03 -0.87239973779E+02 -0.43553559263E+03  0.47501354199E+03  0.25500000920E-02 0. -1.
</event>
<event>
 5   0  0.1012657E-04  0.1200104E+04  0.7818609E-02  0.9112765E-01
        2   -1    0    0  501    0  0.00000000000E+00  0.00000000000E+00  0.10961772903E+04  0.10961772903E+04  0.25500000920E-02 0.  1.
       -2   -1    0    0    0  501  0.00000000000E+00  0.00000000000E+00 -0.32847116028E+03  0.32847116029E+03  0.25500000920E-02 0. -1.
    10030    2    1    2    0    0  0.00000000000E+00  0.00000000000E+00  0.76770613002E+03  0.14246484506E+04  0.12001043728E+04 0.  0.
        1    1    3    3  502    0  0.15371869852E+03 -0.23297526804E+03  0.10144227903E+04  0.10521219089E+04  0.50400001928E-02 0.  1.
       -1    1    3    3    0  502 -0.15371869852E+03  0.23297526804E+03 -0.24671666024E+03  0.37252654168E+03  0.50400001928E-02 0. -1.
</event>
<event>
 5   0  0.5732931E-05  0.1199948E+04  0.7818609E-02  0.9112902E-01
        1   -1    0    0  501    0  0.00000000000E+00  0.00000000000E+00  0.87604182311E+03  0.87604182313E+03  0.50400001928E-02 0.  1.
       -1   -1    0    0    0  501  0.00000000000E+00  0.00000000000E+00 -0.41090340968E+03  0.41090340971E+03  0.50400001928E-02 0. -1.
    10030    2    1    2    0    0  0.00000000000E+00  0.00000000000E+00  0.46513841343E+03  0.12869452328E+04  0.11999476191E+04 0.  0.
        4    1    3    3  502    0 -0.46747422071E+02  0.41734771105E+03  0.69212379119E+03  0.80956864355E+03  0.12699999809E+01 0.  1.
       -4    1    3    3    0  502  0.46747422071E+02 -0.41734771105E+03 -0.22698537776E+03  0.47737658929E+03  0.12699999809E+01 0. -1.
</event>
<event>
 5   0  0.1012657E-04  0.1200177E+04  0.7818609E-02  0.9112701E-01
       -2   -1    0    0    0  501  0.00000000000E+00  0.00000000000E+00  0.88940748142E+03  0.88940748142E+03  0.25500000920E-02 0.  1.
        2   -1    0    0  501    0  0.00000000000E+00  0.00000000000E+00 -0.40488360473E+03  0.40488360474E+03  0.25500000920E-02 0. -1.
    10030    2    1    2    0    0  0.00000000000E+00  0.00000000000E+00  0.48452387669E+03  0.12942910862E+04  0.12001774988E+04 0.  0.
        1    1    3    3  502    0 -0.42467799037E+03  0.31931990616E+03 -0.58517477888E+02  0.53454737228E+03  0.50400001928E-02 0. -1.
       -1    1    3    3    0  502  0.42467799037E+03 -0.31931990616E+03  0.54304135457E+03  0.75974371388E+03  0.50400001928E-02 0.  1.
</event>
<event>
 5   0  0.3839750E-05  0.1200190E+04  0.7818609E-02  0.9112690E-01
        4   -1    0    0  501    0  0.00000000000E+00  0.00000000000E+00  0.24329379389E+03  0.24329710858E+03  0.12699999809E+01 0. -1.
       -4   -1    0    0    0  501  0.00000000000E+00  0.00000000000E+00 -0.14801467796E+04  0.14801473245E+04  0.12699999809E+01 0.  1.
    10030    2    1    2    0    0  0.00000000000E+00  0.00000000000E+00 -0.12368529857E+04  0.17234444331E+04  0.12001897373E+04 0.  0.
        5    1    3    3  502    0  0.13456257672E+03  0.35409195459E+03  0.49886914541E+02  0.38209814655E+03  0.46999998093E+01 0. -1.
       -5    1    3    3    0  502 -0.13456257672E+03 -0.35409195459E+03 -0.12867399003E+04  0.13413462865E+04  0.46999998093E+01 0.  1.
</event>
<event>
 5   0  0.9838215E-05  0.1199711E+04  0.7818609E-02  0.9113109E-01
        2   -1    0    0  501    0  0.00000000000E+00  0.00000000000E+00  0.63427058798E+03  0.63427058799E+03  0.25500000920E-02 0. -1.
       -2   -1    0    0    0  501  0.00000000000E+00  0.00000000000E+00 -0.56730793606E+03  0.56730793606E+03  0.25500000920E-02 0.  1.
    10030    2    1    2    0    0  0.00000000000E+00  0.00000000000E+00  0.66962651927E+02  0.12015785241E+04  0.11997111955E+04 0.  0.
        4    1    3    3  502    0  0.36928892598E+03 -0.22918138599E+03  0.44755765880E+03  0.62386528144E+03  0.12699999809E+01 0. -1.
       -4    1    3    3    0  502 -0.36928892598E+03  0.22918138599E+03 -0.38059500687E+03  0.57771324261E+03  0.12699999809E+01 0.  1.
</event>
<event>
 5   0  0.1023063E-04  0.1200353E+04  0.7818609E-02  0.9112547E-01
       -2   -1    0    0    0  501  0.00000000000E+00  0.00000000000E+00  0.94907995142E+03  0.94907995142E+03  0.25500000920E-02 0. -1.
        2   -1    0    0  501    0  0.00000000000E+00  0.00000000000E+00 -0.37953805139E+03  0.37953805140E+03  0.25500000920E-02 0.  1.
    10030    2    1    2    0    0  0.00000000000E+00  0.00000000000E+00  0.56954190003E+03  0.13286180028E+04  0.12003532070E+04 0.  0.
        3    1    3    3  502    0  0.43674646313E+03  0.13354195948E+03 -0.14623682042E+03  0.47954785564E+03  0.10100000352E+00 0.  1.
       -3    1    3    3    0  502 -0.43674646313E+03 -0.13354195948E+03  0.71577872044E+03  0.84907014719E+03  0.10100000352E+00 0. -1.
</event>
<event>
 5   0  0.5447807E-05  0.1203345E+04  0.7818609E-02  0.9109934E-01
        1   -1    0    0  501    0  0.00000000000E+00  0.00000000000E+00  0.44903179338E+03  0.44903179340E+03  0.50400001928E-02 0.  1.
       -1   -1    0    0    0  501  0.00000000000E+00  0.00000000000E+00 -0.80620041249E+03  0.80620041250E+03  0.50400001928E-02 0. -1.
    10030    2    1    2    0    0  0.00000000000E+00  0.00000000000E+00 -0.35716861911E+03  0.12552322059E+04  0.12033447005E+04 0.  0.
        2    1    3    3  502    0  0.11504036963E+03  0.80887529047E+02 -0.78881588101E+03  0.80125375079E+03  0.25500000920E-02 0. -1.
       -2    1    3    3    0  502 -0.11504036963E+03 -0.80887529047E+02  0.43164726190E+03  0.45397845512E+03  0.25500000920E-02 0.  1.
</event>
<event>
 5   0  0.5732931E-05  0.1199882E+04  0.7818609E-02  0.9112960E-01
        1   -1    0    0  501    0  0.00000000000E+00  0.00000000000E+00  0.12831852869E+03  0.12831852879E+03  0.50400001928E-02 0. -1.
       -1   -1    0    0    0  501  0.00000000000E+00  0.00000000000E+00 -0.28049648299E+04  0.28049648299E+04  0.50400001928E-02 0.  1.
    10030    2    1    2    0    0  0.00000000000E+00  0.00000000000E+00 -0.26766463012E+04  0.29332833587E+04  0.11998815944E+04 0.  0.
        4    1    3    3  502    0  0.25883196794E+03  0.33548567815E+03 -0.23765998116E+04  0.24140780653E+04  0.12699999809E+01 0.  1.
       -4    1    3    3    0  502 -0.25883196794E+03 -0.33548567815E+03 -0.30004648960E+03  0.51920529340E+03  0.12699999809E+01 0. -1.
</event>
<event>
 5   0  0.5745487E-05  0.1198793E+04  0.7818609E-02  0.9113914E-01
        1   -1    0    0  501    0  0.00000000000E+00  0.00000000000E+00  0.38519959025E+03  0.38519959028E+03  0.50400001928E-02 0. -1.
       -1   -1    0    0    0  501  0.00000000000E+00  0.00000000000E+00 -0.93270104987E+03  0.93270104988E+03  0.50400001928E-02 0.  1.
    10030    2    1    2    0    0  0.00000000000E+00  0.00000000000E+00 -0.54750145962E+03  0.13179006402E+04  0.11987928299E+04 0.  0.
        3    1    3    3  502    0  0.17300518438E+02 -0.57621242926E+03 -0.93255346138E+02  0.58396630156E+03  0.10100000352E+00 0. -1.
       -3    1    3    3    0  502 -0.17300518438E+02  0.57621242926E+03 -0.45424611348E+03  0.73393433861E+03  0.10100000352E+00 0.  1.
</event>
<event>
 5   0  0.5745487E-05  0.1200219E+04  0.7818609E-02  0.9112665E-01
        1   -1    0    0  501    0  0.00000000000E+00  0.00000000000E+00  0.81881012910E+03  0.81881012912E+03  0.50400001928E-02 0.  1.
       -1   -1    0    0    0  501  0.00000000000E+00  0.00000000000E+00 -0.43982303501E+03  0.43982303504E+03  0.50400001928E-02 0. -1.
    10030    2    1    2    0    0  0.00000000000E+00  0.00000000000E+00  0.37898709409E+03  0.12586331642E+04  0.12002192402E+04 0.  0.
        3    1    3    3  502    0 -0.50837817322E+03  0.30976131493E+03  0.26888209021E+03  0.65322127022E+03  0.10100000352E+00 0.  1.
       -3    1    3    3    0  502  0.50837817322E+03 -0.30976131493E+03  0.11010500388E+03  0.60541189393E+03  0.10100000352E+00 0. -1.
</event>
<event>
 5   0  0.1012657E-04  0.1199567E+04  0.7818609E-02  0.9113236E-01
       -2   -1    0    0    0  501  0.00000000000E+00  0.00000000000E+00  0.48278254927E+03  0.48278254928E+03  0.25500000920E-02 0.  1.
        2   -1    0    0  501    0  0.00000000000E+00  0.00000000000E+00 -0.74513933289E+03  0.74513933290E+03  0.25500000920E-02 0. -1.
    10030    2    1    2    0    0  0.00000000000E+00  0.00000000000E+00 -0.26235678362E+03  0.12279218822E+04  0.11995670331E+04 0.  0.
        1    1    3    3  502    0 -0.41207822085E+03 -0.40000030276E+03  0.45918494196E+02  0.57612256547E+03  0.50400001928E-02 0.  1.
       -1    1    3    3    0  502  0.41207822085E+03  0.40000030276E+03 -0.30827527782E+03  0.65179931670E+03  0.50400001928E-02 0. -1.
</event>
<event>
 5   0  0.1004006E-04  0.1199924E+04  0.7818609E-02  0.9112923E-01
       -2   -1    0    0    0  501  0.00000000000E+00  0.00000000000E+00  0.39020198490E+03  0.39020198491E+03  0.25500000920E-02 0.  1.
        2   -1    0    0  501    0  0.00000000000E+00  0.00000000000E+00 -0.92248249121E+03  0.92248249122E+03  0.25500000920E-02 0. -1.
    10030    2    1    2    0    0  0.00000000000E+00  0.00000000000E+00 -0.53228050631E+03  0.13126844761E+04  0.11999241628E+04 0.  0.
        5    1    3    3  502    0 -0.19429439158E+03  0.20972978749E+03 -0.84314795800E+03  0.89031312662E+03  0.46999998093E+01 0. -1.
       -5    1    3    3    0  502  0.19429439158E+03 -0.20972978749E+03  0.31086745169E+03  0.42237134950E+03  0.46999998093E+01 0.  1.
</event>
<event>
 5   0  0.9941209E-05  0.1200222E+04  0.7818609E-02  0.9112662E-01
       -2   -1    0    0    0  501  0.00000000000E+00  0.00000000000E+00  0.42800371982E+03  0.42800371982E+03  0.25500000920E-02 0. -1.
        2   -1    0    0  501    0  0.00000000000E+00  0.00000000000E+00 -0.84142526406E+03  0.84142526406E+03  0.25500000920E-02 0.  1.
    10030    2    1    2    0    0  0.00000000000E+00  0.00000000000E+00 -0.41342154424E+03  0.12694289839E+04  0.12002218844E+04 0.  0.
        2    1    3    3  502    0  0.22359811863E+02  0.76855408060E+02 -0.83575419089E+03  0.83957833615E+03  0.25500000920E-02 0.  1.
       -2    1    3    3    0  502 -0.22359811863E+02 -0.76855408060E+02  0.42233264664E+03  0.42985064774E+03  0.25500000920E-02 0. -1.
</event>
<event>
 5   0  0.5620246E-05  0.1200108E+04  0.7818609E-02  0.9112762E-01
       -1   -1    0    0    0  501  0.00000000000E+00  0.00000000000E+00  0.31421070512E+03  0.31421070516E+03  0.50400001928E-02 0.  1.
        1   -1    0    0  501    0  0.00000000000E+00  0.00000000000E+00 -0.11459337050E+04  0.11459337050E+04  0.50400001928E-02 0. -1.
    10030    2    1    2    0    0  0.00000000000E+00  0.00000000000E+00 -0.83172299988E+03  0.14601444102E+04  0.12001077243E+04 0.  0.
        1    1    3    3  502    0 -0.20808745734E+03  0.49587364198E+03 -0.73976658091E+03  0.91457402815E+03  0.50400001928E-02 0. -1.
       -1    1    3    3    0  502  0.20808745734E+03 -0.49587364198E+03 -0.91956418972E+02  0.54557038201E+03  0.50400001928E-02 0.  1.
</event>
<event>
 5   0  0.9941209E-05  0.1199687E+04  0.7818609E-02  0.9113130E-01
        2   -1    0    0  501    0  0.00000000000E+00  0.00000000000E+00  0.44607358506E+03  0.44607358507E+03  0.25500000920E-02 0.  1.
       -2   -1    0    0    0  501  0.00000000000E+00  0.00000000000E+00 -0.80662090463E+03  0.80662090464E+03  0.25500000920E-02 0. -1.
    10030    2    1    2    0    0  0.00000000000E+00  0.00000000000E+00 -0.36054731957E+03  0.12526944897E+04  0.11996870904E+04 0.  0.
        2    1    3    3  502    0 -0.22528452886E+03 -0.54848210098E+03 -0.27498149543E+03  0.65360581154E+03  0.25500000920E-02 0. -1.
       -2    1    3    3    0  502  0.22528452886E+03  0.54848210098E+03 -0.85565824147E+02  0.59908867817E+03  0.25500000920E-02 0.  1.
</event>
<event>
 5   0  0.5620246E-05  0.1200048E+04  0.7818609E-02  0.9112815E-01
       -1   -1    0    0    0  501  0.00000000000E+00  0.00000000000E+00  0.48028902482E+03  0.48028902485E+03  0.50400001928E-02 0. -1.
        1   -1    0    0  501    0  0.00000000000E+00  0.00000000000E+00 -0.74960844679E+03  0.74960844681E+03  0.50400001928E-02 0.  1.
    10030    2    1    2    0    0  0.00000000000E+00  0.00000000000E+00 -0.26931942197E+03  0.12298974717E+04  0.12000478489E+04 0.  0.
        1    1    3    3  502    0  0.29742352649E+03 -0.20792358088E+02 -0.66831847357E+03  0.73180780155E+03  0.50400001928E-02 0.  1.
       -1    1    3    3    0  502 -0.29742352649E+03  0.20792358088E+02  0.39899905160E+03  0.49808967011E+03  0.50400001928E-02 0. -1.
</event>
<event>
 5   0  0.5625746E-05  0.1200129E+04  0.7818609E-02  0.9112744E-01
        1   -1    0    0  501    0  0.00000000000E+00  0.00000000000E+00  0.16582850739E+04  0.16582850739E+04  0.50400001928E-02 0.  1.
       -1   -1    0    0    0  501  0.00000000000E+00  0.00000000000E+00 -0.21713833886E+03  0.21713833892E+03  0.50400001928E-02 0. -1.
    10030    2    1    2    0    0  0.00000000000E+00  0.00000000000E+00  0.14411467350E+04  0.18754234128E+04  0.12001287704E+04 0.  0.
        5    1    3    3  502    0  0.11128681340E+03 -0.56015460464E+02 -0.19667448504E+03  0.23286354311E+03  0.46999998093E+01 0. -1.
       -5    1    3    3    0  502 -0.11128681340E+03  0.56015460464E+02  0.16378212201E+04  0.16425598697E+04  0.46999998093E+01 0.  1.
</event>
<event>
 5   0  0.9838215E-05  0.1198473E+04  0.7818609E-02  0.9114194E-01
        2   -1    0    0  501    0  0.00000000000E+00  0.00000000000E+00  0.21885777308E+04  0.21885777308E+04  0.25500000920E-02 0.  1.
       -2   -1    0    0    0  501  0.00000000000E+00  0.00000000000E+00 -0.16407201663E+03  0.16407201665E+03  0.25500000920E-02 0. -1.
    10030    2    1    2    0    0  0.00000000000E+00  0.00000000000E+00  0.20245057142E+04  0.23526497475E+04  0.11984729649E+04 0.  0.
        4    1    3    3  502    0  0.29018047248E+03 -0.30213207411E+03  0.18533740481E+04  0.19001277515E+04  0.12699999809E+01 0.  1.
       -4    1    3    3    0  502 -0.29018047248E+03  0.30213207411E+03  0.17113166604E+03  0.45252199597E+03  0.12699999809E+01 0. -1.
</event>
<event>
 5   0  0.5620246E-05  0.1200335E+04  0.7818609E-02  0.9112564E-01
        1   -1    0    0  501    0  0.00000000000E+00  0.00000000000E+00  0.11060454556E+04  0.11060454556E+04  0.50400001928E-02 0. -1.
       -1   -1    0    0    0  501  0.00000000000E+00  0.00000000000E+00 -0.32566543733E+03  0.32566543737E+03  0.50400001928E-02 0.  1.
    10030    2    1    2    0    0  0.00000000000E+00  0.00000000000E+00  0.78038001826E+03  0.14317108930E+04  0.12003345818E+04 0.  0.
        1    1    3    3  502    0 -0.14661361196E+03 -0.43103027690E+03  0.85661573358E+03  0.97008925665E+03  0.50400001928E-02 0. -1.
       -1    1    3    3    0  502  0.14661361196E+03  0.43103027690E+03 -0.76235715319E+02  0.46162163633E+03  0.50400001928E-02 0.  1.
</event>
<event>
 5   0  0.5625746E-05  0.1200207E+04  0.7818609E-02  0.9112676E-01
       -1   -1    0    0    0  501  0.00000000000E+00  0.00000000000E+00  0.82624141738E+03  0.82624141739E+03  0.50400001928E-02 0.  1.
        1   -1    0    0  501    0  0.00000000000E+00  0.00000000000E+00 -0.43585814864E+03  0.43585814867E+03  0.50400001928E-02 0. -1.
    10030    2    1    2    0    0  0.00000000000E+00  0.00000000000E+00  0.39038326874E+03  0.12620995661E+04  0.12002067397E+04 0.  0.
        5    1    3    3  502    0 -0.33489524804E+03  0.34675736907E+03  0.57098057682E+03  0.74728602909E+03  0.46999998093E+01 0.  1.
       -5    1    3    3    0  502  0.33489524804E+03 -0.34675736907E+03 -0.18059730808E+03  0.51481353697E+03  0.46999998093E+01 0. -1.
</event>
<event>
 5   0  0.5620246E-05  0.1199835E+04  0.7818609E-02  0.9113001E-01
       -1   -1    0    0    0  501  0.00000000000E+00  0.00000000000E+00  0.19706388259E+03  0.19706388265E+03  0.50400001928E-02 0. -1.
        1   -1    0    0  501    0  0.00000000000E+00  0.00000000000E+00 -0.18263151594E+04  0.18263151594E+04  0.50400001928E-02 0.  1.
    10030    2    1    2    0    0  0.00000000000E+00  0.00000000000E+00 -0.16292512768E+04  0.20233790421E+04  0.11998345823E+04 0.  0.
        1    1    3    3  502    0  0.29862722415E+03  0.51678009501E+03 -0.91666037814E+03  0.10938492284E+04  0.50400001928E-02 0. -1.
       -1    1    3    3    0  502 -0.29862722415E+03 -0.51678009501E+03 -0.71259089871E+03  0.92952981370E+03  0.50400001928E-02 0.  1.
</event>
<event>
 5   0  0.5447807E-05  0.1200012E+04  0.7818609E-02  0.9112846E-01
        1   -1    0    0  501    0  0.00000000000E+00  0.00000000000E+00  0.11009390660E+04  0.11009390660E+04  0.50400001928E-02 0.  1.
       -1   -1    0    0    0  501  0.00000000000E+00  0.00000000000E+00 -0.32699987252E+03  0.32699987256E+03  0.50400001928E-02 0. -1.
    10030    2    1    2    0    0  0.00000000000E+00  0.00000000000E+00  0.77393919349E+03  0.14279389386E+04  0.12000115571E+04 0.  0.
        2    1    3    3  502    0  0.45821484492E+03  0.32878022636E+03  0.63068803911E+03  0.84606423162E+03  0.25500000920E-02 0. -1.
       -2    1    3    3    0  502 -0.45821484492E+03 -0.32878022636E+03  0.14325115438E+03  0.58187470695E+03  0.25500000920E-02 0.  1.
</event>
<event>
 5   0  0.5447807E-05  0.1199104E+04  0.7818609E-02  0.9113641E-01
        1   -1    0    0  501    0  0.00000000000E+00  0.00000000000E+00  0.11927768690E+04  0.11927768690E+04  0.50400001928E-02 0.  1.
       -1   -1    0    0    0  501  0.00000000000E+00  0.00000000000E+00 -0.30136627192E+03  0.30136627196E+03  0.50400001928E-02 0. -1.
    10030    2    1    2    0    0  0.00000000000E+00  0.00000000000E+00  0.89141059706E+03  0.14941431409E+04  0.11991041961E+04 0.  0.
        2    1    3    3  502    0 -0.18154077432E+03 -0.44564432810E+03  0.89134317578E+03  0.10129405594E+04  0.25500000920E-02 0.  1.
       -2    1    3    3    0  502  0.18154077432E+03  0.44564432810E+03  0.67421279851E-01  0.48120258152E+03  0.25500000920E-02 0. -1.
</event>
<event>
 5   0  0.5625746E-05  0.1198299E+04  0.7818609E-02  0.9114347E-01
        1   -1    0    0  501    0  0.00000000000E+00  0.00000000000E+00  0.79151686777E+03  0.79151686778E+03  0.50400001928E-02 0. -1.
       -1   -1    0    0    0  501  0.00000000000E+00  0.00000000000E+00 -0.45353435443E+03  0.45353435446E+03  0.50400001928E-02 0.  1.
    10030    2    1    2    0    0  0.00000000000E+00  0.00000000000E+00  0.33798251334E+03  0.12450512222E+04  0.11982989471E+04 0.  0.
        5    1    3    3  502    0 -0.47579768196E+03 -0.93580688661E+02 -0.19661411630E+03  0.52327810978E+03  0.46999998093E+01 0.  1.
       -5    1    3    3    0  502  0.47579768196E+03  0.93580688661E+02  0.53459662963E+03  0.72177311246E+03  0.46999998093E+01 0. -1.
</event>
<event>
 5   0  0.1012657E-04  0.1199908E+04  0.7818609E-02  0.9112937E-01
        2   -1    0    0  501    0  0.00000000000E+00  0.00000000000E+00  0.49336262854E+03  0.49336262855E+03  0.25500000920E-02 0.  1.
       -2   -1    0    0    0  501  0.00000000000E+00  0.00000000000E+00 -0.72957463313E+03  0.72957463313E+03  0.25500000920E-02 0. -1.
    10030    2    1    2    0    0  0.00000000000E+00  0.00000000000E+00 -0.23621200459E+03  0.12229372617E+04  0.11999080944E+04 0.  0.
        1    1    3    3  502    0  0.94183814338E+02  0.26376723870E+03  0.42264365364E+03  0.50702209526E+03  0.50400001928E-02 0.  1.
       -1    1    3    3    0  502 -0.94183814338E+02 -0.26376723870E+03 -0.65885565823E+03  0.71591516642E+03  0.50400001928E-02 0. -1.
</event>
<event>
 5   0  0.5447807E-05  0.1201908E+04  0.7818609E-02  0.9111188E-01
       -1   -1    0    0    0  501  0.00000000000E+00  0.00000000000E+00  0.25613912411E+03  0.25613912416E+03  0.50400001928E-02 0.  1.
        1   -1    0    0  501    0  0.00000000000E+00  0.00000000000E+00 -0.14099587811E+04  0.14099587812E+04  0.50400001928E-02 0. -1.
    10030    2    1    2    0    0  0.00000000000E+00  0.00000000000E+00 -0.11538196570E+04  0.16660979053E+04  0.12019078289E+04 0.  0.
        2    1    3    3  502    0 -0.73079382171E+02  0.57875297185E+02 -0.13998750388E+04  0.14029755060E+04  0.25500000920E-02 0. -1.
       -2    1    3    3    0  502  0.73079382171E+02 -0.57875297185E+02  0.24605538177E+03  0.26312239932E+03  0.25500000920E-02 0.  1.
</event>
<event>
 5   0  0.1023063E-04  0.1201148E+04  0.7818609E-02  0.9111853E-01
       -2   -1    0    0    0  501  0.00000000000E+00  0.00000000000E+00  0.79984988792E+03  0.79984988792E+03  0.25500000920E-02 0.  1.
        2   -1    0    0  501    0  0.00000000000E+00  0.00000000000E+00 -0.45094578493E+03  0.45094578494E+03  0.25500000920E-02 0. -1.
    10030    2    1    2    0    0  0.00000000000E+00  0.00000000000E+00  0.34890410298E+03  0.12507956729E+04  0.12011476771E+04 0.  0.
        3    1    3    3  502    0  0.52002373813E+03  0.29989308569E+03  0.19332216577E+03  0.63066157410E+03  0.10100000352E+00 0. -1.
       -3    1    3    3    0  502 -0.52002373813E+03 -0.29989308569E+03  0.15558193721E+03  0.62013409877E+03  0.10100000352E+00 0.  1.
</event>
<event>
 5   0  0.5732931E-05  0.1200285E+04  0.7818609E-02  0.9112607E-01
       -1   -1    0    0    0  501  0.00000000000E+00  0.00000000000E+00  0.54782182151E+03  0.54782182153E+03  0.50400001928E-02 0. -1.
        1   -1    0    0  501    0  0.00000000000E+00  0.00000000000E+00 -0.65745998598E+03  0.65745998600E+03  0.50400001928E-02 0.  1.
    10030    2    1    2    0    0  0.00000000000E+00  0.00000000000E+00 -0.10963816447E+03  0.12052818075E+04  0.12002848447E+04 0.  0.
        4    1    3    3  502    0 -0.42279655448E+03 -0.42385658168E+03 -0.12716185891E+02  0.59881102411E+03  0.12699999809E+01 0.  1.
       -4    1    3    3    0  502  0.42279655448E+03  0.42385658168E+03 -0.96921978582E+02  0.60647078342E+03  0.12699999809E+01 0. -1.
</event>
<event>
 5   0  0.1012657E-04  0.1199914E+04  0.7818609E-02  0.9112932E-01
        2   -1    0    0  501    0  0.00000000000E+00  0.00000000000E+00  0.49042561271E+03  0.49042561272E+03  0.25500000920E-02 0.  1.
       -2   -1    0    0    0  501  0.00000000000E+00  0.00000000000E+00 -0.73395085461E+03  0.73395085461E+03  0.25500000920E-02 0. -1.
    10030    2    1    2    0    0  0.00000000000E+00  0.00000000000E+00 -0.24352524189E+03  0.12243764673E+04  0.11999138262E+04 0.  0.
        1    1    3    3  502    0 -0.29362432008E+03  0.49844622967E+03  0.40489860791E+02  0.57991664407E+03  0.50400001928E-02 0. -1.
       -1    1    3    3    0  502  0.29362432008E+03 -0.49844622967E+03 -0.28401510269E+03  0.64445982326E+03  0.50400001928E-02 0.  1.
</event>
<event>
 5   0  0.5745487E-05  0.1200008E+04  0.7818609E-02  0.9112850E-01
        1   -1    0    0  501    0  0.00000000000E+00  0.00000000000E+00  0.97708247343E+03  0.97708247344E+03  0.50400001928E-02 0.  1.
       -1   -1    0    0    0  501  0.00000000000E+00  0.00000000000E+00 -0.36844862538E+03  0.36844862542E+03  0.50400001928E-02 0. -1.
    10030    2    1    2    0    0  0.00000000000E+00  0.00000000000E+00  0.60863384805E+03  0.13455310989E+04  0.12000078237E+04 0.  0.
        3    1    3    3  502    0 -0.19646956903E+03  0.55150422141E+03  0.45157277720E+03  0.73937485830E+03  0.10100000352E+00 0.  1.
       -3    1    3    3    0  502  0.19646956903E+03 -0.55150422141E+03  0.15706107085E+03  0.60615624056E+03  0.10100000352E+00 0. -1.
</event>
<event>
 5   0  0.9838215E-05  0.1199980E+04  0.7818609E-02  0.9112874E-01
       -2   -1    0    0    0  501  0.00000000000E+00  0.00000000000E+00  0.90577133467E+03  0.90577133467E+03  0.25500000920E-02 0. -1.
        2   -1    0    0  501    0  0.00000000000E+00  0.00000000000E+00 -0.39743831725E+03  0.39743831725E+03  0.25500000920E-02 0.  1.
    10030    2    1    2    0    0  0.00000000000E+00  0.00000000000E+00  0.50833301742E+03  0.13032096519E+04  0.11999803916E+04 0.  0.
        4    1    3    3  502    0 -0.58658684256E+03  0.25536994357E+02  0.38828238432E+03  0.70391837937E+03  0.12699999809E+01 0. -1.
       -4    1    3    3    0  502  0.58658684256E+03 -0.25536994357E+02  0.12005063311E+03  0.59929127255E+03  0.12699999809E+01 0.  1.
</event>
<event>
 5   0  0.3839750E-05  0.1202727E+04  0.7818609E-02  0.9110473E-01
       -3   -1    0    0    0  501  0.00000000000E+00  0.00000000000E+00  0.97330333200E+03  0.97330333724E+03  0.10100000352E+00 0. -1.
        3   -1    0    0  501    0  0.00000000000E+00  0.00000000000E+00 -0.37155719033E+03  0.37155720406E+03  0.10100000352E+00 0.  1.
    10030    2    1    2    0    0  0.00000000000E+00  0.00000000000E+00  0.60174614167E+03  0.13448605413E+04  0.12027266757E+04 0.  0.
        1    1    3    3  502    0  0.56078273681E+03 -0.14558202980E+03  0.48105725641E+03  0.75305211591E+03  0.50400001928E-02 0. -1.
       -1    1    3    3    0  502 -0.56078273681E+03  0.14558202980E+03  0.12068888526E+03  0.59180842539E+03  0.50400001928E-02 0.  1.
</event>
<event>
 5   0  0.9838215E-05  0.1199614E+04  0.7818609E-02  0.9113195E-01
       -2   -1    0    0    0  501  0.00000000000E+00  0.00000000000E+00  0.25273870862E+03  0.25273870864E+03  0.25500000920E-02 0. -1.
        2   -1    0    0  501    0  0.00000000000E+00  0.00000000000E+00 -0.14234786891E+04  0.14234786891E+04  0.25500000920E-02 0.  1.
    10030    2    1    2    0    0  0.00000000000E+00  0.00000000000E+00 -0.11707399804E+04  0.16762173977E+04  0.11996135472E+04 0.  0.
        4    1    3    3  502    0 -0.48459882988E+03 -0.25285065525E+03 -0.93046881472E+03  0.10791400780E+04  0.12699999809E+01 0.  1.
       -4    1    3    3    0  502  0.48459882988E+03  0.25285065525E+03 -0.24027116573E+03  0.59707731975E+03  0.12699999809E+01 0. -1.
</event>
<event>
 5   0  0.1004006E-04  0.1199357E+04  0.7818609E-02  0.9113419E-01
       -2   -1    0    0    0  501  0.00000000000E+00  0.00000000000E+00  0.30167043577E+03  0.30167043578E+03  0.25500000920E-02 0.  1.
        2   -1    0    0  501    0  0.00000000000E+00  0.00000000000E+00 -0.11920774585E+04  0.11920774585E+04  0.25500000920E-02 0. -1.
    10030    2    1    2    0    0  0.00000000000E+00  0.00000000000E+00 -0.89040702276E+03  0.14937478943E+04  0.11993573719E+04 0.  0.
        5    1    3    3  502    0 -0.23233679962E+03  0.33491240877E+03 -0.99298615430E+03  0.10734012775E+04  0.46999998093E+01 0. -1.
       -5    1    3    3    0  502  0.23233679962E+03 -0.33491240877E+03  0.10257913154E+03  0.42034661677E+03  0.46999998093E+01 0.  1.
</event>
<event>
 5   0  0.9941209E-05  0.1199656E+04  0.7818609E-02  0.9113158E-01
        2   -1    0    0  501    0  0.00000000000E+00  0.00000000000E+00  0.22860067221E+04  0.22860067221E+04  0.25500000920E-02 0.  1.
       -2   -1    0    0    0  501  0.00000000000E+00  0.00000000000E+00 -0.15738956085E+03  0.15738956087E+03  0.25500000920E-02 0. -1.
    10030    2    1    2    0    0  0.00000000000E+00  0.00000000000E+00  0.21286171613E+04  0.24433962830E+04  0.11996559409E+04 0.  0.
        2    1    3    3  502    0  0.10333415792E+03 -0.24726754898E+02 -0.13806999401E+03  0.17422021655E+03  0.25500000920E-02 0. -1.
       -2    1    3    3    0  502 -0.10333415792E+03  0.24726754898E+02  0.22666871553E+04  0.22691760664E+04  0.25500000920E-02 0.  1.
</event>
<event>
 5   0  0.1023063E-04  0.1199644E+04  0.7818609E-02  0.9113168E-01
        2   -1    0    0  501    0  0.00000000000E+00  0.00000000000E+00  0.98185784686E+03  0.98185784686E+03  0.25500000920E-02 0.  1.
       -2   -1    0    0    0  501  0.00000000000E+00  0.00000000000E+00 -0.36643435408E+03  0.36643435409E+03  0.25500000920E-02 0. -1.
    10030    2    1    2    0    0  0.00000000000E+00  0.00000000000E+00  0.61542349278E+03  0.13482922009E+04  0.11996440237E+04 0.  0.
        3    1    3    3  502    0 -0.40285279503E+03 -0.38887060464E+02 -0.18984403697E+03  0.44703841726E+03  0.10100000352E+00 0. -1.
       -3    1    3    3    0  502  0.40285279503E+03  0.38887060464E+02  0.80526752975E+03  0.90125378369E+03  0.10100000352E+00 0.  1.
</event>
<event>
 5   0  0.1023063E-04  0.1199423E+04  0.7818609E-02  0.9113362E-01
       -2   -1    0    0    0  501  0.00000000000E+00  0.00000000000E+00  0.54036372473E+03  0.54036372473E+03  0.25500000920E-02 0.  1.
        2   -1    0    0  501    0  0.00000000000E+00  0.00000000000E+00 -0.66557703329E+03  0.66557703329E+03  0.25500000920E-02 0. -1.
    10030    2    1    2    0    0  0.00000000000E+00  0.00000000000E+00 -0.12521330856E+03  0.12059407580E+04  0.11994226691E+04 0.  0.
        3    1    3    3  502    0 -0.41072788638E+00  0.57682697602E+03  0.10237083364E+03  0.58584070082E+03  0.10100000352E+00 0.  1.
       -3    1    3    3    0  502  0.41072788638E+00 -0.57682697602E+03 -0.22758414220E+03  0.62010005720E+03  0.10100000352E+00 0. -1.
</event>
<event>
 5   0  0.9941209E-05  0.1200308E+04  0.7818609E-02  0.9112587E-01
        2   -1    0    0  501    0  0.00000000000E+00  0.00000000000E+00  0.36864861849E+03  0.36864861850E+03  0.25500000920E-02 0. -1.
       -2   -1    0    0    0  501  0.00000000000E+00  0.00000000000E+00 -0.97704022256E+03  0.97704022257E+03  0.25500000920E-02 0.  1.
    10030    2    1    2    0    0  0.00000000000E+00  0.00000000000E+00 -0.60839160407E+03  0.13456888411E+04  0.12003075077E+04 0.  0.
        2    1    3    3  502    0 -0.22763991342E+03  0.43268117129E+03 -0.69442225769E+03  0.84926744795E+03  0.25500000920E-02 0.  1.
       -2    1    3    3    0  502  0.22763991342E+03 -0.43268117129E+03  0.86030653623E+02  0.49642139311E+03  0.25500000920E-02 0. -1.
</event>
<event>
 5   0  0.3839750E-05  0.1199264E+04  0.7818609E-02  0.9113501E-01
       -3   -1    0    0    0  501  0.00000000000E+00  0.00000000000E+00  0.11806388564E+04  0.11806388607E+04  0.10100000352E+00 0. -1.
        3   -1    0    0  501    0  0.00000000000E+00  0.00000000000E+00 -0.30454561327E+03  0.30454563002E+03  0.10100000352E+00 0.  1.
    10030    2    1    2    0    0  0.00000000000E+00  0.00000000000E+00  0.87609324309E+03  0.14851844907E+04  0.11992637745E+04 0.  0.
        4    1    3    3  502    0 -0.40829133814E+03 -0.39626232612E+03  0.67246734359E+03  0.88087433213E+03  0.12699999809E+01 0. -1.
       -4    1    3    3    0  502  0.40829133814E+03  0.39626232612E+03  0.20362589950E+03  0.60431015857E+03  0.12699999809E+01 0.  1.
</event>
<event>
 5   0  0.3839750E-05  0.1199628E+04  0.7818609E-02  0.9113183E-01
        4   -1    0    0  501    0  0.00000000000E+00  0.00000000000E+00  0.11322267517E+04  0.11322274640E+04  0.12699999809E+01 0.  1.
       -4   -1    0    0    0  501  0.00000000000E+00  0.00000000000E+00 -0.31775813929E+03  0.31776067721E+03  0.12699999809E+01 0. -1.
    10030    2    1    2    0    0  0.00000000000E+00  0.00000000000E+00  0.81446861244E+03  0.14499881412E+04  0.11996276460E+04 0.  0.
        2    1    3    3  502    0  0.18616238516E+03 -0.53172661038E+03  0.15838620767E+03  0.58521433050E+03  0.25500000920E-02 0. -1.
       -2    1    3    3    0  502 -0.18616238516E+03  0.53172661038E+03  0.65608240477E+03  0.86477381071E+03  0.25500000920E-02 0.  1.
</event>
<event>
 5   0  0.1023063E-04  0.1199050E+04  0.7818609E-02  0.9113688E-01
       -2   -1    0    0    0  501  0.00000000000E+00  0.00000000000E+00  0.19384966433E+03  0.19384966435E+03  0.25500000920E-02 0.  1.
        2   -1    0    0  501    0  0.00000000000E+00  0.00000000000E+00 -0.18541714087E+04  0.18541714087E+04  0.25500000920E-02 0. -1.
    10030    2    1    2    0    0  0.00000000000E+00  0.00000000000E+00 -0.16603217443E+04  0.20480210730E+04  0.11990504663E+04 0.  0.
        3    1    3    3  502    0 -0.23214859666E+03 -0.86815051198E+02  0.10224624442E+03  0.26811215702E+03  0.10100000352E+00 0.  1.
       -3    1    3    3    0  502  0.23214859666E+03  0.86815051198E+02 -0.17625679887E+04  0.17799089160E+04  0.10100000352E+00 0. -1.
</event>
<event>
 5   0  0.5732931E-05  0.1200449E+04  0.7818609E-02  0.9112464E-01
       -1   -1    0    0    0  501  0.00000000000E+00  0.00000000000E+00  0.36664199401E+03  0.36664199404E+03  0.50400001928E-02 0. -1.
        1   -1    0    0  501    0  0.00000000000E+00  0.00000000000E+00 -0.98261885045E+03  0.98261885046E+03  0.50400001928E-02 0.  1.
    10030    2    1    2    0    0  0.00000000000E+00  0.00000000000E+00 -0.61597685644E+03  0.13492608445E+04  0.12004488073E+04 0.  0.
        4    1    3    3  502    0  0.16995580578E+03 -0.52411660368E+03 -0.40389386322E+02  0.55246366903E+03  0.12699999809E+01 0. -1.
       -4    1    3    3    0  502 -0.16995580578E+03  0.52411660368E+03 -0.57558747012E+03  0.79679717547E+03  0.12699999809E+01 0.  1.
</event>
<event>
 5   0  0.1012657E-04  0.1200503E+04  0.7818609E-02  0.9112417E-01
        2   -1    0    0  501    0  0.00000000000E+00  0.00000000000E+00  0.19089413325E+04  0.19089413325E+04  0.25500000920E-02 0. -1.
       -2   -1    0    0    0  501  0.00000000000E+00  0.00000000000E+00 -0.18874426954E+03  0.18874426956E+03  0.25500000920E-02 0.  1.
    10030    2    1    2    0    0  0.00000000000E+00  0.00000000000E+00  0.17201970629E+04  0.20976856021E+04  0.12005027904E+04 0.  0.
        1    1    3    3  502    0 -0.38366584630E+03  0.21216427915E+03  0.14371380093E+03  0.46137492299E+03  0.50400001928E-02 0.  1.
       -1    1    3    3    0  502  0.38366584630E+03 -0.21216427915E+03  0.15764832620E+04  0.16363106791E+04  0.50400001928E-02 0. -1.
</event>
<event>
 5   0  0.9941209E-05  0.1200038E+04  0.7818609E-02  0.9112823E-01
       -2   -1    0    0    0  501  0.00000000000E+00  0.00000000000E+00  0.59999851813E+03  0.59999851814E+03  0.25500000920E-02 0. -1.
        2   -1    0    0  501    0  0.00000000000E+00  0.00000000000E+00 -0.60003930724E+03  0.60003930724E+03  0.25500000920E-02 0.  1.
    10030    2    1    2    0    0  0.00000000000E+00  0.00000000000E+00 -0.40789107001E-01  0.12000378254E+04  0.12000378247E+04 0.  0.
        2    1    3    3  502    0  0.35701179438E+03  0.18079757347E+03 -0.44709702276E+03  0.60003410876E+03  0.25500000920E-02 0.  1.
       -2    1    3    3    0  502 -0.35701179438E+03 -0.18079757347E+03  0.44705623366E+03  0.60000371662E+03  0.25500000920E-02 0. -1.
</event>
<event>
 5   0  0.5447807E-05  0.1200069E+04  0.7818609E-02  0.9112796E-01
       -1   -1    0    0    0  501  0.00000000000E+00  0.00000000000E+00  0.72173953201E+03  0.72173953203E+03  0.50400001928E-02 0.  1.
        1   -1    0    0  501    0  0.00000000000E+00  0.00000000000E+00 -0.49885246728E+03  0.49885246731E+03  0.50400001928E-02 0. -1.
    10030    2    1    2    0    0  0.00000000000E+00  0.00000000000E+00  0.22288706473E+03  0.12205919993E+04  0.12000692418E+04 0.  0.
        2    1    3    3  502    0  0.11967352291E+03 -0.19602543092E+03 -0.45237731580E+03  0.50733909519E+03  0.25500000920E-02 0. -1.
       -2    1    3    3    0  502 -0.11967352291E+03  0.19602543092E+03  0.67526438053E+03  0.71325290414E+03  0.25500000920E-02 0.  1.
</event>
<event>
 5   0  0.1004006E-04  0.1200174E+04  0.7818609E-02  0.9112704E-01
        2   -1    0    0  501    0  0.00000000000E+00  0.00000000000E+00  0.76917221685E+03  0.76917221686E+03  0.25500000920E-02 0. -1.
       -2   -1    0    0    0  501  0.00000000000E+00  0.00000000000E+00 -0.46817163690E+03  0.46817163691E+03  0.25500000920E-02 0.  1.
    10030    2    1    2    0    0  0.00000000000E+00  0.00000000000E+00  0.30100057995E+03  0.12373438538E+04  0.12001743471E+04 0.  0.
        5    1    3    3  502    0  0.47505813236E+03  0.67843875959E+02  0.52193508435E+03  0.70902844999E+03  0.46999998093E+01 0. -1.
       -5    1    3    3    0  502 -0.47505813236E+03 -0.67843875959E+02 -0.22093450440E+03  0.52831540377E+03  0.46999998093E+01 0.  1.
</event>
<event>
 5   0  0.5745487E-05  0.1197912E+04  0.7818609E-02  0.9114686E-01
        1   -1    0    0  501    0  0.00000000000E+00  0.00000000000E+00  0.15221831534E+04  0.15221831534E+04  0.50400001928E-02 0.  1.
       -1   -1    0    0    0  501  0.00000000000E+00  0.00000000000E+00 -0.23568029127E+03  0.23568029132E+03  0.50400001928E-02 0. -1.
    10030    2    1    2    0    0  0.00000000000E+00  0.00000000000E+00  0.12865028621E+04  0.17578634447E+04  0.11979124659E+04 0.  0.
        3    1    3    3  502    0  0.21989303288E+03  0.27559811377E+03  0.13537727351E+04  0.13989309828E+04  0.10100000352E+00 0.  1.
       -3    1    3    3    0  502 -0.21989303288E+03 -0.27559811377E+03 -0.67269872937E+02  0.35893246193E+03  0.10100000352E+00 0. -1.
</event>
<event>
 5   0  0.5745487E-05  0.1200036E+04  0.7818609E-02  0.9112825E-01
       -1   -1    0    0    0  501  0.00000000000E+00  0.00000000000E+00  0.20617885302E+03  0.20617885308E+03  0.50400001928E-02 0. -1.
        1   -1    0    0  501    0  0.00000000000E+00  0.00000000000E+00 -0.17461630696E+04  0.17461630696E+04  0.50400001928E-02 0.  1.
    10030    2    1    2    0    0  0.00000000000E+00  0.00000000000E+00 -0.15399842165E+04  0.19523419226E+04  0.12000364977E+04 0.  0.
        3    1    3    3  502    0 -0.12619607079E+03  0.47514163575E+03 -0.21033573002E+03  0.53472062971E+03  0.10100000352E+00 0. -1.
       -3    1    3    3    0  502  0.12619607079E+03 -0.47514163575E+03 -0.13296484865E+04  0.14176212929E+04  0.10100000352E+00 0.  1.
</event>
<event>
 5   0  0.5732931E-05  0.1199147E+04  0.7818609E-02  0.9113604E-01
       -1   -1    0    0    0  501  0.00000000000E+00  0.00000000000E+00  0.36808179308E+03  0.36808179312E+03  0.50400001928E-02 0.  1.
        1   -1    0    0  501    0  0.00000000000E+00  0.00000000000E+00 -0.97665326330E+03  0.97665326331E+03  0.50400001928E-02 0. -1.
    10030    2    1    2    0    0  0.00000000000E+00  0.00000000000E+00 -0.60857147021E+03  0.13447350564E+04  0.11991468374E+04 0.  0.
        4    1    3    3  502    0  0.27147023628E+03 -0.30774041826E+03 -0.79449246512E+03  0.89421481997E+03  0.12699999809E+01 0. -1.
       -4    1    3    3    0  502 -0.27147023628E+03  0.30774041826E+03  0.18592099490E+03  0.45052023646E+03  0.12699999809E+01 0.  1.
</event>
<event>
 5   0  0.9838215E-05  0.1196807E+04  0.7818609E-02  0.9115656E-01
       -2   -1    0    0    0  501  0.00000000000E+00  0.00000000000E+00  0.69598854269E+03  0.69598854270E+03  0.25500000920E-02 0. -1.
        2   -1    0    0  501    0  0.00000000000E+00  0.00000000000E+00 -0.51450103009E+03  0.51450103009E+03  0.25500000920E-02 0.  1.
    10030    2    1    2    0    0  0.00000000000E+00  0.00000000000E+00  0.18148751260E+03  0.12104895728E+04  0.11968071226E+04 0.  0.
        4    1    3    3  502    0  0.44237389261E+03 -0.37863008858E+03  0.23026940483E+03  0.62616372982E+03  0.12699999809E+01 0. -1.
       -4    1    3    3    0  502 -0.44237389261E+03  0.37863008858E+03 -0.48781892227E+02  0.58432584296E+03  0.12699999809E+01 0.  1.
</event>
<event>
 5   0  0.9941209E-05  0.1200278E+04  0.7818609E-02  0.9112613E-01
        2   -1    0    0  501    0  0.00000000000E+00  0.00000000000E+00  0.28296800472E+03  0.28296800473E+03  0.25500000920E-02 0.  1.
       -2   -1    0    0    0  501  0.00000000000E+00  0.00000000000E+00 -0.12728176502E+04  0.12728176502E+04  0.25500000920E-02 0. -1.
    10030    2    1    2    0    0  0.00000000000E+00  0.00000000000E+00 -0.98984964549E+03  0.15557856549E+04  0.12002777526E+04 0.  0.
        2    1    3    3  502    0 -0.48903118875E+03  0.13413516647E+02 -0.44352179717E+02  0.49122147943E+03  0.25500000920E-02 0.  1.
       -2    1    3    3    0  502  0.48903118875E+03 -0.13413516647E+02 -0.94549746577E+03  0.10645641755E+04  0.25500000920E-02 0. -1.
</event>
<event>
 5   0  0.9838215E-05  0.1200241E+04  0.7818609E-02  0.9112646E-01
        2   -1    0    0  501    0  0.00000000000E+00  0.00000000000E+00  0.53216659540E+03  0.53216659541E+03  0.25500000920E-02 0.  1.
       -2   -1    0    0    0  501  0.00000000000E+00  0.00000000000E+00 -0.67675177069E+03  0.67675177069E+03  0.25500000920E-02 0. -1.
    10030    2    1    2    0    0  0.00000000000E+00  0.00000000000E+00 -0.14458517529E+03  0.12089183661E+04  0.12002411187E+04 0.  0.
        4    1    3    3  502    0  0.88168331534E+02 -0.52746168716E+01  0.52558246681E+03  0.53295404923E+03  0.12699999809E+01 0.  1.
       -4    1    3    3    0  502 -0.88168331534E+02  0.52746168716E+01 -0.67016764210E+03  0.67596431687E+03  0.12699999809E+01 0. -1.
</event>
<event>
 5   0  0.1012657E-04  0.1199585E+04  0.7818609E-02  0.9113220E-01
       -2   -1    0    0    0  501  0.00000000000E+00  0.00000000000E+00  0.40510405740E+03  0.40510405741E+03  0.25500000920E-02 0. -1.
        2   -1    0    0  501    0  0.00000000000E+00  0.00000000000E+00 -0.88804560822E+03  0.88804560822E+03  0.25500000920E-02 0.  1.
    10030    2    1    2    0    0  0.00000000000E+00  0.00000000000E+00 -0.48294155082E+03  0.12931496656E+04  0.11995847266E+04 0.  0.
        1    1    3    3  502    0  0.34026918329E+03 -0.32829423447E+02 -0.77274980452E+03  0.84498707005E+03  0.50400001928E-02 0.  1.
       -1    1    3    3    0  502 -0.34026918329E+03  0.32829423447E+02  0.28980825370E+03  0.44816259558E+03  0.50400001928E-02 0. -1.
</event>
<event>
 5   0  0.1023063E-04  0.1200068E+04  0.7818609E-02  0.9112797E-01
        2   -1    0    0  501    0  0.00000000000E+00  0.00000000000E+00  0.12884905804E+04  0.12884905804E+04  0.25500000920E-02 0. -1.
       -2   -1    0    0    0  501  0.00000000000E+00  0.00000000000E+00 -0.27942829929E+03  0.27942829930E+03  0.25500000920E-02 0.  1.
    10030    2    1    2    0    0  0.00000000000E+00  0.00000000000E+00  0.10090622811E+04  0.15679188797E+04  0.12000678840E+04 0.  0.
        3    1    3    3  502    0  0.59955421475E+03 -0.22483742990E+02  0.49360416752E+03  0.77692719062E+03  0.10100000352E+00 0.  1.
       -3    1    3    3    0  502 -0.59955421475E+03  0.22483742990E+02  0.51545811360E+03  0.79099168909E+03  0.10100000352E+00 0. -1.
</event>
<event>
 5   0  0.5620246E-05  0.1199846E+04  0.7818609E-02  0.9112991E-01
       -1   -1    0    0    0  501  0.00000000000E+00  0.00000000000E+00  0.19099384788E+03  0.19099384795E+03  0.50400001928E-02 0.  1.
        1   -1    0    0  501    0  0.00000000000E+00  0.00000000000E+00 -0.18843933324E+04  0.18843933324E+04  0.50400001928E-02 0. -1.
    10030    2    1    2    0    0  0.00000000000E+00  0.00000000000E+00 -0.16933994845E+04  0.20753871804E+04  0.11998458794E+04 0.  0.
        1    1    3    3  502    0  0.16969495382E+03  0.87383602878E+01  0.14850053717E+03  0.22566600510E+03  0.50400001928E-02 0.  1.
       -1    1    3    3    0  502 -0.16969495382E+03 -0.87383602878E+01 -0.18419000217E+04  0.18497211753E+04  0.50400001928E-02 0. -1.
</event>
<event>
 5   0  0.9941209E-05  0.1200839E+04  0.7818609E-02  0.9112122E-01
       -2   -1    0    0    0  501  0.00000000000E+00  0.00000000000E+00  0.40126645990E+03  0.40126645991E+03  0.25500000920E-02 0. -1.
        2   -1    0    0  501    0  0.00000000000E+00  0.00000000000E+00 -0.89841513953E+03  0.89841513953E+03  0.25500000920E-02 0.  1.
    10030    2    1    2    0    0  0.00000000000E+00  0.00000000000E+00 -0.49714867962E+03  0.12996815994E+04  0.12008394773E+04 0.  0.
        2    1    3    3  502    0  0.43349152883E+03  0.23294365053E+02 -0.69750029920E+03  0.82156204903E+03  0.25500000920E-02 0.  1.
       -2    1    3    3    0  502 -0.43349152883E+03 -0.23294365053E+02  0.20035161958E+03  0.47811955041E+03  0.25500000920E-02 0. -1.
</event>
<event>
 5   0  0.5447807E-05  0.1200133E+04  0.7818609E-02  0.9112740E-01
        1   -1    0    0  501    0  0.00000000000E+00  0.00000000000E+00  0.20584351791E+04  0.20584351791E+04  0.50400001928E-02 0. -1.
       -1   -1    0    0    0  501  0.00000000000E+00  0.00000000000E+00 -0.17492895236E+03  0.17492895243E+03  0.50400001928E-02 0.  1.
    10030    2    1    2    0    0  0.00000000000E+00  0.00000000000E+00  0.18835062267E+04  0.22333641315E+04  0.12001331750E+04 0.  0.
        2    1    3    3  502    0 -0.12761626998E+01  0.18812671385E+03 -0.11862875312E+03  0.22240968982E+03  0.25500000920E-02 0.  1.
       -2    1    3    3    0  502  0.12761626998E+01 -0.18812671385E+03  0.20021349799E+04  0.20109544417E+04  0.25500000920E-02 0. -1.
</event>
<event>
 5   0  0.9941209E-05  0.1205280E+04  0.7818609E-02  0.9108248E-01
        2   -1    0    0  501    0  0.00000000000E+00  0.00000000000E+00  0.23218310842E+04  0.23218310842E+04  0.25500000920E-02 0. -1.
       -2   -1    0    0    0  501  0.00000000000E+00  0.00000000000E+00 -0.15641738252E+03  0.15641738254E+03  0.25500000920E-02 0.  1.
    10030    2    1    2    0    0  0.00000000000E+00  0.00000000000E+00  0.21654137017E+04  0.24782484668E+04  0.12052796205E+04 0.  0.
        2    1    3    3  502    0  0.24201345605E+03  0.29888819248E+03  0.12870577325E+03  0.40554881407E+03  0.25500000920E-02 0.  1.
       -2    1    3    3    0  502 -0.24201345605E+03 -0.29888819248E+03  0.20367079284E+04  0.20726996527E+04  0.25500000920E-02 0. -1.
</event>
<event>
 5   0  0.9838215E-05  0.1200628E+04  0.7818609E-02  0.9112307E-01
       -2   -1    0    0    0  501  0.00000000000E+00  0.00000000000E+00  0.20797577279E+03  0.20797577280E+03  0.25500000920E-02 0.  1.
        2   -1    0    0  501    0  0.00000000000E+00  0.00000000000E+00 -0.17327835651E+04  0.17327835651E+04  0.25500000920E-02 0. -1.
    10030    2    1    2    0    0  0.00000000000E+00  0.00000000000E+00 -0.15248077923E+04  0.19407593379E+04  0.12006281706E+04 0.  0.
        4    1    3    3  502    0  0.20140526798E+03 -0.53379526553E+03 -0.10642694395E+04  0.12075481440E+04  0.12699999809E+01 0. -1.
       -4    1    3    3    0  502 -0.20140526798E+03  0.53379526553E+03 -0.46053835286E+03  0.73321119388E+03  0.12699999809E+01 0.  1.
</event>
<event>
 5   0  0.5620246E-05  0.1199993E+04  0.7818609E-02  0.9112862E-01
       -1   -1    0    0    0  501  0.00000000000E+00  0.00000000000E+00  0.51398279610E+03  0.51398279613E+03  0.50400001928E-02 0.  1.
        1   -1    0    0  501    0  0.00000000000E+00  0.00000000000E+00 -0.70040459852E+03  0.70040459854E+03  0.50400001928E-02 0. -1.
    10030    2    1    2    0    0  0.00000000000E+00  0.00000000000E+00 -0.18642180242E+03  0.12143873947E+04  0.11999931899E+04 0.  0.
        1    1    3    3  502    0 -0.43818456858E+03  0.77521800313E+02 -0.50050669806E+03  0.66971807539E+03  0.50400001928E-02 0. -1.
       -1    1    3    3    0  502  0.43818456858E+03 -0.77521800313E+02  0.31408489565E+03  0.54466931928E+03  0.50400001928E-02 0.  1.
</event>
<event>
 5   0  0.5745487E-05  0.1199413E+04  0.7818609E-02  0.9113370E-01
       -1   -1    0    0    0  501  0.00000000000E+00  0.00000000000E+00  0.60822636598E+03  0.60822636600E+03  0.50400001928E-02 0. -1.
        1   -1    0    0  501    0  0.00000000000E+00  0.00000000000E+00 -0.59130629674E+03  0.59130629676E+03  0.50400001928E-02 0.  1.
    10030    2    1    2    0    0  0.00000000000E+00  0.00000000000E+00  0.16920069241E+02  0.11995326628E+04  0.11994133234E+04 0.  0.
        3    1    3    3  502    0 -0.38238348602E+03 -0.46037931785E+03 -0.30038252095E+02  0.59922329183E+03  0.10100000352E+00 0.  1.
       -3    1    3    3    0  502  0.38238348602E+03  0.46037931785E+03  0.46958321337E+02  0.60030937093E+03  0.10100000352E+00 0. -1.
</event>
<event>
 5   0  0.1023063E-04  0.1198534E+04  0.7818609E-02  0.9114140E-01
       -2   -1    0    0    0  501  0.00000000000E+00  0.00000000000E+00  0.11415900467E+04  0.11415900467E+04  0.25500000920E-02 0.  1.
        2   -1    0    0  501    0  0.00000000000E+00  0.00000000000E+00 -0.31457984099E+03  0.31457984100E+03  0.25500000920E-02 0. -1.
    10030    2    1    2    0    0  0.00000000000E+00  0.00000000000E+00  0.82701020571E+03  0.14561698877E+04  0.11985344640E+04 0.  0.
        3    1    3    3  502    0  0.13213202373E+03 -0.58432834417E+03  0.39537330726E+03  0.71778725803E+03  0.10100000352E+00 0. -1.
       -3    1    3    3    0  502 -0.13213202373E+03  0.58432834417E+03  0.43163689845E+03  0.73838262967E+03  0.10100000352E+00 0.  1.
</event>
<event>
 5   0  0.5625746E-05  0.1193810E+04  0.7818609E-02  0.9118292E-01
        1   -1    0    0  501    0  0.00000000000E+00  0.00000000000E+00  0.10398163127E+04  0.10398163127E+04  0.50400001928E-02 0.  1.
       -1   -1    0    0    0  501  0.00000000000E+00  0.00000000000E+00 -0.34265241512E+03  0.34265241516E+03  0.50400001928E-02 0. -1.
    10030    2    1    2    0    0  0.00000000000E+00  0.00000000000E+00  0.69716389754E+03  0.13824687278E+04  0.11938099863E+04 0.  0.
        5    1    3    3  502    0  0.16590588268E+03  0.50353066060E+02 -0.31282831842E+03  0.35769238176E+03  0.46999998093E+01 0. -1.
       -5    1    3    3    0  502 -0.16590588268E+03 -0.50353066060E+02  0.10099922160E+04  0.10247763461E+04  0.46999998093E+01 0.  1.
</event>
<event>
 5   0  0.5732931E-05  0.1201813E+04  0.7818609E-02  0.9111271E-01
        1   -1    0    0  501    0  0.00000000000E+00  0.00000000000E+00  0.10209151934E+04  0.10209151935E+04  0.50400001928E-02 0.  1.
       -1   -1    0    0    0  501  0.00000000000E+00  0.00000000000E+00 -0.35369114302E+03  0.35369114306E+03  0.50400001928E-02 0. -1.
    10030    2    1    2    0    0  0.00000000000E+00  0.00000000000E+00  0.66722405042E+03  0.13746063365E+04  0.12018130665E+04 0.  0.
        4    1    3    3  502    0 -0.51322992311E+03 -0.22747603957E+03  0.88467874409E+02  0.56831195682E+03  0.12699999809E+01 0. -1.
       -4    1    3    3    0  502  0.51322992311E+03  0.22747603957E+03  0.57875617601E+03  0.80629437969E+03  0.12699999809E+01 0.  1.
</event>
<event>
 5   0  0.9838215E-05  0.1199958E+04  0.7818609E-02  0.9112893E-01
        2   -1    0    0  501    0  0.00000000000E+00  0.00000000000E+00  0.13888364302E+04  0.13888364302E+04  0.25500000920E-02 0.  1.
       -2   -1    0    0    0  501  0.00000000000E+00  0.00000000000E+00 -0.25919174687E+03  0.25919174688E+03  0.25500000920E-02 0. -1.
    10030    2    1    2    0    0  0.00000000000E+00  0.00000000000E+00  0.11296446834E+04  0.16480281771E+04  0.11999582334E+04 0.  0.
        4    1    3    3  502    0 -0.23543875462E+03  0.53471345681E+03  0.75224774289E+03  0.95248525850E+03  0.12699999809E+01 0.  1.
       -4    1    3    3    0  502  0.23543875462E+03 -0.53471345681E+03  0.37739694047E+03  0.69554291862E+03  0.12699999809E+01 0. -1.
</event>
<event>
 5   0  0.1012657E-04  0.1199745E+04  0.7818609E-02  0.9113080E-01
       -2   -1    0    0    0  501  0.00000000000E+00  0.00000000000E+00  0.28223137372E+03  0.28223137374E+03  0.25500000920E-02 0.  1.
        2   -1    0    0  501    0  0.00000000000E+00  0.00000000000E+00 -0.12750070856E+04  0.12750070856E+04  0.25500000920E-02 0. -1.
    10030    2    1    2    0    0  0.00000000000E+00  0.00000000000E+00 -0.99277571185E+03  0.15572384593E+04  0.11997449750E+04 0.  0.
        1    1    3    3  502    0  0.26008237275E+03 -0.25336885965E+03  0.12339789488E+03  0.38349140818E+03  0.50400001928E-02 0.  1.
       -1    1    3    3    0  502 -0.26008237275E+03  0.25336885965E+03 -0.11161736067E+04  0.11737470511E+04  0.50400001928E-02 0. -1.
</event>
<event>
 5   0  0.5447807E-05  0.1200178E+04  0.7818609E-02  0.9112701E-01
       -1   -1    0    0    0  501  0.00000000000E+00  0.00000000000E+00  0.10682110411E+04  0.10682110412E+04  0.50400001928E-02 0.  1.
        1   -1    0    0  501    0  0.00000000000E+00  0.00000000000E+00 -0.33711209498E+03  0.33711209502E+03  0.50400001928E-02 0. -1.
    10030    2    1    2    0    0  0.00000000000E+00  0.00000000000E+00  0.73109894616E+03  0.14053231362E+04  0.12001780901E+04 0.  0.
        2    1    3    3  502    0  0.33800921776E+02 -0.38073442105E+01 -0.33598238559E+03  0.33769980992E+03  0.25500000920E-02 0. -1.
       -2    1    3    3    0  502 -0.33800921776E+02  0.38073442105E+01  0.10670813318E+04  0.10676233263E+04  0.25500000920E-02 0.  1.
</event>
<event>
 5   0  0.9941209E-05  0.1199308E+04  0.7818609E-02  0.9113462E-01
       -2   -1    0    0    0  501  0.00000000000E+00  0.00000000000E+00  0.20860177203E+03  0.20860177204E+03  0.25500000920E-02 0.  1.
        2   -1    0    0  501    0  0.00000000000E+00  0.00000000000E+00 -0.17237874031E+04  0.17237874031E+04  0.25500000920E-02 0. -1.
    10030    2    1    2    0    0  0.00000000000E+00  0.00000000000E+00 -0.15151856311E+04  0.19323891751E+04  0.11993083122E+04 0.  0.
        2    1    3    3  502    0 -0.23140717557E+03 -0.20127055952E+03  0.72673213741E+02  0.31518330387E+03  0.25500000920E-02 0.  1.
       -2    1    3    3    0  502  0.23140717557E+03  0.20127055952E+03 -0.15878588448E+04  0.16172058713E+04  0.25500000920E-02 0. -1.
</event>
<event>
 5   0  0.1012657E-04  0.1200119E+04  0.7818609E-02  0.9112752E-01
        2   -1    0    0  501    0  0.00000000000E+00  0.00000000000E+00  0.34710724478E+03  0.34710724479E+03  0.25500000920E-02 0. -1.
       -2   -1    0    0    0  501  0.00000000000E+00  0.00000000000E+00 -0.10373495712E+04  0.10373495712E+04  0.25500000920E-02 0.  1.
    10030    2    1    2    0    0  0.00000000000E+00  0.00000000000E+00 -0.69024232638E+03  0.13844568159E+04  0.12001192466E+04 0.  0.
        1    1    3    3  502    0 -0.18769994234E+02 -0.28204026660E+03 -0.95573661007E+03  0.99666016903E+03  0.50400001928E-02 0.  1.
       -1    1    3    3    0  502  0.18769994234E+02  0.28204026660E+03  0.26549428369E+03  0.38779664692E+03  0.50400001928E-02 0. -1.
</event>
<event>
 5   0  0.1023063E-04  0.1199215E+04  0.7818609E-02  0.9113544E-01
        2   -1    0    0  501    0  0.00000000000E+00  0.00000000000E+00  0.80224371903E+03  0.80224371904E+03  0.25500000920E-02 0.  1.
       -2   -1    0    0    0  501  0.00000000000E+00  0.00000000000E+00 -0.44815469741E+03  0.44815469742E+03  0.25500000920E-02 0. -1.
    10030    2    1    2    0    0  0.00000000000E+00  0.00000000000E+00  0.35408902163E+03  0.12503984165E+04  0.11992152287E+04 0.  0.
        3    1    3    3  502    0  0.43519336887E+03 -0.29994014128E+03  0.47227583466E+03  0.70880309739E+03  0.10100000352E+00 0. -1.
       -3    1    3    3    0  502 -0.43519336887E+03  0.29994014128E+03 -0.11818681304E+03  0.54159531907E+03  0.10100000352E+00 0.  1.
</event>
<event>
 5   0  0.9941209E-05  0.1200478E+04  0.7818609E-02  0.9112438E-01
       -2   -1    0    0    0  501  0.00000000000E+00  0.00000000000E+00  0.43437758640E+03  0.43437758640E+03  0.25500000920E-02 0.  1.
        2   -1    0    0  501    0  0.00000000000E+00  0.00000000000E+00 -0.82943281654E+03  0.82943281655E+03  0.25500000920E-02 0. -1.
    10030    2    1    2    0    0  0.00000000000E+00  0.00000000000E+00 -0.39505523015E+03  0.12638104029E+04  0.12004782796E+04 0.  0.
        2    1    3    3  502    0 -0.58021921418E+03  0.68838044750E+02 -0.34223467264E+03  0.67713926491E+03  0.25500000920E-02 0. -1.
       -2    1    3    3    0  502  0.58021921418E+03 -0.68838044750E+02 -0.52820557505E+02  0.58667113804E+03  0.25500000920E-02 0.  1.
</event>
<event>
 5   0  0.5625746E-05  0.1199531E+04  0.7818609E-02  0.9113267E-01
       -1   -1    0    0    0  501  0.00000000000E+00  0.00000000000E+00  0.25017986515E+03  0.25017986520E+03  0.50400001928E-02 0. -1.
        1   -1    0    0  501    0  0.00000000000E+00  0.00000000000E+00 -0.14378401090E+04  0.14378401090E+04  0.50400001928E-02 0.  1.
    10030    2    1    2    0    0  0.00000000000E+00  0.00000000000E+00 -0.11876602438E+04  0.16880199742E+04  0.11995309827E+04 0.  0.
        5    1    3    3  502    0 -0.43864409254E+03  0.30060444843E+03 -0.20352924596E+03  0.56940136836E+03  0.46999998093E+01 0. -1.
       -5    1    3    3    0  502  0.43864409254E+03 -0.30060444843E+03 -0.98413099789E+03  0.11186186058E+04  0.46999998093E+01 0.  1.
</event>
<event>
 5   0  0.9838215E-05  0.1206593E+04  0.7818609E-02  0.9107105E-01
        2   -1    0    0  501    0  0.00000000000E+00  0.00000000000E+00  0.11529644294E+04  0.11529644294E+04  0.25500000920E-02 0.  1.
       -2   -1    0    0    0  501  0.00000000000E+00  0.00000000000E+00 -0.31567916002E+03  0.31567916003E+03  0.25500000920E-02 0. -1.
    10030    2    1    2    0    0  0.00000000000E+00  0.00000000000E+00  0.83728526942E+03  0.14686435895E+04  0.12065932913E+04 0.  0.
        4    1    3    3  502    0 -0.27689937032E+03  0.53305646329E+03  0.35040685173E+03  0.69542003780E+03  0.12699999809E+01 0. -1.
       -4    1    3    3    0  502  0.27689937032E+03 -0.53305646329E+03  0.48687841769E+03  0.77322355167E+03  0.12699999809E+01 0.  1.
</event>
<event>
 5   0  0.5745487E-05  0.1199135E+04  0.7818609E-02  0.9113614E-01
        1   -1    0    0  501    0  0.00000000000E+00  0.00000000000E+00  0.11506914859E+04  0.11506914859E+04  0.50400001928E-02 0.  1.
       -1   -1    0    0    0  501  0.00000000000E+00  0.00000000000E+00 -0.31240460332E+03  0.31240460336E+03  0.50400001928E-02 0. -1.
    10030    2    1    2    0    0  0.00000000000E+00  0.00000000000E+00  0.83828688256E+03  0.14630960893E+04  0.11991352171E+04 0.  0.
        3    1    3    3  502    0  0.12431190207E+03 -0.31827118801E+03 -0.18198543494E+03  0.38712879878E+03  0.10100000352E+00 0. -1.
       -3    1    3    3    0  502 -0.12431190207E+03  0.31827118801E+03  0.10202723175E+04  0.10759672905E+04  0.10100000352E+00 0.  1.
</event>
<event>
 5   0  0.5620246E-05  0.1199296E+04  0.7818609E-02  0.9113473E-01
        1   -1    0    0  501    0  0.00000000000E+00  0.00000000000E+00  0.90923322494E+03  0.90923322496E+03  0.50400001928E-02 0. -1.
       -1   -1    0    0    0  501  0.00000000000E+00  0.00000000000E+00 -0.39547363728E+03  0.39547363732E+03  0.50400001928E-02 0.  1.
    10030    2    1    2    0    0  0.00000000000E+00  0.00000000000E+00  0.51375958766E+03  0.13047068623E+04  0.11992960779E+04 0.  0.
        1    1    3    3  502    0 -0.29207349995E+03 -0.82321697536E+02  0.81953655117E+03  0.87391301054E+03  0.50400001928E-02 0. -1.
       -1    1    3    3    0  502  0.29207349995E+03  0.82321697536E+02 -0.30577696351E+03  0.43079385174E+03  0.50400001928E-02 0.  1.
</event>
<event>
 5   0  0.1023063E-04  0.1206112E+04  0.7818609E-02  0.9107524E-01
       -2   -1    0    0    0  501  0.00000000000E+00  0.00000000000E+00  0.12728995032E+03  0.12728995034E+03  0.25500000920E-02 0.  1.
        2   -1    0    0  501    0  0.00000000000E+00  0.00000000000E+00 -0.28570703750E+04  0.28570703750E+04  0.25500000920E-02 0. -1.
    10030    2    1    2    0    0  0.00000000000E+00  0.00000000000E+00 -0.27297804247E+04  0.29843603253E+04  0.12061116799E+04 0.  0.
        3    1    3    3  502    0 -0.28724749946E+03  0.17388932242E+03 -0.12541441982E+03  0.35843745521E+03  0.10100000352E+00 0.  1.
       -3    1    3    3    0  502  0.28724749946E+03 -0.17388932242E+03 -0.26043660048E+04  0.26259228701E+04  0.10100000352E+00 0. -1.
</event>
<event>
 5   0  0.5625746E-05  0.1201748E+04  0.7818609E-02  0.9111328E-01
       -1   -1    0    0    0  501  0.00000000000E+00  0.00000000000E+00  0.69670802282E+03  0.69670802284E+03  0.50400001928E-02 0.  1.
        1   -1    0    0  501    0  0.00000000000E+00  0.00000000000E+00 -0.51822230344E+03  0.51822230346E+03  0.50400001928E-02 0. -1.
    10030    2    1    2    0    0  0.00000000000E+00  0.00000000000E+00  0.17848571939E+03  0.12149303263E+04  0.12017481208E+04 0.  0.
        5    1    3    3  502    0  0.29443954120E+02 -0.32630808014E+03 -0.41995216164E+03  0.53265919467E+03  0.46999998093E+01 0. -1.
       -5    1    3    3    0  502 -0.29443954120E+02  0.32630808014E+03  0.59843788103E+03  0.68227113163E+03  0.46999998093E+01 0.  1.
</event>
<event>
 5   0  0.5745487E-05  0.1196942E+04  0.7818609E-02  0.9115537E-01
        1   -1    0    0  501    0  0.00000000000E+00  0.00000000000E+00  0.10939093451E+04  0.10939093451E+04  0.50400001928E-02 0. -1.
       -1   -1    0    0    0  501  0.00000000000E+00  0.00000000000E+00 -0.32741993862E+03  0.32741993866E+03  0.50400001928E-02 0.  1.
    10030    2    1    2    0    0  0.00000000000E+00  0.00000000000E+00  0.76648940647E+03  0.14213292838E+04  0.11969423222E+04 0.  0.
        3    1    3    3  502    0  0.22776602745E+03 -0.37924332881E+03 -0.95386704929E+02  0.45254999656E+03  0.10100000352E+00 0.  1.
       -3    1    3    3    0  502 -0.22776602745E+03  0.37924332881E+03  0.86187611140E+03  0.96877928720E+03  0.10100000352E+00 0. -1.
</event>
<event>
 5   0  0.5732931E-05  0.1192721E+04  0.7818609E-02  0.9119251E-01
       -1   -1    0    0    0  501  0.00000000000E+00  0.00000000000E+00  0.85926879852E+03  0.85926879854E+03  0.50400001928E-02 0. -1.
        1   -1    0    0  501    0  0.00000000000E+00  0.00000000000E+00 -0.41389390929E+03  0.41389390932E+03  0.50400001928E-02 0.  1.
    10030    2    1    2    0    0  0.00000000000E+00  0.00000000000E+00  0.44537488923E+03  0.12731627079E+04  0.11927214632E+04 0.  0.
        4    1    3    3  502    0 -0.34028072671E+03  0.10146962822E+03  0.73412259281E+03  0.81549043685E+03  0.12699999809E+01 0. -1.
       -4    1    3    3    0  502  0.34028072671E+03 -0.10146962822E+03 -0.28874770358E+03  0.45767227100E+03  0.12699999809E+01 0.  1.
</event>
<event>
 5   0  0.5625746E-05  0.1199921E+04  0.7818609E-02  0.9112926E-01
        1   -1    0    0  501    0  0.00000000000E+00  0.00000000000E+00  0.72955462407E+03  0.72955462408E+03  0.50400001928E-02 0. -1.
       -1   -1    0    0    0  501  0.00000000000E+00  0.00000000000E+00 -0.49338664252E+03  0.49338664254E+03  0.50400001928E-02 0.  1.
    10030    2    1    2    0    0  0.00000000000E+00  0.00000000000E+00  0.23616798155E+03  0.12229412666E+04  0.11999208416E+04 0.  0.
        5    1    3    3  502    0  0.15300995993E+03 -0.56129430089E+03 -0.31243392542E+02  0.58263331490E+03  0.46999998093E+01 0. -1.
       -5    1    3    3    0  502 -0.15300995993E+03  0.56129430089E+03  0.26741137409E+03  0.64030795173E+03  0.46999998093E+01 0.  1.
</event>
<event>
 5   0  0.5732931E-05  0.1200419E+04  0.7818609E-02  0.9112490E-01
        1   -1    0    0  501    0  0.00000000000E+00  0.00000000000E+00  0.13876257996E+04  0.13876257996E+04  0.50400001928E-02 0. -1.
       -1   -1    0    0    0  501  0.00000000000E+00  0.00000000000E+00 -0.25961718845E+03  0.25961718850E+03  0.50400001928E-02 0.  1.
    10030    2    1    2    0    0  0.00000000000E+00  0.00000000000E+00  0.11280086111E+04  0.16472429881E+04  0.12004191081E+04 0.  0.
        4    1    3    3  502    0  0.14455510416E+03 -0.62472270641E+02  0.13587702874E+04  0.13678659545E+04  0.12699999809E+01 0. -1.
       -4    1    3    3    0  502 -0.14455510416E+03  0.62472270641E+02 -0.23076167628E+03  0.27937703355E+03  0.12699999809E+01 0.  1.
</event>
<event>
 5   0  0.1023063E-04  0.1200528E+04  0.7818609E-02  0.9112395E-01
        2   -1    0    0  501    0  0.00000000000E+00  0.00000000000E+00  0.15188410505E+04  0.15188410505E+04  0.25500000920E-02 0. -1.
       -2   -1    0    0    0  501  0.00000000000E+00  0.00000000000E+00 -0.23723133894E+03  0.23723133895E+03  0.25500000920E-02 0.  1.
    10030    2    1    2    0    0  0.00000000000E+00  0.00000000000E+00  0.12816097116E+04  0.17560723895E+04  0.12005277107E+04 0.  0.
        3    1    3    3  502    0  0.55085794898E+02 -0.52765979857E+03  0.10515679268E+04  0.11778176525E+04  0.10100000352E+00 0. -1.
       -3    1    3    3    0  502 -0.55085794898E+02  0.52765979857E+03  0.23004178483E+03  0.57825473695E+03  0.10100000352E+00 0.  1.
</event>
<event>
 5   0  0.5732931E-05  0.1199758E+04  0.7818609E-02  0.9113069E-01
        1   -1    0    0  501    0  0.00000000000E+00  0.00000000000E+00  0.10028939107E+04  0.10028939107E+04  0.50400001928E-02 0.  1.
       -1   -1    0    0    0  501  0.00000000000E+00  0.00000000000E+00 -0.35881613502E+03  0.35881613506E+03  0.50400001928E-02 0. -1.
    10030    2    1    2    0    0  0.00000000000E+00  0.00000000000E+00  0.64407777568E+03  0.13617100458E+04  0.11997575037E+04 0.  0.
        4    1    3    3  502    0 -0.55798393539E+03  0.21898431935E+03  0.29535581797E+03  0.66823414788E+03  0.12699999809E+01 0.  1.
       -4    1    3    3    0  502  0.55798393539E+03 -0.21898431935E+03  0.34872195770E+03  0.69347589790E+03  0.12699999809E+01 0. -1.
</event>
<event>
 5   0  0.1023063E-04  0.1199025E+04  0.7818609E-02  0.9113710E-01
        2   -1    0    0  501    0  0.00000000000E+00  0.00000000000E+00  0.82788351060E+03  0.82788351060E+03  0.25500000920E-02 0.  1.
       -2   -1    0    0    0  501  0.00000000000E+00  0.00000000000E+00 -0.43413765049E+03  0.43413765050E+03  0.25500000920E-02 0. -1.
    10030    2    1    2    0    0  0.00000000000E+00  0.00000000000E+00  0.39374586011E+03  0.12620211611E+04  0.11990252744E+04 0.  0.
        3    1    3    3  502    0  0.45685210475E+03 -0.21748467868E+03  0.53532929569E+03  0.73660769485E+03  0.10100000352E+00 0.  1.
       -3    1    3    3    0  502 -0.45685210475E+03  0.21748467868E+03 -0.14158343559E+03  0.52541346625E+03  0.10100000352E+00 0. -1.
</event>
<event>
 5   0  0.9838215E-05  0.1199359E+04  0.7818609E-02  0.9113418E-01
        2   -1    0    0  501    0  0.00000000000E+00  0.00000000000E+00  0.19351425183E+04  0.19351425183E+04  0.25500000920E-02 0. -1.
       -2   -1    0    0    0  501  0.00000000000E+00  0.00000000000E+00 -0.18583403825E+03  0.18583403827E+03  0.25500000920E-02 0.  1.
    10030    2    1    2    0    0  0.00000000000E+00  0.00000000000E+00  0.17493084801E+04  0.21209765566E+04  0.11993587433E+04 0.  0.
        4    1    3    3  502    0  0.63436481001E+02 -0.11643648358E+03 -0.15958304989E+03  0.20748495016E+03  0.12699999809E+01 0.  1.
       -4    1    3    3    0  502 -0.63436481001E+02  0.11643648358E+03  0.19088915300E+04  0.19134916065E+04  0.12699999809E+01 0. -1.
</event>
<event>
 5   0  0.5732931E-05  0.1206729E+04  0.7818609E-02  0.9106987E-01
        1   -1    0    0  501    0  0.00000000000E+00  0.00000000000E+00  0.62752526250E+03  0.62752526252E+03  0.50400001928E-02 0.  1.
       -1   -1    0    0    0  501  0.00000000000E+00  0.00000000000E+00 -0.58013410605E+03  0.58013410608E+03  0.50400001928E-02 0. -1.
    10030    2    1    2    0    0  0.00000000000E+00  0.00000000000E+00  0.47391156448E+02  0.12076593686E+04  0.12067291448E+04 0.  0.
        4    1    3    3  502    0  0.39667523789E+03  0.23836204777E+03  0.41113673058E+03  0.61903371016E+03  0.12699999809E+01 0.  1.
       -4    1    3    3    0  502 -0.39667523789E+03 -0.23836204777E+03 -0.36374557413E+03  0.58862565844E+03  0.12699999809E+01 0. -1.
</event>
<event>
 5   0  0.5620246E-05  0.1199773E+04  0.7818609E-02  0.9113055E-01
       -1   -1    0    0    0  501  0.00000000000E+00  0.00000000000E+00  0.25053635430E+03  0.25053635435E+03  0.50400001928E-02 0.  1.
        1   -1    0    0  501    0  0.00000000000E+00  0.00000000000E+00 -0.14363736665E+04  0.14363736665E+04  0.50400001928E-02 0. -1.
    10030    2    1    2    0    0  0.00000000000E+00  0.00000000000E+00 -0.11858373122E+04  0.16869100209E+04  0.11997730150E+04 0.  0.
        1    1    3    3  502    0 -0.72397988457E+02  0.83059398852E+02 -0.14220242456E+04  0.14262865377E+04  0.50400001928E-02 0. -1.
       -1    1    3    3    0  502  0.72397988457E+02 -0.83059398852E+02  0.23618693338E+03  0.26062348320E+03  0.50400001928E-02 0.  1.
</event>
<event>
 5   0  0.9941209E-05  0.1202570E+04  0.7818609E-02  0.9110610E-01
        2   -1    0    0  501    0  0.00000000000E+00  0.00000000000E+00  0.25676218502E+04  0.25676218502E+04  0.25500000920E-02 0. -1.
       -2   -1    0    0    0  501  0.00000000000E+00  0.00000000000E+00 -0.14080869858E+03  0.14080869861E+03  0.25500000920E-02 0.  1.
    10030    2    1    2    0    0  0.00000000000E+00  0.00000000000E+00  0.24268131516E+04  0.27084305488E+04  0.12025697339E+04 0.  0.
        2    1    3    3  502    0 -0.15080930500E+03  0.22093872877E+03  0.58743622230E+00  0.26750273537E+03  0.25500000920E-02 0.  1.
       -2    1    3    3    0  502  0.15080930500E+03 -0.22093872877E+03  0.24262257154E+04  0.24409278134E+04  0.25500000920E-02 0. -1.
</event>
<event>
 5   0  0.1023063E-04  0.1199428E+04  0.7818609E-02  0.9113357E-01
       -2   -1    0    0    0  501  0.00000000000E+00  0.00000000000E+00  0.67035507679E+03  0.67035507680E+03  0.25500000920E-02 0.  1.
        2   -1    0    0  501    0  0.00000000000E+00  0.00000000000E+00 -0.53651692997E+03  0.53651692998E+03  0.25500000920E-02 0. -1.
    10030    2    1    2    0    0  0.00000000000E+00  0.00000000000E+00  0.13383814682E+03  0.12068720068E+04  0.11994279433E+04 0.  0.
        3    1    3    3  502    0  0.41692701896E+03 -0.57260120600E+02 -0.36299131826E+03  0.55576035113E+03  0.10100000352E+00 0. -1.
       -3    1    3    3    0  502 -0.41692701896E+03  0.57260120600E+02  0.49682946508E+03  0.65111165565E+03  0.10100000352E+00 0.  1.
</event>
<event>
 5   0  0.5732931E-05  0.1200195E+04  0.7818609E-02  0.9112686E-01
       -1   -1    0    0    0  501  0.00000000000E+00  0.00000000000E+00  0.29066568538E+03  0.29066568542E+03  0.50400001928E-02 0. -1.
        1   -1    0    0  501    0  0.00000000000E+00  0.00000000000E+00 -0.12389388440E+04  0.12389388440E+04  0.50400001928E-02 0.  1.
    10030    2    1    2    0    0  0.00000000000E+00  0.00000000000E+00 -0.94827315858E+03  0.15296045294E+04  0.12001949979E+04 0.  0.
        4    1    3    3  502    0 -0.57539363301E+03 -0.16626183420E+03 -0.42654318046E+03  0.73529689793E+03  0.12699999809E+01 0. -1.
       -4    1    3    3    0  502  0.57539363301E+03  0.16626183420E+03 -0.52172997812E+03  0.79430763145E+03  0.12699999809E+01 0.  1.
</event>
<event>
 5   0  0.5447807E-05  0.1199675E+04  0.7818609E-02  0.9113141E-01
        1   -1    0    0  501    0  0.00000000000E+00  0.00000000000E+00  0.32749768590E+03  0.32749768594E+03  0.50400001928E-02 0. -1.
       -1   -1    0    0    0  501  0.00000000000E+00  0.00000000000E+00 -0.10986490125E+04  0.10986490125E+04  0.50400001928E-02 0.  1.
    10030    2    1    2    0    0  0.00000000000E+00  0.00000000000E+00 -0.77115132656E+03  0.14261466984E+04  0.11996749714E+04 0.  0.
        2    1    3    3  502    0  0.20538810435E+03 -0.51635009081E+03 -0.11710315271E+03  0.56790389862E+03  0.25500000920E-02 0. -1.
       -2    1    3    3    0  502 -0.20538810435E+03  0.51635009081E+03 -0.65404817385E+03  0.85824279980E+03  0.25500000920E-02 0.  1.
</event>
<event>
 5   0  0.5620246E-05  0.1199768E+04  0.7818609E-02  0.9113060E-01
       -1   -1    0    0    0  501  0.00000000000E+00  0.00000000000E+00  0.70726879152E+03  0.70726879153E+03  0.50400001928E-02 0.  1.
        1   -1    0    0  501    0  0.00000000000E+00  0.00000000000E+00 -0.50880358472E+03  0.50880358474E+03  0.50400001928E-02 0. -1.
    10030    2    1    2    0    0  0.00000000000E+00  0.00000000000E+00  0.19846520680E+03  0.12160723763E+04  0.11997681384E+04 0.  0.
        1    1    3    3  502    0  0.19315248786E+03  0.41637521931E+03  0.49072580654E+03  0.67192858553E+03  0.50400001928E-02 0.  1.
       -1    1    3    3    0  502 -0.19315248786E+03 -0.41637521931E+03 -0.29226059974E+03  0.54414379075E+03  0.50400001928E-02 0. -1.
</event>
<event>
 5   0  0.9941209E-05  0.1198443E+04  0.7818609E-02  0.9114220E-01
        2   -1    0    0  501    0  0.00000000000E+00  0.00000000000E+00  0.86027216318E+03  0.86027216318E+03  0.25500000920E-02 0. -1.
       -2   -1    0    0    0  501  0.00000000000E+00  0.00000000000E+00 -0.41738726464E+03  0.41738726464E+03  0.25500000920E-02 0.  1.
    10030    2    1    2    0    0  0.00000000000E+00  0.00000000000E+00  0.44288489854E+03  0.12776594278E+04  0.11984433988E+04 0.  0.
        2    1    3    3  502    0 -0.27881006131E+03 -0.13110312451E+03 -0.32647810718E+03  0.44889980398E+03  0.25500000920E-02 0.  1.
       -2    1    3    3    0  502  0.27881006131E+03  0.13110312451E+03  0.76936300572E+03  0.82875962385E+03  0.25500000920E-02 0. -1.
</event>
<event>
 5   0  0.5625746E-05  0.1199812E+04  0.7818609E-02  0.9113021E-01
       -1   -1    0    0    0  501  0.00000000000E+00  0.00000000000E+00  0.40798687957E+03  0.40798687960E+03  0.50400001928E-02 0.  1.
        1   -1    0    0  501    0  0.00000000000E+00  0.00000000000E+00 -0.88210529934E+03  0.88210529936E+03  0.50400001928E-02 0. -1.
    10030    2    1    2    0    0  0.00000000000E+00  0.00000000000E+00 -0.47411841978E+03  0.12900921790E+04  0.11998122996E+04 0.  0.
        5    1    3    3  502    0 -0.46684733231E+03  0.35896060664E+03 -0.35996752025E+03  0.69021580280E+03  0.46999998093E+01 0. -1.
       -5    1    3    3    0  502  0.46684733231E+03 -0.35896060664E+03 -0.11415089952E+03  0.59987637615E+03  0.46999998093E+01 0.  1.
</event>
<event>
 5   0  0.5745487E-05  0.1199939E+04  0.7818609E-02  0.9112910E-01
        1   -1    0    0  501    0  0.00000000000E+00  0.00000000000E+00  0.71335993665E+03  0.71335993667E+03  0.50400001928E-02 0. -1.
       -1   -1    0    0    0  501  0.00000000000E+00  0.00000000000E+00 -0.50460245578E+03  0.50460245580E+03  0.50400001928E-02 0.  1.
    10030    2    1    2    0    0  0.00000000000E+00  0.00000000000E+00  0.20875748087E+03  0.12179623925E+04  0.11999386249E+04 0.  0.
        3    1    3    3  502    0  0.25459544266E+03 -0.46147487285E+03 -0.18660708455E+03  0.55910653001E+03  0.10100000352E+00 0.  1.
       -3    1    3    3    0  502 -0.25459544266E+03  0.46147487285E+03  0.39536456542E+03  0.65885586245E+03  0.10100000352E+00 0. -1.
</event>
<event>
 5   0  0.1023063E-04  0.1198488E+04  0.7818609E-02  0.9114181E-01
       -2   -1    0    0    0  501  0.00000000000E+00  0.00000000000E+00  0.15520414201E+03  0.15520414203E+03  0.25500000920E-02 0. -1.
        2   -1    0    0  501    0  0.00000000000E+00  0.00000000000E+00 -0.23136853183E+04  0.23136853183E+04  0.25500000920E-02 0.  1.
    10030    2    1    2    0    0  0.00000000000E+00  0.00000000000E+00 -0.21584811763E+04  0.24688894604E+04  0.11984882890E+04 0.  0.
        3    1    3    3  502    0  0.58519052208E+03 -0.12863832855E+03 -0.10996094059E+04  0.12522526192E+04  0.10100000352E+00 0.  1.
       -3    1    3    3    0  502 -0.58519052208E+03  0.12863832855E+03 -0.10588717705E+04  0.12166368411E+04  0.10100000352E+00 0. -1.
</event>
<event>
 5   0  0.1023063E-04  0.1200025E+04  0.7818609E-02  0.9112835E-01
        2   -1    0    0  501    0  0.00000000000E+00  0.00000000000E+00  0.90228696713E+03  0.90228696713E+03  0.25500000920E-02 0.  1.
       -2   -1    0    0    0  501  0.00000000000E+00  0.00000000000E+00 -0.39900283124E+03  0.39900283125E+03  0.25500000920E-02 0. -1.
    10030    2    1    2    0    0  0.00000000000E+00  0.00000000000E+00  0.50328413589E+03  0.13012897984E+04  0.12000250905E+04 0.  0.
        3    1    3    3  502    0 -0.24277899966E+03  0.79640817214E+02 -0.33706116009E+03  0.42295926315E+03  0.10100000352E+00 0. -1.
       -3    1    3    3    0  502  0.24277899966E+03 -0.79640817214E+02  0.84034529598E+03  0.87833053523E+03  0.10100000352E+00 0.  1.
</event>
<event>
 5   0  0.5620246E-05  0.1199888E+04  0.7818609E-02  0.9112955E-01
       -1   -1    0    0    0  501  0.00000000000E+00  0.00000000000E+00  0.41946299000E+03  0.41946299003E+03  0.50400001928E-02 0. -1.
        1   -1    0    0  501    0  0.00000000000E+00  0.00000000000E+00 -0.85807953872E+03  0.85807953874E+03  0.50400001928E-02 0.  1.
    10030    2    1    2    0    0  0.00000000000E+00  0.00000000000E+00 -0.43861654873E+03  0.12775425288E+04  0.11998876764E+04 0.  0.
        1    1    3    3  502    0 -0.31874120966E+03  0.17757468849E+03 -0.72636904694E+03  0.81285959495E+03  0.50400001928E-02 0.  1.
       -1    1    3    3    0  502  0.31874120966E+03 -0.17757468849E+03  0.28775249821E+03  0.46468293381E+03  0.50400001928E-02 0. -1.
</event>
<event>
 5   0  0.1012657E-04  0.1203462E+04  0.7818609E-02  0.9109831E-01
        2   -1    0    0  501    0  0.00000000000E+00  0.00000000000E+00  0.16073633046E+04  0.16073633046E+04  0.25500000920E-02 0.  1.
       -2   -1    0    0    0  501  0.00000000000E+00  0.00000000000E+00 -0.22526355592E+03  0.22526355594E+03  0.25500000920E-02 0. -1.
    10030    2    1    2    0    0  0.00000000000E+00  0.00000000000E+00  0.13820997487E+04  0.18326268605E+04  0.12034622947E+04 0.  0.
        1    1    3    3  502    0 -0.13233754744E+03 -0.60338178435E+02  0.15801934781E+04  0.15868728211E+04  0.50400001928E-02 0.  1.
       -1    1    3    3    0  502  0.13233754744E+03  0.60338178435E+02 -0.19809372940E+03  0.24575403942E+03  0.50400001928E-02 0. -1.
</event>
<event>
 5   0  0.5447807E-05  0.1200178E+04  0.7818609E-02  0.9112701E-01
        1   -1    0    0  501    0  0.00000000000E+00  0.00000000000E+00  0.43581864552E+03  0.43581864555E+03  0.50400001928E-02 0. -1.
       -1   -1    0    0    0  501  0.00000000000E+00  0.00000000000E+00 -0.82627697590E+03  0.82627697592E+03  0.50400001928E-02 0.  1.
    10030    2    1    2    0    0  0.00000000000E+00  0.00000000000E+00 -0.39045833039E+03  0.12620956215E+04  0.12001781743E+04 0.  0.
        2    1    3    3  502    0 -0.51237018168E+03 -0.18674939862E+03  0.68106266217E+02  0.54957893379E+03  0.25500000920E-02 0. -1.
       -2    1    3    3    0  502  0.51237018168E+03  0.18674939862E+03 -0.45856459660E+03  0.71251668768E+03  0.25500000920E-02 0.  1.
</event>
<event>
 5   0  0.5620246E-05  0.1199953E+04  0.7818609E-02  0.9112898E-01
       -1   -1    0    0    0  501  0.00000000000E+00  0.00000000000E+00  0.37160127037E+03  0.37160127040E+03  0.50400001928E-02 0. -1.
        1   -1    0    0  501    0  0.00000000000E+00  0.00000000000E+00 -0.96870390323E+03  0.96870390324E+03  0.50400001928E-02 0.  1.
    10030    2    1    2    0    0  0.00000000000E+00  0.00000000000E+00 -0.59710263286E+03  0.13403051736E+04  0.11999526675E+04 0.  0.
        1    1    3    3  502    0 -0.94581519797E+02  0.71636038964E+02 -0.95546941601E+03  0.96280797199E+03  0.50400001928E-02 0.  1.
       -1    1    3    3    0  502  0.94581519797E+02 -0.71636038964E+02  0.35836678315E+03  0.37749720165E+03  0.50400001928E-02 0. -1.
</event>
<event>
 5   0  0.3839750E-05  0.1200018E+04  0.7818609E-02  0.9112841E-01
        4   -1    0    0  501    0  0.00000000000E+00  0.00000000000E+00  0.15615661365E+04  0.15615666530E+04  0.12699999809E+01 0.  1.
       -4   -1    0    0    0  501  0.00000000000E+00  0.00000000000E+00 -0.23054241592E+03  0.23054591395E+03  0.12699999809E+01 0. -1.
    10030    2    1    2    0    0  0.00000000000E+00  0.00000000000E+00  0.13310237206E+04  0.17921125669E+04  0.12000180447E+04 0.  0.
        4    1    3    3  502    0  0.59448323690E+03  0.45046302101E+01  0.54438391225E+03  0.80609308859E+03  0.12699999809E+01 0.  1.
       -4    1    3    3    0  502 -0.59448323690E+03 -0.45046302101E+01  0.78663980838E+03  0.98601947835E+03  0.12699999809E+01 0. -1.
</event>
<event>
 5   0  0.1012657E-04  0.1198195E+04  0.7818609E-02  0.9114438E-01
        2   -1    0    0  501    0  0.00000000000E+00  0.00000000000E+00  0.35395391406E+03  0.35395391406E+03  0.25500000920E-02 0.  1.
       -2   -1    0    0    0  501  0.00000000000E+00  0.00000000000E+00 -0.10140234563E+04  0.10140234563E+04  0.25500000920E-02 0. -1.
    10030    2    1    2    0    0  0.00000000000E+00  0.00000000000E+00 -0.66006954227E+03  0.13679773704E+04  0.11981945941E+04 0.  0.
        1    1    3    3  502    0  0.34017404292E+03  0.11900964005E+03  0.21635597482E+03  0.42034697782E+03  0.50400001928E-02 0.  1.
       -1    1    3    3    0  502 -0.34017404292E+03 -0.11900964005E+03 -0.87642551709E+03  0.94763039257E+03  0.50400001928E-02 0. -1.
</event>
<event>
 5   0  0.5447807E-05  0.1199548E+04  0.7818609E-02  0.9113252E-01
        1   -1    0    0  501    0  0.00000000000E+00  0.00000000000E+00  0.93250485681E+03  0.93250485682E+03  0.50400001928E-02 0.  1.
       -1   -1    0    0    0  501  0.00000000000E+00  0.00000000000E+00 -0.38576612446E+03  0.38576612450E+03  0.50400001928E-02 0. -1.
    10030    2    1    2    0    0  0.00000000000E+00  0.00000000000E+00  0.54673873234E+03  0.13182709813E+04  0.11995478893E+04 0.  0.
        2    1    3    3  502    0  0.54113374788E+03 -0.20942300101E+03  0.44020007929E+03  0.72832673730E+03  0.25500000920E-02 0.  1.
       -2    1    3    3    0  502 -0.54113374788E+03  0.20942300101E+03  0.10653865305E+03  0.58994424402E+03  0.25500000920E-02 0. -1.
</event>
<event>
 5   0  0.5447807E-05  0.1199612E+04  0.7818609E-02  0.9113197E-01
        1   -1    0    0  501    0  0.00000000000E+00  0.00000000000E+00  0.40929185886E+03  0.40929185889E+03  0.50400001928E-02 0.  1.
       -1   -1    0    0    0  501  0.00000000000E+00  0.00000000000E+00 -0.87899872648E+03  0.87899872649E+03  0.50400001928E-02 0. -1.
    10030    2    1    2    0    0  0.00000000000E+00  0.00000000000E+00 -0.46970686762E+03  0.12882905854E+04  0.11996116417E+04 0.  0.
        2    1    3    3  502    0 -0.73442490432E+01 -0.59770436697E+03 -0.18156071908E+03  0.62471492939E+03  0.25500000920E-02 0.  1.
       -2    1    3    3    0  502  0.73442490432E+01  0.59770436697E+03 -0.28814614855E+03  0.66357565599E+03  0.25500000920E-02 0. -1.
</event>
<event>
 5   0  0.9941209E-05  0.1200855E+04  0.7818609E-02  0.9112109E-01
        2   -1    0    0  501    0  0.00000000000E+00  0.00000000000E+00  0.71269551854E+03  0.71269551855E+03  0.25500000920E-02 0. -1.
       -2   -1    0    0    0  501  0.00000000000E+00  0.00000000000E+00 -0.50584453302E+03  0.50584453303E+03  0.25500000920E-02 0.  1.
    10030    2    1    2    0    0  0.00000000000E+00  0.00000000000E+00  0.20685098552E+03  0.12185400516E+04  0.12008549151E+04 0.  0.
        2    1    3    3  502    0 -0.47354380852E+03 -0.31952330146E+03  0.29101078470E+03  0.64111321589E+03  0.25500000920E-02 0. -1.
       -2    1    3    3    0  502  0.47354380852E+03  0.31952330146E+03 -0.84159799177E+02  0.57742683569E+03  0.25500000920E-02 0.  1.
</event>
<event>
 5   0  0.3839750E-05  0.1199468E+04  0.7818609E-02  0.9113323E-01
        3   -1    0    0  501    0  0.00000000000E+00  0.00000000000E+00  0.22491429555E+04  0.22491429577E+04  0.10100000352E+00 0.  1.
       -3   -1    0    0    0  501  0.00000000000E+00  0.00000000000E+00 -0.15991896143E+03  0.15991899332E+03  0.10100000352E+00 0. -1.
    10030    2    1    2    0    0  0.00000000000E+00  0.00000000000E+00  0.20892239940E+04  0.24090619510E+04  0.11994676264E+04 0.  0.
        1    1    3    3  502    0  0.42083104675E+03 -0.93013584806E+02  0.20699183461E+03  0.47811705313E+03  0.50400001928E-02 0. -1.
       -1    1    3    3    0  502 -0.42083104675E+03  0.93013584806E+02  0.18822321594E+04  0.19309448979E+04  0.50400001928E-02 0.  1.
</event>
<event>
 5   0  0.5745487E-05  0.1199885E+04  0.7818609E-02  0.9112958E-01
       -1   -1    0    0    0  501  0.00000000000E+00  0.00000000000E+00  0.15863426005E+03  0.15863426013E+03  0.50400001928E-02 0.  1.
        1   -1    0    0  501    0  0.00000000000E+00  0.00000000000E+00 -0.22689343107E+04  0.22689343107E+04  0.50400001928E-02 0. -1.
    10030    2    1    2    0    0  0.00000000000E+00  0.00000000000E+00 -0.21103000507E+04  0.24275685708E+04  0.11998845204E+04 0.  0.
        3    1    3    3  502    0 -0.23648214940E+03 -0.30202904553E+03 -0.19884106046E+04  0.20250733552E+04  0.10100000352E+00 0. -1.
       -3    1    3    3    0  502  0.23648214940E+03  0.30202904553E+03 -0.12188944603E+03  0.40249521560E+03  0.10100000352E+00 0.  1.
</event>
<event>
 5   0  0.1004006E-04  0.1200773E+04  0.7818609E-02  0.9112181E-01
       -2   -1    0    0    0  501  0.00000000000E+00  0.00000000000E+00  0.25912916122E+03  0.25912916124E+03  0.25500000920E-02 0. -1.
        2   -1    0    0  501    0  0.00000000000E+00  0.00000000000E+00 -0.13910579116E+04  0.13910579116E+04  0.25500000920E-02 0.  1.
    10030    2    1    2    0    0  0.00000000000E+00  0.00000000000E+00 -0.11319287504E+04  0.16501870729E+04  0.12007725344E+04 0.  0.
        5    1    3    3  502    0 -0.53722076301E+03  0.24832409398E+03 -0.70455862435E+03  0.92016082779E+03  0.46999998093E+01 0.  1.
       -5    1    3    3    0  502  0.53722076301E+03 -0.24832409398E+03 -0.42737012607E+03  0.73002624509E+03  0.46999998093E+01 0. -1.
</event>
<event>
 5   0  0.5745487E-05  0.1206887E+04  0.7818609E-02  0.9106850E-01
        1   -1    0    0  501    0  0.00000000000E+00  0.00000000000E+00  0.56067110650E+03  0.56067110652E+03  0.50400001928E-02 0.  1.
       -1   -1    0    0    0  501  0.00000000000E+00  0.00000000000E+00 -0.64947890447E+03  0.64947890449E+03  0.50400001928E-02 0. -1.
    10030    2    1    2    0    0  0.00000000000E+00  0.00000000000E+00 -0.88807797968E+02  0.12101500110E+04  0.12068869973E+04 0.  0.
        3    1    3    3  502    0 -0.26390315365E+03 -0.38569855315E+03 -0.42718961348E+03  0.63316603231E+03  0.10100000352E+00 0. -1.
       -3    1    3    3    0  502  0.26390315365E+03  0.38569855315E+03  0.33838181551E+03  0.57698397870E+03  0.10100000352E+00 0.  1.
</event>
<event>
 5   0  0.9941209E-05  0.1200244E+04  0.7818609E-02  0.9112643E-01
        2   -1    0    0  501    0  0.00000000000E+00  0.00000000000E+00  0.21059016557E+04  0.21059016557E+04  0.25500000920E-02 0.  1.
       -2   -1    0    0    0  501  0.00000000000E+00  0.00000000000E+00 -0.17101762061E+03  0.17101762063E+03  0.25500000920E-02 0. -1.
    10030    2    1    2    0    0  0.00000000000E+00  0.00000000000E+00  0.19348840351E+04  0.22769192764E+04  0.12002437926E+04 0.  0.
        2    1    3    3  502    0  0.39527872192E+03  0.27748266231E+02  0.18224424385E+04  0.18650232374E+04  0.25500000920E-02 0.  1.
       -2    1    3    3    0  502 -0.39527872192E+03 -0.27748266231E+02  0.11244159663E+03  0.41189603900E+03  0.25500000920E-02 0. -1.
</event>
<event>
 5   0  0.9941209E-05  0.1199923E+04  0.7818609E-02  0.9112924E-01
       -2   -1    0    0    0  501  0.00000000000E+00  0.00000000000E+00  0.49843667063E+03  0.49843667063E+03  0.25500000920E-02 0. -1.
        2   -1    0    0  501    0  0.00000000000E+00  0.00000000000E+00 -0.72216593341E+03  0.72216593341E+03  0.25500000920E-02 0.  1.
    10030    2    1    2    0    0  0.00000000000E+00  0.00000000000E+00 -0.22372926278E+03  0.12206026040E+04  0.11999233034E+04 0.  0.
        2    1    3    3  502    0  0.17298767616E+03  0.50032401817E+03  0.17532180586E+03  0.55766172083E+03  0.25500000920E-02 0. -1.
       -2    1    3    3    0  502 -0.17298767616E+03 -0.50032401817E+03 -0.39905106864E+03  0.66294088322E+03  0.25500000920E-02 0.  1.
</event>
<event>
 5   0  0.5620246E-05  0.1200310E+04  0.7818609E-02  0.9112585E-01
        1   -1    0    0  501    0  0.00000000000E+00  0.00000000000E+00  0.79168322268E+03  0.79168322270E+03  0.50400001928E-02 0. -1.
       -1   -1    0    0    0  501  0.00000000000E+00  0.00000000000E+00 -0.45496246344E+03  0.45496246347E+03  0.50400001928E-02 0.  1.
    10030    2    1    2    0    0  0.00000000000E+00  0.00000000000E+00  0.33672075924E+03  0.12466456862E+04  0.12003102087E+04 0.  0.
        1    1    3    3  502    0 -0.57190675148E+03  0.40057331800E+02 -0.15985719900E+02  0.57353070143E+03  0.50400001928E-02 0. -1.
       -1    1    3    3    0  502  0.57190675148E+03 -0.40057331800E+02  0.35270647914E+03  0.67311498473E+03  0.50400001928E-02 0.  1.
</event>
<event>
 5   0  0.1023063E-04  0.1209172E+04  0.7818609E-02  0.9104866E-01
        2   -1    0    0  501    0  0.00000000000E+00  0.00000000000E+00  0.90585717958E+03  0.90585717959E+03  0.25500000920E-02 0. -1.
       -2   -1    0    0    0  501  0.00000000000E+00  0.00000000000E+00 -0.40351180357E+03  0.40351180358E+03  0.25500000920E-02 0.  1.
    10030    2    1    2    0    0  0.00000000000E+00  0.00000000000E+00  0.50234537601E+03  0.13093689832E+04  0.12091717237E+04 0.  0.
        3    1    3    3  502    0 -0.48997740523E+03  0.17330285656E+03 -0.83312034351E+02  0.52635790390E+03  0.10100000352E+00 0.  1.
       -3    1    3    3    0  502  0.48997740523E+03 -0.17330285656E+03  0.58565741036E+03  0.78301107926E+03  0.10100000352E+00 0. -1.
</event>
<event>
 5   0  0.9941209E-05  0.1200250E+04  0.7818609E-02  0.9112638E-01
        2   -1    0    0  501    0  0.00000000000E+00  0.00000000000E+00  0.19453130197E+04  0.19453130197E+04  0.25500000920E-02 0.  1.
       -2   -1    0    0    0  501  0.00000000000E+00  0.00000000000E+00 -0.18513720836E+03  0.18513720837E+03  0.25500000920E-02 0. -1.
    10030    2    1    2    0    0  0.00000000000E+00  0.00000000000E+00  0.17601758113E+04  0.21304502281E+04  0.12002496771E+04 0.  0.
        2    1    3    3  502    0 -0.53331939287E+03  0.22023081760E+03  0.11729296317E+04  0.13071706502E+04  0.25500000920E-02 0.  1.
       -2    1    3    3    0  502  0.53331939287E+03 -0.22023081760E+03  0.58724617970E+03  0.82327957791E+03  0.25500000920E-02 0. -1.
</event>
<event>
 5   0  0.5745487E-05  0.1200176E+04  0.7818609E-02  0.9112702E-01
        1   -1    0    0  501    0  0.00000000000E+00  0.00000000000E+00  0.10692593863E+04  0.10692593863E+04  0.50400001928E-02 0.  1.
       -1   -1    0    0    0  501  0.00000000000E+00  0.00000000000E+00 -0.33678042211E+03  0.33678042215E+03  0.50400001928E-02 0. -1.
    10030    2    1    2    0    0  0.00000000000E+00  0.00000000000E+00  0.73247896417E+03  0.14060398084E+04  0.12001760329E+04 0.  0.
        3    1    3    3  502    0  0.19491618960E+03  0.73375430178E+02  0.10255603424E+04  0.10464942909E+04  0.10100000352E+00 0.  1.
       -3    1    3    3    0  502 -0.19491618960E+03 -0.73375430178E+02 -0.29308137824E+03  0.35954551756E+03  0.10100000352E+00 0. -1.
</event>
<event>
 5   0  0.5745487E-05  0.1199256E+04  0.7818609E-02  0.9113508E-01
       -1   -1    0    0    0  501  0.00000000000E+00  0.00000000000E+00  0.44797200612E+03  0.44797200615E+03  0.50400001928E-02 0.  1.
        1   -1    0    0  501    0  0.00000000000E+00  0.00000000000E+00 -0.80262528002E+03  0.80262528004E+03  0.50400001928E-02 0. -1.
    10030    2    1    2    0    0  0.00000000000E+00  0.00000000000E+00 -0.35465327390E+03  0.12505972862E+04  0.11992558641E+04 0.  0.
        3    1    3    3  502    0  0.40533138601E+03 -0.22428853577E+02  0.28287932110E+03  0.49479016407E+03  0.10100000352E+00 0.  1.
       -3    1    3    3    0  502 -0.40533138601E+03  0.22428853577E+02 -0.63753259500E+03  0.75580712212E+03  0.10100000352E+00 0. -1.
</event>
<event>
 5   0  0.5732931E-05  0.1200202E+04  0.7818609E-02  0.9112680E-01
       -1   -1    0    0    0  501  0.00000000000E+00  0.00000000000E+00  0.17505463443E+03  0.17505463451E+03  0.50400001928E-02 0. -1.
        1   -1    0    0  501    0  0.00000000000E+00  0.00000000000E+00 -0.20571918385E+04  0.20571918385E+04  0.50400001928E-02 0.  1.
    10030    2    1    2    0    0  0.00000000000E+00  0.00000000000E+00 -0.18821372041E+04  0.22322464730E+04  0.12002015920E+04 0.  0.
        4    1    3    3  502    0  0.42524743894E+03  0.42341794720E+03 -0.94311457500E+03  0.11178483157E+04  0.12699999809E+01 0.  1.
       -4    1    3    3    0  502 -0.42524743894E+03 -0.42341794720E+03 -0.93902262910E+03  0.11143981574E+04  0.12699999809E+01 0. -1.
</event>
<event>
 5   0  0.1023063E-04  0.1200271E+04  0.7818609E-02  0.9112620E-01
        2   -1    0    0  501    0  0.00000000000E+00  0.00000000000E+00  0.81072802106E+03  0.81072802107E+03  0.25500000920E-02 0.  1.
       -2   -1    0    0    0  501  0.00000000000E+00  0.00000000000E+00 -0.44424579867E+03  0.44424579867E+03  0.25500000920E-02 0. -1.
    10030    2    1    2    0    0  0.00000000000E+00  0.00000000000E+00  0.36648222239E+03  0.12549738197E+04  0.12002708315E+04 0.  0.
        3    1    3    3  502    0 -0.71025966093E+02 -0.38513518410E+03 -0.29222418639E+03  0.48863972741E+03  0.10100000352E+00 0. -1.
       -3    1    3    3    0  502  0.71025966093E+02  0.38513518410E+03  0.65870640879E+03  0.76633409233E+03  0.10100000352E+00 0.  1.
</event>
<event>
 5   0  0.9941209E-05  0.1199810E+04  0.7818609E-02  0.9113023E-01
       -2   -1    0    0    0  501  0.00000000000E+00  0.00000000000E+00  0.28212712556E+03  0.28212712557E+03  0.25500000920E-02 0.  1.
        2   -1    0    0  501    0  0.00000000000E+00  0.00000000000E+00 -0.12756159362E+04  0.12756159362E+04  0.25500000920E-02 0. -1.
    10030    2    1    2    0    0  0.00000000000E+00  0.00000000000E+00 -0.99348881062E+03  0.15577430618E+04  0.11998097473E+04 0.  0.
        2    1    3    3  502    0  0.54481471553E+03 -0.43899381526E+02 -0.81776332333E+03  0.98360921251E+03  0.25500000920E-02 0. -1.
       -2    1    3    3    0  502 -0.54481471553E+03  0.43899381526E+02 -0.17572548729E+03  0.57413384924E+03  0.25500000920E-02 0.  1.
</event>
<event>
 5   0  0.9838215E-05  0.1200104E+04  0.7818609E-02  0.9112765E-01
        2   -1    0    0  501    0  0.00000000000E+00  0.00000000000E+00  0.83331246703E+03  0.83331246704E+03  0.25500000920E-02 0. -1.
       -2   -1    0    0    0  501  0.00000000000E+00  0.00000000000E+00 -0.43208599823E+03  0.43208599824E+03  0.25500000920E-02 0.  1.
    10030    2    1    2    0    0  0.00000000000E+00  0.00000000000E+00  0.40122646880E+03  0.12653984653E+04  0.12001044107E+04 0.  0.
        4    1    3    3  502    0  0.39762968648E+03 -0.42462822687E+03  0.35573129356E+03  0.68188332194E+03  0.12699999809E+01 0. -1.
       -4    1    3    3    0  502 -0.39762968648E+03  0.42462822687E+03  0.45495175238E+02  0.58351514333E+03  0.12699999809E+01 0.  1.
</event>
<event>
 5   0  0.5447807E-05  0.1200925E+04  0.7818609E-02  0.9112047E-01
       -1   -1    0    0    0  501  0.00000000000E+00  0.00000000000E+00  0.49669678223E+03  0.49669678225E+03  0.50400001928E-02 0. -1.
        1   -1    0    0  501    0  0.00000000000E+00  0.00000000000E+00 -0.72590589315E+03  0.72590589317E+03  0.50400001928E-02 0.  1.
    10030    2    1    2    0    0  0.00000000000E+00  0.00000000000E+00 -0.22920911092E+03  0.12226026754E+04  0.12009248459E+04 0.  0.
        2    1    3    3  502    0 -0.50218473795E+03  0.60625544527E+02  0.21479456139E+03  0.54954678717E+03  0.25500000920E-02 0. -1.
       -2    1    3    3    0  502  0.50218473795E+03 -0.60625544527E+02 -0.44400367231E+03  0.67305588825E+03  0.25500000920E-02 0.  1.
</event>
<event>
 5   0  0.3839750E-05  0.1200262E+04  0.7818609E-02  0.9112627E-01
        3   -1    0    0  501    0  0.00000000000E+00  0.00000000000E+00  0.17490428578E+04  0.17490428607E+04  0.10100000352E+00 0.  1.
       -3   -1    0    0    0  501  0.00000000000E+00  0.00000000000E+00 -0.20591688443E+03  0.20591690920E+03  0.10100000352E+00 0. -1.
    10030    2    1    2    0    0  0.00000000000E+00  0.00000000000E+00  0.15431259734E+04  0.19549597699E+04  0.12002624431E+04 0.  0.
        2    1    3    3  502    0  0.41195514378E+03 -0.21624325397E+03  0.13889732133E+04  0.14648258507E+04  0.25500000920E-02 0.  1.
       -2    1    3    3    0  502 -0.41195514378E+03  0.21624325397E+03  0.15415276004E+03  0.49013391926E+03  0.25500000920E-02 0. -1.
</event>
<event>
 5   0  0.1012657E-04  0.1200375E+04  0.7818609E-02  0.9112528E-01
        2   -1    0    0  501    0  0.00000000000E+00  0.00000000000E+00  0.23869414112E+04  0.23869414112E+04  0.25500000920E-02 0. -1.
       -2   -1    0    0    0  501  0.00000000000E+00  0.00000000000E+00 -0.15091496238E+03  0.15091496240E+03  0.25500000920E-02 0.  1.
    10030    2    1    2    0    0  0.00000000000E+00  0.00000000000E+00  0.22360264488E+04  0.25378563736E+04  0.12003752301E+04 0.  0.
        1    1    3    3  502    0 -0.26694584038E+03  0.42619047834E+03  0.42537885150E+03  0.65866954754E+03  0.50400001928E-02 0.  1.
       -1    1    3    3    0  502  0.26694584038E+03 -0.42619047834E+03  0.18106475973E+04  0.18791868260E+04  0.50400001928E-02 0. -1.
</event>
<event>
 5   0  0.9941209E-05  0.1200180E+04  0.7818609E-02  0.9112699E-01
       -2   -1    0    0    0  501  0.00000000000E+00  0.00000000000E+00  0.57557124013E+03  0.57557124013E+03  0.25500000920E-02 0. -1.
        2   -1    0    0  501    0  0.00000000000E+00  0.00000000000E+00 -0.62565343777E+03  0.62565343778E+03  0.25500000920E-02 0.  1.
    10030    2    1    2    0    0  0.00000000000E+00  0.00000000000E+00 -0.50082197643E+02  0.12012246779E+04  0.12001801949E+04 0.  0.
        2    1    3    3  502    0 -0.38082625227E+03 -0.25217354664E+03 -0.41459440610E+03  0.61685383489E+03  0.25500000920E-02 0.  1.
       -2    1    3    3    0  502  0.38082625227E+03  0.25217354664E+03  0.36451220846E+03  0.58437084302E+03  0.25500000920E-02 0. -1.
</event>
<event>
 5   0  0.5620246E-05  0.1199911E+04  0.7818609E-02  0.9112934E-01
       -1   -1    0    0    0  501  0.00000000000E+00  0.00000000000E+00  0.66722058864E+03  0.66722058866E+03  0.50400001928E-02 0.  1.
        1   -1    0    0  501    0  0.00000000000E+00  0.00000000000E+00 -0.53947175333E+03  0.53947175335E+03  0.50400001928E-02 0. -1.
    10030    2    1    2    0    0  0.00000000000E+00  0.00000000000E+00  0.12774883532E+03  0.12066923420E+04  0.11999110981E+04 0.  0.
        1    1    3    3  502    0  0.77005205829E+02 -0.52668339799E+03 -0.21449574967E+03  0.57387597100E+03  0.50400001928E-02 0. -1.
       -1    1    3    3    0  502 -0.77005205829E+02  0.52668339799E+03  0.34224458499E+03  0.63281637101E+03  0.50400001928E-02 0.  1.
</event>
<event>
 5   0  0.5745487E-05  0.1199740E+04  0.7818609E-02  0.9113084E-01
       -1   -1    0    0    0  501  0.00000000000E+00  0.00000000000E+00  0.17661251840E+03  0.17661251847E+03  0.50400001928E-02 0. -1.
        1   -1    0    0  501    0  0.00000000000E+00  0.00000000000E+00 -0.20374785116E+04  0.20374785116E+04  0.50400001928E-02 0.  1.
    10030    2    1    2    0    0  0.00000000000E+00  0.00000000000E+00 -0.18608659932E+04  0.22140910301E+04  0.11997403239E+04 0.  0.
        3    1    3    3  502    0  0.31301453919E+03  0.38373122753E+03 -0.30564643165E+03  0.58193428161E+03  0.10100000352E+00 0. -1.
       -3    1    3    3    0  502 -0.31301453919E+03 -0.38373122753E+03 -0.15552195615E+04  0.16321567484E+04  0.10100000352E+00 0.  1.
</event>
<event>
 5   0  0.5732931E-05  0.1201143E+04  0.7818609E-02  0.9111857E-01
        1   -1    0    0  501    0  0.00000000000E+00  0.00000000000E+00  0.60016543171E+03  0.60016543174E+03  0.50400001928E-02 0. -1.
       -1   -1    0    0    0  501  0.00000000000E+00  0.00000000000E+00 -0.60097743717E+03  0.60097743719E+03  0.50400001928E-02 0.  1.
    10030    2    1    2    0    0  0.00000000000E+00  0.00000000000E+00 -0.81200545734E+00  0.12011428689E+04  0.12011425945E+04 0.  0.
        4    1    3    3  502    0  0.28164360701E+03  0.35635394188E+03  0.39249740454E+03  0.60030582101E+03  0.12699999809E+01 0.  1.
       -4    1    3    3    0  502 -0.28164360701E+03 -0.35635394188E+03 -0.39330941000E+03  0.60083704792E+03  0.12699999809E+01 0. -1.
</event>
<event>
 5   0  0.3839750E-05  0.1199067E+04  0.7818609E-02  0.9113673E-01
        3   -1    0    0  501    0  0.00000000000E+00  0.00000000000E+00  0.21627944604E+03  0.21627946962E+03  0.10100000352E+00 0. -1.
       -3   -1    0    0    0  501  0.00000000000E+00  0.00000000000E+00 -0.16619269298E+04  0.16619269329E+04  0.10100000352E+00 0.  1.
    10030    2    1    2    0    0  0.00000000000E+00  0.00000000000E+00 -0.14456474838E+04  0.18782064025E+04  0.11990674056E+04 0.  0.
        1    1    3    3  502    0  0.36520855921E+03 -0.47545545370E+03 -0.72649075501E+03  0.94192568566E+03  0.50400001928E-02 0. -1.
       -1    1    3    3    0  502 -0.36520855921E+03  0.47545545370E+03 -0.71915672879E+03  0.93628071686E+03  0.50400001928E-02 0.  1.
</event>
<event>
 5   0  0.5620246E-05  0.1200615E+04  0.7818609E-02  0.9112319E-01
        1   -1    0    0  501    0  0.00000000000E+00  0.00000000000E+00  0.48068044970E+03  0.48068044973E+03  0.50400001928E-02 0. -1.
       -1   -1    0    0    0  501  0.00000000000E+00  0.00000000000E+00 -0.74970590614E+03  0.74970590616E+03  0.50400001928E-02 0.  1.
    10030    2    1    2    0    0  0.00000000000E+00  0.00000000000E+00 -0.26902545644E+03  0.12303863559E+04  0.12006147961E+04 0.  0.
        1    1    3    3  502    0 -0.72275568151E+02 -0.99756879672E+02 -0.73661365495E+03  0.74684326969E+03  0.50400001928E-02 0.  1.
       -1    1    3    3    0  502  0.72275568151E+02  0.99756879672E+02  0.46758819851E+03  0.48354308619E+03  0.50400001928E-02 0. -1.
</event>
<event>
 5   0  0.1023063E-04  0.1200972E+04  0.7818609E-02  0.9112007E-01
       -2   -1    0    0    0  501  0.00000000000E+00  0.00000000000E+00  0.29543460431E+03  0.29543460432E+03  0.25500000920E-02 0.  1.
        2   -1    0    0  501    0  0.00000000000E+00  0.00000000000E+00 -0.12205177585E+04  0.12205177585E+04  0.25500000920E-02 0. -1.
    10030    2    1    2    0    0  0.00000000000E+00  0.00000000000E+00 -0.92508315418E+03  0.15159523628E+04  0.12009715751E+04 0.  0.
        3    1    3    3  502    0  0.31368845664E+03  0.34009953614E+03 -0.94570484808E+03  0.10528180337E+04  0.10100000352E+00 0. -1.
       -3    1    3    3    0  502 -0.31368845664E+03 -0.34009953614E+03  0.20621693893E+02  0.46313432908E+03  0.10100000352E+00 0.  1.
</event>
<event>
 5   0  0.5447807E-05  0.1193151E+04  0.7818609E-02  0.9118873E-01
       -1   -1    0    0    0  501  0.00000000000E+00  0.00000000000E+00  0.24461651717E+03  0.24461651722E+03  0.50400001928E-02 0. -1.
        1   -1    0    0  501    0  0.00000000000E+00  0.00000000000E+00 -0.14549388005E+04  0.14549388005E+04  0.50400001928E-02 0.  1.
    10030    2    1    2    0    0  0.00000000000E+00  0.00000000000E+00 -0.12103222833E+04  0.16995553177E+04  0.11931505557E+04 0.  0.
        2    1    3    3  502    0 -0.57541104326E+03  0.14758049675E+03 -0.52682816660E+03  0.79399356978E+03  0.25500000920E-02 0.  1.
       -2    1    3    3    0  502  0.57541104326E+03 -0.14758049675E+03 -0.68349411669E+03  0.90556174791E+03  0.25500000920E-02 0. -1.
</event>
<event>
 5   0  0.1012657E-04  0.1199763E+04  0.7818609E-02  0.9113064E-01
        2   -1    0    0  501    0  0.00000000000E+00  0.00000000000E+00  0.61347140474E+03  0.61347140475E+03  0.25500000920E-02 0.  1.
       -2   -1    0    0    0  501  0.00000000000E+00  0.00000000000E+00 -0.58659265806E+03  0.58659265806E+03  0.25500000920E-02 0. -1.
    10030    2    1    2    0    0  0.00000000000E+00  0.00000000000E+00  0.26878746682E+02  0.12000640628E+04  0.11997630132E+04 0.  0.
        1    1    3    3  502    0  0.30093519622E+03  0.13836880049E+03 -0.48683600858E+03  0.58882698354E+03  0.50400001928E-02 0. -1.
       -1    1    3    3    0  502 -0.30093519622E+03 -0.13836880049E+03  0.51371475526E+03  0.61123707927E+03  0.50400001928E-02 0.  1.
</event>
<event>
 5   0  0.5447807E-05  0.1200955E+04  0.7818609E-02  0.9112021E-01
        1   -1    0    0  501    0  0.00000000000E+00  0.00000000000E+00  0.12161814572E+04  0.12161814572E+04  0.50400001928E-02 0. -1.
       -1   -1    0    0    0  501  0.00000000000E+00  0.00000000000E+00 -0.29647996822E+03  0.29647996826E+03  0.50400001928E-02 0.  1.
    10030    2    1    2    0    0  0.00000000000E+00  0.00000000000E+00  0.91970148899E+03  0.15126614255E+04  0.12009553527E+04 0.  0.
        2    1    3    3  502    0 -0.16087987801E+03  0.27180988392E+03  0.11030971956E+04  0.11474259763E+04  0.25500000920E-02 0. -1.
       -2    1    3    3    0  502  0.16087987801E+03 -0.27180988392E+03 -0.18339570659E+03  0.36523544920E+03  0.25500000920E-02 0.  1.
</event>
<event>
 5   0  0.5745487E-05  0.1200682E+04  0.7818609E-02  0.9112260E-01
       -1   -1    0    0    0  501  0.00000000000E+00  0.00000000000E+00  0.48492743959E+03  0.48492743961E+03  0.50400001928E-02 0.  1.
        1   -1    0    0  501    0  0.00000000000E+00  0.00000000000E+00 -0.74322317061E+03  0.74322317062E+03  0.50400001928E-02 0. -1.
    10030    2    1    2    0    0  0.00000000000E+00  0.00000000000E+00 -0.25829573102E+03  0.12281506102E+04  0.12006819882E+04 0.  0.
        3    1    3    3  502    0  0.25130186419E+03 -0.27694641024E+03  0.35123157055E+03  0.51304538536E+03  0.10100000352E+00 0.  1.
       -3    1    3    3    0  502 -0.25130186419E+03  0.27694641024E+03 -0.60952730157E+03  0.71510522488E+03  0.10100000352E+00 0. -1.
</event>
<event>
 5   0  0.9838215E-05  0.1198257E+04  0.7818609E-02  0.9114383E-01
       -2   -1    0    0    0  501  0.00000000000E+00  0.00000000000E+00  0.12602609967E+04  0.12602609967E+04  0.25500000920E-02 0.  1.
        2   -1    0    0  501    0  0.00000000000E+00  0.00000000000E+00 -0.28482597918E+03  0.28482597919E+03  0.25500000920E-02 0. -1.
    10030    2    1    2    0    0  0.00000000000E+00  0.00000000000E+00  0.97543501749E+03  0.15450869759E+04  0.11982571884E+04 0.  0.
        4    1    3    3  502    0 -0.54194698150E+03  0.25359223662E+03  0.52720709750E+03  0.79747381761E+03  0.12699999809E+01 0. -1.
       -4    1    3    3    0  502  0.54194698150E+03 -0.25359223662E+03  0.44822791999E+03  0.74761315825E+03  0.12699999809E+01 0.  1.
</event>
<event>
 5   0  0.5732931E-05  0.1199820E+04  0.7818609E-02  0.9113014E-01
        1   -1    0    0  501    0  0.00000000000E+00  0.00000000000E+00  0.10144847954E+04  0.10144847954E+04  0.50400001928E-02 0.  1.
       -1   -1    0    0    0  501  0.00000000000E+00  0.00000000000E+00 -0.35475322047E+03  0.35475322051E+03  0.50400001928E-02 0. -1.
    10030    2    1    2    0    0  0.00000000000E+00  0.00000000000E+00  0.65973157490E+03  0.13692380159E+04  0.11998195670E+04 0.  0.
        4    1    3    3  502    0 -0.95165191934E+02  0.56709535910E+03  0.13473479286E+03  0.59060023482E+03  0.12699999809E+01 0. -1.
       -4    1    3    3    0  502  0.95165191934E+02 -0.56709535910E+03  0.52499678204E+03  0.77863778107E+03  0.12699999809E+01 0.  1.
</event>
<event>
 5   0  0.9941209E-05  0.1200101E+04  0.7818609E-02  0.9112768E-01
        2   -1    0    0  501    0  0.00000000000E+00  0.00000000000E+00  0.33964633239E+03  0.33964633240E+03  0.25500000920E-02 0. -1.
       -2   -1    0    0    0  501  0.00000000000E+00  0.00000000000E+00 -0.10601041386E+04  0.10601041386E+04  0.25500000920E-02 0.  1.
    10030    2    1    2    0    0  0.00000000000E+00  0.00000000000E+00 -0.72045780623E+03  0.13997504710E+04  0.12001008002E+04 0.  0.
        2    1    3    3  502    0 -0.61047296730E+02  0.27535277550E+03  0.25751803350E+03  0.38191813389E+03  0.25500000920E-02 0. -1.
       -2    1    3    3    0  502  0.61047296730E+02 -0.27535277550E+03 -0.97797583973E+03  0.10178323371E+04  0.25500000920E-02 0.  1.
</event>
<event>
 5   0  0.5745487E-05  0.1200330E+04  0.7818609E-02  0.9112568E-01
       -1   -1    0    0    0  501  0.00000000000E+00  0.00000000000E+00  0.12360373037E+04  0.12360373037E+04  0.50400001928E-02 0. -1.
        1   -1    0    0  501    0  0.00000000000E+00  0.00000000000E+00 -0.29141368352E+03  0.29141368356E+03  0.50400001928E-02 0.  1.
    10030    2    1    2    0    0  0.00000000000E+00  0.00000000000E+00  0.94462362018E+03  0.15274509873E+04  0.12003302607E+04 0.  0.
        3    1    3    3  502    0 -0.37017526255E+03  0.27548068969E+03  0.96066800727E+03  0.10657402900E+04  0.10100000352E+00 0. -1.
       -3    1    3    3    0  502  0.37017526255E+03 -0.27548068969E+03 -0.16044387085E+02  0.46171069725E+03  0.10100000352E+00 0.  1.
</event>
<event>
 5   0  0.1023063E-04  0.1199645E+04  0.7818609E-02  0.9113167E-01
        2   -1    0    0  501    0  0.00000000000E+00  0.00000000000E+00  0.41204477395E+03  0.41204477396E+03  0.25500000920E-02 0.  1.
       -2   -1    0    0    0  501  0.00000000000E+00  0.00000000000E+00 -0.87317443903E+03  0.87317443903E+03  0.25500000920E-02 0. -1.
    10030    2    1    2    0    0  0.00000000000E+00  0.00000000000E+00 -0.46112966508E+03  0.12852192130E+04  0.11996448880E+04 0.  0.
        3    1    3    3  502    0 -0.27750047419E+03 -0.51868279600E+03 -0.10494630162E+03  0.59753836067E+03  0.10100000352E+00 0.  1.
       -3    1    3    3    0  502  0.27750047419E+03  0.51868279600E+03 -0.35618336345E+03  0.68768085232E+03  0.10100000352E+00 0. -1.
</event>
<event>
 5   0  0.5447807E-05  0.1200696E+04  0.7818609E-02  0.9112248E-01
        1   -1    0    0  501    0  0.00000000000E+00  0.00000000000E+00  0.51133599253E+03  0.51133599255E+03  0.50400001928E-02 0. -1.
       -1   -1    0    0    0  501  0.00000000000E+00  0.00000000000E+00 -0.70485475664E+03  0.70485475666E+03  0.50400001928E-02 0.  1.
    10030    2    1    2    0    0  0.00000000000E+00  0.00000000000E+00 -0.19351876412E+03  0.12161907492E+04  0.12006958093E+04 0.  0.
        2    1    3    3  502    0 -0.50244212938E+02 -0.22751132214E+03  0.46367254623E+03  0.51892014103E+03  0.25500000920E-02 0. -1.
       -2    1    3    3    0  502  0.50244212938E+02  0.22751132214E+03 -0.65719131034E+03  0.69727060818E+03  0.25500000920E-02 0.  1.
</event>
<event>
 5   0  0.9941209E-05  0.1200365E+04  0.7818609E-02  0.9112537E-01
        2   -1    0    0  501    0  0.00000000000E+00  0.00000000000E+00  0.17039938978E+04  0.17039938978E+04  0.25500000920E-02 0. -1.
       -2   -1    0    0    0  501  0.00000000000E+00  0.00000000000E+00 -0.21139699608E+03  0.21139699610E+03  0.25500000920E-02 0.  1.
    10030    2    1    2    0    0  0.00000000000E+00  0.00000000000E+00  0.14925969017E+04  0.19153908939E+04  0.12003652633E+04 0.  0.
        2    1    3    3  502    0  0.89603345620E+01 -0.46402909668E+03  0.13906998154E+03  0.48450361189E+03  0.25500000920E-02 0.  1.
       -2    1    3    3    0  502 -0.89603345620E+01  0.46402909668E+03  0.13535269202E+04  0.14308872820E+04  0.25500000920E-02 0. -1.
</event>
<event>
 5   0  0.1012657E-04  0.1199914E+04  0.7818609E-02  0.9112932E-01
        2   -1    0    0  501    0  0.00000000000E+00  0.00000000000E+00  0.62924627807E+03  0.62924627807E+03  0.25500000920E-02 0. -1.
       -2   -1    0    0    0  501  0.00000000000E+00  0.00000000000E+00 -0.57203078198E+03  0.57203078198E+03  0.25500000920E-02 0.  1.
    10030    2    1    2    0    0  0.00000000000E+00  0.00000000000E+00  0.57215496090E+02  0.12012770601E+04  0.11999137311E+04 0.  0.
        1    1    3    3  502    0  0.96432071086E+01  0.62582486614E+02  0.62589157358E+03  0.62908649721E+03  0.50400001928E-02 0. -1.
       -1    1    3    3    0  502 -0.96432071086E+01 -0.62582486614E+02 -0.56867607749E+03  0.57219056284E+03  0.50400001928E-02 0.  1.
</event>
<event>
 5   0  0.5745487E-05  0.1200821E+04  0.7818609E-02  0.9112138E-01
       -1   -1    0    0    0  501  0.00000000000E+00  0.00000000000E+00  0.22397509927E+03  0.22397509932E+03  0.50400001928E-02 0.  1.
        1   -1    0    0  501    0  0.00000000000E+00  0.00000000000E+00 -0.16095223306E+04  0.16095223306E+04  0.50400001928E-02 0. -1.
    10030    2    1    2    0    0  0.00000000000E+00  0.00000000000E+00 -0.13855472313E+04  0.18334974299E+04  0.12008212587E+04 0.  0.
        3    1    3    3  502    0  0.30453924475E+03 -0.44814617184E+03 -0.29780763579E+03  0.61827869207E+03  0.10100000352E+00 0.  1.
       -3    1    3    3    0  502 -0.30453924475E+03  0.44814617184E+03 -0.10877395955E+04  0.12152187379E+04  0.10100000352E+00 0. -1.
</event>
<event>
 5   0  0.5447807E-05  0.1198291E+04  0.7818609E-02  0.9114354E-01
       -1   -1    0    0    0  501  0.00000000000E+00  0.00000000000E+00  0.54719307363E+03  0.54719307365E+03  0.50400001928E-02 0.  1.
        1   -1    0    0  501    0  0.00000000000E+00  0.00000000000E+00 -0.65603036756E+03  0.65603036758E+03  0.50400001928E-02 0. -1.
    10030    2    1    2    0    0  0.00000000000E+00  0.00000000000E+00 -0.10883729394E+03  0.12032234412E+04  0.11982909050E+04 0.  0.
        2    1    3    3  502    0 -0.13702118607E+03 -0.55955271853E+03 -0.21972078320E+03  0.61656408654E+03  0.25500000920E-02 0.  1.
       -2    1    3    3    0  502  0.13702118607E+03  0.55955271853E+03  0.11088348926E+03  0.58665935468E+03  0.25500000920E-02 0. -1.
</event>
<event>
 5   0  0.9941209E-05  0.1201144E+04  0.7818609E-02  0.9111855E-01
       -2   -1    0    0    0  501  0.00000000000E+00  0.00000000000E+00  0.22398503591E+03  0.22398503592E+03  0.25500000920E-02 0. -1.
        2   -1    0    0  501    0  0.00000000000E+00  0.00000000000E+00 -0.16103174136E+04  0.16103174136E+04  0.25500000920E-02 0.  1.
    10030    2    1    2    0    0  0.00000000000E+00  0.00000000000E+00 -0.13863323777E+04  0.18343024495E+04  0.12011444605E+04 0.  0.
        2    1    3    3  502    0  0.22233022561E+03  0.41801172281E+03 -0.12890811980E+03  0.49069525470E+03  0.25500000920E-02 0. -1.
       -2    1    3    3    0  502 -0.22233022561E+03 -0.41801172281E+03 -0.12574242579E+04  0.13436071948E+04  0.25500000920E-02 0.  1.
</event>
<event>
 5   0  0.9838215E-05  0.1200058E+04  0.7818609E-02  0.9112805E-01
        2   -1    0    0  501    0  0.00000000000E+00  0.00000000000E+00  0.13199217104E+04  0.13199217104E+04  0.25500000920E-02 0. -1.
       -2   -1    0    0    0  501  0.00000000000E+00  0.00000000000E+00 -0.27277000455E+03  0.27277000456E+03  0.25500000920E-02 0.  1.
    10030    2    1    2    0    0  0.00000000000E+00  0.00000000000E+00  0.10471517059E+04  0.15926917150E+04  0.12000584169E+04 0.  0.
        4    1    3    3  502    0  0.43465755732E+03  0.28781978292E+03  0.91787524011E+03  0.10555870352E+04  0.12699999809E+01 0. -1.
       -4    1    3    3    0  502 -0.43465755732E+03 -0.28781978292E+03  0.12927646579E+03  0.53710467981E+03  0.12699999809E+01 0.  1.
</event>
<event>
 5   0  0.1023063E-04  0.1199309E+04  0.7818609E-02  0.9113462E-01
        2   -1    0    0  501    0  0.00000000000E+00  0.00000000000E+00  0.63270324151E+03  0.63270324152E+03  0.25500000920E-02 0.  1.
       -2   -1    0    0    0  501  0.00000000000E+00  0.00000000000E+00 -0.56833200891E+03  0.56833200892E+03  0.25500000920E-02 0. -1.
    10030    2    1    2    0    0  0.00000000000E+00  0.00000000000E+00  0.64371232603E+02  0.12010352504E+04  0.11993089749E+04 0.  0.
        3    1    3    3  502    0  0.30963209317E+03  0.50768517739E+03 -0.45186330156E+02  0.59637076312E+03  0.10100000352E+00 0.  1.
       -3    1    3    3    0  502 -0.30963209317E+03 -0.50768517739E+03  0.10955756276E+03  0.60466448732E+03  0.10100000352E+00 0. -1.
</event>
<event>
 5   0  0.1004006E-04  0.1200163E+04  0.7818609E-02  0.9112713E-01
       -2   -1    0    0    0  501  0.00000000000E+00  0.00000000000E+00  0.18148652852E+03  0.18148652854E+03  0.25500000920E-02 0.  1.
        2   -1    0    0  501    0  0.00000000000E+00  0.00000000000E+00 -0.19841587421E+04  0.19841587421E+04  0.25500000920E-02 0. -1.
    10030    2    1    2    0    0  0.00000000000E+00  0.00000000000E+00 -0.18026722136E+04  0.21656452707E+04  0.12001634591E+04 0.  0.
        5    1    3    3  502    0  0.21705804230E+03  0.55642128195E+03 -0.79678403428E+03  0.99579401686E+03  0.46999998093E+01 0. -1.
       -5    1    3    3    0  502 -0.21705804230E+03 -0.55642128195E+03 -0.10058881793E+04  0.11698512538E+04  0.46999998093E+01 0.  1.
</event>
<event>
 5   0  0.5732931E-05  0.1200227E+04  0.7818609E-02  0.9112658E-01
       -1   -1    0    0    0  501  0.00000000000E+00  0.00000000000E+00  0.68067944095E+03  0.68067944097E+03  0.50400001928E-02 0. -1.
        1   -1    0    0  501    0  0.00000000000E+00  0.00000000000E+00 -0.52908343197E+03  0.52908343199E+03  0.50400001928E-02 0.  1.
    10030    2    1    2    0    0  0.00000000000E+00  0.00000000000E+00  0.15159600898E+03  0.12097628730E+04  0.12002270031E+04 0.  0.
        4    1    3    3  502    0 -0.35316478446E+02  0.21526060900E+03  0.63930169152E+03  0.67549437387E+03  0.12699999809E+01 0. -1.
       -4    1    3    3    0  502  0.35316478446E+02 -0.21526060900E+03 -0.48770568255E+03  0.53426849909E+03  0.12699999809E+01 0.  1.
</event>
<event>
 5   0  0.5745487E-05  0.1199969E+04  0.7818609E-02  0.9112884E-01
       -1   -1    0    0    0  501  0.00000000000E+00  0.00000000000E+00  0.21496907925E+03  0.21496907931E+03  0.50400001928E-02 0.  1.
        1   -1    0    0  501    0  0.00000000000E+00  0.00000000000E+00 -0.16745729458E+04  0.16745729458E+04  0.50400001928E-02 0. -1.
    10030    2    1    2    0    0  0.00000000000E+00  0.00000000000E+00 -0.14596038666E+04  0.18895420251E+04  0.11999690069E+04 0.  0.
        3    1    3    3  502    0 -0.19808278757E+03  0.53369711446E+03 -0.43139680465E+03  0.71426368659E+03  0.10100000352E+00 0.  1.
       -3    1    3    3    0  502  0.19808278757E+03 -0.53369711446E+03 -0.10282070619E+04  0.11752783386E+04  0.10100000352E+00 0. -1.
</event>
<event>
 5   0  0.5620246E-05  0.1200304E+04  0.7818609E-02  0.9112591E-01
        1   -1    0    0  501    0  0.00000000000E+00  0.00000000000E+00  0.10607151808E+04  0.10607151808E+04  0.50400001928E-02 0.  1.
       -1   -1    0    0    0  501  0.00000000000E+00  0.00000000000E+00 -0.33956543774E+03  0.33956543777E+03  0.50400001928E-02 0. -1.
    10030    2    1    2    0    0  0.00000000000E+00  0.00000000000E+00  0.72114974306E+03  0.14002806186E+04  0.12003036528E+04 0.  0.
        1    1    3    3  502    0  0.81648503406E+01  0.17554608410E+03  0.10300265527E+04  0.10449104229E+04  0.50400001928E-02 0.  1.
       -1    1    3    3    0  502 -0.81648503406E+01 -0.17554608410E+03 -0.30887680968E+03  0.35537019572E+03  0.50400001928E-02 0. -1.
</event>
<event>
 5   0  0.9838215E-05  0.1203032E+04  0.7818609E-02  0.9110207E-01
       -2   -1    0    0    0  501  0.00000000000E+00  0.00000000000E+00  0.35124413418E+03  0.35124413419E+03  0.25500000920E-02 0. -1.
        2   -1    0    0  501    0  0.00000000000E+00  0.00000000000E+00 -0.10301144595E+04  0.10301144595E+04  0.25500000920E-02 0.  1.
    10030    2    1    2    0    0  0.00000000000E+00  0.00000000000E+00 -0.67887032529E+03  0.13813585937E+04  0.12030322713E+04 0.  0.
        4    1    3    3  502    0  0.29129609391E+03 -0.13018969691E+03  0.24606936718E+03  0.40293239864E+03  0.12699999809E+01 0. -1.
       -4    1    3    3    0  502 -0.29129609391E+03  0.13018969691E+03 -0.92493969247E+03  0.97842619503E+03  0.12699999809E+01 0.  1.
</event>
<event>
 5   0  0.9838215E-05  0.1193755E+04  0.7818609E-02  0.9118341E-01
        2   -1    0    0  501    0  0.00000000000E+00  0.00000000000E+00  0.30229495315E+03  0.30229495316E+03  0.25500000920E-02 0. -1.
       -2   -1    0    0    0  501  0.00000000000E+00  0.00000000000E+00 -0.11785266486E+04  0.11785266486E+04  0.25500000920E-02 0.  1.
    10030    2    1    2    0    0  0.00000000000E+00  0.00000000000E+00 -0.87623169546E+03  0.14808216018E+04  0.11937548459E+04 0.  0.
        4    1    3    3  502    0  0.52054346357E+03  0.24838475998E+03 -0.24754839207E+03  0.62764823410E+03  0.12699999809E+01 0.  1.
       -4    1    3    3    0  502 -0.52054346357E+03 -0.24838475998E+03 -0.62868330339E+03  0.85317336768E+03  0.12699999809E+01 0. -1.
</event>
<event>
 5   0  0.5625746E-05  0.1191135E+04  0.7818609E-02  0.9120651E-01
        1   -1    0    0  501    0  0.00000000000E+00  0.00000000000E+00  0.30933979451E+03  0.30933979455E+03  0.50400001928E-02 0. -1.
       -1   -1    0    0    0  501  0.00000000000E+00  0.00000000000E+00 -0.11466385436E+04  0.11466385436E+04  0.50400001928E-02 0.  1.
    10030    2    1    2    0    0  0.00000000000E+00  0.00000000000E+00 -0.83729874906E+03  0.14559783381E+04  0.11911354776E+04 0.  0.
        5    1    3    3  502    0  0.36960637866E+03 -0.44233470406E+03 -0.60163393554E+03  0.83321926764E+03  0.46999998093E+01 0.  1.
       -5    1    3    3    0  502 -0.36960637866E+03  0.44233470406E+03 -0.23566481352E+03  0.62275907050E+03  0.46999998093E+01 0. -1.
</event>
<event>
 5   0  0.9941209E-05  0.1199890E+04  0.7818609E-02  0.9112953E-01
       -2   -1    0    0    0  501  0.00000000000E+00  0.00000000000E+00  0.71750985916E+03  0.71750985916E+03  0.25500000920E-02 0. -1.
        2   -1    0    0  501    0  0.00000000000E+00  0.00000000000E+00 -0.50164294625E+03  0.50164294626E+03  0.25500000920E-02 0.  1.
    10030    2    1    2    0    0  0.00000000000E+00  0.00000000000E+00  0.21586691291E+03  0.12191528054E+04  0.11998895945E+04 0.  0.
        2    1    3    3  502    0 -0.10732411413E+03 -0.79266019285E+02 -0.48637762133E+03  0.50434587123E+03  0.25500000920E-02 0.  1.
       -2    1    3    3    0  502  0.10732411413E+03  0.79266019285E+02  0.70224453424E+03  0.71480693419E+03  0.25500000920E-02 0. -1.
</event>
<event>
 5   0  0.5447807E-05  0.1200666E+04  0.7818609E-02  0.9112274E-01
        1   -1    0    0  501    0  0.00000000000E+00  0.00000000000E+00  0.74918364774E+03  0.74918364776E+03  0.50400001928E-02 0. -1.
       -1   -1    0    0    0  501  0.00000000000E+00  0.00000000000E+00 -0.48105632620E+03  0.48105632623E+03  0.50400001928E-02 0.  1.
    10030    2    1    2    0    0  0.00000000000E+00  0.00000000000E+00  0.26812732154E+03  0.12302399740E+04  0.12006657041E+04 0.  0.
        2    1    3    3  502    0  0.13857898715E+03  0.15491577140E+03 -0.44301089111E+03  0.48934822116E+03  0.25500000920E-02 0.  1.
       -2    1    3    3    0  502 -0.13857898715E+03 -0.15491577140E+03  0.71113821265E+03  0.74089175282E+03  0.25500000920E-02 0. -1.
</event>
<event>
 5   0  0.5745487E-05  0.1199688E+04  0.7818609E-02  0.9113130E-01
        1   -1    0    0  501    0  0.00000000000E+00  0.00000000000E+00  0.31755498598E+03  0.31755498602E+03  0.50400001928E-02 0.  1.
       -1   -1    0    0    0  501  0.00000000000E+00  0.00000000000E+00 -0.11330720306E+04  0.11330720306E+04  0.50400001928E-02 0. -1.
    10030    2    1    2    0    0  0.00000000000E+00  0.00000000000E+00 -0.81551704460E+03  0.14506270166E+04  0.11996877474E+04 0.  0.
        3    1    3    3  502    0 -0.49908849343E+03 -0.31300375323E+03 -0.54430374172E+03  0.80207683377E+03  0.10100000352E+00 0.  1.
       -3    1    3    3    0  502  0.49908849343E+03  0.31300375323E+03 -0.27121330288E+03  0.64855018285E+03  0.10100000352E+00 0. -1.
</event>
<event>
 5   0  0.1004006E-04  0.1199652E+04  0.7818609E-02  0.9113161E-01
       -2   -1    0    0    0  501  0.00000000000E+00  0.00000000000E+00  0.37906711128E+03  0.37906711129E+03  0.25500000920E-02 0.  1.
        2   -1    0    0  501    0  0.00000000000E+00  0.00000000000E+00 -0.94914923453E+03  0.94914923453E+03  0.25500000920E-02 0. -1.
    10030    2    1    2    0    0  0.00000000000E+00  0.00000000000E+00 -0.57008212325E+03  0.13282163458E+04  0.11996520471E+04 0.  0.
        5    1    3    3  502    0 -0.44233322503E+02 -0.48259133093E+03 -0.67635594016E+03  0.83206395626E+03  0.46999998093E+01 0. -1.
       -5    1    3    3    0  502  0.44233322503E+02  0.48259133093E+03  0.10627381692E+03  0.49615238956E+03  0.46999998093E+01 0.  1.
</event>
<event>
 5   0  0.1012657E-04  0.1200003E+04  0.7818609E-02  0.9112854E-01
        2   -1    0    0  501    0  0.00000000000E+00  0.00000000000E+00  0.14273364257E+04  0.14273364257E+04  0.25500000920E-02 0. -1.
       -2   -1    0    0    0  501  0.00000000000E+00  0.00000000000E+00 -0.25221937158E+03  0.25221937160E+03  0.25500000920E-02 0.  1.
    10030    2    1    2    0    0  0.00000000000E+00  0.00000000000E+00  0.11751170541E+04  0.16795557973E+04  0.12000031606E+04 0.  0.
        1    1    3    3  502    0 -0.15859203248E+03 -0.34517744991E+03 -0.62481546302E+02  0.38497123055E+03  0.50400001928E-02 0.  1.
       -1    1    3    3    0  502  0.15859203248E+03  0.34517744991E+03  0.12375986004E+04  0.12945845667E+04  0.50400001928E-02 0. -1.
</event>
<event>
 5   0  0.5732931E-05  0.1200565E+04  0.7818609E-02  0.9112362E-01
        1   -1    0    0  501    0  0.00000000000E+00  0.00000000000E+00  0.25759466160E+04  0.25759466161E+04  0.50400001928E-02 0.  1.
       -1   -1    0    0    0  501  0.00000000000E+00  0.00000000000E+00 -0.13988618846E+03  0.13988618855E+03  0.50400001928E-02 0. -1.
    10030    2    1    2    0    0  0.00000000000E+00  0.00000000000E+00  0.24360604276E+04  0.27158328046E+04  0.12005654566E+04 0.  0.
        4    1    3    3  502    0 -0.67529164817E+02  0.45506425865E+03  0.20903264848E+04  0.21403527965E+04  0.12699999809E+01 0.  1.
       -4    1    3    3    0  502  0.67529164817E+02 -0.45506425865E+03  0.34573394279E+03  0.57548000808E+03  0.12699999809E+01 0. -1.
</event>
<event>
 5   0  0.5732931E-05  0.1199245E+04  0.7818609E-02  0.9113518E-01
       -1   -1    0    0    0  501  0.00000000000E+00  0.00000000000E+00  0.46774550385E+03  0.46774550388E+03  0.50400001928E-02 0. -1.
        1   -1    0    0  501    0  0.00000000000E+00  0.00000000000E+00 -0.76868058844E+03  0.76868058846E+03  0.50400001928E-02 0.  1.
    10030    2    1    2    0    0  0.00000000000E+00  0.00000000000E+00 -0.30093508459E+03  0.12364260923E+04  0.11992445775E+04 0.  0.
        4    1    3    3  502    0  0.34101998855E+03 -0.48817590163E+03 -0.78040455493E+02  0.60058493914E+03  0.12699999809E+01 0.  1.
       -4    1    3    3    0  502 -0.34101998855E+03  0.48817590163E+03 -0.22289462910E+03  0.63584115320E+03  0.12699999809E+01 0. -1.
</event>
<event>
 5   0  0.5745487E-05  0.1199710E+04  0.7818609E-02  0.9113110E-01
        1   -1    0    0  501    0  0.00000000000E+00  0.00000000000E+00  0.12787639429E+04  0.12787639429E+04  0.50400001928E-02 0. -1.
       -1   -1    0    0    0  501  0.00000000000E+00  0.00000000000E+00 -0.28138577286E+03  0.28138577291E+03  0.50400001928E-02 0.  1.
    10030    2    1    2    0    0  0.00000000000E+00  0.00000000000E+00  0.99737817008E+03  0.15601497159E+04  0.11997099323E+04 0.  0.
        3    1    3    3  502    0  0.47295689140E+03  0.18847497619E+03  0.86191659914E+02  0.51637200758E+03  0.10100000352E+00 0.  1.
       -3    1    3    3    0  502 -0.47295689140E+03 -0.18847497619E+03  0.91118651016E+03  0.10437777083E+04  0.10100000352E+00 0. -1.
</event>
<event>
 5   0  0.9838215E-05  0.1200727E+04  0.7818609E-02  0.9112221E-01
       -2   -1    0    0    0  501  0.00000000000E+00  0.00000000000E+00  0.36782714668E+03  0.36782714669E+03  0.25500000920E-02 0. -1.
        2   -1    0    0  501    0  0.00000000000E+00  0.00000000000E+00 -0.97990626069E+03  0.97990626070E+03  0.25500000920E-02 0.  1.
    10030    2    1    2    0    0  0.00000000000E+00  0.00000000000E+00 -0.61207911402E+03  0.13477334074E+04  0.12007266531E+04 0.  0.
        4    1    3    3  502    0 -0.14720348328E+03  0.26377882227E+03  0.27631353074E+03  0.40938846190E+03  0.12699999809E+01 0. -1.
       -4    1    3    3    0  502  0.14720348328E+03 -0.26377882227E+03 -0.88839264475E+03  0.93834494549E+03  0.12699999809E+01 0.  1.
</event>
<event>
 5   0  0.5625746E-05  0.1200032E+04  0.7818609E-02  0.9112829E-01
        1   -1    0    0  501    0  0.00000000000E+00  0.00000000000E+00  0.35698680516E+03  0.35698680520E+03  0.50400001928E-02 0. -1.
       -1   -1    0    0    0  501  0.00000000000E+00  0.00000000000E+00 -0.10084935816E+04  0.10084935816E+04  0.50400001928E-02 0.  1.
    10030    2    1    2    0    0  0.00000000000E+00  0.00000000000E+00 -0.65150677640E+03  0.13654803868E+04  0.12000315025E+04 0.  0.
        5    1    3    3  502    0  0.23350191639E+03  0.27363405676E+03  0.22065914624E+03  0.42203233383E+03  0.46999998093E+01 0. -1.
       -5    1    3    3    0  502 -0.23350191639E+03 -0.27363405676E+03 -0.87216592265E+03  0.94344805294E+03  0.46999998093E+01 0.  1.
</event>
<event>
 5   0  0.1023063E-04  0.1200440E+04  0.7818609E-02  0.9112471E-01
        2   -1    0    0  501    0  0.00000000000E+00  0.00000000000E+00  0.90644916785E+03  0.90644916786E+03  0.25500000920E-02 0.  1.
       -2   -1    0    0    0  501  0.00000000000E+00  0.00000000000E+00 -0.39744543872E+03  0.39744543873E+03  0.25500000920E-02 0. -1.
    10030    2    1    2    0    0  0.00000000000E+00  0.00000000000E+00  0.50900372913E+03  0.13038946066E+04  0.12004400647E+04 0.  0.
        3    1    3    3  502    0 -0.37757681614E+03 -0.31497901359E+03 -0.11938419783E+03  0.50599271535E+03  0.10100000352E+00 0. -1.
       -3    1    3    3    0  502  0.37757681614E+03  0.31497901359E+03  0.62838792696E+03  0.79790189124E+03  0.10100000352E+00 0.  1.
</event>
<event>
 5   0  0.1023063E-04  0.1199916E+04  0.7818609E-02  0.9112930E-01
       -2   -1    0    0    0  501  0.00000000000E+00  0.00000000000E+00  0.37415771350E+03  0.37415771351E+03  0.25500000920E-02 0.  1.
        2   -1    0    0  501    0  0.00000000000E+00  0.00000000000E+00 -0.96202694302E+03  0.96202694302E+03  0.25500000920E-02 0. -1.
    10030    2    1    2    0    0  0.00000000000E+00  0.00000000000E+00 -0.58786922952E+03  0.13361846565E+04  0.11999163326E+04 0.  0.
        3    1    3    3  502    0 -0.37870205117E+03  0.20819827608E+03 -0.75735426596E+03  0.87197893328E+03  0.10100000352E+00 0. -1.
       -3    1    3    3    0  502  0.37870205117E+03 -0.20819827608E+03  0.16948503644E+03  0.46420572325E+03  0.10100000352E+00 0.  1.
</event>
<event>
 5   0  0.5625746E-05  0.1200332E+04  0.7818609E-02  0.9112566E-01
        1   -1    0    0  501    0  0.00000000000E+00  0.00000000000E+00  0.10450979121E+04  0.10450979121E+04  0.50400001928E-02 0.  1.
       -1   -1    0    0    0  501  0.00000000000E+00  0.00000000000E+00 -0.34465600945E+03  0.34465600949E+03  0.50400001928E-02 0. -1.
    10030    2    1    2    0    0  0.00000000000E+00  0.00000000000E+00  0.70044190266E+03  0.13897539216E+04  0.12003320806E+04 0.  0.
        5    1    3    3  502    0 -0.54929442765E+03 -0.14343913349E+03  0.12488514793E+03  0.58130675502E+03  0.46999998093E+01 0. -1.
       -5    1    3    3    0  502  0.54929442765E+03  0.14343913349E+03  0.57555675473E+03  0.80844716659E+03  0.46999998093E+01 0.  1.
</event>
<event>
 5   0  0.5625746E-05  0.1200638E+04  0.7818609E-02  0.9112299E-01
        1   -1    0    0  501    0  0.00000000000E+00  0.00000000000E+00  0.18452720369E+04  0.18452720369E+04  0.50400001928E-02 0. -1.
       -1   -1    0    0    0  501  0.00000000000E+00  0.00000000000E+00 -0.19530057254E+03  0.19530057261E+03  0.50400001928E-02 0.  1.
    10030    2    1    2    0    0  0.00000000000E+00  0.00000000000E+00  0.16499714644E+04  0.20405726096E+04  0.12006376396E+04 0.  0.
        5    1    3    3  502    0  0.14965493716E+03 -0.46845270274E+03  0.23988761298E+03  0.54718615825E+03  0.46999998093E+01 0. -1.
       -5    1    3    3    0  502 -0.14965493716E+03  0.46845270274E+03  0.14100838514E+04  0.14933864513E+04  0.46999998093E+01 0.  1.
</event>
<event>
 5   0  0.1023063E-04  0.1200089E+04  0.7818609E-02  0.9112779E-01
       -2   -1    0    0    0  501  0.00000000000E+00  0.00000000000E+00  0.10002380302E+04  0.10002380302E+04  0.25500000920E-02 0. -1.
        2   -1    0    0  501    0  0.00000000000E+00  0.00000000000E+00 -0.35996746941E+03  0.35996746942E+03  0.25500000920E-02 0.  1.
    10030    2    1    2    0    0  0.00000000000E+00  0.00000000000E+00  0.64027056081E+03  0.13602054996E+04  0.12000885843E+04 0.  0.
        3    1    3    3  502    0  0.51525570962E+03 -0.81501732325E+02  0.65621352910E+03  0.83830017574E+03  0.10100000352E+00 0.  1.
       -3    1    3    3    0  502 -0.51525570962E+03  0.81501732325E+02 -0.15942968292E+02  0.52190532389E+03  0.10100000352E+00 0. -1.
</event>
<event>
 5   0  0.3839750E-05  0.1200168E+04  0.7818609E-02  0.9112710E-01
        3   -1    0    0  501    0  0.00000000000E+00  0.00000000000E+00  0.31366238997E+03  0.31366240623E+03  0.10100000352E+00 0.  1.
       -3   -1    0    0    0  501  0.00000000000E+00  0.00000000000E+00 -0.11480516600E+04  0.11480516645E+04  0.10100000352E+00 0. -1.
    10030    2    1    2    0    0  0.00000000000E+00  0.00000000000E+00 -0.83438927004E+03  0.14617140707E+04  0.12001677260E+04 0.  0.
        4    1    3    3  502    0  0.48680335130E+03 -0.20523043245E+03 -0.70562880564E+02  0.53298946167E+03  0.12699999809E+01 0. -1.
       -4    1    3    3    0  502 -0.48680335130E+03  0.20523043245E+03 -0.76382638948E+03  0.92872460902E+03  0.12699999809E+01 0.  1.
</event>
<event>
 5   0  0.9941209E-05  0.1200328E+04  0.7818609E-02  0.9112570E-01
        2   -1    0    0  501    0  0.00000000000E+00  0.00000000000E+00  0.42031573662E+03  0.42031573663E+03  0.25500000920E-02 0. -1.
       -2   -1    0    0    0  501  0.00000000000E+00  0.00000000000E+00 -0.85696705439E+03  0.85696705440E+03  0.25500000920E-02 0.  1.
    10030    2    1    2    0    0  0.00000000000E+00  0.00000000000E+00 -0.43665131777E+03  0.12772827910E+04  0.12003278531E+04 0.  0.
        2    1    3    3  502    0 -0.30404786033E+03  0.51543933004E+03 -0.16986551654E+03  0.62207483315E+03  0.25500000920E-02 0. -1.
       -2    1    3    3    0  502  0.30404786033E+03 -0.51543933004E+03 -0.26678580124E+03  0.65520795788E+03  0.25500000920E-02 0.  1.
</event>
<event>
 5   0  0.1012657E-04  0.1199316E+04  0.7818609E-02  0.9113455E-01
       -2   -1    0    0    0  501  0.00000000000E+00  0.00000000000E+00  0.92744758424E+03  0.92744758425E+03  0.25500000920E-02 0.  1.
        2   -1    0    0  501    0  0.00000000000E+00  0.00000000000E+00 -0.38771969015E+03  0.38771969016E+03  0.25500000920E-02 0. -1.
    10030    2    1    2    0    0  0.00000000000E+00  0.00000000000E+00  0.53972789409E+03  0.13151672744E+04  0.11993159550E+04 0.  0.
        1    1    3    3  502    0  0.17557142938E+03  0.46064040695E+03  0.64427588028E+03  0.81123752457E+03  0.50400001928E-02 0.  1.
       -1    1    3    3    0  502 -0.17557142938E+03 -0.46064040695E+03 -0.10454798619E+03  0.50392974984E+03  0.50400001928E-02 0. -1.
</event>
<event>
 5   0  0.5620246E-05  0.1199642E+04  0.7818609E-02  0.9113170E-01
        1   -1    0    0  501    0  0.00000000000E+00  0.00000000000E+00  0.24440675446E+03  0.24440675451E+03  0.50400001928E-02 0.  1.
       -1   -1    0    0    0  501  0.00000000000E+00  0.00000000000E+00 -0.14720755289E+04  0.14720755290E+04  0.50400001928E-02 0. -1.
    10030    2    1    2    0    0  0.00000000000E+00  0.00000000000E+00 -0.12276687745E+04  0.17164822835E+04  0.11996419506E+04 0.  0.
        1    1    3    3  502    0 -0.48933438095E+03  0.21763107691E+03 -0.22731515917E+03  0.58179343726E+03  0.50400001928E-02 0.  1.
       -1    1    3    3    0  502  0.48933438095E+03 -0.21763107691E+03 -0.10003536153E+04  0.11346888462E+04  0.50400001928E-02 0. -1.
</event>
<event>
 5   0  0.9838215E-05  0.1198705E+04  0.7818609E-02  0.9113991E-01
        2   -1    0    0  501    0  0.00000000000E+00  0.00000000000E+00  0.10947748519E+04  0.10947748519E+04  0.25500000920E-02 0.  1.
       -2   -1    0    0    0  501  0.00000000000E+00  0.00000000000E+00 -0.32812529369E+03  0.32812529370E+03  0.25500000920E-02 0. -1.
    10030    2    1    2    0    0  0.00000000000E+00  0.00000000000E+00  0.76664955821E+03  0.14229001456E+04  0.11987048341E+04 0.  0.
        4    1    3    3  502    0 -0.25439621998E+03 -0.22077185756E+03  0.97179074582E+03  0.10285117969E+04  0.12699999809E+01 0.  1.
       -4    1    3    3    0  502  0.25439621998E+03  0.22077185756E+03 -0.20514118761E+03  0.39438834869E+03  0.12699999809E+01 0. -1.
</event>
<event>
 5   0  0.9838215E-05  0.1197531E+04  0.7818609E-02  0.9115021E-01
        2   -1    0    0  501    0  0.00000000000E+00  0.00000000000E+00  0.49665381507E+03  0.49665381508E+03  0.25500000920E-02 0. -1.
       -2   -1    0    0    0  501  0.00000000000E+00  0.00000000000E+00 -0.72187078358E+03  0.72187078358E+03  0.25500000920E-02 0.  1.
    10030    2    1    2    0    0  0.00000000000E+00  0.00000000000E+00 -0.22521696851E+03  0.12185245987E+04  0.11975305903E+04 0.  0.
        4    1    3    3  502    0 -0.11328262437E+03 -0.31607922802E+03 -0.61706098381E+03  0.70249904058E+03  0.12699999809E+01 0.  1.
       -4    1    3    3    0  502  0.11328262437E+03  0.31607922802E+03  0.39184401530E+03  0.51602555808E+03  0.12699999809E+01 0. -1.
</event>
<event>
 5   0  0.1004006E-04  0.1200217E+04  0.7818609E-02  0.9112667E-01
        2   -1    0    0  501    0  0.00000000000E+00  0.00000000000E+00  0.22174317065E+04  0.22174317065E+04  0.25500000920E-02 0.  1.
       -2   -1    0    0    0  501  0.00000000000E+00  0.00000000000E+00 -0.16240863491E+03  0.16240863493E+03  0.25500000920E-02 0. -1.
    10030    2    1    2    0    0  0.00000000000E+00  0.00000000000E+00  0.20550230716E+04  0.23798403414E+04  0.12002167412E+04 0.  0.
        5    1    3    3  502    0 -0.43610866947E+03 -0.20995795137E+03  0.17308892692E+04  0.17972959871E+04  0.46999998093E+01 0.  1.
       -5    1    3    3    0  502  0.43610866947E+03  0.20995795137E+03  0.32413380237E+03  0.58254435434E+03  0.46999998093E+01 0. -1.
</event>
<event>
 5   0  0.5732931E-05  0.1199233E+04  0.7818609E-02  0.9113528E-01
        1   -1    0    0  501    0  0.00000000000E+00  0.00000000000E+00  0.11898186732E+04  0.11898186732E+04  0.50400001928E-02 0.  1.
       -1   -1    0    0    0  501  0.00000000000E+00  0.00000000000E+00 -0.30218067348E+03  0.30218067353E+03  0.50400001928E-02 0. -1.
    10030    2    1    2    0    0  0.00000000000E+00  0.00000000000E+00  0.88763799968E+03  0.14919993467E+04  0.11992334352E+04 0.  0.
        4    1    3    3  502    0 -0.43950685627E+03  0.38775256394E+03  0.28634828922E+03  0.65231532497E+03  0.12699999809E+01 0. -1.
       -4    1    3    3    0  502  0.43950685627E+03 -0.38775256394E+03  0.60128971046E+03  0.83968402173E+03  0.12699999809E+01 0.  1.
</event>
<event>
 5   0  0.5447807E-05  0.1200912E+04  0.7818609E-02  0.9112058E-01
        1   -1    0    0  501    0  0.00000000000E+00  0.00000000000E+00  0.59401339120E+03  0.59401339122E+03  0.50400001928E-02 0. -1.
       -1   -1    0    0    0  501  0.00000000000E+00  0.00000000000E+00 -0.60696888932E+03  0.60696888934E+03  0.50400001928E-02 0.  1.
    10030    2    1    2    0    0  0.00000000000E+00  0.00000000000E+00 -0.12955498122E+02  0.12009822806E+04  0.12009124003E+04 0.  0.
        2    1    3    3  502    0  0.48295941547E+02 -0.47884881691E+03 -0.36555150851E+03  0.60436461909E+03  0.25500000920E-02 0.  1.
       -2    1    3    3    0  502 -0.48295941547E+02  0.47884881691E+03  0.35259601039E+03  0.59661766147E+03  0.25500000920E-02 0. -1.
</event>
<event>
 5   0  0.1023063E-04  0.1200384E+04  0.7818609E-02  0.9112520E-01
       -2   -1    0    0    0  501  0.00000000000E+00  0.00000000000E+00  0.11109180113E+04  0.11109180113E+04  0.25500000920E-02 0.  1.
        2   -1    0    0  501    0  0.00000000000E+00  0.00000000000E+00 -0.32426394931E+03  0.32426394932E+03  0.25500000920E-02 0. -1.
    10030    2    1    2    0    0  0.00000000000E+00  0.00000000000E+00  0.78665406195E+03  0.14351819606E+04  0.12003843746E+04 0.  0.
        3    1    3    3  502    0  0.94858483327E+02  0.19170132975E+02  0.11015282552E+04  0.11057712843E+04  0.10100000352E+00 0.  1.
       -3    1    3    3    0  502 -0.94858483327E+02 -0.19170132975E+02 -0.31487419329E+03  0.32941067629E+03  0.10100000352E+00 0. -1.
</event>
<event>
 5   0  0.9838215E-05  0.1200265E+04  0.7818609E-02  0.9112625E-01
       -2   -1    0    0    0  501  0.00000000000E+00  0.00000000000E+00  0.40521862434E+03  0.40521862435E+03  0.25500000920E-02 0.  1.
        2   -1    0    0  501    0  0.00000000000E+00  0.00000000000E+00 -0.88880104050E+03  0.88880104050E+03  0.25500000920E-02 0. -1.
    10030    2    1    2    0    0  0.00000000000E+00  0.00000000000E+00 -0.48358241615E+03  0.12940196649E+04  0.12002645291E+04 0.  0.
        4    1    3    3  502    0  0.54690566303E+03  0.11254824084E+03 -0.46452442502E+01  0.55838705390E+03  0.12699999809E+01 0.  1.
       -4    1    3    3    0  502 -0.54690566303E+03 -0.11254824084E+03 -0.47893717190E+03  0.73563261095E+03  0.12699999809E+01 0. -1.
</event>
<event>
 5   0  0.9838215E-05  0.1199484E+04  0.7818609E-02  0.9113308E-01
        2   -1    0    0  501    0  0.00000000000E+00  0.00000000000E+00  0.95663504946E+03  0.95663504946E+03  0.25500000920E-02 0.  1.
       -2   -1    0    0    0  501  0.00000000000E+00  0.00000000000E+00 -0.37599556176E+03  0.37599556177E+03  0.25500000920E-02 0. -1.
    10030    2    1    2    0    0  0.00000000000E+00  0.00000000000E+00  0.58063948769E+03  0.13326306112E+04  0.11994841105E+04 0.  0.
        4    1    3    3  502    0 -0.25545660266E+03  0.34318990612E+03  0.75727362599E+03  0.86977143263E+03  0.12699999809E+01 0. -1.
       -4    1    3    3    0  502  0.25545660266E+03 -0.34318990612E+03 -0.17663413830E+03  0.46285917860E+03  0.12699999809E+01 0.  1.
</event>
<event>
 5   0  0.5745487E-05  0.1199611E+04  0.7818609E-02  0.9113197E-01
        1   -1    0    0  501    0  0.00000000000E+00  0.00000000000E+00  0.75358421972E+03  0.75358421974E+03  0.50400001928E-02 0. -1.
       -1   -1    0    0    0  501  0.00000000000E+00  0.00000000000E+00 -0.47740741658E+03  0.47740741661E+03  0.50400001928E-02 0.  1.
    10030    2    1    2    0    0  0.00000000000E+00  0.00000000000E+00  0.27617680314E+03  0.12309916363E+04  0.11996110962E+04 0.  0.
        3    1    3    3  502    0 -0.27150968676E+02 -0.57046715097E+03 -0.50000511413E+02  0.57329748542E+03  0.10100000352E+00 0.  1.
       -3    1    3    3    0  502  0.27150968676E+02  0.57046715097E+03  0.32617731455E+03  0.65769415093E+03  0.10100000352E+00 0. -1.
</event>
<event>
 5   0  0.5620246E-05  0.1199529E+04  0.7818609E-02  0.9113269E-01
        1   -1    0    0  501    0  0.00000000000E+00  0.00000000000E+00  0.10450236375E+04  0.10450236375E+04  0.50400001928E-02 0. -1.
       -1   -1    0    0    0  501  0.00000000000E+00  0.00000000000E+00 -0.34421937675E+03  0.34421937679E+03  0.50400001928E-02 0.  1.
    10030    2    1    2    0    0  0.00000000000E+00  0.00000000000E+00  0.70080426078E+03  0.13892430143E+04  0.11995288829E+04 0.  0.
        1    1    3    3  502    0  0.48940617863E+03 -0.19744609757E+03  0.20349646402E+02  0.52812638380E+03  0.50400001928E-02 0.  1.
       -1    1    3    3    0  502 -0.48940617863E+03  0.19744609757E+03  0.68045461438E+03  0.86111663053E+03  0.50400001928E-02 0. -1.
</event>
<event>
 5   0  0.5447807E-05  0.1200090E+04  0.7818609E-02  0.9112778E-01
        1   -1    0    0  501    0  0.00000000000E+00  0.00000000000E+00  0.95306264406E+03  0.95306264407E+03  0.50400001928E-02 0. -1.
       -1   -1    0    0    0  501  0.00000000000E+00  0.00000000000E+00 -0.37778597754E+03  0.37778597757E+03  0.50400001928E-02 0.  1.
    10030    2    1    2    0    0  0.00000000000E+00  0.00000000000E+00  0.57527666652E+03  0.13308486216E+04  0.12000895011E+04 0.  0.
        2    1    3    3  502    0 -0.29166588443E+03  0.49463954894E+03  0.48072578908E+03  0.74888888081E+03  0.25500000920E-02 0. -1.
       -2    1    3    3    0  502  0.29166588443E+03 -0.49463954894E+03  0.94550877442E+02  0.58195974083E+03  0.25500000920E-02 0.  1.
</event>
<event>
 5   0  0.1012657E-04  0.1200404E+04  0.7818609E-02  0.9112503E-01
        2   -1    0    0  501    0  0.00000000000E+00  0.00000000000E+00  0.15499807374E+04  0.15499807374E+04  0.25500000920E-02 0.  1.
       -2   -1    0    0    0  501  0.00000000000E+00  0.00000000000E+00 -0.23241740271E+03  0.23241740272E+03  0.25500000920E-02 0. -1.
    10030    2    1    2    0    0  0.00000000000E+00  0.00000000000E+00  0.13175633347E+04  0.17823981401E+04  0.12004040940E+04 0.  0.
        1    1    3    3  502    0 -0.33661504458E+03 -0.44705012161E+02  0.13936373044E+04  0.14344103885E+04  0.50400001928E-02 0.  1.
       -1    1    3    3    0  502  0.33661504458E+03  0.44705012161E+02 -0.76073969772E+02  0.34798775158E+03  0.50400001928E-02 0. -1.
</event>
<event>
 5   0  0.9838215E-05  0.1199691E+04  0.7818609E-02  0.9113127E-01
       -2   -1    0    0    0  501  0.00000000000E+00  0.00000000000E+00  0.74633262191E+03  0.74633262192E+03  0.25500000920E-02 0.  1.
        2   -1    0    0  501    0  0.00000000000E+00  0.00000000000E+00 -0.48211054530E+03  0.48211054531E+03  0.25500000920E-02 0. -1.
    10030    2    1    2    0    0  0.00000000000E+00  0.00000000000E+00  0.26422207661E+03  0.12284431672E+04  0.11996913392E+04 0.  0.
        4    1    3    3  502    0  0.66077693941E+02  0.49273873420E+03  0.47579695076E+03  0.68814393339E+03  0.12699999809E+01 0.  1.
       -4    1    3    3    0  502 -0.66077693941E+02 -0.49273873420E+03 -0.21157487415E+03  0.54029923384E+03  0.12699999809E+01 0. -1.
</event>
<event>
 5   0  0.5625746E-05  0.1200175E+04  0.7818609E-02  0.9112703E-01
       -1   -1    0    0    0  501  0.00000000000E+00  0.00000000000E+00  0.72978274849E+03  0.72978274851E+03  0.50400001928E-02 0.  1.
        1   -1    0    0  501    0  0.00000000000E+00  0.00000000000E+00 -0.49344165750E+03  0.49344165752E+03  0.50400001928E-02 0. -1.
    10030    2    1    2    0    0  0.00000000000E+00  0.00000000000E+00  0.23634109099E+03  0.12232244060E+04  0.12001753356E+04 0.  0.
        5    1    3    3  502    0  0.28285911309E+03  0.40138886634E+03 -0.23336027934E+03  0.54369238532E+03  0.46999998093E+01 0.  1.
       -5    1    3    3    0  502 -0.28285911309E+03 -0.40138886634E+03  0.46970137034E+03  0.67953202072E+03  0.46999998093E+01 0. -1.
</event>
<event>
 5   0  0.1012657E-04  0.1200359E+04  0.7818609E-02  0.9112542E-01
        2   -1    0    0  501    0  0.00000000000E+00  0.00000000000E+00  0.12979130355E+04  0.12979130355E+04  0.25500000920E-02 0. -1.
       -2   -1    0    0    0  501  0.00000000000E+00  0.00000000000E+00 -0.27753456500E+03  0.27753456502E+03  0.25500000920E-02 0.  1.
    10030    2    1    2    0    0  0.00000000000E+00  0.00000000000E+00  0.10203784705E+04  0.15754476005E+04  0.12003594957E+04 0.  0.
        1    1    3    3  502    0 -0.43797766827E+03  0.40564114083E+03  0.42878843050E+03  0.73500251101E+03  0.50400001928E-02 0.  1.
       -1    1    3    3    0  502  0.43797766827E+03 -0.40564114083E+03  0.59159003998E+03  0.84044508950E+03  0.50400001928E-02 0. -1.
</event>
<event>
 5   0  0.5745487E-05  0.1200356E+04  0.7818609E-02  0.9112545E-01
        1   -1    0    0  501    0  0.00000000000E+00  0.00000000000E+00  0.98456104745E+03  0.98456104746E+03  0.50400001928E-02 0. -1.
       -1   -1    0    0    0  501  0.00000000000E+00  0.00000000000E+00 -0.36586235420E+03  0.36586235424E+03  0.50400001928E-02 0.  1.
    10030    2    1    2    0    0  0.00000000000E+00  0.00000000000E+00  0.61869869325E+03  0.13504234017E+04  0.12003563183E+04 0.  0.
        3    1    3    3  502    0 -0.25330574755E+03 -0.26881293629E+03 -0.22285661869E+03  0.43138066618E+03  0.10100000352E+00 0.  1.
       -3    1    3    3    0  502  0.25330574755E+03  0.26881293629E+03  0.84155531193E+03  0.91904273552E+03  0.10100000352E+00 0. -1.
</event>
<event>
 5   0  0.5625746E-05  0.1199799E+04  0.7818609E-02  0.9113033E-01
       -1   -1    0    0    0  501  0.00000000000E+00  0.00000000000E+00  0.10578484392E+04  0.10578484392E+04  0.50400001928E-02 0.  1.
        1   -1    0    0  501    0  0.00000000000E+00  0.00000000000E+00 -0.34019928981E+03  0.34019928984E+03  0.50400001928E-02 0. -1.
    10030    2    1    2    0    0  0.00000000000E+00  0.00000000000E+00  0.71764914939E+03  0.13980477291E+04  0.11997987961E+04 0.  0.
        5    1    3    3  502    0 -0.56536518229E+03 -0.14718282548E+03  0.20009309520E+03  0.61754344803E+03  0.46999998093E+01 0.  1.
       -5    1    3    3    0  502  0.56536518229E+03  0.14718282548E+03  0.51755605419E+03  0.78050428102E+03  0.46999998093E+01 0. -1.
</event>
<event>
 5   0  0.5625746E-05  0.1199502E+04  0.7818609E-02  0.9113293E-01
       -1   -1    0    0    0  501  0.00000000000E+00  0.00000000000E+00  0.34360387167E+03  0.34360387171E+03  0.50400001928E-02 0.  1.
        1   -1    0    0  501    0  0.00000000000E+00  0.00000000000E+00 -0.10468479014E+04  0.10468479014E+04  0.50400001928E-02 0. -1.
    10030    2    1    2    0    0  0.00000000000E+00  0.00000000000E+00 -0.70324402974E+03  0.13904517731E+04  0.11995015498E+04 0.  0.
        5    1    3    3  502    0  0.48372614499E+03 -0.13341717448E+03 -0.73237317701E+03  0.88779709742E+03  0.46999998093E+01 0. -1.
       -5    1    3    3    0  502 -0.48372614499E+03  0.13341717448E+03  0.29129147265E+02  0.50265467571E+03  0.46999998093E+01 0.  1.
</event>
<event>
 5   0  0.3839750E-05  0.1200730E+04  0.7818609E-02  0.9112218E-01
        4   -1    0    0  501    0  0.00000000000E+00  0.00000000000E+00  0.11774731370E+04  0.11774738219E+04  0.12699999809E+01 0. -1.
       -4   -1    0    0    0  501  0.00000000000E+00  0.00000000000E+00 -0.30610947618E+03  0.30611211068E+03  0.12699999809E+01 0.  1.
    10030    2    1    2    0    0  0.00000000000E+00  0.00000000000E+00  0.87136366086E+03  0.14835859326E+04  0.12007300238E+04 0.  0.
        2    1    3    3  502    0 -0.17184891743E+03 -0.57477619632E+03  0.46435187821E+03  0.75863192200E+03  0.25500000920E-02 0.  1.
       -2    1    3    3    0  502  0.17184891743E+03  0.57477619632E+03  0.40701178265E+03  0.72495401061E+03  0.25500000920E-02 0. -1.
</event>
<event>
 5   0  0.1004006E-04  0.1199948E+04  0.7818609E-02  0.9112902E-01
        2   -1    0    0  501    0  0.00000000000E+00  0.00000000000E+00  0.14419160091E+04  0.14419160091E+04  0.25500000920E-02 0.  1.
       -2   -1    0    0    0  501  0.00000000000E+00  0.00000000000E+00 -0.24964612982E+03  0.24964612983E+03  0.25500000920E-02 0. -1.
    10030    2    1    2    0    0  0.00000000000E+00  0.00000000000E+00  0.11922698793E+04  0.16915621390E+04  0.11999479176E+04 0.  0.
        5    1    3    3  502    0 -0.12189101623E+03  0.56779795932E+03  0.80850239458E+03  0.99546479320E+03  0.46999998093E+01 0.  1.
       -5    1    3    3    0  502  0.12189101623E+03 -0.56779795932E+03  0.38376748473E+03  0.69609734577E+03  0.46999998093E+01 0. -1.
</event>
<event>
 5   0  0.9838215E-05  0.1199267E+04  0.7818609E-02  0.9113499E-01
       -2   -1    0    0    0  501  0.00000000000E+00  0.00000000000E+00  0.26229756141E+03  0.26229756142E+03  0.25500000920E-02 0.  1.
        2   -1    0    0  501    0  0.00000000000E+00  0.00000000000E+00 -0.13708097194E+04  0.13708097194E+04  0.25500000920E-02 0. -1.
    10030    2    1    2    0    0  0.00000000000E+00  0.00000000000E+00 -0.11085121580E+04  0.16331072808E+04  0.11992665201E+04 0.  0.
        4    1    3    3  502    0 -0.27974359425E+03  0.16798320354E+03 -0.12393198578E+04  0.12815577076E+04  0.12699999809E+01 0. -1.
       -4    1    3    3    0  502  0.27974359425E+03 -0.16798320354E+03  0.13080769978E+03  0.35154957320E+03  0.12699999809E+01 0.  1.
</event>
<event>
 5   0  0.5620246E-05  0.1201107E+04  0.7818609E-02  0.9111888E-01
       -1   -1    0    0    0  501  0.00000000000E+00  0.00000000000E+00  0.53938097265E+03  0.53938097267E+03  0.50400001928E-02 0. -1.
        1   -1    0    0  501    0  0.00000000000E+00  0.00000000000E+00 -0.66866403059E+03  0.66866403060E+03  0.50400001928E-02 0.  1.
    10030    2    1    2    0    0  0.00000000000E+00  0.00000000000E+00 -0.12928305794E+03  0.12080450033E+04  0.12011072479E+04 0.  0.
        1    1    3    3  502    0 -0.32788993797E+03 -0.18526572479E+03 -0.53513566506E+03  0.65437403696E+03  0.50400001928E-02 0.  1.
       -1    1    3    3    0  502  0.32788993797E+03  0.18526572479E+03  0.40585260713E+03  0.55367096631E+03  0.50400001928E-02 0. -1.
</event>
<event>
 5   0  0.1004006E-04  0.1202230E+04  0.7818609E-02  0.9110907E-01
        2   -1    0    0  501    0  0.00000000000E+00  0.00000000000E+00  0.97378389266E+03  0.97378389266E+03  0.25500000920E-02 0. -1.
       -2   -1    0    0    0  501  0.00000000000E+00  0.00000000000E+00 -0.37106728339E+03  0.37106728340E+03  0.25500000920E-02 0.  1.
    10030    2    1    2    0    0  0.00000000000E+00  0.00000000000E+00  0.60271660927E+03  0.13448511761E+04  0.12022301671E+04 0.  0.
        5    1    3    3  502    0 -0.42871186520E+03 -0.25033444318E+03 -0.77750225971E+02  0.50252202384E+03  0.46999998093E+01 0. -1.
       -5    1    3    3    0  502  0.42871186520E+03  0.25033444318E+03  0.68046683524E+03  0.84232915221E+03  0.46999998093E+01 0.  1.
</event>
<event>
 5   0  0.5625746E-05  0.1203407E+04  0.7818609E-02  0.9109879E-01
       -1   -1    0    0    0  501  0.00000000000E+00  0.00000000000E+00  0.56803639040E+03  0.56803639042E+03  0.50400001928E-02 0.  1.
        1   -1    0    0  501    0  0.00000000000E+00  0.00000000000E+00 -0.63736645776E+03  0.63736645778E+03  0.50400001928E-02 0. -1.
    10030    2    1    2    0    0  0.00000000000E+00  0.00000000000E+00 -0.69330067359E+02  0.12054028482E+04  0.12034073991E+04 0.  0.
        5    1    3    3  502    0 -0.28788019890E+03 -0.42035151923E+03  0.28595140284E+03  0.58426081798E+03  0.46999998093E+01 0.  1.
       -5    1    3    3    0  502  0.28788019890E+03  0.42035151923E+03 -0.35528147020E+03  0.62114203022E+03  0.46999998093E+01 0. -1.
</event>
<event>
 5   0  0.1023063E-04  0.1199515E+04  0.7818609E-02  0.9113282E-01
       -2   -1    0    0    0  501  0.00000000000E+00  0.00000000000E+00  0.47674962123E+03  0.47674962123E+03  0.25500000920E-02 0. -1.
        2   -1    0    0  501    0  0.00000000000E+00  0.00000000000E+00 -0.75450247150E+03  0.75450247150E+03  0.25500000920E-02 0.  1.
    10030    2    1    2    0    0  0.00000000000E+00  0.00000000000E+00 -0.27775285027E+03  0.12312520927E+04  0.11995145143E+04 0.  0.
        3    1    3    3  502    0 -0.17156218516E+03  0.46952316739E+03 -0.47904051180E+03  0.69236219584E+03  0.10100000352E+00 0.  1.
       -3    1    3    3    0  502  0.17156218516E+03 -0.46952316739E+03  0.20128766152E+03  0.53888989689E+03  0.10100000352E+00 0. -1.
</event>
<event>
 5   0  0.1004006E-04  0.1200390E+04  0.7818609E-02  0.9112515E-01
        2   -1    0    0  501    0  0.00000000000E+00  0.00000000000E+00  0.93994073024E+03  0.93994073024E+03  0.25500000920E-02 0. -1.
       -2   -1    0    0    0  501  0.00000000000E+00  0.00000000000E+00 -0.38325187091E+03  0.38325187091E+03  0.25500000920E-02 0.  1.
    10030    2    1    2    0    0  0.00000000000E+00  0.00000000000E+00  0.55668885933E+03  0.13231926012E+04  0.12003900090E+04 0.  0.
        5    1    3    3  502    0  0.25050224221E+03 -0.43706424660E+03  0.63796439086E+03  0.81289432463E+03  0.46999998093E+01 0. -1.
       -5    1    3    3    0  502 -0.25050224221E+03  0.43706424660E+03 -0.81275531525E+02  0.51029827653E+03  0.46999998093E+01 0.  1.
</event>
<event>
 5   0  0.5732931E-05  0.1200377E+04  0.7818609E-02  0.9112527E-01
        1   -1    0    0  501    0  0.00000000000E+00  0.00000000000E+00  0.16131226086E+04  0.16131226086E+04  0.50400001928E-02 0. -1.
       -1   -1    0    0    0  501  0.00000000000E+00  0.00000000000E+00 -0.22330985303E+03  0.22330985309E+03  0.50400001928E-02 0.  1.
    10030    2    1    2    0    0  0.00000000000E+00  0.00000000000E+00  0.13898127556E+04  0.18364324617E+04  0.12003768953E+04 0.  0.
        4    1    3    3  502    0 -0.98334725221E+02 -0.22238179409E+03 -0.14457982274E+03  0.28289276868E+03  0.12699999809E+01 0.  1.
       -4    1    3    3    0  502  0.98334725221E+02  0.22238179409E+03  0.15343925783E+04  0.15535396931E+04  0.12699999809E+01 0. -1.
</event>
<event>
 5   0  0.1023063E-04  0.1199866E+04  0.7818609E-02  0.9112974E-01
        2   -1    0    0  501    0  0.00000000000E+00  0.00000000000E+00  0.55729479609E+03  0.55729479609E+03  0.25500000920E-02 0.  1.
       -2   -1    0    0    0  501  0.00000000000E+00  0.00000000000E+00 -0.64583339264E+03  0.64583339265E+03  0.25500000920E-02 0. -1.
    10030    2    1    2    0    0  0.00000000000E+00  0.00000000000E+00 -0.88538596558E+02  0.12031281887E+04  0.11998659740E+04 0.  0.
        3    1    3    3  502    0 -0.26998239819E+03  0.17207130837E+03  0.46447642328E+03  0.56412533048E+03  0.10100000352E+00 0.  1.
       -3    1    3    3    0  502  0.26998239819E+03 -0.17207130837E+03 -0.55301501984E+03  0.63900285826E+03  0.10100000352E+00 0. -1.
</event>
<event>
 5   0  0.9941209E-05  0.1196220E+04  0.7818609E-02  0.9116172E-01
        2   -1    0    0  501    0  0.00000000000E+00  0.00000000000E+00  0.16195678351E+04  0.16195678351E+04  0.25500000920E-02 0. -1.
       -2   -1    0    0    0  501  0.00000000000E+00  0.00000000000E+00 -0.22088335193E+03  0.22088335195E+03  0.25500000920E-02 0.  1.
    10030    2    1    2    0    0  0.00000000000E+00  0.00000000000E+00  0.13986844832E+04  0.18404511871E+04  0.11962200000E+04 0.  0.
        2    1    3    3  502    0 -0.46383694837E+03  0.27033389896E+03  0.29370458546E+03  0.61195385049E+03  0.25500000920E-02 0.  1.
       -2    1    3    3    0  502  0.46383694837E+03 -0.27033389896E+03  0.11049798978E+04  0.12284973366E+04  0.25500000920E-02 0. -1.
</event>
<event>
 5   0  0.9838215E-05  0.1200718E+04  0.7818609E-02  0.9112228E-01
        2   -1    0    0  501    0  0.00000000000E+00  0.00000000000E+00  0.80012165944E+03  0.80012165945E+03  0.25500000920E-02 0. -1.
       -2   -1    0    0    0  501  0.00000000000E+00  0.00000000000E+00 -0.45047000786E+03  0.45047000787E+03  0.25500000920E-02 0.  1.
    10030    2    1    2    0    0  0.00000000000E+00  0.00000000000E+00  0.34965165158E+03  0.12505916673E+04  0.12007178024E+04 0.  0.
        4    1    3    3  502    0 -0.60919246844E+02 -0.39747793723E+03 -0.28948153362E+03  0.49548061155E+03  0.12699999809E+01 0.  1.
       -4    1    3    3    0  502  0.60919246844E+02  0.39747793723E+03  0.63913318520E+03  0.75511105576E+03  0.12699999809E+01 0. -1.
</event>
<event>
 5   0  0.1004006E-04  0.1199739E+04  0.7818609E-02  0.9113085E-01
       -2   -1    0    0    0  501  0.00000000000E+00  0.00000000000E+00  0.66381808737E+03  0.66381808738E+03  0.25500000920E-02 0. -1.
        2   -1    0    0  501    0  0.00000000000E+00  0.00000000000E+00 -0.54208150808E+03  0.54208150808E+03  0.25500000920E-02 0.  1.
    10030    2    1    2    0    0  0.00000000000E+00  0.00000000000E+00  0.12173657930E+03  0.12058995955E+04  0.11997391548E+04 0.  0.
        5    1    3    3  502    0 -0.44879173080E+03  0.78145832508E+02  0.45312932312E+03  0.64254887927E+03  0.46999998093E+01 0. -1.
       -5    1    3    3    0  502  0.44879173080E+03 -0.78145832508E+02 -0.33139274382E+03  0.56335071619E+03  0.46999998093E+01 0.  1.
</event>
<event>
 5   0  0.1012657E-04  0.1199836E+04  0.7818609E-02  0.9113000E-01
       -2   -1    0    0    0  501  0.00000000000E+00  0.00000000000E+00  0.36294613545E+03  0.36294613546E+03  0.25500000920E-02 0. -1.
        2   -1    0    0  501    0  0.00000000000E+00  0.00000000000E+00 -0.99161095443E+03  0.99161095443E+03  0.25500000920E-02 0.  1.
    10030    2    1    2    0    0  0.00000000000E+00  0.00000000000E+00 -0.62866481898E+03  0.13545570899E+04  0.11998355950E+04 0.  0.
        1    1    3    3  502    0  0.17012978673E+03  0.39337719306E+03 -0.78823908190E+03  0.89722383529E+03  0.50400001928E-02 0.  1.
       -1    1    3    3    0  502 -0.17012978673E+03 -0.39337719306E+03  0.15957426292E+03  0.45733325460E+03  0.50400001928E-02 0. -1.
</event>
<event>
 5   0  0.1012657E-04  0.1199564E+04  0.7818609E-02  0.9113238E-01
        2   -1    0    0  501    0  0.00000000000E+00  0.00000000000E+00  0.16292009770E+04  0.16292009770E+04  0.25500000920E-02 0. -1.
       -2   -1    0    0    0  501  0.00000000000E+00  0.00000000000E+00 -0.22080661271E+03  0.22080661273E+03  0.25500000920E-02 0.  1.
    10030    2    1    2    0    0  0.00000000000E+00  0.00000000000E+00  0.14083943643E+04  0.18500075898E+04  0.11995638360E+04 0.  0.
        1    1    3    3  502    0  0.57097067997E+03 -0.17050706779E+03  0.59893850989E+03  0.84487130157E+03  0.50400001928E-02 0.  1.
       -1    1    3    3    0  502 -0.57097067997E+03  0.17050706779E+03  0.80945585444E+03  0.10051362882E+04  0.50400001928E-02 0. -1.
</event>
<event>
 5   0  0.5620246E-05  0.1200270E+04  0.7818609E-02  0.9112620E-01
        1   -1    0    0  501    0  0.00000000000E+00  0.00000000000E+00  0.65782288748E+03  0.65782288750E+03  0.50400001928E-02 0. -1.
       -1   -1    0    0    0  501  0.00000000000E+00  0.00000000000E+00 -0.54750584180E+03  0.54750584182E+03  0.50400001928E-02 0.  1.
    10030    2    1    2    0    0  0.00000000000E+00  0.00000000000E+00  0.11031704568E+03  0.12053287293E+04  0.12002697593E+04 0.  0.
        1    1    3    3  502    0  0.37806169466E+02  0.59289330849E+03 -0.30111631538E+02  0.59486006092E+03  0.50400001928E-02 0.  1.
       -1    1    3    3    0  502 -0.37806169466E+02 -0.59289330849E+03  0.14042867722E+03  0.61046866841E+03  0.50400001928E-02 0. -1.
</event>
<event>
 5   0  0.5447807E-05  0.1204748E+04  0.7818609E-02  0.9108710E-01
        1   -1    0    0  501    0  0.00000000000E+00  0.00000000000E+00  0.16863333112E+04  0.16863333113E+04  0.50400001928E-02 0. -1.
       -1   -1    0    0    0  501  0.00000000000E+00  0.00000000000E+00 -0.21517372323E+03  0.21517372329E+03  0.50400001928E-02 0.  1.
    10030    2    1    2    0    0  0.00000000000E+00  0.00000000000E+00  0.14711595880E+04  0.19015070345E+04  0.12047483011E+04 0.  0.
        2    1    3    3  502    0 -0.75687929107E+02  0.69710004964E+02  0.16723590550E+04  0.16755216967E+04  0.25500000920E-02 0. -1.
       -2    1    3    3    0  502  0.75687929107E+02 -0.69710004964E+02 -0.20119946696E+03  0.22598533783E+03  0.25500000920E-02 0.  1.
</event>
<event>
 5   0  0.1012657E-04  0.1198157E+04  0.7818609E-02  0.9114471E-01
        2   -1    0    0  501    0  0.00000000000E+00  0.00000000000E+00  0.14326395722E+04  0.14326395722E+04  0.25500000920E-02 0.  1.
       -2   -1    0    0    0  501  0.00000000000E+00  0.00000000000E+00 -0.25051324788E+03  0.25051324790E+03  0.25500000920E-02 0. -1.
    10030    2    1    2    0    0  0.00000000000E+00  0.00000000000E+00  0.11821263243E+04  0.16831528201E+04  0.11981572389E+04 0.  0.
        1    1    3    3  502    0  0.38894444800E+03 -0.11298151237E+03 -0.29038393146E+02  0.40606136737E+03  0.50400001928E-02 0. -1.
       -1    1    3    3    0  502 -0.38894444800E+03  0.11298151237E+03  0.12111647174E+04  0.12770914527E+04  0.50400001928E-02 0.  1.
</event>
<event>
 5   0  0.5745487E-05  0.1199495E+04  0.7818609E-02  0.9113298E-01
        1   -1    0    0  501    0  0.00000000000E+00  0.00000000000E+00  0.89467995266E+03  0.89467995267E+03  0.50400001928E-02 0. -1.
       -1   -1    0    0    0  501  0.00000000000E+00  0.00000000000E+00 -0.40204010828E+03  0.40204010831E+03  0.50400001928E-02 0.  1.
    10030    2    1    2    0    0  0.00000000000E+00  0.00000000000E+00  0.49263984438E+03  0.12967200610E+04  0.11994952690E+04 0.  0.
        3    1    3    3  502    0 -0.28553961611E+03  0.50078054401E+03  0.67428422763E+02  0.58039695728E+03  0.10100000352E+00 0. -1.
       -3    1    3    3    0  502  0.28553961611E+03 -0.50078054401E+03  0.42521142161E+03  0.71632310370E+03  0.10100000352E+00 0.  1.
</event>
<event>
 5   0  0.1004006E-04  0.1199898E+04  0.7818609E-02  0.9112946E-01
       -2   -1    0    0    0  501  0.00000000000E+00  0.00000000000E+00  0.73378316294E+03  0.73378316295E+03  0.25500000920E-02 0.  1.
        2   -1    0    0  501    0  0.00000000000E+00  0.00000000000E+00 -0.49052439947E+03  0.49052439947E+03  0.25500000920E-02 0. -1.
    10030    2    1    2    0    0  0.00000000000E+00  0.00000000000E+00  0.24325876348E+03  0.12243075624E+04  0.11998975712E+04 0.  0.
        5    1    3    3  502    0  0.45438012387E+03  0.18574195689E+03 -0.23028568550E+03  0.54223146207E+03  0.46999998093E+01 0. -1.
       -5    1    3    3    0  502 -0.45438012387E+03 -0.18574195689E+03  0.47354444898E+03  0.68207610035E+03  0.46999998093E+01 0.  1.
</event>
<event>
 5   0  0.5745487E-05  0.1200601E+04  0.7818609E-02  0.9112331E-01
       -1   -1    0    0    0  501  0.00000000000E+00  0.00000000000E+00  0.59449862856E+03  0.59449862858E+03  0.50400001928E-02 0.  1.
        1   -1    0    0  501    0  0.00000000000E+00  0.00000000000E+00 -0.60615866211E+03  0.60615866213E+03  0.50400001928E-02 0. -1.
    10030    2    1    2    0    0  0.00000000000E+00  0.00000000000E+00 -0.11660033550E+02  0.12006572907E+04  0.12006006719E+04 0.  0.
        3    1    3    3  502    0  0.29754568436E+03 -0.48687579333E+03  0.18067009334E+03  0.59851747280E+03  0.10100000352E+00 0. -1.
       -3    1    3    3    0  502 -0.29754568436E+03  0.48687579333E+03 -0.19233012689E+03  0.60213981792E+03  0.10100000352E+00 0.  1.
</event>
<event>
 5   0  0.9941209E-05  0.1202838E+04  0.7818609E-02  0.9110376E-01
       -2   -1    0    0    0  501  0.00000000000E+00  0.00000000000E+00  0.21590601638E+03  0.21590601639E+03  0.25500000920E-02 0.  1.
        2   -1    0    0  501    0  0.00000000000E+00  0.00000000000E+00 -0.16752876849E+04  0.16752876849E+04  0.25500000920E-02 0. -1.
    10030    2    1    2    0    0  0.00000000000E+00  0.00000000000E+00 -0.14593816685E+04  0.18911937013E+04  0.12028377951E+04 0.  0.
        2    1    3    3  502    0  0.19950415902E+03  0.32112799483E+03  0.57239404606E+01  0.37809768847E+03  0.25500000920E-02 0.  1.
       -2    1    3    3    0  502 -0.19950415902E+03 -0.32112799483E+03 -0.14651056090E+04  0.15130960128E+04  0.25500000920E-02 0. -1.
</event>
<event>
 5   0  0.5732931E-05  0.1198900E+04  0.7818609E-02  0.9113820E-01
        1   -1    0    0  501    0  0.00000000000E+00  0.00000000000E+00  0.11182084965E+04  0.11182084965E+04  0.50400001928E-02 0.  1.
       -1   -1    0    0    0  501  0.00000000000E+00  0.00000000000E+00 -0.32135346989E+03  0.32135346993E+03  0.50400001928E-02 0. -1.
    10030    2    1    2    0    0  0.00000000000E+00  0.00000000000E+00  0.79685502658E+03  0.14395619664E+04  0.11988997964E+04 0.  0.
        4    1    3    3  502    0  0.37970657516E+03  0.21607183592E+03 -0.94422186159E+02  0.44696899628E+03  0.12699999809E+01 0. -1.
       -4    1    3    3    0  502 -0.37970657516E+03 -0.21607183592E+03  0.89127721274E+03  0.99259297013E+03  0.12699999809E+01 0.  1.
</event>
<event>
 5   0  0.5625746E-05  0.1200077E+04  0.7818609E-02  0.9112789E-01
       -1   -1    0    0    0  501  0.00000000000E+00  0.00000000000E+00  0.39164587094E+03  0.39164587097E+03  0.50400001928E-02 0. -1.
        1   -1    0    0  501    0  0.00000000000E+00  0.00000000000E+00 -0.91931639460E+03  0.91931639461E+03  0.50400001928E-02 0.  1.
    10030    2    1    2    0    0  0.00000000000E+00  0.00000000000E+00 -0.52767052366E+03  0.13109622656E+04  0.12000774476E+04 0.  0.
        5    1    3    3  502    0  0.50490895698E+03 -0.25928344096E+03 -0.51270705581E+02  0.56992256741E+03  0.46999998093E+01 0.  1.
       -5    1    3    3    0  502 -0.50490895698E+03  0.25928344096E+03 -0.47639981808E+03  0.74103969817E+03  0.46999998093E+01 0. -1.
</event>
<event>
 5   0  0.5620246E-05  0.1201852E+04  0.7818609E-02  0.9111237E-01
       -1   -1    0    0    0  501  0.00000000000E+00  0.00000000000E+00  0.28004057161E+03  0.28004057165E+03  0.50400001928E-02 0.  1.
        1   -1    0    0  501    0  0.00000000000E+00  0.00000000000E+00 -0.12894993356E+04  0.12894993357E+04  0.50400001928E-02 0. -1.
    10030    2    1    2    0    0  0.00000000000E+00  0.00000000000E+00 -0.10094587640E+04  0.15695399073E+04  0.12018521225E+04 0.  0.
        1    1    3    3  502    0  0.60009348472E+03  0.31518394503E+02 -0.50806692442E+03  0.78691651355E+03  0.50400001928E-02 0.  1.
       -1    1    3    3    0  502 -0.60009348472E+03 -0.31518394503E+02 -0.50139183962E+03  0.78262339376E+03  0.50400001928E-02 0. -1.
</event>
<event>
 5   0  0.5447807E-05  0.1199858E+04  0.7818609E-02  0.9112981E-01
        1   -1    0    0  501    0  0.00000000000E+00  0.00000000000E+00  0.70561944217E+03  0.70561944219E+03  0.50400001928E-02 0. -1.
       -1   -1    0    0    0  501  0.00000000000E+00  0.00000000000E+00 -0.51006911120E+03  0.51006911122E+03  0.50400001928E-02 0.  1.
    10030    2    1    2    0    0  0.00000000000E+00  0.00000000000E+00  0.19555033097E+03  0.12156885534E+04  0.11998577945E+04 0.  0.
        2    1    3    3  502    0 -0.36282618156E+03 -0.71665471386E+02 -0.38082988662E+03  0.53085796628E+03  0.25500000920E-02 0.  1.
       -2    1    3    3    0  502  0.36282618156E+03  0.71665471386E+02  0.57638021760E+03  0.68483058712E+03  0.25500000920E-02 0. -1.
</event>
<event>
 5   0  0.1023063E-04  0.1200066E+04  0.7818609E-02  0.9112799E-01
        2   -1    0    0  501    0  0.00000000000E+00  0.00000000000E+00  0.10798268215E+04  0.10798268215E+04  0.25500000920E-02 0.  1.
       -2   -1    0    0    0  501  0.00000000000E+00  0.00000000000E+00 -0.33342339726E+03  0.33342339727E+03  0.25500000920E-02 0. -1.
    10030    2    1    2    0    0  0.00000000000E+00  0.00000000000E+00  0.74640342422E+03  0.14132502188E+04  0.12000658770E+04 0.  0.
        3    1    3    3  502    0  0.51249602277E+03  0.21941123879E+03  0.63453797958E+03  0.84464899384E+03  0.10100000352E+00 0. -1.
       -3    1    3    3    0  502 -0.51249602277E+03 -0.21941123879E+03  0.11186544464E+03  0.56860122491E+03  0.10100000352E+00 0.  1.
</event>
<event>
 5   0  0.1012657E-04  0.1200504E+04  0.7818609E-02  0.9112416E-01
       -2   -1    0    0    0  501  0.00000000000E+00  0.00000000000E+00  0.16975340790E+03  0.16975340792E+03  0.25500000920E-02 0. -1.
        2   -1    0    0  501    0  0.00000000000E+00  0.00000000000E+00 -0.21225038654E+04  0.21225038654E+04  0.25500000920E-02 0.  1.
    10030    2    1    2    0    0  0.00000000000E+00  0.00000000000E+00 -0.19527504575E+04  0.22922572733E+04  0.12005036684E+04 0.  0.
        1    1    3    3  502    0 -0.58896423741E+02 -0.20745853488E+03  0.93227456428E+02  0.23494508099E+03  0.50400001928E-02 0. -1.
       -1    1    3    3    0  502  0.58896423741E+02  0.20745853488E+03 -0.20459779139E+04  0.20573121923E+04  0.50400001928E-02 0.  1.
</event>
<event>
 5   0  0.5447807E-05  0.1199788E+04  0.7818609E-02  0.9113042E-01
       -1   -1    0    0    0  501  0.00000000000E+00  0.00000000000E+00  0.49393800259E+03  0.49393800261E+03  0.50400001928E-02 0.  1.
        1   -1    0    0  501    0  0.00000000000E+00  0.00000000000E+00 -0.72857934339E+03  0.72857934340E+03  0.50400001928E-02 0. -1.
    10030    2    1    2    0    0  0.00000000000E+00  0.00000000000E+00 -0.23464134080E+03  0.12225173460E+04  0.11997883574E+04 0.  0.
        2    1    3    3  502    0  0.58256340501E+03  0.14310472087E+03 -0.12112552687E+03  0.61198895027E+03  0.25500000920E-02 0.  1.
       -2    1    3    3    0  502 -0.58256340501E+03 -0.14310472087E+03 -0.11351581392E+03  0.61052839574E+03  0.25500000920E-02 0. -1.
</event>
<event>
 5   0  0.5732931E-05  0.1197427E+04  0.7818609E-02  0.9115112E-01
        1   -1    0    0  501    0  0.00000000000E+00  0.00000000000E+00  0.20764654000E+03  0.20764654006E+03  0.50400001928E-02 0. -1.
       -1   -1    0    0    0  501  0.00000000000E+00  0.00000000000E+00 -0.17262877918E+04  0.17262877918E+04  0.50400001928E-02 0.  1.
    10030    2    1    2    0    0  0.00000000000E+00  0.00000000000E+00 -0.15186412518E+04  0.19339343319E+04  0.11974267194E+04 0.  0.
        4    1    3    3  502    0  0.21417357928E+03 -0.46166895116E+03 -0.25000173755E+03  0.56701942137E+03  0.12699999809E+01 0. -1.
       -4    1    3    3    0  502 -0.21417357928E+03  0.46166895116E+03 -0.12686395143E+04  0.13669149105E+04  0.12699999809E+01 0.  1.
</event>
<event>
 5   0  0.5745487E-05  0.1195314E+04  0.7818609E-02  0.9116968E-01
       -1   -1    0    0    0  501  0.00000000000E+00  0.00000000000E+00  0.32959643071E+03  0.32959643075E+03  0.50400001928E-02 0.  1.
        1   -1    0    0  501    0  0.00000000000E+00  0.00000000000E+00 -0.10837313440E+04  0.10837313441E+04  0.50400001928E-02 0. -1.
    10030    2    1    2    0    0  0.00000000000E+00  0.00000000000E+00 -0.75413491334E+03  0.14133277748E+04  0.11953141560E+04 0.  0.
        3    1    3    3  502    0  0.47509620867E+02  0.15963644860E+03 -0.10557357701E+04  0.10687932383E+04  0.10100000352E+00 0. -1.
       -3    1    3    3    0  502 -0.47509620867E+02 -0.15963644860E+03  0.30160085679E+03  0.34453453646E+03  0.10100000352E+00 0.  1.
</event>
<event>
 5   0  0.5732931E-05  0.1201209E+04  0.7818609E-02  0.9111799E-01
       -1   -1    0    0    0  501  0.00000000000E+00  0.00000000000E+00  0.22522835656E+03  0.22522835661E+03  0.50400001928E-02 0.  1.
        1   -1    0    0  501    0  0.00000000000E+00  0.00000000000E+00 -0.16016011272E+04  0.16016011272E+04  0.50400001928E-02 0. -1.
    10030    2    1    2    0    0  0.00000000000E+00  0.00000000000E+00 -0.13763727706E+04  0.18268294838E+04  0.12012093736E+04 0.  0.
        4    1    3    3  502    0  0.26398627042E+03  0.29773877822E+03 -0.13723671654E+04  0.14288913117E+04  0.12699999809E+01 0. -1.
       -4    1    3    3    0  502 -0.26398627042E+03 -0.29773877822E+03 -0.40056051803E+01  0.39793817208E+03  0.12699999809E+01 0.  1.
</event>
<event>
 5   0  0.9941209E-05  0.1200084E+04  0.7818609E-02  0.9112783E-01
        2   -1    0    0  501    0  0.00000000000E+00  0.00000000000E+00  0.57075323696E+03  0.57075323697E+03  0.25500000920E-02 0.  1.
       -2   -1    0    0    0  501  0.00000000000E+00  0.00000000000E+00 -0.63083375776E+03  0.63083375777E+03  0.25500000920E-02 0. -1.
    10030    2    1    2    0    0  0.00000000000E+00  0.00000000000E+00 -0.60080520803E+02  0.12015869947E+04  0.12000840125E+04 0.  0.
        2    1    3    3  502    0  0.39412589084E+03 -0.11608854201E+03  0.40781582941E+03  0.57890026614E+03  0.25500000920E-02 0.  1.
       -2    1    3    3    0  502 -0.39412589084E+03  0.11608854201E+03 -0.46789635022E+03  0.62268672859E+03  0.25500000920E-02 0. -1.
</event>
<event>
 5   0  0.1012657E-04  0.1199864E+04  0.7818609E-02  0.9112976E-01
       -2   -1    0    0    0  501  0.00000000000E+00  0.00000000000E+00  0.24291333233E+03  0.24291333234E+03  0.25500000920E-02 0. -1.
        2   -1    0    0  501    0  0.00000000000E+00  0.00000000000E+00 -0.14816740295E+04  0.14816740295E+04  0.25500000920E-02 0.  1.
    10030    2    1    2    0    0  0.00000000000E+00  0.00000000000E+00 -0.12387606971E+04  0.17245873618E+04  0.11998639522E+04 0.  0.
        1    1    3    3  502    0 -0.35459633609E+03 -0.40334086939E+03 -0.10037011898E+04  0.11383490225E+04  0.50400001928E-02 0.  1.
       -1    1    3    3    0  502  0.35459633609E+03  0.40334086939E+03 -0.23505950728E+03  0.58623833931E+03  0.50400001928E-02 0. -1.
</event>
<event>
 5   0  0.3839750E-05  0.1199562E+04  0.7818609E-02  0.9113240E-01
        3   -1    0    0  501    0  0.00000000000E+00  0.00000000000E+00  0.21187758288E+04  0.21187758312E+04  0.10100000352E+00 0. -1.
       -3   -1    0    0    0  501  0.00000000000E+00  0.00000000000E+00 -0.16978528906E+03  0.16978531910E+03  0.10100000352E+00 0.  1.
    10030    2    1    2    0    0  0.00000000000E+00  0.00000000000E+00  0.19489905397E+04  0.22885611503E+04  0.11995615927E+04 0.  0.
        3    1    3    3  502    0  0.17081961492E+03 -0.20268101131E+03 -0.51978358140E+02  0.27011237125E+03  0.10100000352E+00 0.  1.
       -3    1    3    3    0  502 -0.17081961492E+03  0.20268101131E+03  0.20009688978E+04  0.20184487790E+04  0.10100000352E+00 0. -1.
</event>
<event>
 5   0  0.5620246E-05  0.1199883E+04  0.7818609E-02  0.9112959E-01
       -1   -1    0    0    0  501  0.00000000000E+00  0.00000000000E+00  0.96038170980E+03  0.96038170981E+03  0.50400001928E-02 0. -1.
        1   -1    0    0  501    0  0.00000000000E+00  0.00000000000E+00 -0.37477764110E+03  0.37477764114E+03  0.50400001928E-02 0.  1.
    10030    2    1    2    0    0  0.00000000000E+00  0.00000000000E+00  0.58560406869E+03  0.13351593509E+04  0.11998826472E+04 0.  0.
        1    1    3    3  502    0  0.32369691382E+03  0.46610102517E+02  0.85247610899E+03  0.91305405651E+03  0.50400001928E-02 0. -1.
       -1    1    3    3    0  502 -0.32369691382E+03 -0.46610102517E+02 -0.26687204030E+03  0.42210529444E+03  0.50400001928E-02 0.  1.
</event>
<event>
 5   0  0.9941209E-05  0.1200609E+04  0.7818609E-02  0.9112324E-01
        2   -1    0    0  501    0  0.00000000000E+00  0.00000000000E+00  0.41444637388E+03  0.41444637389E+03  0.25500000920E-02 0. -1.
       -2   -1    0    0    0  501  0.00000000000E+00  0.00000000000E+00 -0.86951008291E+03  0.86951008291E+03  0.25500000920E-02 0.  1.
    10030    2    1    2    0    0  0.00000000000E+00  0.00000000000E+00 -0.45506370903E+03  0.12839564568E+04  0.12006086805E+04 0.  0.
        2    1    3    3  502    0  0.58633011577E+03 -0.49156056982E+02 -0.10024835628E+03  0.59686602814E+03  0.25500000920E-02 0. -1.
       -2    1    3    3    0  502 -0.58633011577E+03  0.49156056982E+02 -0.35481535275E+03  0.68709042866E+03  0.25500000920E-02 0.  1.
</event>
<event>
 5   0  0.5620246E-05  0.1199856E+04  0.7818609E-02  0.9112983E-01
       -1   -1    0    0    0  501  0.00000000000E+00  0.00000000000E+00  0.56707715677E+03  0.56707715679E+03  0.50400001928E-02 0. -1.
        1   -1    0    0  501    0  0.00000000000E+00  0.00000000000E+00 -0.63468148185E+03  0.63468148187E+03  0.50400001928E-02 0.  1.
    10030    2    1    2    0    0  0.00000000000E+00  0.00000000000E+00 -0.67604325075E+02  0.12017586387E+04  0.11998556083E+04 0.  0.
        1    1    3    3  502    0 -0.42105700033E+03  0.12877221803E+03  0.37432674864E+03  0.57792023362E+03  0.50400001928E-02 0. -1.
       -1    1    3    3    0  502  0.42105700033E+03 -0.12877221803E+03 -0.44193107371E+03  0.62383840504E+03  0.50400001928E-02 0.  1.
</event>
<event>
 5   0  0.1012657E-04  0.1199901E+04  0.7818609E-02  0.9112943E-01
       -2   -1    0    0    0  501  0.00000000000E+00  0.00000000000E+00  0.23974171018E+03  0.23974171019E+03  0.25500000920E-02 0. -1.
        2   -1    0    0  501    0  0.00000000000E+00  0.00000000000E+00 -0.15013675817E+04  0.15013675817E+04  0.25500000920E-02 0.  1.
    10030    2    1    2    0    0  0.00000000000E+00  0.00000000000E+00 -0.12616258716E+04  0.17411092919E+04  0.11999007153E+04 0.  0.
        1    1    3    3  502    0  0.56620289918E+03 -0.15194610827E+03 -0.44574310008E+03  0.73645112136E+03  0.50400001928E-02 0. -1.
       -1    1    3    3    0  502 -0.56620289918E+03  0.15194610827E+03 -0.81588277149E+03  0.10046581706E+04  0.50400001928E-02 0.  1.
</event>
<event>
 5   0  0.5745487E-05  0.1201615E+04  0.7818609E-02  0.9111444E-01
        1   -1    0    0  501    0  0.00000000000E+00  0.00000000000E+00  0.87399511929E+03  0.87399511931E+03  0.50400001928E-02 0.  1.
       -1   -1    0    0    0  501  0.00000000000E+00  0.00000000000E+00 -0.41301083178E+03  0.41301083181E+03  0.50400001928E-02 0. -1.
    10030    2    1    2    0    0  0.00000000000E+00  0.00000000000E+00  0.46098428751E+03  0.12870059511E+04  0.12016146657E+04 0.  0.
        3    1    3    3  502    0  0.51376036785E+03 -0.28074131881E+03  0.85981713544E+02  0.59174172484E+03  0.10100000352E+00 0. -1.
       -3    1    3    3    0  502 -0.51376036785E+03  0.28074131881E+03  0.37500257397E+03  0.69526422627E+03  0.10100000352E+00 0.  1.
</event>
<event>
 5   0  0.1004006E-04  0.1199973E+04  0.7818609E-02  0.9112880E-01
        2   -1    0    0  501    0  0.00000000000E+00  0.00000000000E+00  0.16935116481E+04  0.16935116481E+04  0.25500000920E-02 0. -1.
       -2   -1    0    0    0  501  0.00000000000E+00  0.00000000000E+00 -0.21256662000E+03  0.21256662002E+03  0.25500000920E-02 0.  1.
    10030    2    1    2    0    0  0.00000000000E+00  0.00000000000E+00  0.14809450281E+04  0.19060782681E+04  0.11999734113E+04 0.  0.
        5    1    3    3  502    0  0.48234669139E+03  0.17864119960E+03  0.24987799798E+03  0.57186721602E+03  0.46999998093E+01 0.  1.
       -5    1    3    3    0  502 -0.48234669139E+03 -0.17864119960E+03  0.12310670301E+04  0.13342110521E+04  0.46999998093E+01 0. -1.
</event>
<event>
 5   0  0.1012657E-04  0.1199984E+04  0.7818609E-02  0.9112871E-01
       -2   -1    0    0    0  501  0.00000000000E+00  0.00000000000E+00  0.69021300295E+03  0.69021300295E+03  0.25500000920E-02 0. -1.
        2   -1    0    0  501    0  0.00000000000E+00  0.00000000000E+00 -0.52156408261E+03  0.52156408261E+03  0.25500000920E-02 0.  1.
    10030    2    1    2    0    0  0.00000000000E+00  0.00000000000E+00  0.16864892034E+03  0.12117770856E+04  0.11999838527E+04 0.  0.
        1    1    3    3  502    0 -0.32482946748E+03 -0.42750946850E+03 -0.18609789711E+03  0.56825254592E+03  0.50400001928E-02 0.  1.
       -1    1    3    3    0  502  0.32482946748E+03  0.42750946850E+03  0.35474681745E+03  0.64352453964E+03  0.50400001928E-02 0. -1.
</event>
<event>
 5   0  0.5447807E-05  0.1198555E+04  0.7818609E-02  0.9114123E-01
       -1   -1    0    0    0  501  0.00000000000E+00  0.00000000000E+00  0.41796213783E+03  0.41796213786E+03  0.50400001928E-02 0. -1.
        1   -1    0    0  501    0  0.00000000000E+00  0.00000000000E+00 -0.85924831988E+03  0.85924831989E+03  0.50400001928E-02 0.  1.
    10030    2    1    2    0    0  0.00000000000E+00  0.00000000000E+00 -0.44128618205E+03  0.12772104578E+04  0.11985545707E+04 0.  0.
        2    1    3    3  502    0  0.23134889278E+03  0.28368329378E+03 -0.72626503522E+03  0.81330155708E+03  0.25500000920E-02 0.  1.
       -2    1    3    3    0  502 -0.23134889278E+03 -0.28368329378E+03  0.28497885318E+03  0.46390890067E+03  0.25500000920E-02 0. -1.
</event>
<event>
 5   0  0.9941209E-05  0.1199579E+04  0.7818609E-02  0.9113225E-01
       -2   -1    0    0    0  501  0.00000000000E+00  0.00000000000E+00  0.26977983251E+03  0.26977983253E+03  0.25500000920E-02 0.  1.
        2   -1    0    0  501    0  0.00000000000E+00  0.00000000000E+00 -0.13334862980E+04  0.13334862981E+04  0.25500000920E-02 0. -1.
    10030    2    1    2    0    0  0.00000000000E+00  0.00000000000E+00 -0.10637064655E+04  0.16032661306E+04  0.11995794432E+04 0.  0.
        2    1    3    3  502    0 -0.11295040035E+03  0.88185141692E+02  0.24656506839E+03  0.28518195088E+03  0.25500000920E-02 0.  1.
       -2    1    3    3    0  502  0.11295040035E+03 -0.88185141692E+02 -0.13102715339E+04  0.13180841797E+04  0.25500000920E-02 0. -1.
</event>
<event>
 5   0  0.1012657E-04  0.1200452E+04  0.7818609E-02  0.9112461E-01
       -2   -1    0    0    0  501  0.00000000000E+00  0.00000000000E+00  0.58539188035E+03  0.58539188035E+03  0.25500000920E-02 0.  1.
        2   -1    0    0  501    0  0.00000000000E+00  0.00000000000E+00 -0.61543617240E+03  0.61543617241E+03  0.25500000920E-02 0. -1.
    10030    2    1    2    0    0  0.00000000000E+00  0.00000000000E+00 -0.30044292054E+02  0.12008280528E+04  0.12004521452E+04 0.  0.
        1    1    3    3  502    0  0.10070434436E+03  0.10315157218E+03 -0.59786206758E+03  0.61499647454E+03  0.50400001928E-02 0. -1.
       -1    1    3    3    0  502 -0.10070434436E+03 -0.10315157218E+03  0.56781777553E+03  0.58583157822E+03  0.50400001928E-02 0.  1.
</event>
<event>
 5   0  0.5447807E-05  0.1199765E+04  0.7818609E-02  0.9113062E-01
        1   -1    0    0  501    0  0.00000000000E+00  0.00000000000E+00  0.10470372659E+04  0.10470372659E+04  0.50400001928E-02 0. -1.
       -1   -1    0    0    0  501  0.00000000000E+00  0.00000000000E+00 -0.34369268847E+03  0.34369268851E+03  0.50400001928E-02 0.  1.
    10030    2    1    2    0    0  0.00000000000E+00  0.00000000000E+00  0.70334457740E+03  0.13907299544E+04  0.11997650651E+04 0.  0.
        2    1    3    3  502    0 -0.56936745499E+03 -0.13006441040E+02  0.13323563245E+03  0.58489332367E+03  0.25500000920E-02 0.  1.
       -2    1    3    3    0  502  0.56936745499E+03  0.13006441040E+02  0.57010894496E+03  0.80583663074E+03  0.25500000920E-02 0. -1.
</event>
<event>
 5   0  0.5732931E-05  0.1200579E+04  0.7818609E-02  0.9112350E-01
       -1   -1    0    0    0  501  0.00000000000E+00  0.00000000000E+00  0.17969093509E+03  0.17969093516E+03  0.50400001928E-02 0.  1.
        1   -1    0    0  501    0  0.00000000000E+00  0.00000000000E+00 -0.20053743639E+04  0.20053743639E+04  0.50400001928E-02 0. -1.
    10030    2    1    2    0    0  0.00000000000E+00  0.00000000000E+00 -0.18256834288E+04  0.21850652990E+04  0.12005791848E+04 0.  0.
        4    1    3    3  502    0 -0.99568418901E+02  0.38868103328E+03 -0.17254695881E+04  0.17715060621E+04  0.12699999809E+01 0. -1.
       -4    1    3    3    0  502  0.99568418901E+02 -0.38868103328E+03 -0.10021384064E+03  0.41355923690E+03  0.12699999809E+01 0.  1.
</event>
<event>
 5   0  0.1004006E-04  0.1199900E+04  0.7818609E-02  0.9112944E-01
        2   -1    0    0  501    0  0.00000000000E+00  0.00000000000E+00  0.88090723764E+03  0.88090723765E+03  0.25500000920E-02 0. -1.
       -2   -1    0    0    0  501  0.00000000000E+00  0.00000000000E+00 -0.40860181995E+03  0.40860181995E+03  0.25500000920E-02 0.  1.
    10030    2    1    2    0    0  0.00000000000E+00  0.00000000000E+00  0.47230541770E+03  0.12895090576E+04  0.11999004967E+04 0.  0.
        5    1    3    3  502    0 -0.15349349445E+03  0.34198557706E+03 -0.26723343724E+03  0.46038048149E+03  0.46999998093E+01 0.  1.
       -5    1    3    3    0  502  0.15349349445E+03 -0.34198557706E+03  0.73953885494E+03  0.82912857611E+03  0.46999998093E+01 0. -1.
</event>
<event>
 5   0  0.5745487E-05  0.1201109E+04  0.7818609E-02  0.9111887E-01
       -1   -1    0    0    0  501  0.00000000000E+00  0.00000000000E+00  0.77518161135E+03  0.77518161137E+03  0.50400001928E-02 0. -1.
        1   -1    0    0  501    0  0.00000000000E+00  0.00000000000E+00 -0.46526581972E+03  0.46526581975E+03  0.50400001928E-02 0.  1.
    10030    2    1    2    0    0  0.00000000000E+00  0.00000000000E+00  0.30991579163E+03  0.12404474311E+04  0.12011086676E+04 0.  0.
        3    1    3    3  502    0 -0.30434110885E+03  0.47748941324E+03 -0.51710851436E+02  0.56858919498E+03  0.10100000352E+00 0.  1.
       -3    1    3    3    0  502  0.30434110885E+03 -0.47748941324E+03  0.36162664307E+03  0.67185823614E+03  0.10100000352E+00 0. -1.
</event>
<event>
 5   0  0.5620246E-05  0.1199832E+04  0.7818609E-02  0.9113003E-01
       -1   -1    0    0    0  501  0.00000000000E+00  0.00000000000E+00  0.19766498139E+03  0.19766498145E+03  0.50400001928E-02 0. -1.
        1   -1    0    0  501    0  0.00000000000E+00  0.00000000000E+00 -0.18207547583E+04  0.18207547583E+04  0.50400001928E-02 0.  1.
    10030    2    1    2    0    0  0.00000000000E+00  0.00000000000E+00 -0.16230897769E+04  0.20184197398E+04  0.11998324141E+04 0.  0.
        1    1    3    3  502    0 -0.46625412356E+03 -0.32722876263E+03 -0.49490654465E+03  0.75458866861E+03  0.50400001928E-02 0. -1.
       -1    1    3    3    0  502  0.46625412356E+03  0.32722876263E+03 -0.11281832323E+04  0.12638310712E+04  0.50400001928E-02 0.  1.
</event>
<event>
 5   0  0.1023063E-04  0.1199782E+04  0.7818609E-02  0.9113047E-01
       -2   -1    0    0    0  501  0.00000000000E+00  0.00000000000E+00  0.36872966304E+03  0.36872966305E+03  0.25500000920E-02 0. -1.
        2   -1    0    0  501    0  0.00000000000E+00  0.00000000000E+00 -0.97597065773E+03  0.97597065774E+03  0.25500000920E-02 0.  1.
    10030    2    1    2    0    0  0.00000000000E+00  0.00000000000E+00 -0.60724099470E+03  0.13447003208E+04  0.11997821998E+04 0.  0.
        3    1    3    3  502    0  0.53662061630E+03  0.12449994572E+03 -0.56981012716E+03  0.79255631569E+03  0.10100000352E+00 0.  1.
       -3    1    3    3    0  502 -0.53662061630E+03 -0.12449994572E+03 -0.37430867535E+02  0.55214400510E+03  0.10100000352E+00 0. -1.
</event>
<event>
 5   0  0.1004006E-04  0.1199837E+04  0.7818609E-02  0.9112999E-01
        2   -1    0    0  501    0  0.00000000000E+00  0.00000000000E+00  0.14028356942E+04  0.14028356942E+04  0.25500000920E-02 0.  1.
       -2   -1    0    0    0  501  0.00000000000E+00  0.00000000000E+00 -0.25655332858E+03  0.25655332859E+03  0.25500000920E-02 0. -1.
    10030    2    1    2    0    0  0.00000000000E+00  0.00000000000E+00  0.11462823656E+04  0.16593890228E+04  0.11998369336E+04 0.  0.
        5    1    3    3  502    0  0.12298671310E+03 -0.25154542817E+03 -0.16061060680E+03  0.32282919795E+03  0.46999998093E+01 0. -1.
       -5    1    3    3    0  502 -0.12298671310E+03  0.25154542817E+03  0.13068929724E+04  0.13365598249E+04  0.46999998093E+01 0.  1.
</event>
<event>
 5   0  0.5625746E-05  0.1200295E+04  0.7818609E-02  0.9112599E-01
       -1   -1    0    0    0  501  0.00000000000E+00  0.00000000000E+00  0.41981340462E+03  0.41981340465E+03  0.50400001928E-02 0. -1.
        1   -1    0    0  501    0  0.00000000000E+00  0.00000000000E+00 -0.85794508315E+03  0.85794508317E+03  0.50400001928E-02 0.  1.
    10030    2    1    2    0    0  0.00000000000E+00  0.00000000000E+00 -0.43813167854E+03  0.12777584878E+04  0.12002947077E+04 0.  0.
        5    1    3    3  502    0  0.39698087005E+01 -0.37568484064E+03 -0.71724188267E+03  0.80969924486E+03  0.46999998093E+01 0.  1.
       -5    1    3    3    0  502 -0.39698087005E+01  0.37568484064E+03  0.27911020414E+03  0.46805924296E+03  0.46999998093E+01 0. -1.
</event>
<event>
 5   0  0.5447807E-05  0.1200222E+04  0.7818609E-02  0.9112662E-01
        1   -1    0    0  501    0  0.00000000000E+00  0.00000000000E+00  0.53447111886E+03  0.53447111888E+03  0.50400001928E-02 0.  1.
       -1   -1    0    0    0  501  0.00000000000E+00  0.00000000000E+00 -0.67381250413E+03  0.67381250415E+03  0.50400001928E-02 0. -1.
    10030    2    1    2    0    0  0.00000000000E+00  0.00000000000E+00 -0.13934138527E+03  0.12082836230E+04  0.12002221844E+04 0.  0.
        2    1    3    3  502    0  0.45985367037E+03 -0.43093733717E+02  0.31606188836E+03  0.55965845417E+03  0.25500000920E-02 0.  1.
       -2    1    3    3    0  502 -0.45985367037E+03  0.43093733717E+02 -0.45540327364E+03  0.64862516886E+03  0.25500000920E-02 0. -1.
</event>
<event>
 5   0  0.9838215E-05  0.1199820E+04  0.7818609E-02  0.9113014E-01
        2   -1    0    0  501    0  0.00000000000E+00  0.00000000000E+00  0.24985118919E+04  0.24985118919E+04  0.25500000920E-02 0.  1.
       -2   -1    0    0    0  501  0.00000000000E+00  0.00000000000E+00 -0.14404254098E+03  0.14404254100E+03  0.25500000920E-02 0. -1.
    10030    2    1    2    0    0  0.00000000000E+00  0.00000000000E+00  0.23544693509E+04  0.26425544329E+04  0.11998199892E+04 0.  0.
        4    1    3    3  502    0  0.56663233659E+02 -0.49264910970E+03  0.19207938692E+04  0.19837753321E+04  0.12699999809E+01 0.  1.
       -4    1    3    3    0  502 -0.56663233659E+02  0.49264910970E+03  0.43367548173E+03  0.65877910083E+03  0.12699999809E+01 0. -1.
</event>
<event>
 5   0  0.1004006E-04  0.1199605E+04  0.7818609E-02  0.9113203E-01
       -2   -1    0    0    0  501  0.00000000000E+00  0.00000000000E+00  0.46122342122E+03  0.46122342122E+03  0.25500000920E-02 0. -1.
        2   -1    0    0  501    0  0.00000000000E+00  0.00000000000E+00 -0.78001839414E+03  0.78001839414E+03  0.25500000920E-02 0.  1.
    10030    2    1    2    0    0  0.00000000000E+00  0.00000000000E+00 -0.31879497292E+03  0.12412418154E+04  0.11996045221E+04 0.  0.
        5    1    3    3  502    0  0.34310452237E+02 -0.58149580259E+03 -0.11516993347E+02  0.58263994602E+03  0.46999998093E+01 0. -1.
       -5    1    3    3    0  502 -0.34310452237E+02  0.58149580259E+03 -0.30727797957E+03  0.65860186934E+03  0.46999998093E+01 0.  1.
</event>
<event>
 5   0  0.5620246E-05  0.1200365E+04  0.7818609E-02  0.9112537E-01
       -1   -1    0    0    0  501  0.00000000000E+00  0.00000000000E+00  0.87620083569E+03  0.87620083570E+03  0.50400001928E-02 0.  1.
        1   -1    0    0  501    0  0.00000000000E+00  0.00000000000E+00 -0.41111483543E+03  0.41111483546E+03  0.50400001928E-02 0. -1.
    10030    2    1    2    0    0  0.00000000000E+00  0.00000000000E+00  0.46508600025E+03  0.12873156712E+04  0.12003652151E+04 0.  0.
        1    1    3    3  502    0  0.48284967870E+03  0.32709500454E+03  0.80558600808E+02  0.58874836935E+03  0.50400001928E-02 0. -1.
       -1    1    3    3    0  502 -0.48284967870E+03 -0.32709500454E+03  0.38452739945E+03  0.69856730182E+03  0.50400001928E-02 0.  1.
</event>
<event>
 5   0  0.9941209E-05  0.1200299E+04  0.7818609E-02  0.9112595E-01
       -2   -1    0    0    0  501  0.00000000000E+00  0.00000000000E+00  0.24736204472E+03  0.24736204473E+03  0.25500000920E-02 0. -1.
        2   -1    0    0  501    0  0.00000000000E+00  0.00000000000E+00 -0.14560808662E+04  0.14560808662E+04  0.25500000920E-02 0.  1.
    10030    2    1    2    0    0  0.00000000000E+00  0.00000000000E+00 -0.12087188215E+04  0.17034429109E+04  0.12002985301E+04 0.  0.
        2    1    3    3  502    0  0.27792189616E+03 -0.52592461452E+03 -0.71737715323E+03  0.93191590850E+03  0.25500000920E-02 0.  1.
       -2    1    3    3    0  502 -0.27792189616E+03  0.52592461452E+03 -0.49134166824E+03  0.77152700243E+03  0.25500000920E-02 0. -1.
</event>
<event>
 5   0  0.5447807E-05  0.1200863E+04  0.7818609E-02  0.9112102E-01
        1   -1    0    0  501    0  0.00000000000E+00  0.00000000000E+00  0.54657819269E+03  0.54657819271E+03  0.50400001928E-02 0.  1.
       -1   -1    0    0    0  501  0.00000000000E+00  0.00000000000E+00 -0.65959063240E+03  0.65959063242E+03  0.50400001928E-02 0. -1.
    10030    2    1    2    0    0  0.00000000000E+00  0.00000000000E+00 -0.11301243971E+03  0.12061688251E+04  0.12008627828E+04 0.  0.
        2    1    3    3  502    0  0.48880227301E+03 -0.28190647288E+03 -0.26264200926E+03  0.62239838254E+03  0.25500000920E-02 0. -1.
       -2    1    3    3    0  502 -0.48880227301E+03  0.28190647288E+03  0.14962956955E+03  0.58377044259E+03  0.25500000920E-02 0.  1.
</event>
<event>
 5   0  0.1012657E-04  0.1197994E+04  0.7818609E-02  0.9114614E-01
        2   -1    0    0  501    0  0.00000000000E+00  0.00000000000E+00  0.12308161701E+04  0.12308161701E+04  0.25500000920E-02 0. -1.
       -2   -1    0    0    0  501  0.00000000000E+00  0.00000000000E+00 -0.29151169791E+03  0.29151169792E+03  0.25500000920E-02 0.  1.
    10030    2    1    2    0    0  0.00000000000E+00  0.00000000000E+00  0.93930447214E+03  0.15223278680E+04  0.11979938423E+04 0.  0.
        1    1    3    3  502    0  0.22035798053E+03  0.92548963861E+02  0.11675998275E+04  0.11918105166E+04  0.50400001928E-02 0. -1.
       -1    1    3    3    0  502 -0.22035798053E+03 -0.92548963861E+02 -0.22829535532E+03  0.33051735141E+03  0.50400001928E-02 0.  1.
</event>
<event>
 5   0  0.5620246E-05  0.1200153E+04  0.7818609E-02  0.9112722E-01
       -1   -1    0    0    0  501  0.00000000000E+00  0.00000000000E+00  0.31306909281E+03  0.31306909285E+03  0.50400001928E-02 0. -1.
        1   -1    0    0  501    0  0.00000000000E+00  0.00000000000E+00 -0.11501997200E+04  0.11501997200E+04  0.50400001928E-02 0.  1.
    10030    2    1    2    0    0  0.00000000000E+00  0.00000000000E+00 -0.83713062722E+03  0.14632688129E+04  0.12001532951E+04 0.  0.
        1    1    3    3  502    0  0.45414960623E+03  0.34093526994E+03 -0.65499398523E+03  0.86689436718E+03  0.50400001928E-02 0.  1.
       -1    1    3    3    0  502 -0.45414960623E+03 -0.34093526994E+03 -0.18213664199E+03  0.59637444572E+03  0.50400001928E-02 0. -1.
</event>
<event>
 5   0  0.5745487E-05  0.1198039E+04  0.7818609E-02  0.9114574E-01
        1   -1    0    0  501    0  0.00000000000E+00  0.00000000000E+00  0.61550894201E+03  0.61550894203E+03  0.50400001928E-02 0. -1.
       -1   -1    0    0    0  501  0.00000000000E+00  0.00000000000E+00 -0.58297206399E+03  0.58297206401E+03  0.50400001928E-02 0.  1.
    10030    2    1    2    0    0  0.00000000000E+00  0.00000000000E+00  0.32536878021E+02  0.11984810060E+04  0.11980392621E+04 0.  0.
        3    1    3    3  502    0  0.58425716834E+03  0.12795532346E+03 -0.16842172828E+02  0.59834160189E+03  0.10100000352E+00 0.  1.
       -3    1    3    3    0  502 -0.58425716834E+03 -0.12795532346E+03  0.49379050849E+02  0.60013940416E+03  0.10100000352E+00 0. -1.
</event>
<event>
 5   0  0.9838215E-05  0.1200077E+04  0.7818609E-02  0.9112789E-01
       -2   -1    0    0    0  501  0.00000000000E+00  0.00000000000E+00  0.61670431866E+03  0.61670431866E+03  0.25500000920E-02 0.  1.
        2   -1    0    0  501    0  0.00000000000E+00  0.00000000000E+00 -0.58382352952E+03  0.58382352953E+03  0.25500000920E-02 0. -1.
    10030    2    1    2    0    0  0.00000000000E+00  0.00000000000E+00  0.32880789133E+02  0.12005278482E+04  0.12000774842E+04 0.  0.
        4    1    3    3  502    0  0.34384078946E+03 -0.46580319597E+03 -0.14124417959E+03  0.59594516278E+03  0.12699999809E+01 0. -1.
       -4    1    3    3    0  502 -0.34384078946E+03  0.46580319597E+03  0.17412496872E+03  0.60458268541E+03  0.12699999809E+01 0.  1.
</event>
<event>
 5   0  0.1012657E-04  0.1199530E+04  0.7818609E-02  0.9113268E-01
        2   -1    0    0  501    0  0.00000000000E+00  0.00000000000E+00  0.73200059474E+03  0.73200059474E+03  0.25500000920E-02 0. -1.
       -2   -1    0    0    0  501  0.00000000000E+00  0.00000000000E+00 -0.49141732502E+03  0.49141732503E+03  0.25500000920E-02 0.  1.
    10030    2    1    2    0    0  0.00000000000E+00  0.00000000000E+00  0.24058326972E+03  0.12234179198E+04  0.11995295314E+04 0.  0.
        1    1    3    3  502    0 -0.12795345644E+03  0.23618235541E+03 -0.42663721878E+03  0.50415623421E+03  0.50400001928E-02 0.  1.
       -1    1    3    3    0  502  0.12795345644E+03 -0.23618235541E+03  0.66722048849E+03  0.71926168556E+03  0.50400001928E-02 0. -1.
</event>
<event>
 5   0  0.3839750E-05  0.1200353E+04  0.7818609E-02  0.9112547E-01
        4   -1    0    0  501    0  0.00000000000E+00  0.00000000000E+00  0.73445784661E+03  0.73445894463E+03  0.12699999809E+01 0. -1.
       -4   -1    0    0    0  501  0.00000000000E+00  0.00000000000E+00 -0.49044394590E+03  0.49044559023E+03  0.12699999809E+01 0.  1.
    10030    2    1    2    0    0  0.00000000000E+00  0.00000000000E+00  0.24401390071E+03  0.12249045349E+04  0.12003534212E+04 0.  0.
        4    1    3    3  502    0 -0.58393759176E+02 -0.90863535619E+02  0.72445860097E+03  0.73246698945E+03  0.12699999809E+01 0. -1.
       -4    1    3    3    0  502  0.58393759176E+02  0.90863535619E+02 -0.48044470026E+03  0.49243754541E+03  0.12699999809E+01 0.  1.
</event>
<event>
 5   0  0.5732931E-05  0.1199944E+04  0.7818609E-02  0.9112906E-01
        1   -1    0    0  501    0  0.00000000000E+00  0.00000000000E+00  0.58910670961E+03  0.58910670963E+03  0.50400001928E-02 0.  1.
       -1   -1    0    0    0  501  0.00000000000E+00  0.00000000000E+00 -0.61103770559E+03  0.61103770561E+03  0.50400001928E-02 0. -1.
    10030    2    1    2    0    0  0.00000000000E+00  0.00000000000E+00 -0.21930995979E+02  0.12001444152E+04  0.11999440190E+04 0.  0.
        4    1    3    3  502    0  0.26750662841E+02 -0.18916237942E+03  0.55787089807E+03  0.58967750132E+03  0.12699999809E+01 0.  1.
       -4    1    3    3    0  502 -0.26750662841E+02  0.18916237942E+03 -0.57980189405E+03  0.61046691392E+03  0.12699999809E+01 0. -1.
</event>
<event>
 5   0  0.5625746E-05  0.1200049E+04  0.7818609E-02  0.9112813E-01
       -1   -1    0    0    0  501  0.00000000000E+00  0.00000000000E+00  0.24840031872E+03  0.24840031877E+03  0.50400001928E-02 0. -1.
        1   -1    0    0  501    0  0.00000000000E+00  0.00000000000E+00 -0.14493925314E+04  0.14493925314E+04  0.50400001928E-02 0.  1.
    10030    2    1    2    0    0  0.00000000000E+00  0.00000000000E+00 -0.12009922127E+04  0.16977928502E+04  0.12000492770E+04 0.  0.
        5    1    3    3  502    0  0.10499081117E+02  0.94886115138E+02 -0.14385530180E+04  0.14417248285E+04  0.46999998093E+01 0.  1.
       -5    1    3    3    0  502 -0.10499081117E+02 -0.94886115138E+02  0.23756080527E+03  0.25606802172E+03  0.46999998093E+01 0. -1.
</event>
<event>
 5   0  0.9941209E-05  0.1200728E+04  0.7818609E-02  0.9112219E-01
        2   -1    0    0  501    0  0.00000000000E+00  0.00000000000E+00  0.85892802802E+03  0.85892802803E+03  0.25500000920E-02 0.  1.
       -2   -1    0    0    0  501  0.00000000000E+00  0.00000000000E+00 -0.41963610915E+03  0.41963610916E+03  0.25500000920E-02 0. -1.
    10030    2    1    2    0    0  0.00000000000E+00  0.00000000000E+00  0.43929191887E+03  0.12785641372E+04  0.12007284718E+04 0.  0.
        2    1    3    3  502    0 -0.21045382583E+03 -0.17835552883E+03  0.78744337549E+03  0.83436717162E+03  0.25500000920E-02 0.  1.
       -2    1    3    3    0  502  0.21045382583E+03  0.17835552883E+03 -0.34815145662E+03  0.44419696557E+03  0.25500000920E-02 0. -1.
</event>
<event>
 5   0  0.5732931E-05  0.1200205E+04  0.7818609E-02  0.9112677E-01
       -1   -1    0    0    0  501  0.00000000000E+00  0.00000000000E+00  0.40449350208E+03  0.40449350212E+03  0.50400001928E-02 0.  1.
        1   -1    0    0  501    0  0.00000000000E+00  0.00000000000E+00 -0.89030597254E+03  0.89030597255E+03  0.50400001928E-02 0. -1.
    10030    2    1    2    0    0  0.00000000000E+00  0.00000000000E+00 -0.48581247045E+03  0.12947994747E+04  0.12002049505E+04 0.  0.
        4    1    3    3  502    0 -0.38530519209E+03 -0.30468990364E+03 -0.61478521650E+03  0.78692979595E+03  0.12699999809E+01 0. -1.
       -4    1    3    3    0  502  0.38530519209E+03  0.30468990364E+03  0.12897274604E+03  0.50786967871E+03  0.12699999809E+01 0.  1.
</event>
<event>
 5   0  0.1004006E-04  0.1199491E+04  0.7818609E-02  0.9113303E-01
        2   -1    0    0  501    0  0.00000000000E+00  0.00000000000E+00  0.11814718171E+04  0.11814718171E+04  0.25500000920E-02 0. -1.
       -2   -1    0    0    0  501  0.00000000000E+00  0.00000000000E+00 -0.30444605065E+03  0.30444605066E+03  0.25500000920E-02 0.  1.
    10030    2    1    2    0    0  0.00000000000E+00  0.00000000000E+00  0.87702576645E+03  0.14859178678E+04  0.11994906063E+04 0.  0.
        5    1    3    3  502    0 -0.31194636907E+03 -0.42778694033E+03  0.78749177028E+03  0.94893497235E+03  0.46999998093E+01 0. -1.
       -5    1    3    3    0  502  0.31194636907E+03  0.42778694033E+03  0.89533996171E+02  0.53698289541E+03  0.46999998093E+01 0.  1.
</event>
<event>
 5   0  0.5625746E-05  0.1199943E+04  0.7818609E-02  0.9112906E-01
        1   -1    0    0  501    0  0.00000000000E+00  0.00000000000E+00  0.69630288709E+03  0.69630288711E+03  0.50400001928E-02 0.  1.
       -1   -1    0    0    0  501  0.00000000000E+00  0.00000000000E+00 -0.51696740032E+03  0.51696740034E+03  0.50400001928E-02 0. -1.
    10030    2    1    2    0    0  0.00000000000E+00  0.00000000000E+00  0.17933548678E+03  0.12132702875E+04  0.11999431543E+04 0.  0.
        5    1    3    3  502    0  0.37224383235E+03  0.27389124697E+03 -0.29715405073E+03  0.54945837490E+03  0.46999998093E+01 0. -1.
       -5    1    3    3    0  502 -0.37224383235E+03 -0.27389124697E+03  0.47648953750E+03  0.66381191255E+03  0.46999998093E+01 0.  1.
</event>
<event>
 5   0  0.5620246E-05  0.1198918E+04  0.7818609E-02  0.9113804E-01
       -1   -1    0    0    0  501  0.00000000000E+00  0.00000000000E+00  0.76350768064E+03  0.76350768065E+03  0.50400001928E-02 0. -1.
        1   -1    0    0  501    0  0.00000000000E+00  0.00000000000E+00 -0.47065848668E+03  0.47065848671E+03  0.50400001928E-02 0.  1.
    10030    2    1    2    0    0  0.00000000000E+00  0.00000000000E+00  0.29284919396E+03  0.12341661674E+04  0.11989184619E+04 0.  0.
        1    1    3    3  502    0 -0.17479265431E+03 -0.45265559765E+03 -0.21592085102E+03  0.53110392205E+03  0.50400001928E-02 0.  1.
       -1    1    3    3    0  502  0.17479265431E+03  0.45265559765E+03  0.50877004498E+03  0.70306224531E+03  0.50400001928E-02 0. -1.
</event>
<event>
 5   0  0.9941209E-05  0.1199264E+04  0.7818609E-02  0.9113501E-01
       -2   -1    0    0    0  501  0.00000000000E+00  0.00000000000E+00  0.27291185185E+03  0.27291185187E+03  0.25500000920E-02 0.  1.
        2   -1    0    0  501    0  0.00000000000E+00  0.00000000000E+00 -0.13174898792E+04  0.13174898792E+04  0.25500000920E-02 0. -1.
    10030    2    1    2    0    0  0.00000000000E+00  0.00000000000E+00 -0.10445780273E+04  0.15904017311E+04  0.11992641123E+04 0.  0.
        2    1    3    3  502    0  0.20666964086E+03  0.15527598815E+03  0.19522402017E+03  0.32393732574E+03  0.25500000920E-02 0.  1.
       -2    1    3    3    0  502 -0.20666964086E+03 -0.15527598815E+03 -0.12398020475E+04  0.12664644053E+04  0.25500000920E-02 0. -1.
</event>
<event>
 5   0  0.5625746E-05  0.1198952E+04  0.7818609E-02  0.9113774E-01
        1   -1    0    0  501    0  0.00000000000E+00  0.00000000000E+00  0.60244855933E+03  0.60244855935E+03  0.50400001928E-02 0.  1.
       -1   -1    0    0    0  501  0.00000000000E+00  0.00000000000E+00 -0.59651812770E+03  0.59651812772E+03  0.50400001928E-02 0. -1.
    10030    2    1    2    0    0  0.00000000000E+00  0.00000000000E+00  0.59304316298E+01  0.11989666871E+04  0.11989520202E+04 0.  0.
        5    1    3    3  502    0  0.54853239119E+03  0.24176791979E+03 -0.17893649768E+00  0.59946779166E+03  0.46999998093E+01 0.  1.
       -5    1    3    3    0  502 -0.54853239119E+03 -0.24176791979E+03  0.61093681275E+01  0.59949889541E+03  0.46999998093E+01 0. -1.
</event>
<event>
 5   0  0.1012657E-04  0.1199860E+04  0.7818609E-02  0.9112979E-01
       -2   -1    0    0    0  501  0.00000000000E+00  0.00000000000E+00  0.77240237134E+03  0.77240237135E+03  0.25500000920E-02 0. -1.
        2   -1    0    0  501    0  0.00000000000E+00  0.00000000000E+00 -0.46596941399E+03  0.46596941400E+03  0.25500000920E-02 0.  1.
    10030    2    1    2    0    0  0.00000000000E+00  0.00000000000E+00  0.30643295735E+03  0.12383717853E+04  0.11998597924E+04 0.  0.
        1    1    3    3  502    0 -0.26063485648E+03  0.18228600737E+03 -0.37179251020E+03  0.48927332603E+03  0.50400001928E-02 0.  1.
       -1    1    3    3    0  502  0.26063485648E+03 -0.18228600737E+03  0.67822546755E+03  0.74909845932E+03  0.50400001928E-02 0. -1.
</event>
<event>
 5   0  0.5620246E-05  0.1200549E+04  0.7818609E-02  0.9112376E-01
        1   -1    0    0  501    0  0.00000000000E+00  0.00000000000E+00  0.65351287216E+03  0.65351287218E+03  0.50400001928E-02 0. -1.
       -1   -1    0    0    0  501  0.00000000000E+00  0.00000000000E+00 -0.55137293141E+03  0.55137293143E+03  0.50400001928E-02 0.  1.
    10030    2    1    2    0    0  0.00000000000E+00  0.00000000000E+00  0.10213994076E+03  0.12048858036E+04  0.12005487213E+04 0.  0.
        1    1    3    3  502    0 -0.50021235444E+03 -0.19251669115E+03 -0.22019192254E+03  0.57944763239E+03  0.50400001928E-02 0.  1.
       -1    1    3    3    0  502  0.50021235444E+03  0.19251669115E+03  0.32233186329E+03  0.62543817122E+03  0.50400001928E-02 0. -1.
</event>
<event>
 5   0  0.5447807E-05  0.1199947E+04  0.7818609E-02  0.9112903E-01
       -1   -1    0    0    0  501  0.00000000000E+00  0.00000000000E+00  0.24972786663E+03  0.24972786668E+03  0.50400001928E-02 0.  1.
        1   -1    0    0  501    0  0.00000000000E+00  0.00000000000E+00 -0.14414408401E+04  0.14414408401E+04  0.50400001928E-02 0. -1.
    10030    2    1    2    0    0  0.00000000000E+00  0.00000000000E+00 -0.11917129735E+04  0.16911687068E+04  0.11999465754E+04 0.  0.
        2    1    3    3  502    0  0.59419223533E+01 -0.38686443716E+03 -0.12421237837E+04  0.13009884293E+04  0.25500000920E-02 0. -1.
       -2    1    3    3    0  502 -0.59419223533E+01  0.38686443716E+03  0.50410810177E+02  0.39018027752E+03  0.25500000920E-02 0.  1.
</event>
<event>
 5   0  0.9838215E-05  0.1200025E+04  0.7818609E-02  0.9112834E-01
       -2   -1    0    0    0  501  0.00000000000E+00  0.00000000000E+00  0.46590656937E+03  0.46590656938E+03  0.25500000920E-02 0.  1.
        2   -1    0    0  501    0  0.00000000000E+00  0.00000000000E+00 -0.77271978832E+03  0.77271978832E+03  0.25500000920E-02 0. -1.
    10030    2    1    2    0    0  0.00000000000E+00  0.00000000000E+00 -0.30681321895E+03  0.12386263577E+04  0.12000253759E+04 0.  0.
        4    1    3    3  502    0 -0.14046920437E+01 -0.58137535953E+03 -0.30655154282E+03  0.65724785518E+03  0.12699999809E+01 0. -1.
       -4    1    3    3    0  502  0.14046920437E+01  0.58137535953E+03 -0.26167612312E+00  0.58137850253E+03  0.12699999809E+01 0.  1.
</event>
<event>
 5   0  0.9941209E-05  0.1200210E+04  0.7818609E-02  0.9112672E-01
        2   -1    0    0  501    0  0.00000000000E+00  0.00000000000E+00  0.12279346742E+04  0.12279346742E+04  0.25500000920E-02 0. -1.
       -2   -1    0    0    0  501  0.00000000000E+00  0.00000000000E+00 -0.29327801168E+03  0.29327801170E+03  0.25500000920E-02 0.  1.
    10030    2    1    2    0    0  0.00000000000E+00  0.00000000000E+00  0.93465666252E+03  0.15212126859E+04  0.12002103811E+04 0.  0.
        2    1    3    3  502    0  0.65010119824E+02  0.30393725448E+03  0.11179687754E+04  0.11603699208E+04  0.25500000920E-02 0. -1.
       -2    1    3    3    0  502 -0.65010119824E+02 -0.30393725448E+03 -0.18331211292E+03  0.36084276505E+03  0.25500000920E-02 0.  1.
</event>
<event>
 5   0  0.9838215E-05  0.1199926E+04  0.7818609E-02  0.9112921E-01
       -2   -1    0    0    0  501  0.00000000000E+00  0.00000000000E+00  0.64215664923E+03  0.64215664924E+03  0.25500000920E-02 0.  1.
        2   -1    0    0  501    0  0.00000000000E+00  0.00000000000E+00 -0.56054183184E+03  0.56054183185E+03  0.25500000920E-02 0. -1.
    10030    2    1    2    0    0  0.00000000000E+00  0.00000000000E+00  0.81614817386E+02  0.12026984811E+04  0.11999261052E+04 0.  0.
        4    1    3    3  502    0  0.46384595693E+02  0.58843022912E+03  0.14853776909E+03  0.60865979579E+03  0.12699999809E+01 0. -1.
       -4    1    3    3    0  502 -0.46384595693E+02 -0.58843022912E+03 -0.66922951702E+02  0.59403868530E+03  0.12699999809E+01 0.  1.
</event>
<event>
 5   0  0.5447807E-05  0.1199580E+04  0.7818609E-02  0.9113224E-01
       -1   -1    0    0    0  501  0.00000000000E+00  0.00000000000E+00  0.11388386760E+04  0.11388386760E+04  0.50400001928E-02 0.  1.
        1   -1    0    0  501    0  0.00000000000E+00  0.00000000000E+00 -0.31589026819E+03  0.31589026823E+03  0.50400001928E-02 0. -1.
    10030    2    1    2    0    0  0.00000000000E+00  0.00000000000E+00  0.82294840784E+03  0.14547289443E+04  0.11995800179E+04 0.  0.
        2    1    3    3  502    0  0.23884834083E+03  0.38392057197E+03  0.88938286799E+03  0.99772011174E+03  0.25500000920E-02 0.  1.
       -2    1    3    3    0  502 -0.23884834083E+03 -0.38392057197E+03 -0.66434460151E+02  0.45700883252E+03  0.25500000920E-02 0. -1.
</event>
<event>
 5   0  0.1012657E-04  0.1201561E+04  0.7818609E-02  0.9111491E-01
        2   -1    0    0  501    0  0.00000000000E+00  0.00000000000E+00  0.35369744619E+03  0.35369744620E+03  0.25500000920E-02 0. -1.
       -2   -1    0    0    0  501  0.00000000000E+00  0.00000000000E+00 -0.10204693478E+04  0.10204693478E+04  0.25500000920E-02 0.  1.
    10030    2    1    2    0    0  0.00000000000E+00  0.00000000000E+00 -0.66677190163E+03  0.13741667940E+04  0.12015613214E+04 0.  0.
        1    1    3    3  502    0  0.99805952755E+02  0.47403799091E+03 -0.73976709814E+03  0.88426726986E+03  0.50400001928E-02 0.  1.
       -1    1    3    3    0  502 -0.99805952755E+02 -0.47403799091E+03  0.72995196510E+02  0.48989952416E+03  0.50400001928E-02 0. -1.
</event>
<event>
 5   0  0.5732931E-05  0.1199772E+04  0.7818609E-02  0.9113056E-01
       -1   -1    0    0    0  501  0.00000000000E+00  0.00000000000E+00  0.40345501134E+03  0.40345501137E+03  0.50400001928E-02 0.  1.
        1   -1    0    0  501    0  0.00000000000E+00  0.00000000000E+00 -0.89195334733E+03  0.89195334735E+03  0.50400001928E-02 0. -1.
    10030    2    1    2    0    0  0.00000000000E+00  0.00000000000E+00 -0.48849833600E+03  0.12954083587E+04  0.11997717248E+04 0.  0.
        4    1    3    3  502    0 -0.25919006740E+03  0.30581669972E+03 -0.72609382636E+03  0.82940774197E+03  0.12699999809E+01 0. -1.
       -4    1    3    3    0  502  0.25919006740E+03 -0.30581669972E+03  0.23759549036E+03  0.46600061674E+03  0.12699999809E+01 0.  1.
</event>
<event>
 5   0  0.5447807E-05  0.1200113E+04  0.7818609E-02  0.9112758E-01
        1   -1    0    0  501    0  0.00000000000E+00  0.00000000000E+00  0.11892837911E+04  0.11892837911E+04  0.50400001928E-02 0. -1.
       -1   -1    0    0    0  501  0.00000000000E+00  0.00000000000E+00 -0.30276003814E+03  0.30276003818E+03  0.50400001928E-02 0.  1.
    10030    2    1    2    0    0  0.00000000000E+00  0.00000000000E+00  0.88652375297E+03  0.14920438293E+04  0.12001126714E+04 0.  0.
        2    1    3    3  502    0  0.82032390050E+02  0.51034887645E+02  0.11795509041E+04  0.11835008273E+04  0.25500000920E-02 0. -1.
       -2    1    3    3    0  502 -0.82032390050E+02 -0.51034887645E+02 -0.29302715115E+03  0.30854300201E+03  0.25500000920E-02 0.  1.
</event>
<event>
 5   0  0.5620246E-05  0.1200305E+04  0.7818609E-02  0.9112590E-01
        1   -1    0    0  501    0  0.00000000000E+00  0.00000000000E+00  0.99558176976E+03  0.99558176977E+03  0.50400001928E-02 0. -1.
       -1   -1    0    0    0  501  0.00000000000E+00  0.00000000000E+00 -0.36178129070E+03  0.36178129074E+03  0.50400001928E-02 0.  1.
    10030    2    1    2    0    0  0.00000000000E+00  0.00000000000E+00  0.63380047906E+03  0.13573630605E+04  0.12003047241E+04 0.  0.
        1    1    3    3  502    0 -0.45629590854E+03  0.36680919664E+03  0.16761144043E+03  0.60897334743E+03  0.50400001928E-02 0.  1.
       -1    1    3    3    0  502  0.45629590854E+03 -0.36680919664E+03  0.46618903862E+03  0.74838971308E+03  0.50400001928E-02 0. -1.
</event>
<event>
 5   0  0.1012657E-04  0.1202966E+04  0.7818609E-02  0.9110265E-01
        2   -1    0    0  501    0  0.00000000000E+00  0.00000000000E+00  0.61281165009E+03  0.61281165009E+03  0.25500000920E-02 0.  1.
       -2   -1    0    0    0  501  0.00000000000E+00  0.00000000000E+00 -0.59036349095E+03  0.59036349096E+03  0.25500000920E-02 0. -1.
    10030    2    1    2    0    0  0.00000000000E+00  0.00000000000E+00  0.22448159139E+02  0.12031751411E+04  0.12029657103E+04 0.  0.
        1    1    3    3  502    0 -0.20382770666E+03  0.38649912375E+03  0.42464131848E+03  0.60930087481E+03  0.50400001928E-02 0.  1.
       -1    1    3    3    0  502  0.20382770666E+03 -0.38649912375E+03 -0.40219315934E+03  0.59387426624E+03  0.50400001928E-02 0. -1.
</event>
<event>
 5   0  0.5745487E-05  0.1200670E+04  0.7818609E-02  0.9112270E-01
       -1   -1    0    0    0  501  0.00000000000E+00  0.00000000000E+00  0.26715352125E+03  0.26715352130E+03  0.50400001928E-02 0. -1.
        1   -1    0    0  501    0  0.00000000000E+00  0.00000000000E+00 -0.13490459179E+04  0.13490459179E+04  0.50400001928E-02 0.  1.
    10030    2    1    2    0    0  0.00000000000E+00  0.00000000000E+00 -0.10818923967E+04  0.16161994392E+04  0.12006704250E+04 0.  0.
        3    1    3    3  502    0  0.56154112319E+02 -0.18024303386E+03 -0.13080487410E+04  0.13216021923E+04  0.10100000352E+00 0.  1.
       -3    1    3    3    0  502 -0.56154112319E+02  0.18024303386E+03  0.22615634437E+03  0.29459724691E+03  0.10100000352E+00 0. -1.
</event>
<event>
 5   0  0.5625746E-05  0.1199883E+04  0.7818609E-02  0.9112959E-01
        1   -1    0    0  501    0  0.00000000000E+00  0.00000000000E+00  0.20087747243E+04  0.20087747243E+04  0.50400001928E-02 0. -1.
       -1   -1    0    0    0  501  0.00000000000E+00  0.00000000000E+00 -0.17917877244E+03  0.17917877251E+03  0.50400001928E-02 0.  1.
    10030    2    1    2    0    0  0.00000000000E+00  0.00000000000E+00  0.18295959519E+04  0.21879534968E+04  0.11998829764E+04 0.  0.
        5    1    3    3  502    0  0.33585528453E+03 -0.45462327222E+03  0.54816388528E+03  0.78739242244E+03  0.46999998093E+01 0.  1.
       -5    1    3    3    0  502 -0.33585528453E+03  0.45462327222E+03  0.12814320666E+04  0.14005610744E+04  0.46999998093E+01 0. -1.
</event>
<event>
 5   0  0.5745487E-05  0.1199820E+04  0.7818609E-02  0.9113014E-01
        1   -1    0    0  501    0  0.00000000000E+00  0.00000000000E+00  0.12534760513E+04  0.12534760513E+04  0.50400001928E-02 0.  1.
       -1   -1    0    0    0  501  0.00000000000E+00  0.00000000000E+00 -0.28711510509E+03  0.28711510514E+03  0.50400001928E-02 0. -1.
    10030    2    1    2    0    0  0.00000000000E+00  0.00000000000E+00  0.96636094619E+03  0.15405911564E+04  0.11998198335E+04 0.  0.
        3    1    3    3  502    0  0.26676989047E+03 -0.52853674923E+03  0.60750258876E+03  0.84827865427E+03  0.10100000352E+00 0.  1.
       -3    1    3    3    0  502 -0.26676989047E+03  0.52853674923E+03  0.35885835743E+03  0.69231250216E+03  0.10100000352E+00 0. -1.
</event>
<event>
 5   0  0.9941209E-05  0.1200610E+04  0.7818609E-02  0.9112323E-01
       -2   -1    0    0    0  501  0.00000000000E+00  0.00000000000E+00  0.53674580419E+03  0.53674580420E+03  0.25500000920E-02 0. -1.
        2   -1    0    0  501    0  0.00000000000E+00  0.00000000000E+00 -0.67139073424E+03  0.67139073425E+03  0.25500000920E-02 0.  1.
    10030    2    1    2    0    0  0.00000000000E+00  0.00000000000E+00 -0.13464493005E+03  0.12081365384E+04  0.12006101109E+04 0.  0.
        2    1    3    3  502    0 -0.17454547240E+03  0.32538964890E+03  0.40895384879E+03  0.55098801801E+03  0.25500000920E-02 0. -1.
       -2    1    3    3    0  502  0.17454547240E+03 -0.32538964890E+03 -0.54359877884E+03  0.65714852044E+03  0.25500000920E-02 0.  1.
</event>
<event>
 5   0  0.9941209E-05  0.1199650E+04  0.7818609E-02  0.9113163E-01
        2   -1    0    0  501    0  0.00000000000E+00  0.00000000000E+00  0.15144327461E+04  0.15144327461E+04  0.25500000920E-02 0.  1.
       -2   -1    0    0    0  501  0.00000000000E+00  0.00000000000E+00 -0.23757405723E+03  0.23757405725E+03  0.25500000920E-02 0. -1.
    10030    2    1    2    0    0  0.00000000000E+00  0.00000000000E+00  0.12768586889E+04  0.17520068034E+04  0.11996498354E+04 0.  0.
        2    1    3    3  502    0 -0.87330435344E+02 -0.14925412449E+03 -0.20038062406E+03  0.26468054919E+03  0.25500000920E-02 0. -1.
       -2    1    3    3    0  502  0.87330435344E+02  0.14925412449E+03  0.14772393130E+04  0.14873262542E+04  0.25500000920E-02 0.  1.
</event>
<event>
 5   0  0.9838215E-05  0.1202236E+04  0.7818609E-02  0.9110901E-01
       -2   -1    0    0    0  501  0.00000000000E+00  0.00000000000E+00  0.14523080471E+04  0.14523080471E+04  0.25500000920E-02 0.  1.
        2   -1    0    0  501    0  0.00000000000E+00  0.00000000000E+00 -0.24880604569E+03  0.24880604571E+03  0.25500000920E-02 0. -1.
    10030    2    1    2    0    0  0.00000000000E+00  0.00000000000E+00  0.12035020014E+04  0.17011140928E+04  0.12022362868E+04 0.  0.
        4    1    3    3  502    0  0.19499726748E+03  0.52566772067E+03  0.29502499708E+03  0.63355492949E+03  0.12699999809E+01 0. -1.
       -4    1    3    3    0  502 -0.19499726748E+03 -0.52566772067E+03  0.90847700432E+03  0.10675591633E+04  0.12699999809E+01 0.  1.
</event>
<event>
 5   0  0.5625746E-05  0.1199817E+04  0.7818609E-02  0.9113016E-01
       -1   -1    0    0    0  501  0.00000000000E+00  0.00000000000E+00  0.28934837947E+03  0.28934837952E+03  0.50400001928E-02 0.  1.
        1   -1    0    0  501    0  0.00000000000E+00  0.00000000000E+00 -0.12437963278E+04  0.12437963278E+04  0.50400001928E-02 0. -1.
    10030    2    1    2    0    0  0.00000000000E+00  0.00000000000E+00 -0.95444794829E+03  0.15331447073E+04  0.11998174059E+04 0.  0.
        5    1    3    3  502    0  0.45497636663E+03 -0.74863336164E+02  0.13131357943E+02  0.46130525236E+03  0.46999998093E+01 0.  1.
       -5    1    3    3    0  502 -0.45497636663E+03  0.74863336164E+02 -0.96757930624E+03  0.10718394549E+04  0.46999998093E+01 0. -1.
</event>
<event>
 5   0  0.5745487E-05  0.1200130E+04  0.7818609E-02  0.9112743E-01
       -1   -1    0    0    0  501  0.00000000000E+00  0.00000000000E+00  0.37962208071E+03  0.37962208074E+03  0.50400001928E-02 0.  1.
        1   -1    0    0  501    0  0.00000000000E+00  0.00000000000E+00 -0.94851719522E+03  0.94851719523E+03  0.50400001928E-02 0. -1.
    10030    2    1    2    0    0  0.00000000000E+00  0.00000000000E+00 -0.56889511451E+03  0.13281392760E+04  0.12001301117E+04 0.  0.
        3    1    3    3  502    0 -0.19975263567E+03 -0.31096925881E+03 -0.80760188728E+03  0.88815753891E+03  0.10100000352E+00 0. -1.
       -3    1    3    3    0  502  0.19975263567E+03  0.31096925881E+03  0.23870677277E+03  0.43998173706E+03  0.10100000352E+00 0.  1.
</event>
<event>
 5   0  0.5732931E-05  0.1199941E+04  0.7818609E-02  0.9112908E-01
       -1   -1    0    0    0  501  0.00000000000E+00  0.00000000000E+00  0.64979202537E+03  0.64979202539E+03  0.50400001928E-02 0.  1.
        1   -1    0    0  501    0  0.00000000000E+00  0.00000000000E+00 -0.55396925111E+03  0.55396925113E+03  0.50400001928E-02 0. -1.
    10030    2    1    2    0    0  0.00000000000E+00  0.00000000000E+00  0.95822774261E+02  0.12037612765E+04  0.11999413347E+04 0.  0.
        4    1    3    3  502    0  0.39843023952E+03  0.10871166881E+03 -0.38867320030E+03  0.56712728044E+03  0.12699999809E+01 0. -1.
       -4    1    3    3    0  502 -0.39843023952E+03 -0.10871166881E+03  0.48449597456E+03  0.63663399607E+03  0.12699999809E+01 0.  1.
</event>
<event>
 5   0  0.1004006E-04  0.1199842E+04  0.7818609E-02  0.9112994E-01
        2   -1    0    0  501    0  0.00000000000E+00  0.00000000000E+00  0.12385553661E+04  0.12385553661E+04  0.25500000920E-02 0.  1.
       -2   -1    0    0    0  501  0.00000000000E+00  0.00000000000E+00 -0.29058489216E+03  0.29058489217E+03  0.25500000920E-02 0. -1.
    10030    2    1    2    0    0  0.00000000000E+00  0.00000000000E+00  0.94797047390E+03  0.15291402582E+04  0.11998424521E+04 0.  0.
        5    1    3    3  502    0  0.30788670104E+02  0.42424572454E+03  0.10131111119E+04  0.10987941537E+04  0.46999998093E+01 0.  1.
       -5    1    3    3    0  502 -0.30788670104E+02 -0.42424572454E+03 -0.65140638027E+02  0.43034610457E+03  0.46999998093E+01 0. -1.
</event>
<event>
 5   0  0.5745487E-05  0.1200226E+04  0.7818609E-02  0.9112659E-01
       -1   -1    0    0    0  501  0.00000000000E+00  0.00000000000E+00  0.44271625013E+03  0.44271625016E+03  0.50400001928E-02 0. -1.
        1   -1    0    0  501    0  0.00000000000E+00  0.00000000000E+00 -0.81346840086E+03  0.81346840087E+03  0.50400001928E-02 0.  1.
    10030    2    1    2    0    0  0.00000000000E+00  0.00000000000E+00 -0.37075215073E+03  0.12561846510E+04  0.12002261121E+04 0.  0.
        3    1    3    3  502    0 -0.15758057089E+03  0.92827896984E+02 -0.78358976588E+03  0.80464997743E+03  0.10100000352E+00 0.  1.
       -3    1    3    3    0  502  0.15758057089E+03 -0.92827896984E+02  0.41283761515E+03  0.45153467360E+03  0.10100000352E+00 0. -1.
</event>
<event>
 5   0  0.5447807E-05  0.1199836E+04  0.7818609E-02  0.9113000E-01
       -1   -1    0    0    0  501  0.00000000000E+00  0.00000000000E+00  0.20613651685E+03  0.20613651691E+03  0.50400001928E-02 0.  1.
        1   -1    0    0  501    0  0.00000000000E+00  0.00000000000E+00 -0.17459387772E+04  0.17459387772E+04  0.50400001928E-02 0. -1.
    10030    2    1    2    0    0  0.00000000000E+00  0.00000000000E+00 -0.15398022604E+04  0.19520752942E+04  0.11998362192E+04 0.  0.
        2    1    3    3  502    0 -0.14141381795E+03  0.16302834960E+03 -0.16805953001E+04  0.16943956661E+04  0.25500000920E-02 0. -1.
       -2    1    3    3    0  502  0.14141381795E+03 -0.16302834960E+03  0.14079303969E+03  0.25767962805E+03  0.25500000920E-02 0.  1.
</event>
<event>
 5   0  0.1023063E-04  0.1199706E+04  0.7818609E-02  0.9113114E-01
        2   -1    0    0  501    0  0.00000000000E+00  0.00000000000E+00  0.44943174309E+03  0.44943174310E+03  0.25500000920E-02 0.  1.
       -2   -1    0    0    0  501  0.00000000000E+00  0.00000000000E+00 -0.80061866970E+03  0.80061866971E+03  0.25500000920E-02 0. -1.
    10030    2    1    2    0    0  0.00000000000E+00  0.00000000000E+00 -0.35118692661E+03  0.12500504128E+04  0.11997057044E+04 0.  0.
        3    1    3    3  502    0  0.47476375886E+03 -0.10850976680E+03  0.18931489793E+03  0.52250850423E+03  0.10100000352E+00 0.  1.
       -3    1    3    3    0  502 -0.47476375886E+03  0.10850976680E+03 -0.54050182453E+03  0.72754190858E+03  0.10100000352E+00 0. -1.
</event>
<event>
 5   0  0.5745487E-05  0.1199791E+04  0.7818609E-02  0.9113039E-01
       -1   -1    0    0    0  501  0.00000000000E+00  0.00000000000E+00  0.33350848754E+03  0.33350848758E+03  0.50400001928E-02 0.  1.
        1   -1    0    0  501    0  0.00000000000E+00  0.00000000000E+00 -0.10790569919E+04  0.10790569920E+04  0.50400001928E-02 0. -1.
    10030    2    1    2    0    0  0.00000000000E+00  0.00000000000E+00 -0.74554850440E+03  0.14125654795E+04  0.11997910908E+04 0.  0.
        3    1    3    3  502    0  0.41558935415E+03  0.63541303949E+01 -0.88206148870E+03  0.97508326122E+03  0.10100000352E+00 0. -1.
       -3    1    3    3    0  502 -0.41558935415E+03 -0.63541303949E+01  0.13651298431E+03  0.43748221831E+03  0.10100000352E+00 0.  1.
</event>
<event>
 5   0  0.5745487E-05  0.1200200E+04  0.7818609E-02  0.9112681E-01
        1   -1    0    0  501    0  0.00000000000E+00  0.00000000000E+00  0.71812140881E+03  0.71812140883E+03  0.50400001928E-02 0.  1.
       -1   -1    0    0    0  501  0.00000000000E+00  0.00000000000E+00 -0.50147526769E+03  0.50147526771E+03  0.50400001928E-02 0. -1.
    10030    2    1    2    0    0  0.00000000000E+00  0.00000000000E+00  0.21664614113E+03  0.12195966765E+04  0.12002001929E+04 0.  0.
        3    1    3    3  502    0 -0.17852378703E+03 -0.21747854210E+03 -0.43029256569E+03  0.51411998707E+03  0.10100000352E+00 0. -1.
       -3    1    3    3    0  502  0.17852378703E+03  0.21747854210E+03  0.64693870682E+03  0.70547668948E+03  0.10100000352E+00 0.  1.
</event>
<event>
 5   0  0.5745487E-05  0.1199271E+04  0.7818609E-02  0.9113495E-01
        1   -1    0    0  501    0  0.00000000000E+00  0.00000000000E+00  0.11439633576E+04  0.11439633576E+04  0.50400001928E-02 0. -1.
       -1   -1    0    0    0  501  0.00000000000E+00  0.00000000000E+00 -0.31431314118E+03  0.31431314123E+03  0.50400001928E-02 0.  1.
    10030    2    1    2    0    0  0.00000000000E+00  0.00000000000E+00  0.82965021637E+03  0.14582764988E+04  0.11992709725E+04 0.  0.
        3    1    3    3  502    0  0.13783081804E+03  0.19008330103E+03 -0.25609209099E+03  0.34743656256E+03  0.10100000352E+00 0.  1.
       -3    1    3    3    0  502 -0.13783081804E+03 -0.19008330103E+03  0.10857423074E+04  0.11108399362E+04  0.10100000352E+00 0. -1.
</event>
<event>
 5   0  0.3839750E-05  0.1199974E+04  0.7818609E-02  0.9112879E-01
       -4   -1    0    0    0  501  0.00000000000E+00  0.00000000000E+00  0.37751588496E+03  0.37751802116E+03  0.12699999809E+01 0. -1.
        4   -1    0    0  501    0  0.00000000000E+00  0.00000000000E+00 -0.95355646374E+03  0.95355730946E+03  0.12699999809E+01 0.  1.
    10030    2    1    2    0    0  0.00000000000E+00  0.00000000000E+00 -0.57604057877E+03  0.13310753306E+04  0.11999744945E+04 0.  0.
        4    1    3    3  502    0  0.45859785201E+03  0.10155020092E+03 -0.70211300027E+03  0.84474180151E+03  0.12699999809E+01 0.  1.
       -4    1    3    3    0  502 -0.45859785201E+03 -0.10155020092E+03  0.12607242150E+03  0.48633352911E+03  0.12699999809E+01 0. -1.
</event>
<event>
 5   0  0.5732931E-05  0.1200204E+04  0.7818609E-02  0.9112678E-01
        1   -1    0    0  501    0  0.00000000000E+00  0.00000000000E+00  0.16390229399E+04  0.16390229399E+04  0.50400001928E-02 0. -1.
       -1   -1    0    0    0  501  0.00000000000E+00  0.00000000000E+00 -0.21971773909E+03  0.21971773915E+03  0.50400001928E-02 0.  1.
    10030    2    1    2    0    0  0.00000000000E+00  0.00000000000E+00  0.14193052008E+04  0.18587406791E+04  0.12002040072E+04 0.  0.
        4    1    3    3  502    0  0.27138547930E+02  0.58646008213E+03  0.51716084436E+03  0.78238665668E+03  0.12699999809E+01 0.  1.
       -4    1    3    3    0  502 -0.27138547930E+02 -0.58646008213E+03  0.90214435648E+03  0.10763540224E+04  0.12699999809E+01 0. -1.
</event>
<event>
 5   0  0.5447807E-05  0.1200006E+04  0.7818609E-02  0.9112852E-01
       -1   -1    0    0    0  501  0.00000000000E+00  0.00000000000E+00  0.28438003538E+03  0.28438003542E+03  0.50400001928E-02 0. -1.
        1   -1    0    0  501    0  0.00000000000E+00  0.00000000000E+00 -0.12659234008E+04  0.12659234008E+04  0.50400001928E-02 0.  1.
    10030    2    1    2    0    0  0.00000000000E+00  0.00000000000E+00 -0.98154336539E+03  0.15503034362E+04  0.12000055692E+04 0.  0.
        2    1    3    3  502    0  0.17165642341E+03  0.57350390755E+03 -0.43860201518E+03  0.74212154489E+03  0.25500000920E-02 0. -1.
       -2    1    3    3    0  502 -0.17165642341E+03 -0.57350390755E+03 -0.54294135021E+03  0.80818189131E+03  0.25500000920E-02 0.  1.
</event>
<event>
 5   0  0.1023063E-04  0.1200634E+04  0.7818609E-02  0.9112302E-01
       -2   -1    0    0    0  501  0.00000000000E+00  0.00000000000E+00  0.48011216409E+03  0.48011216410E+03  0.25500000920E-02 0. -1.
        2   -1    0    0  501    0  0.00000000000E+00  0.00000000000E+00 -0.75061692257E+03  0.75061692258E+03  0.25500000920E-02 0.  1.
    10030    2    1    2    0    0  0.00000000000E+00  0.00000000000E+00 -0.27050475848E+03  0.12307290867E+04  0.12006336912E+04 0.  0.
        3    1    3    3  502    0  0.37211243568E+03 -0.16545528237E+03  0.31686714040E+03  0.51599216091E+03  0.10100000352E+00 0. -1.
       -3    1    3    3    0  502 -0.37211243568E+03  0.16545528237E+03 -0.58737189888E+03  0.71473692576E+03  0.10100000352E+00 0.  1.
</event>
<event>
 5   0  0.9838215E-05  0.1199978E+04  0.7818609E-02  0.9112876E-01
        2   -1    0    0  501    0  0.00000000000E+00  0.00000000000E+00  0.26527006692E+03  0.26527006694E+03  0.25500000920E-02 0. -1.
       -2   -1    0    0    0  501  0.00000000000E+00  0.00000000000E+00 -0.13570579796E+04  0.13570579796E+04  0.25500000920E-02 0.  1.
    10030    2    1    2    0    0  0.00000000000E+00  0.00000000000E+00 -0.10917879127E+04  0.16223280466E+04  0.11999781016E+04 0.  0.
        4    1    3    3  502    0 -0.14642677243E+03  0.38744803885E+03 -0.11327594997E+04  0.12061104757E+04  0.12699999809E+01 0.  1.
       -4    1    3    3    0  502  0.14642677243E+03 -0.38744803885E+03  0.40971586968E+02  0.41621757091E+03  0.12699999809E+01 0. -1.
</event>
<event>
 5   0  0.9838215E-05  0.1200120E+04  0.7818609E-02  0.9112752E-01
        2   -1    0    0  501    0  0.00000000000E+00  0.00000000000E+00  0.15360674606E+04  0.15360674606E+04  0.25500000920E-02 0. -1.
       -2   -1    0    0    0  501  0.00000000000E+00  0.00000000000E+00 -0.23441143524E+03  0.23441143525E+03  0.25500000920E-02 0.  1.
    10030    2    1    2    0    0  0.00000000000E+00  0.00000000000E+00  0.13016560254E+04  0.17704788959E+04  0.12001196242E+04 0.  0.
        4    1    3    3  502    0 -0.50314910406E+03  0.47645976227E+02  0.17360962569E+03  0.53438850568E+03  0.12699999809E+01 0.  1.
       -4    1    3    3    0  502  0.50314910406E+03 -0.47645976227E+02  0.11280463997E+04  0.12360903902E+04  0.12699999809E+01 0. -1.
</event>
<event>
 5   0  0.5625746E-05  0.1200929E+04  0.7818609E-02  0.9112044E-01
       -1   -1    0    0    0  501  0.00000000000E+00  0.00000000000E+00  0.48757036504E+03  0.48757036507E+03  0.50400001928E-02 0. -1.
        1   -1    0    0  501    0  0.00000000000E+00  0.00000000000E+00 -0.73949853372E+03  0.73949853374E+03  0.50400001928E-02 0.  1.
    10030    2    1    2    0    0  0.00000000000E+00  0.00000000000E+00 -0.25192816868E+03  0.12270688988E+04  0.12009289239E+04 0.  0.
        5    1    3    3  502    0 -0.79300215289E+02 -0.24995907328E+03  0.42594817338E+03  0.50022194960E+03  0.46999998093E+01 0. -1.
       -5    1    3    3    0  502  0.79300215289E+02  0.24995907328E+03 -0.67787634205E+03  0.72684694921E+03  0.46999998093E+01 0.  1.
</event>
<event>
 5   0  0.5745487E-05  0.1200122E+04  0.7818609E-02  0.9112750E-01
        1   -1    0    0  501    0  0.00000000000E+00  0.00000000000E+00  0.22299885831E+04  0.22299885831E+04  0.50400001928E-02 0.  1.
       -1   -1    0    0    0  501  0.00000000000E+00  0.00000000000E+00 -0.16146854979E+03  0.16146854987E+03  0.50400001928E-02 0. -1.
    10030    2    1    2    0    0  0.00000000000E+00  0.00000000000E+00  0.20685200333E+04  0.23914571330E+04  0.12001216983E+04 0.  0.
        3    1    3    3  502    0 -0.91041117173E+02 -0.37119667497E+03  0.19560706622E+04  0.19930599345E+04  0.10100000352E+00 0.  1.
       -3    1    3    3    0  502  0.91041117173E+02  0.37119667497E+03  0.11244937108E+03  0.39839719852E+03  0.10100000352E+00 0. -1.
</event>
<event>
 5   0  0.9838215E-05  0.1198235E+04  0.7818609E-02  0.9114403E-01
       -2   -1    0    0    0  501  0.00000000000E+00  0.00000000000E+00  0.38218532119E+03  0.38218532120E+03  0.25500000920E-02 0. -1.
        2   -1    0    0  501    0  0.00000000000E+00  0.00000000000E+00 -0.93918266556E+03  0.93918266556E+03  0.25500000920E-02 0.  1.
    10030    2    1    2    0    0  0.00000000000E+00  0.00000000000E+00 -0.55699734437E+03  0.13213679868E+04  0.11982350833E+04 0.  0.
        4    1    3    3  502    0 -0.24902396099E+03 -0.13449637610E+03 -0.86081334714E+03  0.90614758171E+03  0.12699999809E+01 0.  1.
       -4    1    3    3    0  502  0.24902396099E+03  0.13449637610E+03  0.30381600276E+03  0.41522040505E+03  0.12699999809E+01 0. -1.
</event>
<event>
 5   0  0.1004006E-04  0.1199572E+04  0.7818609E-02  0.9113231E-01
       -2   -1    0    0    0  501  0.00000000000E+00  0.00000000000E+00  0.63945155378E+03  0.63945155379E+03  0.25500000920E-02 0.  1.
        2   -1    0    0  501    0  0.00000000000E+00  0.00000000000E+00 -0.56258098627E+03  0.56258098628E+03  0.25500000920E-02 0. -1.
    10030    2    1    2    0    0  0.00000000000E+00  0.00000000000E+00  0.76870567513E+02  0.12020325401E+04  0.11995720667E+04 0.  0.
        5    1    3    3  502    0  0.27604107573E+03  0.43237593503E+03  0.34983558325E+03  0.62093047114E+03  0.46999998093E+01 0. -1.
       -5    1    3    3    0  502 -0.27604107573E+03 -0.43237593503E+03 -0.27296501574E+03  0.58110206892E+03  0.46999998093E+01 0.  1.
</event>
<event>
 5   0  0.5625746E-05  0.1199565E+04  0.7818609E-02  0.9113237E-01
       -1   -1    0    0    0  501  0.00000000000E+00  0.00000000000E+00  0.62614148302E+03  0.62614148304E+03  0.50400001928E-02 0.  1.
        1   -1    0    0  501    0  0.00000000000E+00  0.00000000000E+00 -0.57453361041E+03  0.57453361043E+03  0.50400001928E-02 0. -1.
    10030    2    1    2    0    0  0.00000000000E+00  0.00000000000E+00  0.51607872610E+02  0.12006750935E+04  0.11995654661E+04 0.  0.
        5    1    3    3  502    0 -0.55378120411E+03  0.16403982428E+03 -0.13600744611E+03  0.59338250848E+03  0.46999998093E+01 0. -1.
       -5    1    3    3    0  502  0.55378120411E+03 -0.16403982428E+03  0.18761531872E+03  0.60729258499E+03  0.46999998093E+01 0.  1.
</event>
<event>
 5   0  0.5745487E-05  0.1203750E+04  0.7818609E-02  0.9109581E-01
        1   -1    0    0  501    0  0.00000000000E+00  0.00000000000E+00  0.60422495110E+03  0.60422495112E+03  0.50400001928E-02 0.  1.
       -1   -1    0    0    0  501  0.00000000000E+00  0.00000000000E+00 -0.59953397316E+03  0.59953397318E+03  0.50400001928E-02 0. -1.
    10030    2    1    2    0    0  0.00000000000E+00  0.00000000000E+00  0.46909779362E+01  0.12037589243E+04  0.12037497840E+04 0.  0.
        3    1    3    3  502    0  0.58313764013E+03  0.11826846053E+03 -0.88299776359E+02  0.60152622287E+03  0.10100000352E+00 0. -1.
       -3    1    3    3    0  502 -0.58313764013E+03 -0.11826846053E+03  0.92990754296E+02  0.60223270144E+03  0.10100000352E+00 0.  1.
</event>
<event>
 5   0  0.9941209E-05  0.1199390E+04  0.7818609E-02  0.9113391E-01
        2   -1    0    0  501    0  0.00000000000E+00  0.00000000000E+00  0.21758210334E+04  0.21758210334E+04  0.25500000920E-02 0.  1.
       -2   -1    0    0    0  501  0.00000000000E+00  0.00000000000E+00 -0.16528660652E+03  0.16528660654E+03  0.25500000920E-02 0. -1.
    10030    2    1    2    0    0  0.00000000000E+00  0.00000000000E+00  0.20105344269E+04  0.23411076399E+04  0.11993899700E+04 0.  0.
        2    1    3    3  502    0  0.29848393761E+02  0.59337575630E+03  0.11644214639E+04  0.13072348911E+04  0.25500000920E-02 0. -1.
       -2    1    3    3    0  502 -0.29848393761E+02 -0.59337575630E+03  0.84611296297E+03  0.10338727489E+04  0.25500000920E-02 0.  1.
</event>
<event>
 5   0  0.1004006E-04  0.1203358E+04  0.7818609E-02  0.9109922E-01
        2   -1    0    0  501    0  0.00000000000E+00  0.00000000000E+00  0.10767939613E+04  0.10767939613E+04  0.25500000920E-02 0.  1.
       -2   -1    0    0    0  501  0.00000000000E+00  0.00000000000E+00 -0.33619973935E+03  0.33619973936E+03  0.25500000920E-02 0. -1.
    10030    2    1    2    0    0  0.00000000000E+00  0.00000000000E+00  0.74059422191E+03  0.14129937006E+04  0.12033583824E+04 0.  0.
        5    1    3    3  502    0  0.19375977271E+03  0.21940940115E+03  0.98752486303E+03  0.10300052330E+04  0.46999998093E+01 0.  1.
       -5    1    3    3    0  502 -0.19375977271E+03 -0.21940940115E+03 -0.24693064112E+03  0.38298846765E+03  0.46999998093E+01 0. -1.
</event>
<event>
 5   0  0.1012657E-04  0.1200245E+04  0.7818609E-02  0.9112642E-01
        2   -1    0    0  501    0  0.00000000000E+00  0.00000000000E+00  0.46549083192E+03  0.46549083193E+03  0.25500000920E-02 0. -1.
       -2   -1    0    0    0  501  0.00000000000E+00  0.00000000000E+00 -0.77369315138E+03  0.77369315138E+03  0.25500000920E-02 0.  1.
    10030    2    1    2    0    0  0.00000000000E+00  0.00000000000E+00 -0.30820231945E+03  0.12391839833E+04  0.12002450895E+04 0.  0.
        1    1    3    3  502    0 -0.51642037374E+03 -0.29813768370E+03 -0.84298674467E+02  0.60223114117E+03  0.50400001928E-02 0. -1.
       -1    1    3    3    0  502  0.51642037374E+03  0.29813768370E+03 -0.22390364499E+03  0.63695284214E+03  0.50400001928E-02 0.  1.
</event>
<event>
 5   0  0.9838215E-05  0.1198595E+04  0.7818609E-02  0.9114087E-01
        2   -1    0    0  501    0  0.00000000000E+00  0.00000000000E+00  0.15083116899E+04  0.15083116899E+04  0.25500000920E-02 0.  1.
       -2   -1    0    0    0  501  0.00000000000E+00  0.00000000000E+00 -0.23811901404E+03  0.23811901405E+03  0.25500000920E-02 0. -1.
    10030    2    1    2    0    0  0.00000000000E+00  0.00000000000E+00  0.12701926758E+04  0.17464307039E+04  0.11985953320E+04 0.  0.
        4    1    3    3  502    0 -0.55032949066E+03 -0.21301378598E+03  0.78734848034E+03  0.98394952295E+03  0.12699999809E+01 0.  1.
       -4    1    3    3    0  502  0.55032949066E+03  0.21301378598E+03  0.48284419549E+03  0.76248118097E+03  0.12699999809E+01 0. -1.
</event>
<event>
 5   0  0.1004006E-04  0.1200586E+04  0.7818609E-02  0.9112343E-01
       -2   -1    0    0    0  501  0.00000000000E+00  0.00000000000E+00  0.22951600584E+03  0.22951600586E+03  0.25500000920E-02 0.  1.
        2   -1    0    0  501    0  0.00000000000E+00  0.00000000000E+00 -0.15700515099E+04  0.15700515099E+04  0.25500000920E-02 0. -1.
    10030    2    1    2    0    0  0.00000000000E+00  0.00000000000E+00 -0.13405355040E+04  0.17995675157E+04  0.12005864426E+04 0.  0.
        5    1    3    3  502    0 -0.17000245111E+03  0.26008870182E+03 -0.14401034141E+04  0.14732504538E+04  0.46999998093E+01 0. -1.
       -5    1    3    3    0  502  0.17000245111E+03 -0.26008870182E+03  0.99567910093E+02  0.32631706195E+03  0.46999998093E+01 0.  1.
</event>
<event>
 5   0  0.1023063E-04  0.1199736E+04  0.7818609E-02  0.9113088E-01
       -2   -1    0    0    0  501  0.00000000000E+00  0.00000000000E+00  0.95529279109E+03  0.95529279109E+03  0.25500000920E-02 0.  1.
        2   -1    0    0  501    0  0.00000000000E+00  0.00000000000E+00 -0.37668198438E+03  0.37668198438E+03  0.25500000920E-02 0. -1.
    10030    2    1    2    0    0  0.00000000000E+00  0.00000000000E+00  0.57861080671E+03  0.13319747755E+04  0.11997359446E+04 0.  0.
        3    1    3    3  502    0  0.74902972652E+02  0.36218946043E+02  0.94885587971E+03  0.95249659213E+03  0.10100000352E+00 0.  1.
       -3    1    3    3    0  502 -0.74902972652E+02 -0.36218946043E+02 -0.37024507299E+03  0.37947818335E+03  0.10100000352E+00 0. -1.
</event>
<event>
 5   0  0.5447807E-05  0.1199933E+04  0.7818609E-02  0.9112915E-01
       -1   -1    0    0    0  501  0.00000000000E+00  0.00000000000E+00  0.30112467211E+03  0.30112467216E+03  0.50400001928E-02 0.  1.
        1   -1    0    0  501    0  0.00000000000E+00  0.00000000000E+00 -0.11953845303E+04  0.11953845303E+04  0.50400001928E-02 0. -1.
    10030    2    1    2    0    0  0.00000000000E+00  0.00000000000E+00 -0.89425985816E+03  0.14965092024E+04  0.11999329561E+04 0.  0.
        2    1    3    3  502    0  0.39709678977E+03 -0.80135641692E+02  0.10480341257E+03  0.41843916740E+03  0.25500000920E-02 0.  1.
       -2    1    3    3    0  502 -0.39709678977E+03  0.80135641692E+02 -0.99906327073E+03  0.10780700350E+04  0.25500000920E-02 0. -1.
</event>
<event>
 5   0  0.1004006E-04  0.1200159E+04  0.7818609E-02  0.9112717E-01
        2   -1    0    0  501    0  0.00000000000E+00  0.00000000000E+00  0.13077221749E+04  0.13077221749E+04  0.25500000920E-02 0.  1.
       -2   -1    0    0    0  501  0.00000000000E+00  0.00000000000E+00 -0.27536081893E+03  0.27536081894E+03  0.25500000920E-02 0. -1.
    10030    2    1    2    0    0  0.00000000000E+00  0.00000000000E+00  0.10323613560E+04  0.15830829939E+04  0.12001590712E+04 0.  0.
        5    1    3    3  502    0 -0.35329480951E+03 -0.35843812842E+03  0.85151906901E+02  0.51045866785E+03  0.46999998093E+01 0. -1.
       -5    1    3    3    0  502  0.35329480951E+03  0.35843812842E+03  0.94720944908E+03  0.10726243260E+04  0.46999998093E+01 0.  1.
</event>
<event>
 5   0  0.5625746E-05  0.1198847E+04  0.7818609E-02  0.9113866E-01
       -1   -1    0    0    0  501  0.00000000000E+00  0.00000000000E+00  0.37151249447E+03  0.37151249451E+03  0.50400001928E-02 0. -1.
        1   -1    0    0  501    0  0.00000000000E+00  0.00000000000E+00 -0.96715108019E+03  0.96715108020E+03  0.50400001928E-02 0.  1.
    10030    2    1    2    0    0  0.00000000000E+00  0.00000000000E+00 -0.59563858572E+03  0.13386635747E+04  0.11988472970E+04 0.  0.
        5    1    3    3  502    0 -0.22210566709E+03  0.19594186437E+03  0.28407280571E+03  0.41041879893E+03  0.46999998093E+01 0. -1.
       -5    1    3    3    0  502  0.22210566709E+03 -0.19594186437E+03 -0.87971139143E+03  0.92824477579E+03  0.46999998093E+01 0.  1.
</event>
<event>
 5   0  0.5625746E-05  0.1200160E+04  0.7818609E-02  0.9112717E-01
        1   -1    0    0  501    0  0.00000000000E+00  0.00000000000E+00  0.46595672119E+03  0.46595672122E+03  0.50400001928E-02 0. -1.
       -1   -1    0    0    0  501  0.00000000000E+00  0.00000000000E+00 -0.77280974251E+03  0.77280974253E+03  0.50400001928E-02 0.  1.
    10030    2    1    2    0    0  0.00000000000E+00  0.00000000000E+00 -0.30685302132E+03  0.12387664638E+04  0.12001598123E+04 0.  0.
        5    1    3    3  502    0 -0.19795154393E+03 -0.21591287472E+03 -0.69398165386E+03  0.75328335247E+03  0.46999998093E+01 0.  1.
       -5    1    3    3    0  502  0.19795154393E+03  0.21591287472E+03  0.38712863254E+03  0.48548311128E+03  0.46999998093E+01 0. -1.
</event>
<event>
 5   0  0.5625746E-05  0.1199626E+04  0.7818609E-02  0.9113184E-01
       -1   -1    0    0    0  501  0.00000000000E+00  0.00000000000E+00  0.31480322441E+03  0.31480322445E+03  0.50400001928E-02 0.  1.
        1   -1    0    0  501    0  0.00000000000E+00  0.00000000000E+00 -0.11428594635E+04  0.11428594635E+04  0.50400001928E-02 0. -1.
    10030    2    1    2    0    0  0.00000000000E+00  0.00000000000E+00 -0.82805623905E+03  0.14576626879E+04  0.11996263488E+04 0.  0.
        5    1    3    3  502    0  0.31352656228E+03 -0.22928314820E+03 -0.96937421028E+03  0.10443074820E+04  0.46999998093E+01 0. -1.
       -5    1    3    3    0  502 -0.31352656228E+03  0.22928314820E+03  0.14131797124E+03  0.41335520597E+03  0.46999998093E+01 0.  1.
</event>
<event>
 5   0  0.5732931E-05  0.1201217E+04  0.7818609E-02  0.9111792E-01
        1   -1    0    0  501    0  0.00000000000E+00  0.00000000000E+00  0.54028580805E+03  0.54028580808E+03  0.50400001928E-02 0.  1.
       -1   -1    0    0    0  501  0.00000000000E+00  0.00000000000E+00 -0.66766670725E+03  0.66766670727E+03  0.50400001928E-02 0. -1.
    10030    2    1    2    0    0  0.00000000000E+00  0.00000000000E+00 -0.12738089920E+03  0.12079525153E+04  0.12012174599E+04 0.  0.
        4    1    3    3  502    0 -0.21949661799E+03 -0.41845567937E+03  0.30912439205E+03  0.56466222077E+03  0.12699999809E+01 0.  1.
       -4    1    3    3    0  502  0.21949661799E+03  0.41845567937E+03 -0.43650529125E+03  0.64329029458E+03  0.12699999809E+01 0. -1.
</event>
<event>
 5   0  0.1023063E-04  0.1200263E+04  0.7818609E-02  0.9112627E-01
        2   -1    0    0  501    0  0.00000000000E+00  0.00000000000E+00  0.57439055273E+03  0.57439055274E+03  0.25500000920E-02 0.  1.
       -2   -1    0    0    0  501  0.00000000000E+00  0.00000000000E+00 -0.62702583587E+03  0.62702583587E+03  0.25500000920E-02 0. -1.
    10030    2    1    2    0    0  0.00000000000E+00  0.00000000000E+00 -0.52635283133E+02  0.12014163886E+04  0.12002628320E+04 0.  0.
        3    1    3    3  502    0  0.54514884414E+03  0.25079250149E+03 -0.34902899285E+02  0.60108432325E+03  0.10100000352E+00 0. -1.
       -3    1    3    3    0  502 -0.54514884414E+03 -0.25079250149E+03 -0.17732383848E+02  0.60033206537E+03  0.10100000352E+00 0.  1.
</event>
<event>
 5   0  0.3839750E-05  0.1200327E+04  0.7818609E-02  0.9112571E-01
        4   -1    0    0  501    0  0.00000000000E+00  0.00000000000E+00  0.47350780705E+03  0.47350951019E+03  0.12699999809E+01 0. -1.
       -4   -1    0    0    0  501  0.00000000000E+00  0.00000000000E+00 -0.76069349949E+03  0.76069455964E+03  0.12699999809E+01 0.  1.
    10030    2    1    2    0    0  0.00000000000E+00  0.00000000000E+00 -0.28718569244E+03  0.12342040698E+04  0.12003266489E+04 0.  0.
        2    1    3    3  502    0 -0.84140390827E+02 -0.29948406419E+03 -0.67132870202E+03  0.73990035561E+03  0.25500000920E-02 0.  1.
       -2    1    3    3    0  502  0.84140390827E+02  0.29948406419E+03  0.38414300958E+03  0.49430371421E+03  0.25500000920E-02 0. -1.
</event>
<event>
 5   0  0.5732931E-05  0.1200128E+04  0.7818609E-02  0.9112745E-01
       -1   -1    0    0    0  501  0.00000000000E+00  0.00000000000E+00  0.45976085856E+03  0.45976085859E+03  0.50400001928E-02 0.  1.
        1   -1    0    0  501    0  0.00000000000E+00  0.00000000000E+00 -0.78318277030E+03  0.78318277032E+03  0.50400001928E-02 0. -1.
    10030    2    1    2    0    0  0.00000000000E+00  0.00000000000E+00 -0.32342191174E+03  0.12429436289E+04  0.12001279647E+04 0.  0.
        4    1    3    3  502    0 -0.51580917103E+03  0.23364009318E+03 -0.36736077009E+03  0.67498321635E+03  0.12699999809E+01 0. -1.
       -4    1    3    3    0  502  0.51580917103E+03 -0.23364009318E+03  0.43938858352E+02  0.56796041256E+03  0.12699999809E+01 0.  1.
</event>
<event>
 5   0  0.9941209E-05  0.1200449E+04  0.7818609E-02  0.9112464E-01
       -2   -1    0    0    0  501  0.00000000000E+00  0.00000000000E+00  0.57395843589E+03  0.57395843589E+03  0.25500000920E-02 0. -1.
        2   -1    0    0  501    0  0.00000000000E+00  0.00000000000E+00 -0.62769216924E+03  0.62769216925E+03  0.25500000920E-02 0.  1.
    10030    2    1    2    0    0  0.00000000000E+00  0.00000000000E+00 -0.53733733351E+02  0.12016506051E+04  0.12004486090E+04 0.  0.
        2    1    3    3  502    0 -0.98094458850E+02 -0.11968766127E+03 -0.60737991908E+03  0.62678387441E+03  0.25500000920E-02 0.  1.
       -2    1    3    3    0  502  0.98094458850E+02  0.11968766127E+03  0.55364618573E+03  0.57486673073E+03  0.25500000920E-02 0. -1.
</event>
<event>
 5   0  0.9941209E-05  0.1199503E+04  0.7818609E-02  0.9113292E-01
        2   -1    0    0  501    0  0.00000000000E+00  0.00000000000E+00  0.90509448676E+03  0.90509448676E+03  0.25500000920E-02 0.  1.
       -2   -1    0    0    0  501  0.00000000000E+00  0.00000000000E+00 -0.39741912668E+03  0.39741912669E+03  0.25500000920E-02 0. -1.
    10030    2    1    2    0    0  0.00000000000E+00  0.00000000000E+00  0.50767536008E+03  0.13025136135E+04  0.11995029979E+04 0.  0.
        2    1    3    3  502    0 -0.13113714132E+03  0.34858531225E+03  0.76430786293E+03  0.85022066494E+03  0.25500000920E-02 0.  1.
       -2    1    3    3    0  502  0.13113714132E+03 -0.34858531225E+03 -0.25663250286E+03  0.45229294852E+03  0.25500000920E-02 0. -1.
</event>
<event>
 5   0  0.5732931E-05  0.1201829E+04  0.7818609E-02  0.9111257E-01
        1   -1    0    0  501    0  0.00000000000E+00  0.00000000000E+00  0.14716681675E+04  0.14716681675E+04  0.50400001928E-02 0. -1.
       -1   -1    0    0    0  501  0.00000000000E+00  0.00000000000E+00 -0.24536679588E+03  0.24536679593E+03  0.50400001928E-02 0.  1.
    10030    2    1    2    0    0  0.00000000000E+00  0.00000000000E+00  0.12263013717E+04  0.17170349635E+04  0.12018294437E+04 0.  0.
        4    1    3    3  502    0 -0.17104213025E+03  0.48326172410E+03  0.16521863063E+03  0.53860571210E+03  0.12699999809E+01 0.  1.
       -4    1    3    3    0  502  0.17104213025E+03 -0.48326172410E+03  0.10610827410E+04  0.11784292514E+04  0.12699999809E+01 0. -1.
</event>
<event>
 5   0  0.1004006E-04  0.1200052E+04  0.7818609E-02  0.9112811E-01
        2   -1    0    0  501    0  0.00000000000E+00  0.00000000000E+00  0.15055817065E+04  0.15055817065E+04  0.25500000920E-02 0.  1.
       -2   -1    0    0    0  501  0.00000000000E+00  0.00000000000E+00 -0.23913084313E+03  0.23913084315E+03  0.25500000920E-02 0. -1.
    10030    2    1    2    0    0  0.00000000000E+00  0.00000000000E+00  0.12664508633E+04  0.17447125496E+04  0.12000517037E+04 0.  0.
        5    1    3    3  502    0  0.20872194582E+03  0.41214870251E+03  0.11898439174E+04  0.12763941560E+04  0.46999998093E+01 0.  1.
       -5    1    3    3    0  502 -0.20872194582E+03 -0.41214870251E+03  0.76606945922E+02  0.46831839363E+03  0.46999998093E+01 0. -1.
</event>
<event>
 5   0  0.5745487E-05  0.1199919E+04  0.7818609E-02  0.9112927E-01
       -1   -1    0    0    0  501  0.00000000000E+00  0.00000000000E+00  0.51602618981E+03  0.51602618983E+03  0.50400001928E-02 0. -1.
        1   -1    0    0  501    0  0.00000000000E+00  0.00000000000E+00 -0.69754528573E+03  0.69754528575E+03  0.50400001928E-02 0.  1.
    10030    2    1    2    0    0  0.00000000000E+00  0.00000000000E+00 -0.18151909593E+03  0.12135714756E+04  0.11999193907E+04 0.  0.
        3    1    3    3  502    0  0.46414735231E+03 -0.27467930509E+02  0.29271710418E+03  0.54942748852E+03  0.10100000352E+00 0. -1.
       -3    1    3    3    0  502 -0.46414735231E+03  0.27467930509E+02 -0.47423620011E+03  0.66414398706E+03  0.10100000352E+00 0.  1.
</event>
<event>
 5   0  0.9838215E-05  0.1200668E+04  0.7818609E-02  0.9112272E-01
        2   -1    0    0  501    0  0.00000000000E+00  0.00000000000E+00  0.12027649733E+04  0.12027649733E+04  0.25500000920E-02 0. -1.
       -2   -1    0    0    0  501  0.00000000000E+00  0.00000000000E+00 -0.29964391828E+03  0.29964391829E+03  0.25500000920E-02 0.  1.
    10030    2    1    2    0    0  0.00000000000E+00  0.00000000000E+00  0.90312105504E+03  0.15024088916E+04  0.12006684961E+04 0.  0.
        4    1    3    3  502    0  0.29132631655E+03  0.29050203674E+03 -0.95502761060E+02  0.42235630259E+03  0.12699999809E+01 0.  1.
       -4    1    3    3    0  502 -0.29132631655E+03 -0.29050203674E+03  0.99862381610E+03  0.10800525890E+04  0.12699999809E+01 0. -1.
</event>
<event>
 5   0  0.3839750E-05  0.1200111E+04  0.7818609E-02  0.9112759E-01
        3   -1    0    0  501    0  0.00000000000E+00  0.00000000000E+00  0.77645095758E+03  0.77645096415E+03  0.10100000352E+00 0. -1.
       -3   -1    0    0    0  501  0.00000000000E+00  0.00000000000E+00 -0.46373404535E+03  0.46373405635E+03  0.10100000352E+00 0.  1.
    10030    2    1    2    0    0  0.00000000000E+00  0.00000000000E+00  0.31271691223E+03  0.12401850205E+04  0.12001112523E+04 0.  0.
        4    1    3    3  502    0 -0.29416850864E+03  0.22156707662E+03 -0.33320977434E+03  0.49664619956E+03  0.12699999809E+01 0.  1.
       -4    1    3    3    0  502  0.29416850864E+03 -0.22156707662E+03  0.64592668657E+03  0.74353882094E+03  0.12699999809E+01 0. -1.
</event>
<event>
 5   0  0.3839750E-05  0.1199988E+04  0.7818609E-02  0.9112867E-01
       -4   -1    0    0    0  501  0.00000000000E+00  0.00000000000E+00  0.54211724644E+03  0.54211873403E+03  0.12699999809E+01 0.  1.
        4   -1    0    0  501    0  0.00000000000E+00  0.00000000000E+00 -0.66404649088E+03  0.66404770533E+03  0.12699999809E+01 0. -1.
    10030    2    1    2    0    0  0.00000000000E+00  0.00000000000E+00 -0.12192924444E+03  0.12061664394E+04  0.11999878078E+04 0.  0.
        2    1    3    3  502    0 -0.42373949311E+03  0.45532854621E+02  0.36354188950E+03  0.56017060285E+03  0.25500000920E-02 0.  1.
       -2    1    3    3    0  502  0.42373949311E+03 -0.45532854621E+02 -0.48547113394E+03  0.64599583650E+03  0.25500000920E-02 0. -1.
</event>
<event>
 5   0  0.5620246E-05  0.1200631E+04  0.7818609E-02  0.9112305E-01
       -1   -1    0    0    0  501  0.00000000000E+00  0.00000000000E+00  0.42115644391E+03  0.42115644394E+03  0.50400001928E-02 0. -1.
        1   -1    0    0  501    0  0.00000000000E+00  0.00000000000E+00 -0.85568791505E+03  0.85568791507E+03  0.50400001928E-02 0.  1.
    10030    2    1    2    0    0  0.00000000000E+00  0.00000000000E+00 -0.43453147114E+03  0.12768443590E+04  0.12006306333E+04 0.  0.
        1    1    3    3  502    0 -0.10732745598E+03  0.98958873104E+02 -0.83652276367E+03  0.84916569381E+03  0.50400001928E-02 0.  1.
       -1    1    3    3    0  502  0.10732745598E+03 -0.98958873104E+02  0.40199129253E+03  0.42767866520E+03  0.50400001928E-02 0. -1.
</event>
<event>
 5   0  0.5620246E-05  0.1199641E+04  0.7818609E-02  0.9113171E-01
       -1   -1    0    0    0  501  0.00000000000E+00  0.00000000000E+00  0.47280112295E+03  0.47280112298E+03  0.50400001928E-02 0.  1.
        1   -1    0    0  501    0  0.00000000000E+00  0.00000000000E+00 -0.76096359800E+03  0.76096359802E+03  0.50400001928E-02 0. -1.
    10030    2    1    2    0    0  0.00000000000E+00  0.00000000000E+00 -0.28816247505E+03  0.12337647210E+04  0.11996406857E+04 0.  0.
        1    1    3    3  502    0  0.19461623743E+02 -0.56160055953E+03 -0.35983546523E+03  0.66727468506E+03  0.50400001928E-02 0.  1.
       -1    1    3    3    0  502 -0.19461623743E+02  0.56160055953E+03  0.71672990185E+02  0.56649003593E+03  0.50400001928E-02 0. -1.
</event>
<event>
 5   0  0.5745487E-05  0.1200136E+04  0.7818609E-02  0.9112737E-01
        1   -1    0    0  501    0  0.00000000000E+00  0.00000000000E+00  0.17058905978E+04  0.17058905978E+04  0.50400001928E-02 0.  1.
       -1   -1    0    0    0  501  0.00000000000E+00  0.00000000000E+00 -0.21108145597E+03  0.21108145603E+03  0.50400001928E-02 0. -1.
    10030    2    1    2    0    0  0.00000000000E+00  0.00000000000E+00  0.14948091418E+04  0.19169720539E+04  0.12001364442E+04 0.  0.
        3    1    3    3  502    0  0.44731572824E+03 -0.11914554872E+03  0.13750794304E+03  0.48290316535E+03  0.10100000352E+00 0. -1.
       -3    1    3    3    0  502 -0.44731572824E+03  0.11914554872E+03  0.13573011988E+04  0.14340688885E+04  0.10100000352E+00 0.  1.
</event>
<event>
 5   0  0.9838215E-05  0.1200516E+04  0.7818609E-02  0.9112405E-01
        2   -1    0    0  501    0  0.00000000000E+00  0.00000000000E+00  0.25828254183E+03  0.25828254184E+03  0.25500000920E-02 0.  1.
       -2   -1    0    0    0  501  0.00000000000E+00  0.00000000000E+00 -0.13950216372E+04  0.13950216372E+04  0.25500000920E-02 0. -1.
    10030    2    1    2    0    0  0.00000000000E+00  0.00000000000E+00 -0.11367390954E+04  0.16533041790E+04  0.12005161130E+04 0.  0.
        4    1    3    3  502    0  0.57585413278E+03  0.18557036035E+02 -0.80027210394E+03  0.98609806767E+03  0.12699999809E+01 0.  1.
       -4    1    3    3    0  502 -0.57585413278E+03 -0.18557036035E+02 -0.33646699141E+03  0.66720611136E+03  0.12699999809E+01 0. -1.
</event>
<event>
 5   0  0.1012657E-04  0.1200250E+04  0.7818609E-02  0.9112638E-01
       -2   -1    0    0    0  501  0.00000000000E+00  0.00000000000E+00  0.31326829415E+03  0.31326829416E+03  0.25500000920E-02 0. -1.
        2   -1    0    0  501    0  0.00000000000E+00  0.00000000000E+00 -0.11496526956E+04  0.11496526956E+04  0.25500000920E-02 0.  1.
    10030    2    1    2    0    0  0.00000000000E+00  0.00000000000E+00 -0.83638440146E+03  0.14629209898E+04  0.12002495388E+04 0.  0.
        1    1    3    3  502    0 -0.97428343646E+02 -0.14888422468E+03 -0.11167639592E+04  0.11308494750E+04  0.50400001928E-02 0.  1.
       -1    1    3    3    0  502  0.97428343646E+02  0.14888422468E+03  0.28037955774E+03  0.33207151478E+03  0.50400001928E-02 0. -1.
</event>
<event>
 5   0  0.3839750E-05  0.1202614E+04  0.7818609E-02  0.9110572E-01
        4   -1    0    0  501    0  0.00000000000E+00  0.00000000000E+00  0.75822679886E+03  0.75822786246E+03  0.12699999809E+01 0.  1.
       -4   -1    0    0    0  501  0.00000000000E+00  0.00000000000E+00 -0.47686015398E+03  0.47686184514E+03  0.12699999809E+01 0. -1.
    10030    2    1    2    0    0  0.00000000000E+00  0.00000000000E+00  0.28136664489E+03  0.12350897076E+04  0.12026135693E+04 0.  0.
        4    1    3    3  502    0 -0.54538958373E+03 -0.54159884334E+02 -0.11335275634E+03  0.55967271810E+03  0.12699999809E+01 0. -1.
       -4    1    3    3    0  502  0.54538958373E+03  0.54159884334E+02  0.39471940123E+03  0.67541698951E+03  0.12699999809E+01 0.  1.
</event>
<event>
 5   0  0.5447807E-05  0.1198630E+04  0.7818609E-02  0.9114056E-01
        1   -1    0    0  501    0  0.00000000000E+00  0.00000000000E+00  0.37517006775E+03  0.37517006779E+03  0.50400001928E-02 0. -1.
       -1   -1    0    0    0  501  0.00000000000E+00  0.00000000000E+00 -0.95737516112E+03  0.95737516113E+03  0.50400001928E-02 0.  1.
    10030    2    1    2    0    0  0.00000000000E+00  0.00000000000E+00 -0.58220509337E+03  0.13325452289E+04  0.11986300582E+04 0.  0.
        2    1    3    3  502    0  0.46746871845E+03 -0.17421836049E+03 -0.66032108253E+03  0.82758864897E+03  0.25500000920E-02 0.  1.
       -2    1    3    3    0  502 -0.46746871845E+03  0.17421836049E+03  0.78115989166E+02  0.50495657995E+03  0.25500000920E-02 0. -1.
</event>
<event>
 5   0  0.5625746E-05  0.1200914E+04  0.7818609E-02  0.9112057E-01
       -1   -1    0    0    0  501  0.00000000000E+00  0.00000000000E+00  0.12289967260E+04  0.12289967260E+04  0.50400001928E-02 0.  1.
        1   -1    0    0  501    0  0.00000000000E+00  0.00000000000E+00 -0.29336813270E+03  0.29336813274E+03  0.50400001928E-02 0. -1.
    10030    2    1    2    0    0  0.00000000000E+00  0.00000000000E+00  0.93562859331E+03  0.15223648588E+04  0.12009137765E+04 0.  0.
        5    1    3    3  502    0  0.26674530146E+03  0.49452370607E+02 -0.21122237869E+03  0.34385400400E+03  0.46999998093E+01 0. -1.
       -5    1    3    3    0  502 -0.26674530146E+03 -0.49452370607E+02  0.11468509720E+04  0.11785108548E+04  0.46999998093E+01 0.  1.
</event>
<event>
 5   0  0.9838215E-05  0.1200459E+04  0.7818609E-02  0.9112455E-01
       -2   -1    0    0    0  501  0.00000000000E+00  0.00000000000E+00  0.36268680683E+03  0.36268680684E+03  0.25500000920E-02 0.  1.
        2   -1    0    0  501    0  0.00000000000E+00  0.00000000000E+00 -0.99335129908E+03  0.99335129909E+03  0.25500000920E-02 0. -1.
    10030    2    1    2    0    0  0.00000000000E+00  0.00000000000E+00 -0.63066449225E+03  0.13560381059E+04  0.12004589301E+04 0.  0.
        4    1    3    3  502    0  0.41779838088E+03  0.28933745760E+03 -0.67610127088E+03  0.84580505604E+03  0.12699999809E+01 0. -1.
       -4    1    3    3    0  502 -0.41779838088E+03 -0.28933745760E+03  0.45436778629E+02  0.51023304988E+03  0.12699999809E+01 0.  1.
</event>
<event>
 5   0  0.5745487E-05  0.1199849E+04  0.7818609E-02  0.9112989E-01
        1   -1    0    0  501    0  0.00000000000E+00  0.00000000000E+00  0.24473265381E+03  0.24473265387E+03  0.50400001928E-02 0. -1.
       -1   -1    0    0    0  501  0.00000000000E+00  0.00000000000E+00 -0.14706218099E+04  0.14706218099E+04  0.50400001928E-02 0.  1.
    10030    2    1    2    0    0  0.00000000000E+00  0.00000000000E+00 -0.12258891561E+04  0.17153544638E+04  0.11998486210E+04 0.  0.
        3    1    3    3  502    0  0.33716410075E+03  0.33946009632E+03 -0.11303810868E+04  0.12274665777E+04  0.10100000352E+00 0.  1.
       -3    1    3    3    0  502 -0.33716410075E+03 -0.33946009632E+03 -0.95508069254E+02  0.48788788602E+03  0.10100000352E+00 0. -1.
</event>
<event>
 5   0  0.9838215E-05  0.1200082E+04  0.7818609E-02  0.9112785E-01
        2   -1    0    0  501    0  0.00000000000E+00  0.00000000000E+00  0.15793484409E+04  0.15793484409E+04  0.25500000920E-02 0.  1.
       -2   -1    0    0    0  501  0.00000000000E+00  0.00000000000E+00 -0.22797318165E+03  0.22797318166E+03  0.25500000920E-02 0. -1.
    10030    2    1    2    0    0  0.00000000000E+00  0.00000000000E+00  0.13513752592E+04  0.18073216226E+04  0.12000818122E+04 0.  0.
        4    1    3    3  502    0  0.40374897917E+03 -0.21883855348E+03  0.94083642223E+02  0.46878235387E+03  0.12699999809E+01 0. -1.
       -4    1    3    3    0  502 -0.40374897917E+03  0.21883855348E+03  0.12572916170E+04  0.13385392687E+04  0.12699999809E+01 0.  1.
</event>
<event>
 5   0  0.5620246E-05  0.1200195E+04  0.7818609E-02  0.9112686E-01
        1   -1    0    0  501    0  0.00000000000E+00  0.00000000000E+00  0.12060372670E+04  0.12060372670E+04  0.50400001928E-02 0.  1.
       -1   -1    0    0    0  501  0.00000000000E+00  0.00000000000E+00 -0.29859538927E+03  0.29859538931E+03  0.50400001928E-02 0. -1.
    10030    2    1    2    0    0  0.00000000000E+00  0.00000000000E+00  0.90744187769E+03  0.15046326563E+04  0.12001952628E+04 0.  0.
        1    1    3    3  502    0 -0.47263084698E+03  0.81347167888E+02  0.90594161553E+03  0.10250499939E+04  0.50400001928E-02 0.  1.
       -1    1    3    3    0  502  0.47263084698E+03 -0.81347167888E+02  0.15002621643E+01  0.47958266237E+03  0.50400001928E-02 0. -1.
</event>
<event>
 5   0  0.5620246E-05  0.1199721E+04  0.7818609E-02  0.9113101E-01
        1   -1    0    0  501    0  0.00000000000E+00  0.00000000000E+00  0.15126518692E+04  0.15126518692E+04  0.50400001928E-02 0. -1.
       -1   -1    0    0    0  501  0.00000000000E+00  0.00000000000E+00 -0.23788182735E+03  0.23788182740E+03  0.50400001928E-02 0.  1.
    10030    2    1    2    0    0  0.00000000000E+00  0.00000000000E+00  0.12747700418E+04  0.17505336966E+04  0.11997206189E+04 0.  0.
        1    1    3    3  502    0  0.42213496368E+03  0.24933123243E+03  0.13305261408E+03  0.50800294209E+03  0.50400001928E-02 0.  1.
       -1    1    3    3    0  502 -0.42213496368E+03 -0.24933123243E+03  0.11417174277E+04  0.12425307545E+04  0.50400001928E-02 0. -1.
</event>
<event>
 5   0  0.9838215E-05  0.1199857E+04  0.7818609E-02  0.9112982E-01
       -2   -1    0    0    0  501  0.00000000000E+00  0.00000000000E+00  0.19518231591E+03  0.19518231593E+03  0.25500000920E-02 0. -1.
        2   -1    0    0  501    0  0.00000000000E+00  0.00000000000E+00 -0.18439892332E+04  0.18439892332E+04  0.25500000920E-02 0.  1.
    10030    2    1    2    0    0  0.00000000000E+00  0.00000000000E+00 -0.16488069173E+04  0.20391715491E+04  0.11998568066E+04 0.  0.
        4    1    3    3  502    0  0.10649395551E+03  0.38557333974E+03 -0.15842674430E+04  0.16339867524E+04  0.12699999809E+01 0.  1.
       -4    1    3    3    0  502 -0.10649395551E+03 -0.38557333974E+03 -0.64539474202E+02  0.40518479674E+03  0.12699999809E+01 0. -1.
</event>
<event>
 5   0  0.1012657E-04  0.1199659E+04  0.7818609E-02  0.9113155E-01
        2   -1    0    0  501    0  0.00000000000E+00  0.00000000000E+00  0.87168870147E+03  0.87168870147E+03  0.25500000920E-02 0. -1.
       -2   -1    0    0    0  501  0.00000000000E+00  0.00000000000E+00 -0.41275654174E+03  0.41275654175E+03  0.25500000920E-02 0.  1.
    10030    2    1    2    0    0  0.00000000000E+00  0.00000000000E+00  0.45893215973E+03  0.12844452432E+04  0.11996586413E+04 0.  0.
        1    1    3    3  502    0 -0.15041309804E+03  0.33994392404E+02  0.85010293354E+03  0.86397610870E+03  0.50400001928E-02 0. -1.
       -1    1    3    3    0  502  0.15041309804E+03 -0.33994392404E+02 -0.39117077381E+03  0.42046913452E+03  0.50400001928E-02 0.  1.
</event>
<event>
 5   0  0.9941209E-05  0.1200717E+04  0.7818609E-02  0.9112229E-01
       -2   -1    0    0    0  501  0.00000000000E+00  0.00000000000E+00  0.11173448890E+04  0.11173448890E+04  0.25500000920E-02 0.  1.
        2   -1    0    0  501    0  0.00000000000E+00  0.00000000000E+00 -0.32257774874E+03  0.32257774875E+03  0.25500000920E-02 0. -1.
    10030    2    1    2    0    0  0.00000000000E+00  0.00000000000E+00  0.79476714030E+03  0.14399226378E+04  0.12007174503E+04 0.  0.
        2    1    3    3  502    0  0.70115336495E+02 -0.10226567273E+03 -0.30705517747E+03  0.33114545180E+03  0.25500000920E-02 0. -1.
       -2    1    3    3    0  502 -0.70115336495E+02  0.10226567273E+03  0.11018223178E+04  0.11087771860E+04  0.25500000920E-02 0.  1.
</event>
<event>
 5   0  0.9838215E-05  0.1199886E+04  0.7818609E-02  0.9112957E-01
       -2   -1    0    0    0  501  0.00000000000E+00  0.00000000000E+00  0.40747554253E+03  0.40747554254E+03  0.25500000920E-02 0. -1.
        2   -1    0    0  501    0  0.00000000000E+00  0.00000000000E+00 -0.88332040595E+03  0.88332040596E+03  0.25500000920E-02 0.  1.
    10030    2    1    2    0    0  0.00000000000E+00  0.00000000000E+00 -0.47584486343E+03  0.12907959485E+04  0.11998857640E+04 0.  0.
        4    1    3    3  502    0  0.11459211758E+02 -0.21331949947E+02 -0.88279303437E+03  0.88312599331E+03  0.12699999809E+01 0.  1.
       -4    1    3    3    0  502 -0.11459211758E+02  0.21331949947E+02  0.40694817095E+03  0.40766995518E+03  0.12699999809E+01 0. -1.
</event>
<event>
 5   0  0.5620246E-05  0.1199560E+04  0.7818609E-02  0.9113241E-01
        1   -1    0    0  501    0  0.00000000000E+00  0.00000000000E+00  0.99403631101E+03  0.99403631102E+03  0.50400001928E-02 0. -1.
       -1   -1    0    0    0  501  0.00000000000E+00  0.00000000000E+00 -0.36189449349E+03  0.36189449353E+03  0.50400001928E-02 0.  1.
    10030    2    1    2    0    0  0.00000000000E+00  0.00000000000E+00  0.63214181752E+03  0.13559308045E+04  0.11995603650E+04 0.  0.
        1    1    3    3  502    0  0.54783129122E+03  0.24416612224E+03  0.31582222959E+03  0.67784946678E+03  0.50400001928E-02 0. -1.
       -1    1    3    3    0  502 -0.54783129122E+03 -0.24416612224E+03  0.31631958793E+03  0.67808133776E+03  0.50400001928E-02 0.  1.
</event>
<event>
 5   0  0.5745487E-05  0.1201411E+04  0.7818609E-02  0.9111622E-01
        1   -1    0    0  501    0  0.00000000000E+00  0.00000000000E+00  0.11064537021E+04  0.11064537021E+04  0.50400001928E-02 0.  1.
       -1   -1    0    0    0  501  0.00000000000E+00  0.00000000000E+00 -0.32612946500E+03  0.32612946504E+03  0.50400001928E-02 0. -1.
    10030    2    1    2    0    0  0.00000000000E+00  0.00000000000E+00  0.78032423706E+03  0.14325831671E+04  0.12014110936E+04 0.  0.
        3    1    3    3  502    0 -0.40498995727E+03 -0.40695713762E+03  0.60083953769E+03  0.83104701287E+03  0.10100000352E+00 0.  1.
       -3    1    3    3    0  502  0.40498995727E+03  0.40695713762E+03  0.17948469937E+03  0.60153615424E+03  0.10100000352E+00 0. -1.
</event>
<event>
 5   0  0.9941209E-05  0.1199500E+04  0.7818609E-02  0.9113295E-01
       -2   -1    0    0    0  501  0.00000000000E+00  0.00000000000E+00  0.32347840361E+03  0.32347840362E+03  0.25500000920E-02 0.  1.
        2   -1    0    0  501    0  0.00000000000E+00  0.00000000000E+00 -0.11119748536E+04  0.11119748536E+04  0.25500000920E-02 0. -1.
    10030    2    1    2    0    0  0.00000000000E+00  0.00000000000E+00 -0.78849644996E+03  0.14354532572E+04  0.11994996465E+04 0.  0.
        2    1    3    3  502    0  0.22839128888E+03 -0.99359671479E+02  0.25866093646E+03  0.35908272753E+03  0.25500000920E-02 0.  1.
       -2    1    3    3    0  502 -0.22839128888E+03  0.99359671479E+02 -0.10471573864E+04  0.10763705296E+04  0.25500000920E-02 0. -1.
</event>
<event>
 5   0  0.5447807E-05  0.1200343E+04  0.7818609E-02  0.9112556E-01
        1   -1    0    0  501    0  0.00000000000E+00  0.00000000000E+00  0.60114421480E+03  0.60114421482E+03  0.50400001928E-02 0. -1.
       -1   -1    0    0    0  501  0.00000000000E+00  0.00000000000E+00 -0.59920080301E+03  0.59920080303E+03  0.50400001928E-02 0.  1.
    10030    2    1    2    0    0  0.00000000000E+00  0.00000000000E+00  0.19434117952E+01  0.12003450178E+04  0.12003434446E+04 0.  0.
        2    1    3    3  502    0  0.14395073347E+03 -0.25028187005E+03  0.52713137159E+03  0.60102438475E+03  0.25500000920E-02 0. -1.
       -2    1    3    3    0  502 -0.14395073347E+03  0.25028187005E+03 -0.52518795979E+03  0.59932063310E+03  0.25500000920E-02 0.  1.
</event>
<event>
 5   0  0.5447807E-05  0.1200368E+04  0.7818609E-02  0.9112534E-01
        1   -1    0    0  501    0  0.00000000000E+00  0.00000000000E+00  0.13021095007E+04  0.13021095007E+04  0.50400001928E-02 0.  1.
       -1   -1    0    0    0  501  0.00000000000E+00  0.00000000000E+00 -0.27664407033E+03  0.27664407038E+03  0.50400001928E-02 0. -1.
    10030    2    1    2    0    0  0.00000000000E+00  0.00000000000E+00  0.10254654304E+04  0.15787535711E+04  0.12003680641E+04 0.  0.
        2    1    3    3  502    0 -0.30168232086E+03  0.41799465330E+03  0.91702068116E+03  0.10519784611E+04  0.25500000920E-02 0.  1.
       -2    1    3    3    0  502  0.30168232086E+03 -0.41799465330E+03  0.10844474924E+03  0.52677511003E+03  0.25500000920E-02 0. -1.
</event>
<event>
 5   0  0.5732931E-05  0.1201269E+04  0.7818609E-02  0.9111747E-01
        1   -1    0    0  501    0  0.00000000000E+00  0.00000000000E+00  0.19639802663E+04  0.19639802664E+04  0.50400001928E-02 0. -1.
       -1   -1    0    0    0  501  0.00000000000E+00  0.00000000000E+00 -0.18368909827E+03  0.18368909834E+03  0.50400001928E-02 0.  1.
    10030    2    1    2    0    0  0.00000000000E+00  0.00000000000E+00  0.17802911681E+04  0.21476693647E+04  0.12012689361E+04 0.  0.
        4    1    3    3  502    0 -0.59491452180E+03  0.82280340469E+02  0.90475872248E+03  0.10859481118E+04  0.12699999809E+01 0. -1.
       -4    1    3    3    0  502  0.59491452180E+03 -0.82280340469E+02  0.87553244561E+03  0.10617212529E+04  0.12699999809E+01 0.  1.
</event>
<event>
 5   0  0.9941209E-05  0.1200079E+04  0.7818609E-02  0.9112787E-01
        2   -1    0    0  501    0  0.00000000000E+00  0.00000000000E+00  0.51408885397E+03  0.51408885397E+03  0.25500000920E-02 0. -1.
       -2   -1    0    0    0  501  0.00000000000E+00  0.00000000000E+00 -0.70036076931E+03  0.70036076931E+03  0.25500000920E-02 0.  1.
    10030    2    1    2    0    0  0.00000000000E+00  0.00000000000E+00 -0.18627191534E+03  0.12144496233E+04  0.12000794395E+04 0.  0.
        2    1    3    3  502    0 -0.49554029676E+03  0.24394855758E+03  0.14414253362E+03  0.57083110852E+03  0.25500000920E-02 0. -1.
       -2    1    3    3    0  502  0.49554029676E+03 -0.24394855758E+03 -0.33041444896E+03  0.64361851476E+03  0.25500000920E-02 0.  1.
</event>
<event>
 5   0  0.5620246E-05  0.1199925E+04  0.7818609E-02  0.9112923E-01
        1   -1    0    0  501    0  0.00000000000E+00  0.00000000000E+00  0.56686265961E+03  0.56686265963E+03  0.50400001928E-02 0. -1.
       -1   -1    0    0    0  501  0.00000000000E+00  0.00000000000E+00 -0.63499455452E+03  0.63499455454E+03  0.50400001928E-02 0.  1.
    10030    2    1    2    0    0  0.00000000000E+00  0.00000000000E+00 -0.68131894915E+02  0.12018572142E+04  0.11999245010E+04 0.  0.
        1    1    3    3  502    0  0.53213243277E+03 -0.26362485103E+03  0.51463125429E+02  0.59608006290E+03  0.50400001928E-02 0. -1.
       -1    1    3    3    0  502 -0.53213243277E+03  0.26362485103E+03 -0.11959502034E+03  0.60577715127E+03  0.50400001928E-02 0.  1.
</event>
<event>
 5   0  0.9941209E-05  0.1198397E+04  0.7818609E-02  0.9114261E-01
        2   -1    0    0  501    0  0.00000000000E+00  0.00000000000E+00  0.21157805385E+04  0.21157805385E+04  0.25500000920E-02 0.  1.
       -2   -1    0    0    0  501  0.00000000000E+00  0.00000000000E+00 -0.16969566619E+03  0.16969566621E+03  0.25500000920E-02 0. -1.
    10030    2    1    2    0    0  0.00000000000E+00  0.00000000000E+00  0.19460848723E+04  0.22854762047E+04  0.11983969092E+04 0.  0.
        2    1    3    3  502    0 -0.19054047977E+03  0.19042536066E+03 -0.47700962200E+02  0.27357425722E+03  0.25500000920E-02 0. -1.
       -2    1    3    3    0  502  0.19054047977E+03 -0.19042536066E+03  0.19937858345E+04  0.20119019475E+04  0.25500000920E-02 0.  1.
</event>
<event>
 5   0  0.9941209E-05  0.1199500E+04  0.7818609E-02  0.9113294E-01
        2   -1    0    0  501    0  0.00000000000E+00  0.00000000000E+00  0.11462216734E+04  0.11462216734E+04  0.25500000920E-02 0. -1.
       -2   -1    0    0    0  501  0.00000000000E+00  0.00000000000E+00 -0.31381358557E+03  0.31381358558E+03  0.25500000920E-02 0.  1.
    10030    2    1    2    0    0  0.00000000000E+00  0.00000000000E+00  0.83240808779E+03  0.14600352589E+04  0.11994997844E+04 0.  0.
        2    1    3    3  502    0 -0.40173433845E+03 -0.33623964895E+03  0.77160317098E+03  0.93264089214E+03  0.25500000920E-02 0. -1.
       -2    1    3    3    0  502  0.40173433845E+03  0.33623964895E+03  0.60804916810E+02  0.52739436680E+03  0.25500000920E-02 0.  1.
</event>
<event>
 5   0  0.9941209E-05  0.1200424E+04  0.7818609E-02  0.9112486E-01
        2   -1    0    0  501    0  0.00000000000E+00  0.00000000000E+00  0.12294884539E+04  0.12294884539E+04  0.25500000920E-02 0. -1.
       -2   -1    0    0    0  501  0.00000000000E+00  0.00000000000E+00 -0.29301157842E+03  0.29301157844E+03  0.25500000920E-02 0.  1.
    10030    2    1    2    0    0  0.00000000000E+00  0.00000000000E+00  0.93647687546E+03  0.15225000323E+04  0.12004238460E+04 0.  0.
        2    1    3    3  502    0 -0.96371279039E+02  0.57975318008E+03  0.31366587467E+03  0.66617374174E+03  0.25500000920E-02 0.  1.
       -2    1    3    3    0  502  0.96371279039E+02 -0.57975318008E+03  0.62281100079E+03  0.85632629059E+03  0.25500000920E-02 0. -1.
</event>
<event>
 5   0  0.1012657E-04  0.1199811E+04  0.7818609E-02  0.9113022E-01
       -2   -1    0    0    0  501  0.00000000000E+00  0.00000000000E+00  0.27885743289E+03  0.27885743290E+03  0.25500000920E-02 0.  1.
        2   -1    0    0  501    0  0.00000000000E+00  0.00000000000E+00 -0.12905749318E+04  0.12905749318E+04  0.25500000920E-02 0. -1.
    10030    2    1    2    0    0  0.00000000000E+00  0.00000000000E+00 -0.10117174989E+04  0.15694323647E+04  0.11998106725E+04 0.  0.
        1    1    3    3  502    0 -0.14824807543E+03  0.55076665595E+03 -0.26266733715E+03  0.62794548426E+03  0.50400001928E-02 0.  1.
       -1    1    3    3    0  502  0.14824807543E+03 -0.55076665595E+03 -0.74905016171E+03  0.94148688040E+03  0.50400001928E-02 0. -1.
</event>
<event>
 5   0  0.5447807E-05  0.1199480E+04  0.7818609E-02  0.9113312E-01
       -1   -1    0    0    0  501  0.00000000000E+00  0.00000000000E+00  0.15685591479E+04  0.15685591479E+04  0.50400001928E-02 0. -1.
        1   -1    0    0  501    0  0.00000000000E+00  0.00000000000E+00 -0.22931096486E+03  0.22931096491E+03  0.50400001928E-02 0.  1.
    10030    2    1    2    0    0  0.00000000000E+00  0.00000000000E+00  0.13392481830E+04  0.17978701128E+04  0.11994795733E+04 0.  0.
        2    1    3    3  502    0 -0.28098474499E+02  0.21849248478E+03 -0.16647329196E+03  0.27611926249E+03  0.25500000920E-02 0.  1.
       -2    1    3    3    0  502  0.28098474499E+02 -0.21849248478E+03  0.15057214750E+04  0.15217508503E+04  0.25500000920E-02 0. -1.
</event>
<event>
 5   0  0.9838215E-05  0.1199978E+04  0.7818609E-02  0.9112876E-01
        2   -1    0    0  501    0  0.00000000000E+00  0.00000000000E+00  0.52184585314E+03  0.52184585315E+03  0.25500000920E-02 0.  1.
       -2   -1    0    0    0  501  0.00000000000E+00  0.00000000000E+00 -0.68983328087E+03  0.68983328088E+03  0.25500000920E-02 0. -1.
    10030    2    1    2    0    0  0.00000000000E+00  0.00000000000E+00 -0.16798742773E+03  0.12116791340E+04  0.11999777281E+04 0.  0.
        4    1    3    3  502    0 -0.23757822542E+02 -0.28582827084E+03 -0.61612672691E+03  0.67961459009E+03  0.12699999809E+01 0. -1.
       -4    1    3    3    0  502  0.23757822542E+02  0.28582827084E+03  0.44813929919E+03  0.53206454394E+03  0.12699999809E+01 0.  1.
</event>
<event>
 5   0  0.1004006E-04  0.1199867E+04  0.7818609E-02  0.9112973E-01
        2   -1    0    0  501    0  0.00000000000E+00  0.00000000000E+00  0.11746026665E+04  0.11746026665E+04  0.25500000920E-02 0.  1.
       -2   -1    0    0    0  501  0.00000000000E+00  0.00000000000E+00 -0.30641844969E+03  0.30641844970E+03  0.25500000920E-02 0. -1.
    10030    2    1    2    0    0  0.00000000000E+00  0.00000000000E+00  0.86818421678E+03  0.14810211162E+04  0.11998665394E+04 0.  0.
        5    1    3    3  502    0 -0.47713107433E+03 -0.29490477393E+03  0.17145426753E+03  0.58655054653E+03  0.46999998093E+01 0. -1.
       -5    1    3    3    0  502  0.47713107433E+03  0.29490477393E+03  0.69672994925E+03  0.89447056964E+03  0.46999998093E+01 0.  1.
</event>
<event>
 5   0  0.5745487E-05  0.1198901E+04  0.7818609E-02  0.9113819E-01
       -1   -1    0    0    0  501  0.00000000000E+00  0.00000000000E+00  0.38380957297E+03  0.38380957300E+03  0.50400001928E-02 0. -1.
        1   -1    0    0  501    0  0.00000000000E+00  0.00000000000E+00 -0.93624801153E+03  0.93624801155E+03  0.50400001928E-02 0.  1.
    10030    2    1    2    0    0  0.00000000000E+00  0.00000000000E+00 -0.55243843857E+03  0.13200575845E+04  0.11989010794E+04 0.  0.
        3    1    3    3  502    0  0.10487545288E+03 -0.49984784666E+03  0.69333944593E+02  0.51541627496E+03  0.10100000352E+00 0. -1.
       -3    1    3    3    0  502 -0.10487545288E+03  0.49984784666E+03 -0.62177238316E+03  0.80464130958E+03  0.10100000352E+00 0.  1.
</event>
<event>
 5   0  0.1004006E-04  0.1200104E+04  0.7818609E-02  0.9112765E-01
        2   -1    0    0  501    0  0.00000000000E+00  0.00000000000E+00  0.83197275922E+03  0.83197275922E+03  0.25500000920E-02 0. -1.
       -2   -1    0    0    0  501  0.00000000000E+00  0.00000000000E+00 -0.43278161268E+03  0.43278161268E+03  0.25500000920E-02 0.  1.
    10030    2    1    2    0    0  0.00000000000E+00  0.00000000000E+00  0.39919114654E+03  0.12647543719E+04  0.12001041829E+04 0.  0.
        5    1    3    3  502    0  0.41427878251E+03 -0.73756103336E+02  0.65039296750E+03  0.77466119988E+03  0.46999998093E+01 0. -1.
       -5    1    3    3    0  502 -0.41427878251E+03  0.73756103336E+02 -0.25120182096E+03  0.49009317203E+03  0.46999998093E+01 0.  1.
</event>
<event>
 5   0  0.5625746E-05  0.1202310E+04  0.7818609E-02  0.9110837E-01
       -1   -1    0    0    0  501  0.00000000000E+00  0.00000000000E+00  0.30816829781E+03  0.30816829785E+03  0.50400001928E-02 0.  1.
        1   -1    0    0  501    0  0.00000000000E+00  0.00000000000E+00 -0.11726955769E+04  0.11726955769E+04  0.50400001928E-02 0. -1.
    10030    2    1    2    0    0  0.00000000000E+00  0.00000000000E+00 -0.86452727911E+03  0.14808638748E+04  0.12023104422E+04 0.  0.
        5    1    3    3  502    0 -0.23667339335E+03  0.40115966773E+03  0.35811312263E+02  0.46717011272E+03  0.46999998093E+01 0.  1.
       -5    1    3    3    0  502  0.23667339335E+03 -0.40115966773E+03 -0.90033859137E+03  0.10136937621E+04  0.46999998093E+01 0. -1.
</event>
<event>
 5   0  0.1004006E-04  0.1199132E+04  0.7818609E-02  0.9113617E-01
       -2   -1    0    0    0  501  0.00000000000E+00  0.00000000000E+00  0.17941524943E+03  0.17941524944E+03  0.25500000920E-02 0.  1.
        2   -1    0    0  501    0  0.00000000000E+00  0.00000000000E+00 -0.20036161932E+04  0.20036161932E+04  0.25500000920E-02 0. -1.
    10030    2    1    2    0    0  0.00000000000E+00  0.00000000000E+00 -0.18242009438E+04  0.21830314427E+04  0.11991318511E+04 0.  0.
        5    1    3    3  502    0 -0.78581059721E+02 -0.59260070213E+01 -0.19941131764E+04  0.19956752117E+04  0.46999998093E+01 0. -1.
       -5    1    3    3    0  502  0.78581059721E+02  0.59260070213E+01  0.16991223256E+03  0.18735623096E+03  0.46999998093E+01 0.  1.
</event>
<event>
 5   0  0.9941209E-05  0.1199549E+04  0.7818609E-02  0.9113251E-01
        2   -1    0    0  501    0  0.00000000000E+00  0.00000000000E+00  0.13991747107E+04  0.13991747108E+04  0.25500000920E-02 0.  1.
       -2   -1    0    0    0  501  0.00000000000E+00  0.00000000000E+00 -0.25710129935E+03  0.25710129936E+03  0.25500000920E-02 0. -1.
    10030    2    1    2    0    0  0.00000000000E+00  0.00000000000E+00  0.11420734114E+04  0.16562760101E+04  0.11995493090E+04 0.  0.
        2    1    3    3  502    0  0.10441769194E+01  0.51838403529E+03  0.15450227792E+03  0.54091963566E+03  0.25500000920E-02 0. -1.
       -2    1    3    3    0  502 -0.10441769194E+01 -0.51838403529E+03  0.98757113348E+03  0.11153563745E+04  0.25500000920E-02 0.  1.
</event>
<event>
 5   0  0.5620246E-05  0.1199791E+04  0.7818609E-02  0.9113039E-01
        1   -1    0    0  501    0  0.00000000000E+00  0.00000000000E+00  0.20012181782E+04  0.20012181782E+04  0.50400001928E-02 0.  1.
       -1   -1    0    0    0  501  0.00000000000E+00  0.00000000000E+00 -0.17982784062E+03  0.17982784069E+03  0.50400001928E-02 0. -1.
    10030    2    1    2    0    0  0.00000000000E+00  0.00000000000E+00  0.18213903376E+04  0.21810460189E+04  0.11997912213E+04 0.  0.
        1    1    3    3  502    0 -0.38376095766E+03  0.44472218124E+03  0.68936099121E+03  0.90568695880E+03  0.50400001928E-02 0.  1.
       -1    1    3    3    0  502  0.38376095766E+03 -0.44472218124E+03  0.11320293464E+04  0.12753590601E+04  0.50400001928E-02 0. -1.
</event>
<event>
 5   0  0.5620246E-05  0.1199831E+04  0.7818609E-02  0.9113005E-01
        1   -1    0    0  501    0  0.00000000000E+00  0.00000000000E+00  0.25116682584E+04  0.25116682584E+04  0.50400001928E-02 0.  1.
       -1   -1    0    0    0  501  0.00000000000E+00  0.00000000000E+00 -0.14329055907E+03  0.14329055916E+03  0.50400001928E-02 0. -1.
    10030    2    1    2    0    0  0.00000000000E+00  0.00000000000E+00  0.23683776993E+04  0.26549588176E+04  0.11998305698E+04 0.  0.
        1    1    3    3  502    0 -0.13315568401E+03 -0.12136585973E+03  0.24503895963E+04  0.24570041274E+04  0.50400001928E-02 0.  1.
       -1    1    3    3    0  502  0.13315568401E+03  0.12136585973E+03 -0.82011897011E+02  0.19795469019E+03  0.50400001928E-02 0. -1.
</event>
<event>
 5   0  0.9838215E-05  0.1203226E+04  0.7818609E-02  0.9110038E-01
       -2   -1    0    0    0  501  0.00000000000E+00  0.00000000000E+00  0.34261643244E+03  0.34261643245E+03  0.25500000920E-02 0. -1.
        2   -1    0    0  501    0  0.00000000000E+00  0.00000000000E+00 -0.10563943034E+04  0.10563943034E+04  0.25500000920E-02 0.  1.
    10030    2    1    2    0    0  0.00000000000E+00  0.00000000000E+00 -0.71377787100E+03  0.13990107359E+04  0.12032257436E+04 0.  0.
        4    1    3    3  502    0  0.40416452723E+03 -0.21946536423E+02  0.16062559501E+03  0.43546849508E+03  0.12699999809E+01 0. -1.
       -4    1    3    3    0  502 -0.40416452723E+03  0.21946536423E+02 -0.87440346602E+03  0.96354224081E+03  0.12699999809E+01 0.  1.
</event>
<event>
 5   0  0.9838215E-05  0.1199743E+04  0.7818609E-02  0.9113081E-01
        2   -1    0    0  501    0  0.00000000000E+00  0.00000000000E+00  0.12009354151E+04  0.12009354151E+04  0.25500000920E-02 0. -1.
       -2   -1    0    0    0  501  0.00000000000E+00  0.00000000000E+00 -0.29963818260E+03  0.29963818261E+03  0.25500000920E-02 0.  1.
    10030    2    1    2    0    0  0.00000000000E+00  0.00000000000E+00  0.90129723252E+03  0.15005735977E+04  0.11997434813E+04 0.  0.
        4    1    3    3  502    0 -0.48757593723E+03  0.20286005350E+03  0.80653347109E+03  0.96404374836E+03  0.12699999809E+01 0. -1.
       -4    1    3    3    0  502  0.48757593723E+03 -0.20286005350E+03  0.94763761427E+02  0.53652984936E+03  0.12699999809E+01 0.  1.
</event>
<event>
 5   0  0.1012657E-04  0.1199917E+04  0.7818609E-02  0.9112929E-01
       -2   -1    0    0    0  501  0.00000000000E+00  0.00000000000E+00  0.50426831697E+03  0.50426831698E+03  0.25500000920E-02 0. -1.
        2   -1    0    0  501    0  0.00000000000E+00  0.00000000000E+00 -0.71380726007E+03  0.71380726008E+03  0.25500000920E-02 0.  1.
    10030    2    1    2    0    0  0.00000000000E+00  0.00000000000E+00 -0.20953894310E+03  0.12180755771E+04  0.11999173066E+04 0.  0.
        1    1    3    3  502    0 -0.42704310471E+03 -0.15449969183E+03 -0.50276685799E+03  0.67750312293E+03  0.50400001928E-02 0.  1.
       -1    1    3    3    0  502  0.42704310471E+03  0.15449969183E+03  0.29322791489E+03  0.54057245412E+03  0.50400001928E-02 0. -1.
</event>
<event>
 5   0  0.1004006E-04  0.1200029E+04  0.7818609E-02  0.9112831E-01
        2   -1    0    0  501    0  0.00000000000E+00  0.00000000000E+00  0.12871299295E+04  0.12871299295E+04  0.25500000920E-02 0. -1.
       -2   -1    0    0    0  501  0.00000000000E+00  0.00000000000E+00 -0.27970568563E+03  0.27970568564E+03  0.25500000920E-02 0.  1.
    10030    2    1    2    0    0  0.00000000000E+00  0.00000000000E+00  0.10074242439E+04  0.15668356151E+04  0.12000292654E+04 0.  0.
        5    1    3    3  502    0  0.17554146534E+03  0.17876755987E+02  0.12524638539E+04  0.12648407725E+04  0.46999998093E+01 0. -1.
       -5    1    3    3    0  502 -0.17554146534E+03 -0.17876755987E+02 -0.24503961007E+03  0.30199484261E+03  0.46999998093E+01 0.  1.
</event>
<event>
 5   0  0.5745487E-05  0.1200597E+04  0.7818609E-02  0.9112334E-01
        1   -1    0    0  501    0  0.00000000000E+00  0.00000000000E+00  0.30583081136E+03  0.30583081140E+03  0.50400001928E-02 0.  1.
       -1   -1    0    0    0  501  0.00000000000E+00  0.00000000000E+00 -0.11782931419E+04  0.11782931419E+04  0.50400001928E-02 0. -1.
    10030    2    1    2    0    0  0.00000000000E+00  0.00000000000E+00 -0.87246233055E+03  0.14841239533E+04  0.12005970975E+04 0.  0.
        3    1    3    3  502    0 -0.12173053971E+03  0.58778900043E+03 -0.42802174563E+03  0.73723595833E+03  0.10100000352E+00 0.  1.
       -3    1    3    3    0  502  0.12173053971E+03 -0.58778900043E+03 -0.44444058493E+03  0.74688799499E+03  0.10100000352E+00 0. -1.
</event>
<event>
 5   0  0.5620246E-05  0.1199988E+04  0.7818609E-02  0.9112867E-01
       -1   -1    0    0    0  501  0.00000000000E+00  0.00000000000E+00  0.13608072945E+04  0.13608072945E+04  0.50400001928E-02 0. -1.
        1   -1    0    0  501    0  0.00000000000E+00  0.00000000000E+00 -0.26454373155E+03  0.26454373160E+03  0.50400001928E-02 0.  1.
    10030    2    1    2    0    0  0.00000000000E+00  0.00000000000E+00  0.10962635629E+04  0.16253510261E+04  0.11999883994E+04 0.  0.
        1    1    3    3  502    0 -0.46969901133E+03  0.36093985651E+03  0.67732812105E+03  0.89981560603E+03  0.50400001928E-02 0. -1.
       -1    1    3    3    0  502  0.46969901133E+03 -0.36093985651E+03  0.41893544187E+03  0.72553542005E+03  0.50400001928E-02 0.  1.
</event>
<event>
 5   0  0.9941209E-05  0.1200017E+04  0.7818609E-02  0.9112842E-01
        2   -1    0    0  501    0  0.00000000000E+00  0.00000000000E+00  0.60736859962E+03  0.60736859963E+03  0.25500000920E-02 0. -1.
       -2   -1    0    0    0  501  0.00000000000E+00  0.00000000000E+00 -0.59273715806E+03  0.59273715807E+03  0.25500000920E-02 0.  1.
    10030    2    1    2    0    0  0.00000000000E+00  0.00000000000E+00  0.14631441562E+02  0.12001057577E+04  0.12000165626E+04 0.  0.
        2    1    3    3  502    0  0.19963414110E+03 -0.35374033502E+02 -0.55744284188E+03  0.59316745908E+03  0.25500000920E-02 0.  1.
       -2    1    3    3    0  502 -0.19963414110E+03  0.35374033502E+02  0.57207428344E+03  0.60693829861E+03  0.25500000920E-02 0. -1.
</event>
<event>
 5   0  0.5625746E-05  0.1199775E+04  0.7818609E-02  0.9113053E-01
        1   -1    0    0  501    0  0.00000000000E+00  0.00000000000E+00  0.62577552959E+03  0.62577552961E+03  0.50400001928E-02 0.  1.
       -1   -1    0    0    0  501  0.00000000000E+00  0.00000000000E+00 -0.57507072512E+03  0.57507072514E+03  0.50400001928E-02 0. -1.
    10030    2    1    2    0    0  0.00000000000E+00  0.00000000000E+00  0.50704804468E+02  0.12008462548E+04  0.11997752916E+04 0.  0.
        5    1    3    3  502    0 -0.99411875038E+02  0.37841266890E+03  0.48047164378E+03  0.61964018540E+03  0.46999998093E+01 0.  1.
       -5    1    3    3    0  502  0.99411875038E+02 -0.37841266890E+03 -0.42976683932E+03  0.58120606936E+03  0.46999998093E+01 0. -1.
</event>
<event>
 5   0  0.5620246E-05  0.1200105E+04  0.7818609E-02  0.9112765E-01
        1   -1    0    0  501    0  0.00000000000E+00  0.00000000000E+00  0.83784585735E+03  0.83784585737E+03  0.50400001928E-02 0.  1.
       -1   -1    0    0    0  501  0.00000000000E+00  0.00000000000E+00 -0.42974841448E+03  0.42974841451E+03  0.50400001928E-02 0. -1.
    10030    2    1    2    0    0  0.00000000000E+00  0.00000000000E+00  0.40809744287E+03  0.12675942719E+04  0.12001048768E+04 0.  0.
        1    1    3    3  502    0  0.12628600866E+02  0.36716595966E+03 -0.29707121547E+03  0.47246336428E+03  0.50400001928E-02 0. -1.
       -1    1    3    3    0  502 -0.12628600866E+02 -0.36716595966E+03  0.70516865834E+03  0.79513090760E+03  0.50400001928E-02 0.  1.
</event>
<event>
 5   0  0.5447807E-05  0.1199461E+04  0.7818609E-02  0.9113329E-01
        1   -1    0    0  501    0  0.00000000000E+00  0.00000000000E+00  0.67050336306E+03  0.67050336308E+03  0.50400001928E-02 0. -1.
       -1   -1    0    0    0  501  0.00000000000E+00  0.00000000000E+00 -0.53642753709E+03  0.53642753711E+03  0.50400001928E-02 0.  1.
    10030    2    1    2    0    0  0.00000000000E+00  0.00000000000E+00  0.13407582597E+03  0.12069309002E+04  0.11994606583E+04 0.  0.
        2    1    3    3  502    0  0.52285214737E+03 -0.29364535680E+03  0.58352579827E+02  0.60250061175E+03  0.25500000920E-02 0. -1.
       -2    1    3    3    0  502 -0.52285214737E+03  0.29364535680E+03  0.75723246141E+02  0.60443028845E+03  0.25500000920E-02 0.  1.
</event>
<event>
 5   0  0.9941209E-05  0.1199667E+04  0.7818609E-02  0.9113148E-01
        2   -1    0    0  501    0  0.00000000000E+00  0.00000000000E+00  0.29713327451E+03  0.29713327452E+03  0.25500000920E-02 0. -1.
       -2   -1    0    0    0  501  0.00000000000E+00  0.00000000000E+00 -0.12109059665E+04  0.12109059665E+04  0.25500000920E-02 0.  1.
    10030    2    1    2    0    0  0.00000000000E+00  0.00000000000E+00 -0.91377269200E+03  0.15080392410E+04  0.11996673788E+04 0.  0.
        2    1    3    3  502    0  0.37990667039E+03 -0.22039676140E+03  0.56655212951E+02  0.44284717884E+03  0.25500000920E-02 0. -1.
       -2    1    3    3    0  502 -0.37990667039E+03  0.22039676140E+03 -0.97042790495E+03  0.10651920622E+04  0.25500000920E-02 0.  1.
</event>
<event>
 5   0  0.1023063E-04  0.1200564E+04  0.7818609E-02  0.9112363E-01
        2   -1    0    0  501    0  0.00000000000E+00  0.00000000000E+00  0.43153656960E+03  0.43153656961E+03  0.25500000920E-02 0. -1.
       -2   -1    0    0    0  501  0.00000000000E+00  0.00000000000E+00 -0.83501263087E+03  0.83501263087E+03  0.25500000920E-02 0.  1.
    10030    2    1    2    0    0  0.00000000000E+00  0.00000000000E+00 -0.40347606127E+03  0.12665492005E+04  0.12005640113E+04 0.  0.
        3    1    3    3  502    0 -0.19451201511E+03 -0.53476755248E+03 -0.11272614848E+00  0.56904418292E+03  0.10100000352E+00 0. -1.
       -3    1    3    3    0  502  0.19451201511E+03  0.53476755248E+03 -0.40336333512E+03  0.69750501756E+03  0.10100000352E+00 0.  1.
</event>
<event>
 5   0  0.5625746E-05  0.1199424E+04  0.7818609E-02  0.9113361E-01
        1   -1    0    0  501    0  0.00000000000E+00  0.00000000000E+00  0.16960891844E+04  0.16960891844E+04  0.50400001928E-02 0.  1.
       -1   -1    0    0    0  501  0.00000000000E+00  0.00000000000E+00 -0.21204925442E+03  0.21204925448E+03  0.50400001928E-02 0. -1.
    10030    2    1    2    0    0  0.00000000000E+00  0.00000000000E+00  0.14840399300E+04  0.19081384389E+04  0.11994239401E+04 0.  0.
        5    1    3    3  502    0  0.33733950056E+03  0.21234439296E+03  0.29234632999E+02  0.39970593394E+03  0.46999998093E+01 0. -1.
       -5    1    3    3    0  502 -0.33733950056E+03 -0.21234439296E+03  0.14548052970E+04  0.15084325050E+04  0.46999998093E+01 0.  1.
</event>
<event>
 5   0  0.5620246E-05  0.1200048E+04  0.7818609E-02  0.9112815E-01
       -1   -1    0    0    0  501  0.00000000000E+00  0.00000000000E+00  0.91380478987E+03  0.91380478989E+03  0.50400001928E-02 0.  1.
        1   -1    0    0  501    0  0.00000000000E+00  0.00000000000E+00 -0.39398858940E+03  0.39398858944E+03  0.50400001928E-02 0. -1.
    10030    2    1    2    0    0  0.00000000000E+00  0.00000000000E+00  0.51981620047E+03  0.13077933793E+04  0.12000477660E+04 0.  0.
        1    1    3    3  502    0  0.59236281446E+02  0.53347356265E+03  0.55217699219E+03  0.77006649701E+03  0.50400001928E-02 0.  1.
       -1    1    3    3    0  502 -0.59236281446E+02 -0.53347356265E+03 -0.32360791723E+02  0.53772688231E+03  0.50400001928E-02 0. -1.
</event>
<event>
 5   0  0.5745487E-05  0.1199911E+04  0.7818609E-02  0.9112935E-01
       -1   -1    0    0    0  501  0.00000000000E+00  0.00000000000E+00  0.35023723414E+03  0.35023723418E+03  0.50400001928E-02 0. -1.
        1   -1    0    0  501    0  0.00000000000E+00  0.00000000000E+00 -0.10277221318E+04  0.10277221318E+04  0.50400001928E-02 0.  1.
    10030    2    1    2    0    0  0.00000000000E+00  0.00000000000E+00 -0.67748489768E+03  0.13779593660E+04  0.11999109249E+04 0.  0.
        3    1    3    3  502    0  0.31666076894E+03  0.49312965623E+03 -0.19124922391E+03  0.61646344279E+03  0.10100000352E+00 0.  1.
       -3    1    3    3    0  502 -0.31666076894E+03 -0.49312965623E+03 -0.48623567376E+03  0.76149592322E+03  0.10100000352E+00 0. -1.
</event>
<event>
 5   0  0.1004006E-04  0.1200730E+04  0.7818609E-02  0.9112218E-01
       -2   -1    0    0    0  501  0.00000000000E+00  0.00000000000E+00  0.70460023097E+03  0.70460023098E+03  0.25500000920E-02 0.  1.
        2   -1    0    0  501    0  0.00000000000E+00  0.00000000000E+00 -0.51155004099E+03  0.51155004100E+03  0.25500000920E-02 0. -1.
    10030    2    1    2    0    0  0.00000000000E+00  0.00000000000E+00  0.19305018998E+03  0.12161502720E+04  0.12007302396E+04 0.  0.
        5    1    3    3  502    0  0.27044850117E+03  0.23916468640E+03 -0.38929515146E+03  0.53095663095E+03  0.46999998093E+01 0. -1.
       -5    1    3    3    0  502 -0.27044850117E+03 -0.23916468640E+03  0.58234534144E+03  0.68519364102E+03  0.46999998093E+01 0.  1.
</event>
<event>
 5   0  0.3839750E-05  0.1200414E+04  0.7818609E-02  0.9112494E-01
        3   -1    0    0  501    0  0.00000000000E+00  0.00000000000E+00  0.20996664372E+03  0.20996666801E+03  0.10100000352E+00 0.  1.
       -3   -1    0    0    0  501  0.00000000000E+00  0.00000000000E+00 -0.17157424488E+04  0.17157424517E+04  0.10100000352E+00 0. -1.
    10030    2    1    2    0    0  0.00000000000E+00  0.00000000000E+00 -0.15057758050E+04  0.19257091197E+04  0.12004144446E+04 0.  0.
        2    1    3    3  502    0  0.21131517406E+02  0.53505932825E+03 -0.31793366346E+03  0.62274942003E+03  0.25500000920E-02 0. -1.
       -2    1    3    3    0  502 -0.21131517406E+02 -0.53505932825E+03 -0.11878421416E+04  0.13029596997E+04  0.25500000920E-02 0.  1.
</event>
<event>
 5   0  0.9941209E-05  0.1200356E+04  0.7818609E-02  0.9112545E-01
       -2   -1    0    0    0  501  0.00000000000E+00  0.00000000000E+00  0.66492675670E+03  0.66492675671E+03  0.25500000920E-02 0. -1.
        2   -1    0    0  501    0  0.00000000000E+00  0.00000000000E+00 -0.54173427431E+03  0.54173427431E+03  0.25500000920E-02 0.  1.
    10030    2    1    2    0    0  0.00000000000E+00  0.00000000000E+00  0.12319248240E+03  0.12066610310E+04  0.12003559706E+04 0.  0.
        2    1    3    3  502    0 -0.29294532948E+03  0.35159480861E+03  0.45193694697E+03  0.64318184019E+03  0.25500000920E-02 0. -1.
       -2    1    3    3    0  502  0.29294532948E+03 -0.35159480861E+03 -0.32874446457E+03  0.56347919083E+03  0.25500000920E-02 0.  1.
</event>
<event>
 5   0  0.9941209E-05  0.1199816E+04  0.7818609E-02  0.9113017E-01
       -2   -1    0    0    0  501  0.00000000000E+00  0.00000000000E+00  0.41297461531E+03  0.41297461532E+03  0.25500000920E-02 0. -1.
        2   -1    0    0  501    0  0.00000000000E+00  0.00000000000E+00 -0.87145753730E+03  0.87145753731E+03  0.25500000920E-02 0.  1.
    10030    2    1    2    0    0  0.00000000000E+00  0.00000000000E+00 -0.45848292199E+03  0.12844321526E+04  0.11998163880E+04 0.  0.
        2    1    3    3  502    0 -0.51388956111E+03 -0.46433885021E+01  0.10207799717E+03  0.52395034077E+03  0.25500000920E-02 0. -1.
       -2    1    3    3    0  502  0.51388956111E+03  0.46433885021E+01 -0.56056091916E+03  0.76048181186E+03  0.25500000920E-02 0.  1.
</event>
<event>
 5   0  0.1004006E-04  0.1199607E+04  0.7818609E-02  0.9113200E-01
       -2   -1    0    0    0  501  0.00000000000E+00  0.00000000000E+00  0.19116726990E+03  0.19116726991E+03  0.25500000920E-02 0.  1.
        2   -1    0    0  501    0  0.00000000000E+00  0.00000000000E+00 -0.18819353809E+04  0.18819353809E+04  0.25500000920E-02 0. -1.
    10030    2    1    2    0    0  0.00000000000E+00  0.00000000000E+00 -0.16907681110E+04  0.20731026508E+04  0.11996073506E+04 0.  0.
        5    1    3    3  502    0  0.58153576823E+03 -0.77175210009E+02 -0.62952079601E+03  0.86049891654E+03  0.46999998093E+01 0. -1.
       -5    1    3    3    0  502 -0.58153576823E+03  0.77175210009E+02 -0.10612473150E+04  0.12126037342E+04  0.46999998093E+01 0.  1.
</event>
<event>
 5   0  0.1012657E-04  0.1200324E+04  0.7818609E-02  0.9112573E-01
       -2   -1    0    0    0  501  0.00000000000E+00  0.00000000000E+00  0.26854454344E+03  0.26854454346E+03  0.25500000920E-02 0.  1.
        2   -1    0    0  501    0  0.00000000000E+00  0.00000000000E+00 -0.13412839405E+04  0.13412839405E+04  0.25500000920E-02 0. -1.
    10030    2    1    2    0    0  0.00000000000E+00  0.00000000000E+00 -0.10727393970E+04  0.16098284839E+04  0.12003240953E+04 0.  0.
        1    1    3    3  502    0 -0.31844187329E+03  0.29812690273E+03  0.16458325740E+02  0.43652692163E+03  0.50400001928E-02 0.  1.
       -1    1    3    3    0  502  0.31844187329E+03 -0.29812690273E+03 -0.10891977228E+04  0.11733015623E+04  0.50400001928E-02 0. -1.
</event>
<event>
 5   0  0.9941209E-05  0.1199849E+04  0.7818609E-02  0.9112989E-01
       -2   -1    0    0    0  501  0.00000000000E+00  0.00000000000E+00  0.20848805852E+03  0.20848805854E+03  0.25500000920E-02 0.  1.
        2   -1    0    0  501    0  0.00000000000E+00  0.00000000000E+00 -0.17262827249E+04  0.17262827249E+04  0.25500000920E-02 0. -1.
    10030    2    1    2    0    0  0.00000000000E+00  0.00000000000E+00 -0.15177946664E+04  0.19347707835E+04  0.11998488802E+04 0.  0.
        2    1    3    3  502    0  0.21591578955E+03 -0.21499753694E+03 -0.15922178599E+04  0.16211111259E+04  0.25500000920E-02 0. -1.
       -2    1    3    3    0  502 -0.21591578955E+03  0.21499753694E+03  0.74423193487E+02  0.31365965760E+03  0.25500000920E-02 0.  1.
</event>
<event>
 5   0  0.1012657E-04  0.1199615E+04  0.7818609E-02  0.9113194E-01
       -2   -1    0    0    0  501  0.00000000000E+00  0.00000000000E+00  0.26565456102E+03  0.26565456103E+03  0.25500000920E-02 0.  1.
        2   -1    0    0  501    0  0.00000000000E+00  0.00000000000E+00 -0.13542741226E+04  0.13542741226E+04  0.25500000920E-02 0. -1.
    10030    2    1    2    0    0  0.00000000000E+00  0.00000000000E+00 -0.10886195615E+04  0.16199286836E+04  0.11996151008E+04 0.  0.
        1    1    3    3  502    0 -0.53632816554E+03  0.26530775976E+03 -0.60052473622E+03  0.84774174569E+03  0.50400001928E-02 0. -1.
       -1    1    3    3    0  502  0.53632816554E+03 -0.26530775976E+03 -0.48809482533E+03  0.77218693791E+03  0.50400001928E-02 0.  1.
</event>
<event>
 5   0  0.5732931E-05  0.1200905E+04  0.7818609E-02  0.9112065E-01
        1   -1    0    0  501    0  0.00000000000E+00  0.00000000000E+00  0.89393518180E+03  0.89393518181E+03  0.50400001928E-02 0.  1.
       -1   -1    0    0    0  501  0.00000000000E+00  0.00000000000E+00 -0.40332154847E+03  0.40332154850E+03  0.50400001928E-02 0. -1.
    10030    2    1    2    0    0  0.00000000000E+00  0.00000000000E+00  0.49061363333E+03  0.12972567303E+04  0.12009051949E+04 0.  0.
        4    1    3    3  502    0  0.25328580403E+03 -0.74025996438E+02 -0.33732629497E+03  0.42828050253E+03  0.12699999809E+01 0. -1.
       -4    1    3    3    0  502 -0.25328580403E+03  0.74025996438E+02  0.82793992830E+03  0.86897622778E+03  0.12699999809E+01 0.  1.
</event>
<event>
 5   0  0.5732931E-05  0.1200968E+04  0.7818609E-02  0.9112010E-01
       -1   -1    0    0    0  501  0.00000000000E+00  0.00000000000E+00  0.80920173286E+03  0.80920173288E+03  0.50400001928E-02 0. -1.
        1   -1    0    0  501    0  0.00000000000E+00  0.00000000000E+00 -0.44560064996E+03  0.44560064999E+03  0.50400001928E-02 0.  1.
    10030    2    1    2    0    0  0.00000000000E+00  0.00000000000E+00  0.36360108290E+03  0.12548023829E+04  0.12009676401E+04 0.  0.
        4    1    3    3  502    0 -0.89266969213E+02  0.58982448023E+03  0.11003615048E+03  0.60660619564E+03  0.12699999809E+01 0.  1.
       -4    1    3    3    0  502  0.89266969213E+02 -0.58982448023E+03  0.25356493243E+03  0.64819618723E+03  0.12699999809E+01 0. -1.
</event>
<event>
 5   0  0.5732931E-05  0.1200245E+04  0.7818609E-02  0.9112642E-01
       -1   -1    0    0    0  501  0.00000000000E+00  0.00000000000E+00  0.18869607691E+03  0.18869607697E+03  0.50400001928E-02 0. -1.
        1   -1    0    0  501    0  0.00000000000E+00  0.00000000000E+00 -0.19086091495E+04  0.19086091495E+04  0.50400001928E-02 0.  1.
    10030    2    1    2    0    0  0.00000000000E+00  0.00000000000E+00 -0.17199130726E+04  0.20973052264E+04  0.12002450732E+04 0.  0.
        4    1    3    3  502    0  0.32771330312E+03 -0.23795668256E+03 -0.86101964479E+02  0.41404655898E+03  0.12699999809E+01 0. -1.
       -4    1    3    3    0  502 -0.32771330312E+03  0.23795668256E+03 -0.16338111081E+04  0.16832586675E+04  0.12699999809E+01 0.  1.
</event>
<event>
 5   0  0.9838215E-05  0.1199943E+04  0.7818609E-02  0.9112907E-01
        2   -1    0    0  501    0  0.00000000000E+00  0.00000000000E+00  0.41036470438E+03  0.41036470439E+03  0.25500000920E-02 0. -1.
       -2   -1    0    0    0  501  0.00000000000E+00  0.00000000000E+00 -0.87718440792E+03  0.87718440793E+03  0.25500000920E-02 0.  1.
    10030    2    1    2    0    0  0.00000000000E+00  0.00000000000E+00 -0.46681970354E+03  0.12875491123E+04  0.11999425324E+04 0.  0.
        4    1    3    3  502    0 -0.26442566084E+03  0.53692654289E+03 -0.27833376333E+03  0.66006237530E+03  0.12699999809E+01 0.  1.
       -4    1    3    3    0  502  0.26442566084E+03 -0.53692654289E+03 -0.18848594021E+03  0.62748673702E+03  0.12699999809E+01 0. -1.
</event>
<event>
 5   0  0.5625746E-05  0.1199013E+04  0.7818609E-02  0.9113721E-01
        1   -1    0    0  501    0  0.00000000000E+00  0.00000000000E+00  0.10885067414E+04  0.10885067414E+04  0.50400001928E-02 0.  1.
       -1   -1    0    0    0  501  0.00000000000E+00  0.00000000000E+00 -0.33018471507E+03  0.33018471511E+03  0.50400001928E-02 0. -1.
    10030    2    1    2    0    0  0.00000000000E+00  0.00000000000E+00  0.75832202628E+03  0.14186914565E+04  0.11990134082E+04 0.  0.
        5    1    3    3  502    0 -0.24973407022E+03 -0.47392293385E+03  0.60754740151E+02  0.53915051841E+03  0.46999998093E+01 0.  1.
       -5    1    3    3    0  502  0.24973407022E+03  0.47392293385E+03  0.69756728613E+03  0.87954093807E+03  0.46999998093E+01 0. -1.
</event>
<event>
 5   0  0.5447807E-05  0.1199751E+04  0.7818609E-02  0.9113075E-01
        1   -1    0    0  501    0  0.00000000000E+00  0.00000000000E+00  0.54216466583E+03  0.54216466585E+03  0.50400001928E-02 0. -1.
       -1   -1    0    0    0  501  0.00000000000E+00  0.00000000000E+00 -0.66372936434E+03  0.66372936436E+03  0.50400001928E-02 0.  1.
    10030    2    1    2    0    0  0.00000000000E+00  0.00000000000E+00 -0.12156469850E+03  0.12058940302E+04  0.11997509892E+04 0.  0.
        2    1    3    3  502    0 -0.72440990660E+02  0.54546790326E+02 -0.65680049462E+03  0.66303087350E+03  0.25500000920E-02 0.  1.
       -2    1    3    3    0  502  0.72440990660E+02 -0.54546790326E+02  0.53523579612E+03  0.54286315671E+03  0.25500000920E-02 0. -1.
</event>
<event>
 5   0  0.5732931E-05  0.1200321E+04  0.7818609E-02  0.9112576E-01
       -1   -1    0    0    0  501  0.00000000000E+00  0.00000000000E+00  0.37008161802E+03  0.37008161805E+03  0.50400001928E-02 0.  1.
        1   -1    0    0  501    0  0.00000000000E+00  0.00000000000E+00 -0.97327907451E+03  0.97327907452E+03  0.50400001928E-02 0. -1.
    10030    2    1    2    0    0  0.00000000000E+00  0.00000000000E+00 -0.60319745649E+03  0.13433606926E+04  0.12003211149E+04 0.  0.
        4    1    3    3  502    0 -0.37443016809E+03 -0.12473707086E+03 -0.80762321740E+03  0.89889607953E+03  0.12699999809E+01 0. -1.
       -4    1    3    3    0  502  0.37443016809E+03  0.12473707086E+03  0.20442576090E+03  0.44446461304E+03  0.12699999809E+01 0.  1.
</event>
<event>
 5   0  0.5732931E-05  0.1200283E+04  0.7818609E-02  0.9112609E-01
       -1   -1    0    0    0  501  0.00000000000E+00  0.00000000000E+00  0.25701495567E+03  0.25701495572E+03  0.50400001928E-02 0.  1.
        1   -1    0    0  501    0  0.00000000000E+00  0.00000000000E+00 -0.14013576223E+04  0.14013576223E+04  0.50400001928E-02 0. -1.
    10030    2    1    2    0    0  0.00000000000E+00  0.00000000000E+00 -0.11443426666E+04  0.16583725780E+04  0.12002830786E+04 0.  0.
        4    1    3    3  502    0 -0.57539070628E+03 -0.90340151732E+02 -0.77206931928E+03  0.96712380519E+03  0.12699999809E+01 0. -1.
       -4    1    3    3    0  502  0.57539070628E+03  0.90340151732E+02 -0.37227334733E+03  0.69124877282E+03  0.12699999809E+01 0.  1.
</event>
<event>
 5   0  0.1023063E-04  0.1198976E+04  0.7818609E-02  0.9113753E-01
       -2   -1    0    0    0  501  0.00000000000E+00  0.00000000000E+00  0.26863402772E+03  0.26863402773E+03  0.25500000920E-02 0.  1.
        2   -1    0    0  501    0  0.00000000000E+00  0.00000000000E+00 -0.13378269893E+04  0.13378269893E+04  0.25500000920E-02 0. -1.
    10030    2    1    2    0    0  0.00000000000E+00  0.00000000000E+00 -0.10691929616E+04  0.16064610171E+04  0.11989759840E+04 0.  0.
        3    1    3    3  502    0  0.17004350789E+03  0.15516369945E+02  0.23536351272E+03  0.29077748474E+03  0.10100000352E+00 0.  1.
       -3    1    3    3    0  502 -0.17004350789E+03 -0.15516369945E+02 -0.13045564743E+04  0.13156835323E+04  0.10100000352E+00 0. -1.
</event>
<event>
 5   0  0.5447807E-05  0.1199164E+04  0.7818609E-02  0.9113588E-01
       -1   -1    0    0    0  501  0.00000000000E+00  0.00000000000E+00  0.20697165024E+03  0.20697165030E+03  0.50400001928E-02 0.  1.
        1   -1    0    0  501    0  0.00000000000E+00  0.00000000000E+00 -0.17369467236E+04  0.17369467236E+04  0.50400001928E-02 0. -1.
    10030    2    1    2    0    0  0.00000000000E+00  0.00000000000E+00 -0.15299750733E+04  0.19439183739E+04  0.11991642587E+04 0.  0.
        2    1    3    3  502    0  0.29735073657E+03  0.36204084704E+03 -0.15842539460E+03  0.49456004804E+03  0.25500000920E-02 0.  1.
       -2    1    3    3    0  502 -0.29735073657E+03 -0.36204084704E+03 -0.13715496787E+04  0.14493583258E+04  0.25500000920E-02 0. -1.
</event>
<event>
 5   0  0.1023063E-04  0.1200352E+04  0.7818609E-02  0.9112549E-01
       -2   -1    0    0    0  501  0.00000000000E+00  0.00000000000E+00  0.86795439670E+03  0.86795439670E+03  0.25500000920E-02 0. -1.
        2   -1    0    0  501    0  0.00000000000E+00  0.00000000000E+00 -0.41501156102E+03  0.41501156103E+03  0.25500000920E-02 0.  1.
    10030    2    1    2    0    0  0.00000000000E+00  0.00000000000E+00  0.45294283568E+03  0.12829659577E+04  0.12003517969E+04 0.  0.
        3    1    3    3  502    0  0.50590883985E+03  0.22856927067E+03 -0.17313082747E+02  0.55541643725E+03  0.10100000352E+00 0.  1.
       -3    1    3    3    0  502 -0.50590883985E+03 -0.22856927067E+03  0.47025591843E+03  0.72754952048E+03  0.10100000352E+00 0. -1.
</event>
<event>
 5   0  0.5625746E-05  0.1200188E+04  0.7818609E-02  0.9112692E-01
        1   -1    0    0  501    0  0.00000000000E+00  0.00000000000E+00  0.16499754954E+04  0.16499754954E+04  0.50400001928E-02 0.  1.
       -1   -1    0    0    0  501  0.00000000000E+00  0.00000000000E+00 -0.21825357806E+03  0.21825357812E+03  0.50400001928E-02 0. -1.
    10030    2    1    2    0    0  0.00000000000E+00  0.00000000000E+00  0.14317219173E+04  0.18682290735E+04  0.12001884113E+04 0.  0.
        5    1    3    3  502    0  0.33671817804E+03 -0.15881741700E+03 -0.16721715878E+02  0.37269801334E+03  0.46999998093E+01 0. -1.
       -5    1    3    3    0  502 -0.33671817804E+03  0.15881741700E+03  0.14484436332E+04  0.14955310602E+04  0.46999998093E+01 0.  1.
</event>
<event>
 5   0  0.1023063E-04  0.1200073E+04  0.7818609E-02  0.9112793E-01
       -2   -1    0    0    0  501  0.00000000000E+00  0.00000000000E+00  0.44469321506E+03  0.44469321507E+03  0.25500000920E-02 0. -1.
        2   -1    0    0  501    0  0.00000000000E+00  0.00000000000E+00 -0.80964537848E+03  0.80964537848E+03  0.25500000920E-02 0.  1.
    10030    2    1    2    0    0  0.00000000000E+00  0.00000000000E+00 -0.36495216342E+03  0.12543385936E+04  0.12000730085E+04 0.  0.
        3    1    3    3  502    0 -0.35351106052E+03  0.48078494181E+03 -0.24791349300E+03  0.64620843417E+03  0.10100000352E+00 0.  1.
       -3    1    3    3    0  502  0.35351106052E+03 -0.48078494181E+03 -0.11703867042E+03  0.60813015938E+03  0.10100000352E+00 0. -1.
</event>
<event>
 5   0  0.5620246E-05  0.1200394E+04  0.7818609E-02  0.9112512E-01
       -1   -1    0    0    0  501  0.00000000000E+00  0.00000000000E+00  0.35283738859E+03  0.35283738862E+03  0.50400001928E-02 0. -1.
        1   -1    0    0  501    0  0.00000000000E+00  0.00000000000E+00 -0.10209703002E+04  0.10209703002E+04  0.50400001928E-02 0.  1.
    10030    2    1    2    0    0  0.00000000000E+00  0.00000000000E+00 -0.66813291161E+03  0.13738076888E+04  0.12003940929E+04 0.  0.
        1    1    3    3  502    0 -0.11508596636E+01  0.95151929383E+02 -0.10122820512E+04  0.10167448870E+04  0.50400001928E-02 0.  1.
       -1    1    3    3    0  502  0.11508596636E+01 -0.95151929383E+02  0.34414913956E+03  0.35706280180E+03  0.50400001928E-02 0. -1.
</event>
<event>
 5   0  0.5625746E-05  0.1199728E+04  0.7818609E-02  0.9113094E-01
        1   -1    0    0  501    0  0.00000000000E+00  0.00000000000E+00  0.74604257173E+03  0.74604257174E+03  0.50400001928E-02 0. -1.
       -1   -1    0    0    0  501  0.00000000000E+00  0.00000000000E+00 -0.48232783627E+03  0.48232783630E+03  0.50400001928E-02 0.  1.
    10030    2    1    2    0    0  0.00000000000E+00  0.00000000000E+00  0.26371473545E+03  0.12283704080E+04  0.11997284683E+04 0.  0.
        5    1    3    3  502    0 -0.49743045461E+03 -0.19894793409E+03  0.40810917387E+03  0.67349278055E+03  0.46999998093E+01 0. -1.
       -5    1    3    3    0  502  0.49743045461E+03  0.19894793409E+03 -0.14439443842E+03  0.55487762750E+03  0.46999998093E+01 0.  1.
</event>
<event>
 5   0  0.1004006E-04  0.1200331E+04  0.7818609E-02  0.9112567E-01
        2   -1    0    0  501    0  0.00000000000E+00  0.00000000000E+00  0.63490887316E+03  0.63490887316E+03  0.25500000920E-02 0. -1.
       -2   -1    0    0    0  501  0.00000000000E+00  0.00000000000E+00 -0.56732351421E+03  0.56732351422E+03  0.25500000920E-02 0.  1.
    10030    2    1    2    0    0  0.00000000000E+00  0.00000000000E+00  0.67585358946E+02  0.12022323874E+04  0.12003311762E+04 0.  0.
        5    1    3    3  502    0  0.40222947561E+03  0.43360983328E+03 -0.68204784713E+02  0.59538224799E+03  0.46999998093E+01 0.  1.
       -5    1    3    3    0  502 -0.40222947561E+03 -0.43360983328E+03  0.13579014366E+03  0.60685013939E+03  0.46999998093E+01 0. -1.
</event>
<event>
 5   0  0.5620246E-05  0.1199444E+04  0.7818609E-02  0.9113344E-01
       -1   -1    0    0    0  501  0.00000000000E+00  0.00000000000E+00  0.62540660741E+03  0.62540660744E+03  0.50400001928E-02 0. -1.
        1   -1    0    0  501    0  0.00000000000E+00  0.00000000000E+00 -0.57509202373E+03  0.57509202375E+03  0.50400001928E-02 0.  1.
    10030    2    1    2    0    0  0.00000000000E+00  0.00000000000E+00  0.50314583683E+02  0.12004986312E+04  0.11994437903E+04 0.  0.
        1    1    3    3  502    0  0.63812968749E+02  0.16921418689E+03 -0.54715045256E+03  0.57626309424E+03  0.50400001928E-02 0.  1.
       -1    1    3    3    0  502 -0.63812968749E+02 -0.16921418689E+03  0.59746503624E+03  0.62423553694E+03  0.50400001928E-02 0. -1.
</event>
<event>
 5   0  0.5447807E-05  0.1197530E+04  0.7818609E-02  0.9115021E-01
       -1   -1    0    0    0  501  0.00000000000E+00  0.00000000000E+00  0.50817820848E+03  0.50817820851E+03  0.50400001928E-02 0. -1.
        1   -1    0    0  501    0  0.00000000000E+00  0.00000000000E+00 -0.70549953407E+03  0.70549953409E+03  0.50400001928E-02 0.  1.
    10030    2    1    2    0    0  0.00000000000E+00  0.00000000000E+00 -0.19732132559E+03  0.12136777426E+04  0.11975299401E+04 0.  0.
        2    1    3    3  502    0  0.35602026336E+03  0.41607836808E+03  0.14677805100E+03  0.56693512201E+03  0.25500000920E-02 0. -1.
       -2    1    3    3    0  502 -0.35602026336E+03 -0.41607836808E+03 -0.34409937659E+03  0.64674262059E+03  0.25500000920E-02 0.  1.
</event>
<event>
 5   0  0.9941209E-05  0.1200175E+04  0.7818609E-02  0.9112703E-01
       -2   -1    0    0    0  501  0.00000000000E+00  0.00000000000E+00  0.30048444342E+03  0.30048444343E+03  0.25500000920E-02 0. -1.
        2   -1    0    0  501    0  0.00000000000E+00  0.00000000000E+00 -0.11984152638E+04  0.11984152638E+04  0.25500000920E-02 0.  1.
    10030    2    1    2    0    0  0.00000000000E+00  0.00000000000E+00 -0.89793082043E+03  0.14988997073E+04  0.12001752265E+04 0.  0.
        2    1    3    3  502    0  0.27695954968E+03 -0.19852443044E+03 -0.10658599213E+04  0.11190066637E+04  0.25500000920E-02 0.  1.
       -2    1    3    3    0  502 -0.27695954968E+03  0.19852443044E+03  0.16792910085E+03  0.37989304358E+03  0.25500000920E-02 0. -1.
</event>
<event>
 5   0  0.9941209E-05  0.1200214E+04  0.7818609E-02  0.9112669E-01
        2   -1    0    0  501    0  0.00000000000E+00  0.00000000000E+00  0.17930100601E+04  0.17930100601E+04  0.25500000920E-02 0. -1.
       -2   -1    0    0    0  501  0.00000000000E+00  0.00000000000E+00 -0.20085136032E+03  0.20085136034E+03  0.25500000920E-02 0.  1.
    10030    2    1    2    0    0  0.00000000000E+00  0.00000000000E+00  0.15921586998E+04  0.19938614205E+04  0.12002141637E+04 0.  0.
        2    1    3    3  502    0  0.25523346524E+03  0.41445122598E+03  0.21294684020E+03  0.53128174941E+03  0.25500000920E-02 0.  1.
       -2    1    3    3    0  502 -0.25523346524E+03 -0.41445122598E+03  0.13792118596E+04  0.14625796711E+04  0.25500000920E-02 0. -1.
</event>
<event>
 5   0  0.9838215E-05  0.1200129E+04  0.7818609E-02  0.9112743E-01
        2   -1    0    0  501    0  0.00000000000E+00  0.00000000000E+00  0.17034397704E+04  0.17034397704E+04  0.25500000920E-02 0.  1.
       -2   -1    0    0    0  501  0.00000000000E+00  0.00000000000E+00 -0.21138268324E+03  0.21138268326E+03  0.25500000920E-02 0. -1.
    10030    2    1    2    0    0  0.00000000000E+00  0.00000000000E+00  0.14920570871E+04  0.19148224536E+04  0.12001294420E+04 0.  0.
        4    1    3    3  502    0  0.28329497725E+03 -0.52503112715E+03  0.84896484659E+03  0.10376206688E+04  0.12699999809E+01 0. -1.
       -4    1    3    3    0  502 -0.28329497725E+03  0.52503112715E+03  0.64309224053E+03  0.87720178485E+03  0.12699999809E+01 0.  1.
</event>
<event>
 5   0  0.1012657E-04  0.1199594E+04  0.7818609E-02  0.9113212E-01
        2   -1    0    0  501    0  0.00000000000E+00  0.00000000000E+00  0.13028107808E+04  0.13028107808E+04  0.25500000920E-02 0. -1.
       -2   -1    0    0    0  501  0.00000000000E+00  0.00000000000E+00 -0.27613876327E+03  0.27613876328E+03  0.25500000920E-02 0.  1.
    10030    2    1    2    0    0  0.00000000000E+00  0.00000000000E+00  0.10266720175E+04  0.15789495441E+04  0.11995941944E+04 0.  0.
        1    1    3    3  502    0  0.19661976299E+03  0.56137444096E+03  0.41175560963E+03  0.72342468596E+03  0.50400001928E-02 0.  1.
       -1    1    3    3    0  502 -0.19661976299E+03 -0.56137444096E+03  0.61491640792E+03  0.85552485815E+03  0.50400001928E-02 0. -1.
</event>
<event>
 5   0  0.3839750E-05  0.1200350E+04  0.7818609E-02  0.9112551E-01
       -4   -1    0    0    0  501  0.00000000000E+00  0.00000000000E+00  0.28843838882E+03  0.28844118473E+03  0.12699999809E+01 0.  1.
        4   -1    0    0  501    0  0.00000000000E+00  0.00000000000E+00 -0.12488184074E+04  0.12488190532E+04  0.12699999809E+01 0. -1.
    10030    2    1    2    0    0  0.00000000000E+00  0.00000000000E+00 -0.96038001857E+03  0.15372602379E+04  0.12003496403E+04 0.  0.
        4    1    3    3  502    0  0.61102524331E+02  0.25851480403E+03  0.20905317469E+03  0.33803589325E+03  0.12699999809E+01 0.  1.
       -4    1    3    3    0  502 -0.61102524331E+02 -0.25851480403E+03 -0.11694331933E+04  0.11992243446E+04  0.12699999809E+01 0. -1.
</event>
<event>
 5   0  0.9941209E-05  0.1200952E+04  0.7818609E-02  0.9112023E-01
       -2   -1    0    0    0  501  0.00000000000E+00  0.00000000000E+00  0.54288176549E+03  0.54288176549E+03  0.25500000920E-02 0. -1.
        2   -1    0    0  501    0  0.00000000000E+00  0.00000000000E+00 -0.66418082787E+03  0.66418082788E+03  0.25500000920E-02 0.  1.
    10030    2    1    2    0    0  0.00000000000E+00  0.00000000000E+00 -0.12129906239E+03  0.12070625934E+04  0.12009523895E+04 0.  0.
        2    1    3    3  502    0  0.46193752398E+03 -0.38285752581E+03 -0.85381621596E+02  0.60601665196E+03  0.25500000920E-02 0.  1.
       -2    1    3    3    0  502 -0.46193752398E+03  0.38285752581E+03 -0.35917440790E+02  0.60104594142E+03  0.25500000920E-02 0. -1.
</event>
<event>
 5   0  0.1023063E-04  0.1201304E+04  0.7818609E-02  0.9111716E-01
        2   -1    0    0  501    0  0.00000000000E+00  0.00000000000E+00  0.11730171080E+04  0.11730171080E+04  0.25500000920E-02 0.  1.
       -2   -1    0    0    0  501  0.00000000000E+00  0.00000000000E+00 -0.30756843166E+03  0.30756843167E+03  0.25500000920E-02 0. -1.
    10030    2    1    2    0    0  0.00000000000E+00  0.00000000000E+00  0.86544867630E+03  0.14805855396E+04  0.12013043448E+04 0.  0.
        3    1    3    3  502    0 -0.24058631441E+03 -0.21627554906E+03 -0.19102112957E+03  0.37569398445E+03  0.10100000352E+00 0. -1.
       -3    1    3    3    0  502  0.24058631441E+03  0.21627554906E+03  0.10564698059E+04  0.11048915552E+04  0.10100000352E+00 0.  1.
</event>
<event>
 5   0  0.3839750E-05  0.1200565E+04  0.7818609E-02  0.9112362E-01
       -3   -1    0    0    0  501  0.00000000000E+00  0.00000000000E+00  0.46441835064E+03  0.46441836163E+03  0.10100000352E+00 0.  1.
        3   -1    0    0  501    0  0.00000000000E+00  0.00000000000E+00 -0.77589311193E+03  0.77589311851E+03  0.10100000352E+00 0. -1.
    10030    2    1    2    0    0  0.00000000000E+00  0.00000000000E+00 -0.31147476129E+03  0.12403114801E+04  0.12005648841E+04 0.  0.
        2    1    3    3  502    0 -0.10710798183E+02  0.13287473665E+03 -0.76040804513E+03  0.77200441187E+03  0.25500000920E-02 0. -1.
       -2    1    3    3    0  502  0.10710798183E+02 -0.13287473665E+03  0.44893328384E+03  0.46830706826E+03  0.25500000920E-02 0.  1.
</event>
<event>
 5   0  0.3839750E-05  0.1201528E+04  0.7818609E-02  0.9111520E-01
       -3   -1    0    0    0  501  0.00000000000E+00  0.00000000000E+00  0.10414723475E+04  0.10414723524E+04  0.10100000352E+00 0.  1.
        3   -1    0    0  501    0  0.00000000000E+00  0.00000000000E+00 -0.34654524886E+03  0.34654526358E+03  0.10100000352E+00 0. -1.
    10030    2    1    2    0    0  0.00000000000E+00  0.00000000000E+00  0.69492709865E+03  0.13880176160E+04  0.12015278731E+04 0.  0.
        2    1    3    3  502    0  0.14501563969E+03  0.28397886387E+03  0.93565038152E+03  0.98849135926E+03  0.25500000920E-02 0.  1.
       -2    1    3    3    0  502 -0.14501563969E+03 -0.28397886387E+03 -0.24072328288E+03  0.39952625672E+03  0.25500000920E-02 0. -1.
</event>
<event>
 5   0  0.5745487E-05  0.1197400E+04  0.7818609E-02  0.9115135E-01
        1   -1    0    0  501    0  0.00000000000E+00  0.00000000000E+00  0.78827057039E+03  0.78827057040E+03  0.50400001928E-02 0.  1.
       -1   -1    0    0    0  501  0.00000000000E+00  0.00000000000E+00 -0.45471902548E+03  0.45471902551E+03  0.50400001928E-02 0. -1.
    10030    2    1    2    0    0  0.00000000000E+00  0.00000000000E+00  0.33355154491E+03  0.12429895959E+04  0.11973998925E+04 0.  0.
        3    1    3    3  502    0  0.32476885839E+03 -0.24486794328E+03 -0.28927609668E+03  0.49911500813E+03  0.10100000352E+00 0. -1.
       -3    1    3    3    0  502 -0.32476885839E+03  0.24486794328E+03  0.62282764159E+03  0.74387458779E+03  0.10100000352E+00 0.  1.
</event>
<event>
 5   0  0.1004006E-04  0.1203484E+04  0.7818609E-02  0.9109813E-01
        2   -1    0    0  501    0  0.00000000000E+00  0.00000000000E+00  0.73769570450E+03  0.73769570451E+03  0.25500000920E-02 0.  1.
       -2   -1    0    0    0  501  0.00000000000E+00  0.00000000000E+00 -0.49084361574E+03  0.49084361574E+03  0.25500000920E-02 0. -1.
    10030    2    1    2    0    0  0.00000000000E+00  0.00000000000E+00  0.24685208876E+03  0.12285393203E+04  0.12034836549E+04 0.  0.
        5    1    3    3  502    0 -0.22626221021E+03 -0.19164101478E+03 -0.41106841064E+03  0.50687295700E+03  0.46999998093E+01 0. -1.
       -5    1    3    3    0  502  0.22626221021E+03  0.19164101478E+03  0.65792049941E+03  0.72166636325E+03  0.46999998093E+01 0.  1.
</event>
<event>
 5   0  0.5732931E-05  0.1199940E+04  0.7818609E-02  0.9112909E-01
       -1   -1    0    0    0  501  0.00000000000E+00  0.00000000000E+00  0.55324407163E+03  0.55324407165E+03  0.50400001928E-02 0.  1.
        1   -1    0    0  501    0  0.00000000000E+00  0.00000000000E+00 -0.65064245658E+03  0.65064245660E+03  0.50400001928E-02 0. -1.
    10030    2    1    2    0    0  0.00000000000E+00  0.00000000000E+00 -0.97398384948E+02  0.12038865282E+04  0.11999401350E+04 0.  0.
        4    1    3    3  502    0  0.19102736050E+03 -0.29587908552E+03  0.43862100790E+03  0.56251745500E+03  0.12699999809E+01 0.  1.
       -4    1    3    3    0  502 -0.19102736050E+03  0.29587908552E+03 -0.53601939285E+03  0.64136907325E+03  0.12699999809E+01 0. -1.
</event>
<event>
 5   0  0.1012657E-04  0.1200128E+04  0.7818609E-02  0.9112745E-01
       -2   -1    0    0    0  501  0.00000000000E+00  0.00000000000E+00  0.35183838773E+03  0.35183838774E+03  0.25500000920E-02 0. -1.
        2   -1    0    0  501    0  0.00000000000E+00  0.00000000000E+00 -0.10234145650E+04  0.10234145650E+04  0.25500000920E-02 0.  1.
    10030    2    1    2    0    0  0.00000000000E+00  0.00000000000E+00 -0.67157617731E+03  0.13752529528E+04  0.12001275441E+04 0.  0.
        1    1    3    3  502    0 -0.48237215820E+03  0.14016546363E+02  0.72901810007E+02  0.48805126421E+03  0.50400001928E-02 0. -1.
       -1    1    3    3    0  502  0.48237215820E+03 -0.14016546363E+02 -0.74447798732E+03  0.88720168857E+03  0.50400001928E-02 0.  1.
</event>
<event>
 5   0  0.3839750E-05  0.1199879E+04  0.7818609E-02  0.9112962E-01
        3   -1    0    0  501    0  0.00000000000E+00  0.00000000000E+00  0.35748968069E+03  0.35748969496E+03  0.10100000352E+00 0.  1.
       -3   -1    0    0    0  501  0.00000000000E+00  0.00000000000E+00 -0.10068195990E+04  0.10068196041E+04  0.10100000352E+00 0. -1.
    10030    2    1    2    0    0  0.00000000000E+00  0.00000000000E+00 -0.64932991831E+03  0.13643092990E+04  0.11998793775E+04 0.  0.
        1    1    3    3  502    0  0.28092668193E+03  0.17106850567E+03  0.24583326026E+03  0.41063149676E+03  0.50400001928E-02 0.  1.
       -1    1    3    3    0  502 -0.28092668193E+03 -0.17106850567E+03 -0.89516317857E+03  0.95367780227E+03  0.50400001928E-02 0. -1.
</event>
<event>
 5   0  0.9941209E-05  0.1200314E+04  0.7818609E-02  0.9112582E-01
       -2   -1    0    0    0  501  0.00000000000E+00  0.00000000000E+00  0.28509373081E+03  0.28509373082E+03  0.25500000920E-02 0.  1.
        2   -1    0    0  501    0  0.00000000000E+00  0.00000000000E+00 -0.12634024850E+04  0.12634024850E+04  0.25500000920E-02 0. -1.
    10030    2    1    2    0    0  0.00000000000E+00  0.00000000000E+00 -0.97830875417E+03  0.15484962158E+04  0.12003135057E+04 0.  0.
        2    1    3    3  502    0 -0.26668314697E+03 -0.93252617080E+01  0.20435174740E+03  0.33610489145E+03  0.25500000920E-02 0.  1.
       -2    1    3    3    0  502  0.26668314697E+03  0.93252617080E+01 -0.11826605016E+04  0.12123913244E+04  0.25500000920E-02 0. -1.
</event>
<event>
 5   0  0.5625746E-05  0.1198770E+04  0.7818609E-02  0.9113934E-01
       -1   -1    0    0    0  501  0.00000000000E+00  0.00000000000E+00  0.93513856038E+03  0.93513856040E+03  0.50400001928E-02 0.  1.
        1   -1    0    0  501    0  0.00000000000E+00  0.00000000000E+00 -0.38418075901E+03  0.38418075904E+03  0.50400001928E-02 0. -1.
    10030    2    1    2    0    0  0.00000000000E+00  0.00000000000E+00  0.55095780138E+03  0.13193193194E+04  0.11987697726E+04 0.  0.
        5    1    3    3  502    0 -0.38126633796E+02  0.13547688732E+03  0.91667499128E+03  0.92742803324E+03  0.46999998093E+01 0.  1.
       -5    1    3    3    0  502  0.38126633796E+02 -0.13547688732E+03 -0.36571718991E+03  0.39189128619E+03  0.46999998093E+01 0. -1.
</event>
<event>
 5   0  0.9838215E-05  0.1202886E+04  0.7818609E-02  0.9110334E-01
       -2   -1    0    0    0  501  0.00000000000E+00  0.00000000000E+00  0.33149109205E+03  0.33149109206E+03  0.25500000920E-02 0.  1.
        2   -1    0    0  501    0  0.00000000000E+00  0.00000000000E+00 -0.10912328476E+04  0.10912328476E+04  0.25500000920E-02 0. -1.
    10030    2    1    2    0    0  0.00000000000E+00  0.00000000000E+00 -0.75974175554E+03  0.14227239397E+04  0.12028864757E+04 0.  0.
        4    1    3    3  502    0 -0.37087515080E+03  0.26760465430E+03  0.82119604250E+02  0.46465672360E+03  0.12699999809E+01 0.  1.
       -4    1    3    3    0  502  0.37087515080E+03 -0.26760465430E+03 -0.84186135979E+03  0.95806721606E+03  0.12699999809E+01 0. -1.
</event>
<event>
 5   0  0.1004006E-04  0.1199910E+04  0.7818609E-02  0.9112935E-01
       -2   -1    0    0    0  501  0.00000000000E+00  0.00000000000E+00  0.70949527650E+03  0.70949527650E+03  0.25500000920E-02 0.  1.
        2   -1    0    0  501    0  0.00000000000E+00  0.00000000000E+00 -0.50732720145E+03  0.50732720146E+03  0.25500000920E-02 0. -1.
    10030    2    1    2    0    0  0.00000000000E+00  0.00000000000E+00  0.20216807505E+03  0.12168224780E+04  0.11999104184E+04 0.  0.
        5    1    3    3  502    0  0.62523230295E+02 -0.59648120240E+03  0.85866404649E+02  0.60588291656E+03  0.46999998093E+01 0. -1.
       -5    1    3    3    0  502 -0.62523230295E+02  0.59648120240E+03  0.11630167040E+03  0.61093956139E+03  0.46999998093E+01 0.  1.
</event>
<event>
 5   0  0.5732931E-05  0.1197430E+04  0.7818609E-02  0.9115109E-01
        1   -1    0    0  501    0  0.00000000000E+00  0.00000000000E+00  0.16066945759E+04  0.16066945759E+04  0.50400001928E-02 0. -1.
       -1   -1    0    0    0  501  0.00000000000E+00  0.00000000000E+00 -0.22310381922E+03  0.22310381928E+03  0.50400001928E-02 0.  1.
    10030    2    1    2    0    0  0.00000000000E+00  0.00000000000E+00  0.13835907567E+04  0.18297983952E+04  0.11974300752E+04 0.  0.
        4    1    3    3  502    0 -0.52948114342E+03  0.11740066497E+03  0.10793586318E+04  0.12079527583E+04  0.12699999809E+01 0. -1.
       -4    1    3    3    0  502  0.52948114342E+03 -0.11740066497E+03  0.30423212483E+03  0.62184563684E+03  0.12699999809E+01 0.  1.
</event>
<event>
 5   0  0.1023063E-04  0.1200022E+04  0.7818609E-02  0.9112837E-01
       -2   -1    0    0    0  501  0.00000000000E+00  0.00000000000E+00  0.33910636783E+03  0.33910636784E+03  0.25500000920E-02 0. -1.
        2   -1    0    0  501    0  0.00000000000E+00  0.00000000000E+00 -0.10616527734E+04  0.10616527734E+04  0.25500000920E-02 0.  1.
    10030    2    1    2    0    0  0.00000000000E+00  0.00000000000E+00 -0.72254640560E+03  0.14007591413E+04  0.12000220263E+04 0.  0.
        3    1    3    3  502    0 -0.78869962580E+02  0.55003080370E+03 -0.96996624206E+02  0.56405913815E+03  0.10100000352E+00 0.  1.
       -3    1    3    3    0  502  0.78869962580E+02 -0.55003080370E+03 -0.62554978139E+03  0.83670000312E+03  0.10100000352E+00 0. -1.
</event>
<event>
 5   0  0.5625746E-05  0.1199804E+04  0.7818609E-02  0.9113028E-01
        1   -1    0    0  501    0  0.00000000000E+00  0.00000000000E+00  0.21472727580E+04  0.21472727580E+04  0.50400001928E-02 0.  1.
       -1   -1    0    0    0  501  0.00000000000E+00  0.00000000000E+00 -0.16759968352E+03  0.16759968359E+03  0.50400001928E-02 0. -1.
    10030    2    1    2    0    0  0.00000000000E+00  0.00000000000E+00  0.19796730744E+04  0.23148724415E+04  0.11998037085E+04 0.  0.
        5    1    3    3  502    0  0.30052664185E+03  0.48887265392E+03  0.65262372615E+03  0.86905267512E+03  0.46999998093E+01 0. -1.
       -5    1    3    3    0  502 -0.30052664185E+03 -0.48887265392E+03  0.13270493483E+04  0.14458197664E+04  0.46999998093E+01 0.  1.
</event>
<event>
 5   0  0.5745487E-05  0.1199956E+04  0.7818609E-02  0.9112895E-01
       -1   -1    0    0    0  501  0.00000000000E+00  0.00000000000E+00  0.54731000360E+03  0.54731000362E+03  0.50400001928E-02 0.  1.
        1   -1    0    0  501    0  0.00000000000E+00  0.00000000000E+00 -0.65771461351E+03  0.65771461353E+03  0.50400001928E-02 0. -1.
    10030    2    1    2    0    0  0.00000000000E+00  0.00000000000E+00 -0.11040460991E+03  0.12050246172E+04  0.11999563117E+04 0.  0.
        3    1    3    3  502    0 -0.12868012207E+03 -0.50232705786E+03 -0.35827618241E+03  0.63028000124E+03  0.10100000352E+00 0.  1.
       -3    1    3    3    0  502  0.12868012207E+03  0.50232705786E+03  0.24787157249E+03  0.57474461592E+03  0.10100000352E+00 0. -1.
</event>
<event>
 5   0  0.5745487E-05  0.1200987E+04  0.7818609E-02  0.9111993E-01
        1   -1    0    0  501    0  0.00000000000E+00  0.00000000000E+00  0.13167216853E+04  0.13167216854E+04  0.50400001928E-02 0.  1.
       -1   -1    0    0    0  501  0.00000000000E+00  0.00000000000E+00 -0.27385602607E+03  0.27385602611E+03  0.50400001928E-02 0. -1.
    10030    2    1    2    0    0  0.00000000000E+00  0.00000000000E+00  0.10428656593E+04  0.15905777115E+04  0.12009865415E+04 0.  0.
        3    1    3    3  502    0 -0.91725610107E+02 -0.27324054861E+03 -0.17625711808E+03  0.33784695770E+03  0.10100000352E+00 0. -1.
       -3    1    3    3    0  502  0.91725610107E+02  0.27324054861E+03  0.12191227774E+04  0.12527307538E+04  0.10100000352E+00 0.  1.
</event>
<event>
 5   0  0.5732931E-05  0.1199746E+04  0.7818609E-02  0.9113079E-01
       -1   -1    0    0    0  501  0.00000000000E+00  0.00000000000E+00  0.41843155094E+03  0.41843155098E+03  0.50400001928E-02 0.  1.
        1   -1    0    0  501    0  0.00000000000E+00  0.00000000000E+00 -0.85999208666E+03  0.85999208667E+03  0.50400001928E-02 0. -1.
    10030    2    1    2    0    0  0.00000000000E+00  0.00000000000E+00 -0.44156053571E+03  0.12784236376E+04  0.11997463443E+04 0.  0.
        4    1    3    3  502    0 -0.21535873484E+02  0.17891403580E+03  0.38890576276E+03  0.42862959681E+03  0.12699999809E+01 0.  1.
       -4    1    3    3    0  502  0.21535873484E+02 -0.17891403580E+03 -0.83046629847E+03  0.84979404084E+03  0.12699999809E+01 0. -1.
</event>
<event>
 5   0  0.1023063E-04  0.1201032E+04  0.7818609E-02  0.9111954E-01
       -2   -1    0    0    0  501  0.00000000000E+00  0.00000000000E+00  0.43079955558E+03  0.43079955559E+03  0.25500000920E-02 0. -1.
        2   -1    0    0  501    0  0.00000000000E+00  0.00000000000E+00 -0.83709299683E+03  0.83709299683E+03  0.25500000920E-02 0.  1.
    10030    2    1    2    0    0  0.00000000000E+00  0.00000000000E+00 -0.40629344125E+03  0.12678925524E+04  0.12010317082E+04 0.  0.
        3    1    3    3  502    0 -0.79834169827E+02 -0.35746151220E+03  0.29923114017E+03  0.47296037131E+03  0.10100000352E+00 0. -1.
       -3    1    3    3    0  502  0.79834169827E+02  0.35746151220E+03 -0.70552458142E+03  0.79493218111E+03  0.10100000352E+00 0.  1.
</event>
<event>
 5   0  0.5625746E-05  0.1200181E+04  0.7818609E-02  0.9112699E-01
       -1   -1    0    0    0  501  0.00000000000E+00  0.00000000000E+00  0.35949033130E+03  0.35949033134E+03  0.50400001928E-02 0. -1.
        1   -1    0    0  501    0  0.00000000000E+00  0.00000000000E+00 -0.10017191251E+04  0.10017191251E+04  0.50400001928E-02 0.  1.
    10030    2    1    2    0    0  0.00000000000E+00  0.00000000000E+00 -0.64222879375E+03  0.13612094564E+04  0.12001805534E+04 0.  0.
        5    1    3    3  502    0 -0.55692631484E+03  0.13660407353E+03 -0.12059170310E+03  0.58599662278E+03  0.46999998093E+01 0.  1.
       -5    1    3    3    0  502  0.55692631484E+03 -0.13660407353E+03 -0.52163709065E+03  0.77521283362E+03  0.46999998093E+01 0. -1.
</event>
<event>
 5   0  0.1023063E-04  0.1199751E+04  0.7818609E-02  0.9113075E-01
       -2   -1    0    0    0  501  0.00000000000E+00  0.00000000000E+00  0.63163030158E+03  0.63163030158E+03  0.25500000920E-02 0. -1.
        2   -1    0    0  501    0  0.00000000000E+00  0.00000000000E+00 -0.56971690530E+03  0.56971690531E+03  0.25500000920E-02 0.  1.
    10030    2    1    2    0    0  0.00000000000E+00  0.00000000000E+00  0.61913396275E+02  0.12013472069E+04  0.11997507420E+04 0.  0.
        3    1    3    3  502    0 -0.44357076699E+03  0.33212568373E+03 -0.19910532591E+03  0.58881698017E+03  0.10100000352E+00 0.  1.
       -3    1    3    3    0  502  0.44357076699E+03 -0.33212568373E+03  0.26101872219E+03  0.61253022673E+03  0.10100000352E+00 0. -1.
</event>
<event>
 5   0  0.1004006E-04  0.1199986E+04  0.7818609E-02  0.9112869E-01
       -2   -1    0    0    0  501  0.00000000000E+00  0.00000000000E+00  0.20653660169E+03  0.20653660171E+03  0.25500000920E-02 0.  1.
        2   -1    0    0  501    0  0.00000000000E+00  0.00000000000E+00 -0.17429904988E+04  0.17429904988E+04  0.25500000920E-02 0. -1.
    10030    2    1    2    0    0  0.00000000000E+00  0.00000000000E+00 -0.15364538971E+04  0.19495271005E+04  0.11999855573E+04 0.  0.
        5    1    3    3  502    0  0.43717250520E+03 -0.36926825282E+02 -0.14331055023E+04  0.14987651118E+04  0.46999998093E+01 0. -1.
       -5    1    3    3    0  502 -0.43717250520E+03  0.36926825282E+02 -0.10334839480E+03  0.45076198867E+03  0.46999998093E+01 0.  1.
</event>
<event>
 5   0  0.5447807E-05  0.1200509E+04  0.7818609E-02  0.9112411E-01
       -1   -1    0    0    0  501  0.00000000000E+00  0.00000000000E+00  0.35604942221E+03  0.35604942225E+03  0.50400001928E-02 0. -1.
        1   -1    0    0  501    0  0.00000000000E+00  0.00000000000E+00 -0.10119538163E+04  0.10119538164E+04  0.50400001928E-02 0.  1.
    10030    2    1    2    0    0  0.00000000000E+00  0.00000000000E+00 -0.65590439414E+03  0.13680032386E+04  0.12005091781E+04 0.  0.
        2    1    3    3  502    0  0.21146369182E+03 -0.39307134061E+03  0.12939635048E+03  0.46472076271E+03  0.25500000920E-02 0. -1.
       -2    1    3    3    0  502 -0.21146369182E+03  0.39307134061E+03 -0.78530074461E+03  0.90328247590E+03  0.25500000920E-02 0.  1.
</event>
<event>
 5   0  0.5732931E-05  0.1197623E+04  0.7818609E-02  0.9114939E-01
        1   -1    0    0  501    0  0.00000000000E+00  0.00000000000E+00  0.34786831342E+03  0.34786831346E+03  0.50400001928E-02 0. -1.
       -1   -1    0    0    0  501  0.00000000000E+00  0.00000000000E+00 -0.10307789673E+04  0.10307789673E+04  0.50400001928E-02 0.  1.
    10030    2    1    2    0    0  0.00000000000E+00  0.00000000000E+00 -0.68291065390E+03  0.13786472808E+04  0.11976232144E+04 0.  0.
        4    1    3    3  502    0 -0.12685219130E+03 -0.37941456002E+03 -0.85436699546E+03  0.94339358840E+03  0.12699999809E+01 0.  1.
       -4    1    3    3    0  502  0.12685219130E+03  0.37941456002E+03  0.17145634156E+03  0.43525369240E+03  0.12699999809E+01 0. -1.
</event>
<event>
 5   0  0.9941209E-05  0.1198918E+04  0.7818609E-02  0.9113804E-01
       -2   -1    0    0    0  501  0.00000000000E+00  0.00000000000E+00  0.34072313233E+03  0.34072313234E+03  0.25500000920E-02 0. -1.
        2   -1    0    0  501    0  0.00000000000E+00  0.00000000000E+00 -0.10546712760E+04  0.10546712760E+04  0.25500000920E-02 0.  1.
    10030    2    1    2    0    0  0.00000000000E+00  0.00000000000E+00 -0.71394814370E+03  0.13953944084E+04  0.11989176798E+04 0.  0.
        2    1    3    3  502    0 -0.11825826678E+03  0.35415342918E+03  0.18886037533E+03  0.41842312369E+03  0.25500000920E-02 0. -1.
       -2    1    3    3    0  502  0.11825826678E+03 -0.35415342918E+03 -0.90280851903E+03  0.97697128469E+03  0.25500000920E-02 0.  1.
</event>
<event>
 5   0  0.1023063E-04  0.1200204E+04  0.7818609E-02  0.9112678E-01
       -2   -1    0    0    0  501  0.00000000000E+00  0.00000000000E+00  0.27822997005E+03  0.27822997006E+03  0.25500000920E-02 0.  1.
        2   -1    0    0  501    0  0.00000000000E+00  0.00000000000E+00 -0.12943326158E+04  0.12943326158E+04  0.25500000920E-02 0. -1.
    10030    2    1    2    0    0  0.00000000000E+00  0.00000000000E+00 -0.10161026458E+04  0.15725625859E+04  0.12002035243E+04 0.  0.
        3    1    3    3  502    0 -0.54050927311E+03  0.21042723768E+03 -0.30637454148E+03  0.65596895243E+03  0.10100000352E+00 0.  1.
       -3    1    3    3    0  502  0.54050927311E+03 -0.21042723768E+03 -0.70972810429E+03  0.91659363346E+03  0.10100000352E+00 0. -1.
</event>
<event>
 5   0  0.5620246E-05  0.1199899E+04  0.7818609E-02  0.9112945E-01
        1   -1    0    0  501    0  0.00000000000E+00  0.00000000000E+00  0.13934900564E+04  0.13934900564E+04  0.50400001928E-02 0. -1.
       -1   -1    0    0    0  501  0.00000000000E+00  0.00000000000E+00 -0.25830068239E+03  0.25830068244E+03  0.50400001928E-02 0.  1.
    10030    2    1    2    0    0  0.00000000000E+00  0.00000000000E+00  0.11351893740E+04  0.16517907388E+04  0.11998990499E+04 0.  0.
        1    1    3    3  502    0 -0.14870310821E+03  0.43797118838E+03  0.41578962425E+02  0.46439227641E+03  0.50400001928E-02 0.  1.
       -1    1    3    3    0  502  0.14870310821E+03 -0.43797118838E+03  0.10936104115E+04  0.11873984624E+04  0.50400001928E-02 0. -1.
</event>
<event>
 5   0  0.1004006E-04  0.1200303E+04  0.7818609E-02  0.9112591E-01
       -2   -1    0    0    0  501  0.00000000000E+00  0.00000000000E+00  0.14368697990E+03  0.14368697993E+03  0.25500000920E-02 0.  1.
        2   -1    0    0  501    0  0.00000000000E+00  0.00000000000E+00 -0.25067112864E+04  0.25067112864E+04  0.25500000920E-02 0. -1.
    10030    2    1    2    0    0  0.00000000000E+00  0.00000000000E+00 -0.23630243065E+04  0.26503982664E+04  0.12003029189E+04 0.  0.
        5    1    3    3  502    0  0.28706992221E+03  0.19145728474E+03 -0.22657237924E+04  0.22918532731E+04  0.46999998093E+01 0. -1.
       -5    1    3    3    0  502 -0.28706992221E+03 -0.19145728474E+03 -0.97300514121E+02  0.35854499322E+03  0.46999998093E+01 0.  1.
</event>
<event>
 5   0  0.5732931E-05  0.1199960E+04  0.7818609E-02  0.9112891E-01
       -1   -1    0    0    0  501  0.00000000000E+00  0.00000000000E+00  0.52628851453E+03  0.52628851455E+03  0.50400001928E-02 0. -1.
        1   -1    0    0  501    0  0.00000000000E+00  0.00000000000E+00 -0.68399025151E+03  0.68399025153E+03  0.50400001928E-02 0.  1.
    10030    2    1    2    0    0  0.00000000000E+00  0.00000000000E+00 -0.15770173699E+03  0.12102787661E+04  0.11999603551E+04 0.  0.
        4    1    3    3  502    0  0.75896942382E+01  0.43550161999E+03 -0.49501905893E+03  0.65936692826E+03  0.12699999809E+01 0.  1.
       -4    1    3    3    0  502 -0.75896942382E+01 -0.43550161999E+03  0.33731732194E+03  0.55091183783E+03  0.12699999809E+01 0. -1.
</event>
<event>
 5   0  0.5625746E-05  0.1204111E+04  0.7818609E-02  0.9109266E-01
       -1   -1    0    0    0  501  0.00000000000E+00  0.00000000000E+00  0.37929536321E+03  0.37929536324E+03  0.50400001928E-02 0. -1.
        1   -1    0    0  501    0  0.00000000000E+00  0.00000000000E+00 -0.95564257222E+03  0.95564257223E+03  0.50400001928E-02 0.  1.
    10030    2    1    2    0    0  0.00000000000E+00  0.00000000000E+00 -0.57634720901E+03  0.13349379355E+04  0.12041109526E+04 0.  0.
        5    1    3    3  502    0  0.24251069530E+03 -0.54484315188E+03 -0.37948230660E+03  0.70689066234E+03  0.46999998093E+01 0. -1.
       -5    1    3    3    0  502 -0.24251069530E+03  0.54484315188E+03 -0.19686490241E+03  0.62804727313E+03  0.46999998093E+01 0.  1.
</event>
<event>
 5   0  0.9941209E-05  0.1199785E+04  0.7818609E-02  0.9113045E-01
        2   -1    0    0  501    0  0.00000000000E+00  0.00000000000E+00  0.50579491107E+03  0.50579491108E+03  0.25500000920E-02 0.  1.
       -2   -1    0    0    0  501  0.00000000000E+00  0.00000000000E+00 -0.71149538772E+03  0.71149538773E+03  0.25500000920E-02 0. -1.
    10030    2    1    2    0    0  0.00000000000E+00  0.00000000000E+00 -0.20570047665E+03  0.12172902988E+04  0.11997845579E+04 0.  0.
        2    1    3    3  502    0  0.12695566310E+03 -0.13437084856E+03  0.47617579837E+03  0.51080001595E+03  0.25500000920E-02 0.  1.
       -2    1    3    3    0  502 -0.12695566310E+03  0.13437084856E+03 -0.68187627502E+03  0.70649028286E+03  0.25500000920E-02 0. -1.
</event>
<event>
 5   0  0.5620246E-05  0.1199686E+04  0.7818609E-02  0.9113131E-01
       -1   -1    0    0    0  501  0.00000000000E+00  0.00000000000E+00  0.18072245113E+03  0.18072245120E+03  0.50400001928E-02 0. -1.
        1   -1    0    0  501    0  0.00000000000E+00  0.00000000000E+00 -0.19909634215E+04  0.19909634215E+04  0.50400001928E-02 0.  1.
    10030    2    1    2    0    0  0.00000000000E+00  0.00000000000E+00 -0.18102409704E+04  0.21716858727E+04  0.11996862752E+04 0.  0.
        1    1    3    3  502    0  0.23863194872E+03  0.49016681104E+03 -0.45219457431E+03  0.70829982540E+03  0.50400001928E-02 0. -1.
       -1    1    3    3    0  502 -0.23863194872E+03 -0.49016681104E+03 -0.13580463961E+04  0.14633860473E+04  0.50400001928E-02 0.  1.
</event>
<event>
 5   0  0.5447807E-05  0.1199485E+04  0.7818609E-02  0.9113307E-01
        1   -1    0    0  501    0  0.00000000000E+00  0.00000000000E+00  0.53259990516E+03  0.53259990518E+03  0.50400001928E-02 0.  1.
       -1   -1    0    0    0  501  0.00000000000E+00  0.00000000000E+00 -0.67534981889E+03  0.67534981891E+03  0.50400001928E-02 0. -1.
    10030    2    1    2    0    0  0.00000000000E+00  0.00000000000E+00 -0.14274991373E+03  0.12079497241E+04  0.11994853055E+04 0.  0.
        2    1    3    3  502    0  0.23940046301E+03 -0.31752195896E+03  0.38074581170E+03  0.55054531989E+03  0.25500000920E-02 0.  1.
       -2    1    3    3    0  502 -0.23940046301E+03  0.31752195896E+03 -0.52349572544E+03  0.65740440421E+03  0.25500000920E-02 0. -1.
</event>
<event>
 5   0  0.1004006E-04  0.1201678E+04  0.7818609E-02  0.9111389E-01
        2   -1    0    0  501    0  0.00000000000E+00  0.00000000000E+00  0.25669919900E+03  0.25669919901E+03  0.25500000920E-02 0.  1.
       -2   -1    0    0    0  501  0.00000000000E+00  0.00000000000E+00 -0.14063441356E+04  0.14063441356E+04  0.25500000920E-02 0. -1.
    10030    2    1    2    0    0  0.00000000000E+00  0.00000000000E+00 -0.11496449366E+04  0.16630433347E+04  0.12016778489E+04 0.  0.
        5    1    3    3  502    0 -0.49401799015E+03 -0.18340496891E+03 -0.97423602572E+03  0.11076321957E+04  0.46999998093E+01 0. -1.
       -5    1    3    3    0  502  0.49401799015E+03  0.18340496891E+03 -0.17540891092E+03  0.55541113892E+03  0.46999998093E+01 0.  1.
</event>
<event>
 5   0  0.9838215E-05  0.1199663E+04  0.7818609E-02  0.9113152E-01
        2   -1    0    0  501    0  0.00000000000E+00  0.00000000000E+00  0.18622646548E+04  0.18622646548E+04  0.25500000920E-02 0. -1.
       -2   -1    0    0    0  501  0.00000000000E+00  0.00000000000E+00 -0.19320440584E+03  0.19320440586E+03  0.25500000920E-02 0.  1.
    10030    2    1    2    0    0  0.00000000000E+00  0.00000000000E+00  0.16690602489E+04  0.20554690606E+04  0.11996628462E+04 0.  0.
        4    1    3    3  502    0  0.14991773907E+03 -0.42945767565E+03  0.15044716101E+04  0.15717333305E+04  0.12699999809E+01 0. -1.
       -4    1    3    3    0  502 -0.14991773907E+03  0.42945767565E+03  0.16458863881E+03  0.48373573011E+03  0.12699999809E+01 0.  1.
</event>
<event>
 5   0  0.5447807E-05  0.1199684E+04  0.7818609E-02  0.9113133E-01
        1   -1    0    0  501    0  0.00000000000E+00  0.00000000000E+00  0.84747848621E+03  0.84747848622E+03  0.50400001928E-02 0.  1.
       -1   -1    0    0    0  501  0.00000000000E+00  0.00000000000E+00 -0.42456606247E+03  0.42456606250E+03  0.50400001928E-02 0. -1.
    10030    2    1    2    0    0  0.00000000000E+00  0.00000000000E+00  0.42291242373E+03  0.12720445487E+04  0.11996842984E+04 0.  0.
        2    1    3    3  502    0  0.16601399497E+02  0.56721296044E+03  0.41761736611E+03  0.70456398818E+03  0.25500000920E-02 0.  1.
       -2    1    3    3    0  502 -0.16601399497E+02 -0.56721296044E+03  0.52950576238E+01  0.56748056055E+03  0.25500000920E-02 0. -1.
</event>
<event>
 5   0  0.5745487E-05  0.1200774E+04  0.7818609E-02  0.9112179E-01
       -1   -1    0    0    0  501  0.00000000000E+00  0.00000000000E+00  0.62015622345E+03  0.62015622347E+03  0.50400001928E-02 0. -1.
        1   -1    0    0  501    0  0.00000000000E+00  0.00000000000E+00 -0.58124792550E+03  0.58124792552E+03  0.50400001928E-02 0.  1.
    10030    2    1    2    0    0  0.00000000000E+00  0.00000000000E+00  0.38908297955E+02  0.12014041490E+04  0.12007739477E+04 0.  0.
        3    1    3    3  502    0 -0.24963649582E+02  0.30936820011E+03 -0.49475394407E+03  0.58404909247E+03  0.10100000352E+00 0.  1.
       -3    1    3    3    0  502  0.24963649582E+02 -0.30936820011E+03  0.53366224203E+03  0.61735505652E+03  0.10100000352E+00 0. -1.
</event>
<event>
 5   0  0.5447807E-05  0.1207338E+04  0.7818609E-02  0.9106457E-01
        1   -1    0    0  501    0  0.00000000000E+00  0.00000000000E+00  0.86499687961E+03  0.86499687963E+03  0.50400001928E-02 0. -1.
       -1   -1    0    0    0  501  0.00000000000E+00  0.00000000000E+00 -0.42129227631E+03  0.42129227634E+03  0.50400001928E-02 0.  1.
    10030    2    1    2    0    0  0.00000000000E+00  0.00000000000E+00  0.44370460330E+03  0.12862891560E+04  0.12073384023E+04 0.  0.
        2    1    3    3  502    0  0.35376726317E+03  0.48860460424E+03  0.19730734725E+03  0.63467781201E+03  0.25500000920E-02 0. -1.
       -2    1    3    3    0  502 -0.35376726317E+03 -0.48860460424E+03  0.24639725605E+03  0.65161134396E+03  0.25500000920E-02 0.  1.
</event>
<event>
 5   0  0.1023063E-04  0.1199861E+04  0.7818609E-02  0.9112979E-01
        2   -1    0    0  501    0  0.00000000000E+00  0.00000000000E+00  0.16575042093E+04  0.16575042093E+04  0.25500000920E-02 0.  1.
       -2   -1    0    0    0  501  0.00000000000E+00  0.00000000000E+00 -0.21714355674E+03  0.21714355676E+03  0.25500000920E-02 0. -1.
    10030    2    1    2    0    0  0.00000000000E+00  0.00000000000E+00  0.14403606525E+04  0.18746477660E+04  0.11998605908E+04 0.  0.
        3    1    3    3  502    0  0.11301811750E+01  0.62532221397E+02 -0.21203623049E+03  0.22106770289E+03  0.10100000352E+00 0. -1.
       -3    1    3    3    0  502 -0.11301811750E+01 -0.62532221397E+02  0.16523968830E+04  0.16535800631E+04  0.10100000352E+00 0.  1.
</event>
<event>
 5   0  0.5625746E-05  0.1200013E+04  0.7818609E-02  0.9112845E-01
       -1   -1    0    0    0  501  0.00000000000E+00  0.00000000000E+00  0.52997585361E+03  0.52997585363E+03  0.50400001928E-02 0. -1.
        1   -1    0    0  501    0  0.00000000000E+00  0.00000000000E+00 -0.67929052502E+03  0.67929052503E+03  0.50400001928E-02 0.  1.
    10030    2    1    2    0    0  0.00000000000E+00  0.00000000000E+00 -0.14931467141E+03  0.12092663787E+04  0.12000126264E+04 0.  0.
        5    1    3    3  502    0  0.33506706142E+03 -0.33582026721E+03  0.29551758811E+03  0.55892568593E+03  0.46999998093E+01 0. -1.
       -5    1    3    3    0  502 -0.33506706142E+03  0.33582026721E+03 -0.44483225952E+03  0.65034069273E+03  0.46999998093E+01 0.  1.
</event>
<event>
 5   0  0.5732931E-05  0.1200176E+04  0.7818609E-02  0.9112702E-01
       -1   -1    0    0    0  501  0.00000000000E+00  0.00000000000E+00  0.91827660392E+03  0.91827660393E+03  0.50400001928E-02 0.  1.
        1   -1    0    0  501    0  0.00000000000E+00  0.00000000000E+00 -0.39215392865E+03  0.39215392868E+03  0.50400001928E-02 0. -1.
    10030    2    1    2    0    0  0.00000000000E+00  0.00000000000E+00  0.52612267527E+03  0.13104305326E+04  0.12001762835E+04 0.  0.
        4    1    3    3  502    0  0.55799098898E+03  0.22668976227E+02  0.50286517633E+03  0.75149372901E+03  0.12699999809E+01 0. -1.
       -4    1    3    3    0  502 -0.55799098898E+03 -0.22668976227E+02  0.23257498941E+02  0.55893680361E+03  0.12699999809E+01 0.  1.
</event>
<event>
 5   0  0.5745487E-05  0.1200349E+04  0.7818609E-02  0.9112551E-01
       -1   -1    0    0    0  501  0.00000000000E+00  0.00000000000E+00  0.33497651892E+03  0.33497651896E+03  0.50400001928E-02 0.  1.
        1   -1    0    0  501    0  0.00000000000E+00  0.00000000000E+00 -0.10753276298E+04  0.10753276298E+04  0.50400001928E-02 0. -1.
    10030    2    1    2    0    0  0.00000000000E+00  0.00000000000E+00 -0.74035111087E+03  0.14103041488E+04  0.12003491261E+04 0.  0.
        3    1    3    3  502    0  0.38328140165E+03  0.44619274247E+03 -0.23008538867E+03  0.63161055451E+03  0.10100000352E+00 0. -1.
       -3    1    3    3    0  502 -0.38328140165E+03 -0.44619274247E+03 -0.51026572220E+03  0.77869359425E+03  0.10100000352E+00 0.  1.
</event>
<event>
 5   0  0.1012657E-04  0.1199946E+04  0.7818609E-02  0.9112904E-01
       -2   -1    0    0    0  501  0.00000000000E+00  0.00000000000E+00  0.31136049495E+03  0.31136049496E+03  0.25500000920E-02 0. -1.
        2   -1    0    0  501    0  0.00000000000E+00  0.00000000000E+00 -0.11561124080E+04  0.11561124080E+04  0.25500000920E-02 0.  1.
    10030    2    1    2    0    0  0.00000000000E+00  0.00000000000E+00 -0.84475191309E+03  0.14674729030E+04  0.11999462181E+04 0.  0.
        1    1    3    3  502    0 -0.50078227519E+03 -0.50440398503E+02 -0.82174060712E+03  0.96363102189E+03  0.50400001928E-02 0.  1.
       -1    1    3    3    0  502  0.50078227519E+03  0.50440398503E+02 -0.23011305973E+02  0.50384188112E+03  0.50400001928E-02 0. -1.
</event>
<event>
 5   0  0.5620246E-05  0.1200268E+04  0.7818609E-02  0.9112622E-01
       -1   -1    0    0    0  501  0.00000000000E+00  0.00000000000E+00  0.60665107449E+03  0.60665107451E+03  0.50400001928E-02 0.  1.
        1   -1    0    0  501    0  0.00000000000E+00  0.00000000000E+00 -0.59368651850E+03  0.59368651852E+03  0.50400001928E-02 0. -1.
    10030    2    1    2    0    0  0.00000000000E+00  0.00000000000E+00  0.12964555988E+02  0.12003375930E+04  0.12002675775E+04 0.  0.
        1    1    3    3  502    0 -0.14036943949E+03  0.50458480158E+03 -0.28653850469E+03  0.59700394992E+03  0.50400001928E-02 0. -1.
       -1    1    3    3    0  502  0.14036943949E+03 -0.50458480158E+03  0.29950306067E+03  0.60333364311E+03  0.50400001928E-02 0.  1.
</event>
<event>
 5   0  0.1023063E-04  0.1199598E+04  0.7818609E-02  0.9113208E-01
        2   -1    0    0  501    0  0.00000000000E+00  0.00000000000E+00  0.73991380914E+03  0.73991380914E+03  0.25500000920E-02 0. -1.
       -2   -1    0    0    0  501  0.00000000000E+00  0.00000000000E+00 -0.48621726730E+03  0.48621726730E+03  0.25500000920E-02 0.  1.
    10030    2    1    2    0    0  0.00000000000E+00  0.00000000000E+00  0.25369654184E+03  0.12261310764E+04  0.11995980499E+04 0.  0.
        3    1    3    3  502    0  0.54801155643E+02 -0.55246399282E+03 -0.10519560555E+03  0.56505376351E+03  0.10100000352E+00 0.  1.
       -3    1    3    3    0  502 -0.54801155643E+02  0.55246399282E+03  0.35889214739E+03  0.66107731294E+03  0.10100000352E+00 0. -1.
</event>
<event>
 5   0  0.1023063E-04  0.1200515E+04  0.7818609E-02  0.9112406E-01
       -2   -1    0    0    0  501  0.00000000000E+00  0.00000000000E+00  0.24792594718E+03  0.24792594719E+03  0.25500000920E-02 0. -1.
        2   -1    0    0  501    0  0.00000000000E+00  0.00000000000E+00 -0.14532928250E+04  0.14532928250E+04  0.25500000920E-02 0.  1.
    10030    2    1    2    0    0  0.00000000000E+00  0.00000000000E+00 -0.12053668778E+04  0.17012187722E+04  0.12005148898E+04 0.  0.
        3    1    3    3  502    0  0.26840265493E+03 -0.37338283858E+03 -0.11494138737E+04  0.12379850534E+04  0.10100000352E+00 0.  1.
       -3    1    3    3    0  502 -0.26840265493E+03  0.37338283858E+03 -0.55953004154E+02  0.46323371876E+03  0.10100000352E+00 0. -1.
</event>
<event>
 5   0  0.9838215E-05  0.1200006E+04  0.7818609E-02  0.9112852E-01
        2   -1    0    0  501    0  0.00000000000E+00  0.00000000000E+00  0.93817811857E+03  0.93817811858E+03  0.25500000920E-02 0. -1.
       -2   -1    0    0    0  501  0.00000000000E+00  0.00000000000E+00 -0.38372608140E+03  0.38372608141E+03  0.25500000920E-02 0.  1.
    10030    2    1    2    0    0  0.00000000000E+00  0.00000000000E+00  0.55445203717E+03  0.13219042000E+04  0.12000056885E+04 0.  0.
        4    1    3    3  502    0  0.28199413297E+03 -0.37647347219E+03  0.68755420301E+03  0.83305783788E+03  0.12699999809E+01 0. -1.
       -4    1    3    3    0  502 -0.28199413297E+03  0.37647347219E+03 -0.13310216583E+03  0.48884636210E+03  0.12699999809E+01 0.  1.
</event>
<event>
 5   0  0.5745487E-05  0.1200000E+04  0.7818609E-02  0.9112857E-01
       -1   -1    0    0    0  501  0.00000000000E+00  0.00000000000E+00  0.27480815299E+03  0.27480815304E+03  0.50400001928E-02 0. -1.
        1   -1    0    0  501    0  0.00000000000E+00  0.00000000000E+00 -0.13100045418E+04  0.13100045418E+04  0.50400001928E-02 0.  1.
    10030    2    1    2    0    0  0.00000000000E+00  0.00000000000E+00 -0.10351963888E+04  0.15848126948E+04  0.11999998810E+04 0.  0.
        3    1    3    3  502    0 -0.55796307805E+03 -0.10035433167E+03 -0.25810565686E+03  0.62290635625E+03  0.10100000352E+00 0.  1.
       -3    1    3    3    0  502  0.55796307805E+03  0.10035433167E+03 -0.77709073191E+03  0.96190633856E+03  0.10100000352E+00 0. -1.
</event>
<event>
 5   0  0.9838215E-05  0.1200153E+04  0.7818609E-02  0.9112723E-01
        2   -1    0    0  501    0  0.00000000000E+00  0.00000000000E+00  0.26838070114E+03  0.26838070115E+03  0.25500000920E-02 0.  1.
       -2   -1    0    0    0  501  0.00000000000E+00  0.00000000000E+00 -0.13417203921E+04  0.13417203921E+04  0.25500000920E-02 0. -1.
    10030    2    1    2    0    0  0.00000000000E+00  0.00000000000E+00 -0.10733396909E+04  0.16101010932E+04  0.12001530895E+04 0.  0.
        4    1    3    3  502    0  0.76480852186E+02  0.94441580286E+02  0.25169716226E+03  0.27950242794E+03  0.12699999809E+01 0.  1.
       -4    1    3    3    0  502 -0.76480852186E+02 -0.94441580286E+02 -0.13250368532E+04  0.13305986653E+04  0.12699999809E+01 0. -1.
</event>
<event>
 5   0  0.5625746E-05  0.1200275E+04  0.7818609E-02  0.9112616E-01
        1   -1    0    0  501    0  0.00000000000E+00  0.00000000000E+00  0.79973193951E+03  0.79973193952E+03  0.50400001928E-02 0.  1.
       -1   -1    0    0    0  501  0.00000000000E+00  0.00000000000E+00 -0.45035745495E+03  0.45035745498E+03  0.50400001928E-02 0. -1.
    10030    2    1    2    0    0  0.00000000000E+00  0.00000000000E+00  0.34937448456E+03  0.12500893945E+04  0.12002753700E+04 0.  0.
        5    1    3    3  502    0 -0.30614703876E+03 -0.33993027049E+02 -0.36172339520E+03  0.47512886659E+03  0.46999998093E+01 0. -1.
       -5    1    3    3    0  502  0.30614703876E+03  0.33993027049E+02  0.71109787976E+03  0.77496052792E+03  0.46999998093E+01 0.  1.
</event>
<event>
 5   0  0.1012657E-04  0.1200090E+04  0.7818609E-02  0.9112778E-01
       -2   -1    0    0    0  501  0.00000000000E+00  0.00000000000E+00  0.37486961783E+03  0.37486961784E+03  0.25500000920E-02 0. -1.
        2   -1    0    0  501    0  0.00000000000E+00  0.00000000000E+00 -0.96047741006E+03  0.96047741007E+03  0.25500000920E-02 0.  1.
    10030    2    1    2    0    0  0.00000000000E+00  0.00000000000E+00 -0.58560779223E+03  0.13353470279E+04  0.12000896627E+04 0.  0.
        1    1    3    3  502    0 -0.57462694861E+03  0.15698918464E+03 -0.37313530437E+03  0.70290233287E+03  0.50400001928E-02 0.  1.
       -1    1    3    3    0  502  0.57462694861E+03 -0.15698918464E+03 -0.21247248787E+03  0.63244469504E+03  0.50400001928E-02 0. -1.
</event>
<event>
 5   0  0.5447807E-05  0.1200164E+04  0.7818609E-02  0.9112713E-01
       -1   -1    0    0    0  501  0.00000000000E+00  0.00000000000E+00  0.19635393570E+03  0.19635393577E+03  0.50400001928E-02 0.  1.
        1   -1    0    0  501    0  0.00000000000E+00  0.00000000000E+00 -0.18339247033E+04  0.18339247033E+04  0.50400001928E-02 0. -1.
    10030    2    1    2    0    0  0.00000000000E+00  0.00000000000E+00 -0.16375707676E+04  0.20302786391E+04  0.12001638777E+04 0.  0.
        2    1    3    3  502    0  0.48642176473E+03  0.74036020088E+02 -0.13999191309E+04  0.14838669208E+04  0.25500000920E-02 0. -1.
       -2    1    3    3    0  502 -0.48642176473E+03 -0.74036020088E+02 -0.23765163669E+03  0.54641171830E+03  0.25500000920E-02 0.  1.
</event>
<event>
 5   0  0.1004006E-04  0.1199864E+04  0.7818609E-02  0.9112975E-01
       -2   -1    0    0    0  501  0.00000000000E+00  0.00000000000E+00  0.52230964430E+03  0.52230964431E+03  0.25500000920E-02 0. -1.
        2   -1    0    0  501    0  0.00000000000E+00  0.00000000000E+00 -0.68909041541E+03  0.68909041541E+03  0.25500000920E-02 0.  1.
    10030    2    1    2    0    0  0.00000000000E+00  0.00000000000E+00 -0.16678077110E+03  0.12114000597E+04  0.11998642753E+04 0.  0.
        5    1    3    3  502    0 -0.54414886973E+03 -0.18025429980E+03 -0.26202899348E+03  0.63029428717E+03  0.46999998093E+01 0.  1.
       -5    1    3    3    0  502  0.54414886973E+03  0.18025429980E+03  0.95248222372E+02  0.58110577255E+03  0.46999998093E+01 0. -1.
</event>
<event>
 5   0  0.5745487E-05  0.1200187E+04  0.7818609E-02  0.9112693E-01
       -1   -1    0    0    0  501  0.00000000000E+00  0.00000000000E+00  0.23572896234E+03  0.23572896239E+03  0.50400001928E-02 0.  1.
        1   -1    0    0  501    0  0.00000000000E+00  0.00000000000E+00 -0.15276537942E+04  0.15276537942E+04  0.50400001928E-02 0. -1.
    10030    2    1    2    0    0  0.00000000000E+00  0.00000000000E+00 -0.12919248318E+04  0.17633827566E+04  0.12001870584E+04 0.  0.
        3    1    3    3  502    0 -0.21090691014E+03 -0.36598227060E+03 -0.19694506556E+02  0.42286242554E+03  0.10100000352E+00 0.  1.
       -3    1    3    3    0  502  0.21090691014E+03  0.36598227060E+03 -0.12722303253E+04  0.13405203310E+04  0.10100000352E+00 0. -1.
</event>
<event>
 5   0  0.5745487E-05  0.1200333E+04  0.7818609E-02  0.9112565E-01
       -1   -1    0    0    0  501  0.00000000000E+00  0.00000000000E+00  0.26808708839E+03  0.26808708844E+03  0.50400001928E-02 0. -1.
        1   -1    0    0  501    0  0.00000000000E+00  0.00000000000E+00 -0.13435930308E+04  0.13435930308E+04  0.50400001928E-02 0.  1.
    10030    2    1    2    0    0  0.00000000000E+00  0.00000000000E+00 -0.10755059424E+04  0.16116801193E+04  0.12003331932E+04 0.  0.
        3    1    3    3  502    0 -0.21889986792E+03  0.38084171500E+03  0.11345442003E+02  0.43941585465E+03  0.10100000352E+00 0. -1.
       -3    1    3    3    0  502  0.21889986792E+03 -0.38084171500E+03 -0.10868513844E+04  0.11722642646E+04  0.10100000352E+00 0.  1.
</event>
<event>
 5   0  0.3839750E-05  0.1199692E+04  0.7818609E-02  0.9113127E-01
        3   -1    0    0  501    0  0.00000000000E+00  0.00000000000E+00  0.21144033296E+03  0.21144035708E+03  0.10100000352E+00 0.  1.
       -3   -1    0    0    0  501  0.00000000000E+00  0.00000000000E+00 -0.17017328665E+04  0.17017328695E+04  0.10100000352E+00 0. -1.
    10030    2    1    2    0    0  0.00000000000E+00  0.00000000000E+00 -0.14902925335E+04  0.19131732266E+04  0.11996916101E+04 0.  0.
        2    1    3    3  502    0  0.41764632923E+03 -0.42748089496E+03 -0.66310538860E+03  0.89267974564E+03  0.25500000920E-02 0. -1.
       -2    1    3    3    0  502 -0.41764632923E+03  0.42748089496E+03 -0.82718714493E+03  0.10204934809E+04  0.25500000920E-02 0.  1.
</event>
<event>
 5   0  0.5620246E-05  0.1200004E+04  0.7818609E-02  0.9112853E-01
        1   -1    0    0  501    0  0.00000000000E+00  0.00000000000E+00  0.28208223639E+03  0.28208223643E+03  0.50400001928E-02 0.  1.
       -1   -1    0    0    0  501  0.00000000000E+00  0.00000000000E+00 -0.12762326786E+04  0.12762326786E+04  0.50400001928E-02 0. -1.
    10030    2    1    2    0    0  0.00000000000E+00  0.00000000000E+00 -0.99415044218E+03  0.15583149150E+04  0.12000042803E+04 0.  0.
        1    1    3    3  502    0  0.29525840300E+03 -0.41591556309E+03 -0.86754764011E+02  0.51738734935E+03  0.50400001928E-02 0.  1.
       -1    1    3    3    0  502 -0.29525840300E+03  0.41591556309E+03 -0.90739567817E+03  0.10409275657E+04  0.50400001928E-02 0. -1.
</event>
<event>
 5   0  0.5447807E-05  0.1201105E+04  0.7818609E-02  0.9111890E-01
        1   -1    0    0  501    0  0.00000000000E+00  0.00000000000E+00  0.99475772643E+03  0.99475772644E+03  0.50400001928E-02 0.  1.
       -1   -1    0    0    0  501  0.00000000000E+00  0.00000000000E+00 -0.36256386592E+03  0.36256386596E+03  0.50400001928E-02 0. -1.
    10030    2    1    2    0    0  0.00000000000E+00  0.00000000000E+00  0.63219386051E+03  0.13573215924E+04  0.12011048364E+04 0.  0.
        2    1    3    3  502    0  0.94960677639E+02 -0.51061011583E+02 -0.35153711940E+03  0.36769974643E+03  0.25500000920E-02 0. -1.
       -2    1    3    3    0  502 -0.94960677639E+02  0.51061011583E+02  0.98373097990E+03  0.98962184597E+03  0.25500000920E-02 0.  1.
</event>
<event>
 5   0  0.5625746E-05  0.1199969E+04  0.7818609E-02  0.9112883E-01
        1   -1    0    0  501    0  0.00000000000E+00  0.00000000000E+00  0.67298675946E+03  0.67298675948E+03  0.50400001928E-02 0.  1.
       -1   -1    0    0    0  501  0.00000000000E+00  0.00000000000E+00 -0.53490148731E+03  0.53490148733E+03  0.50400001928E-02 0. -1.
    10030    2    1    2    0    0  0.00000000000E+00  0.00000000000E+00  0.13808527215E+03  0.12078882468E+04  0.11999693639E+04 0.  0.
        5    1    3    3  502    0 -0.23474671997E+03  0.68136943637E+02  0.62057347178E+03  0.66699489466E+03  0.46999998093E+01 0.  1.
       -5    1    3    3    0  502  0.23474671997E+03 -0.68136943637E+02 -0.48248819963E+03  0.54089335215E+03  0.46999998093E+01 0. -1.
</event>
<event>
 5   0  0.1004006E-04  0.1195671E+04  0.7818609E-02  0.9116655E-01
       -2   -1    0    0    0  501  0.00000000000E+00  0.00000000000E+00  0.62972940088E+03  0.62972940089E+03  0.25500000920E-02 0.  1.
        2   -1    0    0  501    0  0.00000000000E+00  0.00000000000E+00 -0.56755647123E+03  0.56755647124E+03  0.25500000920E-02 0. -1.
    10030    2    1    2    0    0  0.00000000000E+00  0.00000000000E+00  0.62172929649E+02  0.11972858721E+04  0.11956705175E+04 0.  0.
        5    1    3    3  502    0  0.23739964741E+03  0.14464080442E+03  0.56105128383E+03  0.62616306820E+03  0.46999998093E+01 0.  1.
       -5    1    3    3    0  502 -0.23739964741E+03 -0.14464080442E+03 -0.49887835418E+03  0.57112280392E+03  0.46999998093E+01 0. -1.
</event>
<event>
 5   0  0.5625746E-05  0.1199718E+04  0.7818609E-02  0.9113103E-01
       -1   -1    0    0    0  501  0.00000000000E+00  0.00000000000E+00  0.55902740231E+03  0.55902740233E+03  0.50400001928E-02 0.  1.
        1   -1    0    0  501    0  0.00000000000E+00  0.00000000000E+00 -0.64367311013E+03  0.64367311015E+03  0.50400001928E-02 0. -1.
    10030    2    1    2    0    0  0.00000000000E+00  0.00000000000E+00 -0.84645707822E+02  0.12027005125E+04  0.11997181448E+04 0.  0.
        5    1    3    3  502    0 -0.36833054252E+03  0.36472020715E+03 -0.34493513618E+03  0.62264801953E+03  0.46999998093E+01 0. -1.
       -5    1    3    3    0  502  0.36833054252E+03 -0.36472020715E+03  0.26028942836E+03  0.58005249294E+03  0.46999998093E+01 0.  1.
</event>
<event>
 5   0  0.1012657E-04  0.1200172E+04  0.7818609E-02  0.9112706E-01
        2   -1    0    0  501    0  0.00000000000E+00  0.00000000000E+00  0.87519165960E+03  0.87519165961E+03  0.25500000920E-02 0.  1.
       -2   -1    0    0    0  501  0.00000000000E+00  0.00000000000E+00 -0.41145626954E+03  0.41145626955E+03  0.25500000920E-02 0. -1.
    10030    2    1    2    0    0  0.00000000000E+00  0.00000000000E+00  0.46373539006E+03  0.12866479292E+04  0.12001718134E+04 0.  0.
        1    1    3    3  502    0  0.25211749342E+03  0.46441423959E+02  0.81353239661E+03  0.85296834449E+03  0.50400001928E-02 0.  1.
       -1    1    3    3    0  502 -0.25211749342E+03 -0.46441423959E+02 -0.34979700654E+03  0.43367958467E+03  0.50400001928E-02 0. -1.
</event>
<event>
 5   0  0.5620246E-05  0.1200379E+04  0.7818609E-02  0.9112525E-01
       -1   -1    0    0    0  501  0.00000000000E+00  0.00000000000E+00  0.52903637255E+03  0.52903637258E+03  0.50400001928E-02 0.  1.
        1   -1    0    0  501    0  0.00000000000E+00  0.00000000000E+00 -0.68091282022E+03  0.68091282024E+03  0.50400001928E-02 0. -1.
    10030    2    1    2    0    0  0.00000000000E+00  0.00000000000E+00 -0.15187644767E+03  0.12099491928E+04  0.12003793541E+04 0.  0.
        1    1    3    3  502    0 -0.77046521235E+02  0.26265372822E+03  0.46245914475E+03  0.53739334567E+03  0.50400001928E-02 0.  1.
       -1    1    3    3    0  502  0.77046521235E+02 -0.26265372822E+03 -0.61433559242E+03  0.67255584714E+03  0.50400001928E-02 0. -1.
</event>
<event>
 5   0  0.9838215E-05  0.1200016E+04  0.7818609E-02  0.9112842E-01
       -2   -1    0    0    0  501  0.00000000000E+00  0.00000000000E+00  0.13915159571E+03  0.13915159573E+03  0.25500000920E-02 0.  1.
        2   -1    0    0  501    0  0.00000000000E+00  0.00000000000E+00 -0.25871758716E+04  0.25871758716E+04  0.25500000920E-02 0. -1.
    10030    2    1    2    0    0  0.00000000000E+00  0.00000000000E+00 -0.24480242759E+04  0.27263274674E+04  0.12000160848E+04 0.  0.
        4    1    3    3  502    0  0.95021752290E+02  0.57531426746E+03 -0.90277673713E+03  0.10747200053E+04  0.12699999809E+01 0. -1.
       -4    1    3    3    0  502 -0.95021752290E+02 -0.57531426746E+03 -0.15452475388E+04  0.16516074621E+04  0.12699999809E+01 0.  1.
</event>
<event>
 5   0  0.1023063E-04  0.1200068E+04  0.7818609E-02  0.9112797E-01
        2   -1    0    0  501    0  0.00000000000E+00  0.00000000000E+00  0.14591975932E+04  0.14591975933E+04  0.25500000920E-02 0.  1.
       -2   -1    0    0    0  501  0.00000000000E+00  0.00000000000E+00 -0.24673885408E+03  0.24673885409E+03  0.25500000920E-02 0. -1.
    10030    2    1    2    0    0  0.00000000000E+00  0.00000000000E+00  0.12124587392E+04  0.17059364473E+04  0.12000679015E+04 0.  0.
        3    1    3    3  502    0  0.56741962030E+03 -0.13180908138E+03  0.40169610987E+03  0.70760047649E+03  0.10100000352E+00 0.  1.
       -3    1    3    3    0  502 -0.56741962030E+03  0.13180908138E+03  0.81076262930E+03  0.99833597085E+03  0.10100000352E+00 0. -1.
</event>
<event>
 5   0  0.5745487E-05  0.1203139E+04  0.7818609E-02  0.9110113E-01
        1   -1    0    0  501    0  0.00000000000E+00  0.00000000000E+00  0.80275535373E+03  0.80275535375E+03  0.50400001928E-02 0.  1.
       -1   -1    0    0    0  501  0.00000000000E+00  0.00000000000E+00 -0.45080461968E+03  0.45080461970E+03  0.50400001928E-02 0. -1.
    10030    2    1    2    0    0  0.00000000000E+00  0.00000000000E+00  0.35195073405E+03  0.12535599735E+04  0.12031389312E+04 0.  0.
        3    1    3    3  502    0  0.29156054977E+03 -0.42969437103E+03 -0.14046461402E+03  0.53793598566E+03  0.10100000352E+00 0. -1.
       -3    1    3    3    0  502 -0.29156054977E+03  0.42969437103E+03  0.49241534807E+03  0.71562398779E+03  0.10100000352E+00 0.  1.
</event>
<event>
 5   0  0.5625746E-05  0.1201106E+04  0.7818609E-02  0.9111889E-01
       -1   -1    0    0    0  501  0.00000000000E+00  0.00000000000E+00  0.31298301960E+03  0.31298301964E+03  0.50400001928E-02 0.  1.
        1   -1    0    0  501    0  0.00000000000E+00  0.00000000000E+00 -0.11523429471E+04  0.11523429471E+04  0.50400001928E-02 0. -1.
    10030    2    1    2    0    0  0.00000000000E+00  0.00000000000E+00 -0.83935992751E+03  0.14653259668E+04  0.12011057826E+04 0.  0.
        5    1    3    3  502    0 -0.61419098122E+02 -0.12740198577E+03 -0.11317121202E+04  0.11405253108E+04  0.46999998093E+01 0. -1.
       -5    1    3    3    0  502  0.61419098122E+02  0.12740198577E+03  0.29235219264E+03  0.32480065599E+03  0.46999998093E+01 0.  1.
</event>
<event>
 5   0  0.3839750E-05  0.1197867E+04  0.7818609E-02  0.9114725E-01
       -3   -1    0    0    0  501  0.00000000000E+00  0.00000000000E+00  0.11147088299E+04  0.11147088345E+04  0.10100000352E+00 0.  1.
        3   -1    0    0  501    0  0.00000000000E+00  0.00000000000E+00 -0.32180734154E+03  0.32180735739E+03  0.10100000352E+00 0. -1.
    10030    2    1    2    0    0  0.00000000000E+00  0.00000000000E+00  0.79290148837E+03  0.14365161919E+04  0.11978672711E+04 0.  0.
        4    1    3    3  502    0  0.12434559556E+03 -0.50676430307E+02 -0.30352258676E+03  0.33189983624E+03  0.12699999809E+01 0. -1.
       -4    1    3    3    0  502 -0.12434559556E+03  0.50676430307E+02  0.10964240751E+04  0.11046163556E+04  0.12699999809E+01 0.  1.
</event>
<event>
 5   0  0.5447807E-05  0.1199885E+04  0.7818609E-02  0.9112957E-01
       -1   -1    0    0    0  501  0.00000000000E+00  0.00000000000E+00  0.22324337355E+03  0.22324337361E+03  0.50400001928E-02 0. -1.
        1   -1    0    0  501    0  0.00000000000E+00  0.00000000000E+00 -0.16122821236E+04  0.16122821236E+04  0.50400001928E-02 0.  1.
    10030    2    1    2    0    0  0.00000000000E+00  0.00000000000E+00 -0.13890387500E+04  0.18355254972E+04  0.11998854953E+04 0.  0.
        2    1    3    3  502    0  0.52822260138E+03 -0.20002671454E+03 -0.10038979407E+04  0.11518857923E+04  0.25500000920E-02 0.  1.
       -2    1    3    3    0  502 -0.52822260138E+03  0.20002671454E+03 -0.38514080939E+03  0.68363970496E+03  0.25500000920E-02 0. -1.
</event>
<event>
 5   0  0.1023063E-04  0.1199765E+04  0.7818609E-02  0.9113062E-01
       -2   -1    0    0    0  501  0.00000000000E+00  0.00000000000E+00  0.21037775104E+03  0.21037775106E+03  0.25500000920E-02 0. -1.
        2   -1    0    0  501    0  0.00000000000E+00  0.00000000000E+00 -0.17105369851E+04  0.17105369852E+04  0.25500000920E-02 0.  1.
    10030    2    1    2    0    0  0.00000000000E+00  0.00000000000E+00 -0.15001592341E+04  0.19209147362E+04  0.11997648503E+04 0.  0.
        3    1    3    3  502    0  0.34432242694E+03 -0.47886432961E+03 -0.57476410296E+03  0.82354281256E+03  0.10100000352E+00 0.  1.
       -3    1    3    3    0  502 -0.34432242694E+03  0.47886432961E+03 -0.92539513114E+03  0.10973719236E+04  0.10100000352E+00 0. -1.
</event>
<event>
 5   0  0.9941209E-05  0.1198654E+04  0.7818609E-02  0.9114035E-01
       -2   -1    0    0    0  501  0.00000000000E+00  0.00000000000E+00  0.37397408836E+03  0.37397408837E+03  0.25500000920E-02 0.  1.
        2   -1    0    0  501    0  0.00000000000E+00  0.00000000000E+00 -0.96047532432E+03  0.96047532433E+03  0.25500000920E-02 0. -1.
    10030    2    1    2    0    0  0.00000000000E+00  0.00000000000E+00 -0.58650123596E+03  0.13344494127E+04  0.11986540515E+04 0.  0.
        2    1    3    3  502    0 -0.15738250741E+03 -0.53891011213E+03 -0.52677500059E+03  0.76986054831E+03  0.25500000920E-02 0. -1.
       -2    1    3    3    0  502  0.15738250741E+03  0.53891011213E+03 -0.59726235364E+02  0.56458886439E+03  0.25500000920E-02 0.  1.
</event>
<event>
 5   0  0.1023063E-04  0.1199560E+04  0.7818609E-02  0.9113242E-01
       -2   -1    0    0    0  501  0.00000000000E+00  0.00000000000E+00  0.31054965839E+03  0.31054965840E+03  0.25500000920E-02 0. -1.
        2   -1    0    0  501    0  0.00000000000E+00  0.00000000000E+00 -0.11583846639E+04  0.11583846639E+04  0.25500000920E-02 0.  1.
    10030    2    1    2    0    0  0.00000000000E+00  0.00000000000E+00 -0.84783500548E+03  0.14689343223E+04  0.11995598554E+04 0.  0.
        3    1    3    3  502    0 -0.37145791467E+03  0.39211794727E+03 -0.10459459735E+03  0.55016134628E+03  0.10100000352E+00 0. -1.
       -3    1    3    3    0  502  0.37145791467E+03 -0.39211794727E+03 -0.74324040812E+03  0.91877297599E+03  0.10100000352E+00 0.  1.
</event>
<event>
 5   0  0.9941209E-05  0.1200022E+04  0.7818609E-02  0.9112837E-01
       -2   -1    0    0    0  501  0.00000000000E+00  0.00000000000E+00  0.38309967767E+03  0.38309967768E+03  0.25500000920E-02 0. -1.
        2   -1    0    0  501    0  0.00000000000E+00  0.00000000000E+00 -0.93973796298E+03  0.93973796299E+03  0.25500000920E-02 0.  1.
    10030    2    1    2    0    0  0.00000000000E+00  0.00000000000E+00 -0.55663828531E+03  0.13228376407E+04  0.12000221843E+04 0.  0.
        2    1    3    3  502    0 -0.11923904530E+03 -0.37497926882E+03 -0.77765302406E+03  0.87153406577E+03  0.25500000920E-02 0.  1.
       -2    1    3    3    0  502  0.11923904530E+03  0.37497926882E+03  0.22101473875E+03  0.45130357490E+03  0.25500000920E-02 0. -1.
</event>
<event>
 5   0  0.1023063E-04  0.1199889E+04  0.7818609E-02  0.9112954E-01
       -2   -1    0    0    0  501  0.00000000000E+00  0.00000000000E+00  0.78437041285E+03  0.78437041285E+03  0.25500000920E-02 0. -1.
        2   -1    0    0  501    0  0.00000000000E+00  0.00000000000E+00 -0.45888198576E+03  0.45888198577E+03  0.25500000920E-02 0.  1.
    10030    2    1    2    0    0  0.00000000000E+00  0.00000000000E+00  0.32548842708E+03  0.12432523986E+04  0.11998890826E+04 0.  0.
        3    1    3    3  502    0 -0.38872447111E+03  0.35246525032E+03  0.46410760035E+03  0.70052433364E+03  0.10100000352E+00 0. -1.
       -3    1    3    3    0  502  0.38872447111E+03 -0.35246525032E+03 -0.13861917326E+03  0.54272806498E+03  0.10100000352E+00 0.  1.
</event>
<event>
 5   0  0.1004006E-04  0.1200218E+04  0.7818609E-02  0.9112665E-01
       -2   -1    0    0    0  501  0.00000000000E+00  0.00000000000E+00  0.79692078683E+03  0.79692078683E+03  0.25500000920E-02 0.  1.
        2   -1    0    0  501    0  0.00000000000E+00  0.00000000000E+00 -0.45190311518E+03  0.45190311519E+03  0.25500000920E-02 0. -1.
    10030    2    1    2    0    0  0.00000000000E+00  0.00000000000E+00  0.34501767165E+03  0.12488239020E+04  0.12002182904E+04 0.  0.
        5    1    3    3  502    0  0.24281068004E+03  0.44976864303E+03 -0.15464449560E+03  0.53402796613E+03  0.46999998093E+01 0. -1.
       -5    1    3    3    0  502 -0.24281068004E+03 -0.44976864303E+03  0.49966216725E+03  0.71479593589E+03  0.46999998093E+01 0.  1.
</event>
<event>
 5   0  0.9838215E-05  0.1199899E+04  0.7818609E-02  0.9112945E-01
       -2   -1    0    0    0  501  0.00000000000E+00  0.00000000000E+00  0.32481583356E+03  0.32481583357E+03  0.25500000920E-02 0.  1.
        2   -1    0    0  501    0  0.00000000000E+00  0.00000000000E+00 -0.11081342988E+04  0.11081342988E+04  0.25500000920E-02 0. -1.
    10030    2    1    2    0    0  0.00000000000E+00  0.00000000000E+00 -0.78331846520E+03  0.14329501323E+04  0.11998992724E+04 0.  0.
        4    1    3    3  502    0 -0.41067552546E+03 -0.43715101145E+03 -0.37552352755E+03  0.70765452494E+03  0.12699999809E+01 0.  1.
       -4    1    3    3    0  502  0.41067552546E+03  0.43715101145E+03 -0.40779493765E+03  0.72529560739E+03  0.12699999809E+01 0. -1.
</event>
<event>
 5   0  0.9838215E-05  0.1200339E+04  0.7818609E-02  0.9112559E-01
        2   -1    0    0  501    0  0.00000000000E+00  0.00000000000E+00  0.32511654007E+03  0.32511654008E+03  0.25500000920E-02 0. -1.
       -2   -1    0    0    0  501  0.00000000000E+00  0.00000000000E+00 -0.11079217215E+04  0.11079217215E+04  0.25500000920E-02 0.  1.
    10030    2    1    2    0    0  0.00000000000E+00  0.00000000000E+00 -0.78280518146E+03  0.14330382616E+04  0.12003394133E+04 0.  0.
        4    1    3    3  502    0 -0.35732705596E+03 -0.60135782037E+02  0.17978607638E+03  0.40450412033E+03  0.12699999809E+01 0. -1.
       -4    1    3    3    0  502  0.35732705596E+03  0.60135782037E+02 -0.96259125783E+03  0.10285341413E+04  0.12699999809E+01 0.  1.
</event>
<event>
 5   0  0.5620246E-05  0.1199951E+04  0.7818609E-02  0.9112899E-01
        1   -1    0    0  501    0  0.00000000000E+00  0.00000000000E+00  0.14042637284E+04  0.14042637284E+04  0.50400001928E-02 0.  1.
       -1   -1    0    0    0  501  0.00000000000E+00  0.00000000000E+00 -0.25634114964E+03  0.25634114969E+03  0.50400001928E-02 0. -1.
    10030    2    1    2    0    0  0.00000000000E+00  0.00000000000E+00  0.11479225788E+04  0.16606048781E+04  0.11999509633E+04 0.  0.
        1    1    3    3  502    0 -0.28669261335E+03  0.27907893850E+03  0.11926917005E+04  0.12580108112E+04  0.50400001928E-02 0.  1.
       -1    1    3    3    0  502  0.28669261335E+03 -0.27907893850E+03 -0.44769121744E+02  0.40259406696E+03  0.50400001928E-02 0. -1.
</event>
<event>
 5   0  0.9941209E-05  0.1200296E+04  0.7818609E-02  0.9112597E-01
       -2   -1    0    0    0  501  0.00000000000E+00  0.00000000000E+00  0.19000063016E+03  0.19000063018E+03  0.25500000920E-02 0.  1.
        2   -1    0    0  501    0  0.00000000000E+00  0.00000000000E+00 -0.18956666593E+04  0.18956666593E+04  0.25500000920E-02 0. -1.
    10030    2    1    2    0    0  0.00000000000E+00  0.00000000000E+00 -0.17056660291E+04  0.20856672895E+04  0.12002963965E+04 0.  0.
        2    1    3    3  502    0  0.42871752395E+03 -0.38419725654E+03 -0.11475727094E+04  0.12838728016E+04  0.25500000920E-02 0. -1.
       -2    1    3    3    0  502 -0.42871752395E+03  0.38419725654E+03 -0.55809331970E+03  0.80179448787E+03  0.25500000920E-02 0.  1.
</event>
<event>
 5   0  0.5625746E-05  0.1199969E+04  0.7818609E-02  0.9112884E-01
        1   -1    0    0  501    0  0.00000000000E+00  0.00000000000E+00  0.15849272273E+04  0.15849272273E+04  0.50400001928E-02 0. -1.
       -1   -1    0    0    0  501  0.00000000000E+00  0.00000000000E+00 -0.22712790623E+03  0.22712790629E+03  0.50400001928E-02 0.  1.
    10030    2    1    2    0    0  0.00000000000E+00  0.00000000000E+00  0.13577993210E+04  0.18120551336E+04  0.11999686708E+04 0.  0.
        5    1    3    3  502    0  0.19708601423E+03 -0.39087430179E+01 -0.17680182639E+03  0.26483797139E+03  0.46999998093E+01 0.  1.
       -5    1    3    3    0  502 -0.19708601423E+03  0.39087430179E+01  0.15346011474E+04  0.15472171622E+04  0.46999998093E+01 0. -1.
</event>
<event>
 5   0  0.5732931E-05  0.1200811E+04  0.7818609E-02  0.9112147E-01
        1   -1    0    0  501    0  0.00000000000E+00  0.00000000000E+00  0.10440819850E+04  0.10440819850E+04  0.50400001928E-02 0.  1.
       -1   -1    0    0    0  501  0.00000000000E+00  0.00000000000E+00 -0.34526668092E+03  0.34526668095E+03  0.50400001928E-02 0. -1.
    10030    2    1    2    0    0  0.00000000000E+00  0.00000000000E+00  0.69881530406E+03  0.13893486659E+04  0.12008109287E+04 0.  0.
        4    1    3    3  502    0 -0.27489269990E+03 -0.19541530605E+02 -0.26776429089E+03  0.38424887281E+03  0.12699999809E+01 0. -1.
       -4    1    3    3    0  502  0.27489269990E+03  0.19541530605E+02  0.96657959495E+03  0.10050997931E+04  0.12699999809E+01 0.  1.
</event>
<event>
 5   0  0.5625746E-05  0.1199558E+04  0.7818609E-02  0.9113243E-01
       -1   -1    0    0    0  501  0.00000000000E+00  0.00000000000E+00  0.50405505932E+03  0.50405505935E+03  0.50400001928E-02 0. -1.
        1   -1    0    0  501    0  0.00000000000E+00  0.00000000000E+00 -0.71368197951E+03  0.71368197952E+03  0.50400001928E-02 0.  1.
    10030    2    1    2    0    0  0.00000000000E+00  0.00000000000E+00 -0.20962692019E+03  0.12177370389E+04  0.11995582729E+04 0.  0.
        5    1    3    3  502    0 -0.22607711795E+03 -0.44966086209E+03  0.22633108754E+03  0.55186375614E+03  0.46999998093E+01 0. -1.
       -5    1    3    3    0  502  0.22607711795E+03  0.44966086209E+03 -0.43595800773E+03  0.66587328273E+03  0.46999998093E+01 0.  1.
</event>
<event>
 5   0  0.1012657E-04  0.1200322E+04  0.7818609E-02  0.9112575E-01
        2   -1    0    0  501    0  0.00000000000E+00  0.00000000000E+00  0.10186112742E+04  0.10186112742E+04  0.25500000920E-02 0.  1.
       -2   -1    0    0    0  501  0.00000000000E+00  0.00000000000E+00 -0.35361178408E+03  0.35361178409E+03  0.25500000920E-02 0. -1.
    10030    2    1    2    0    0  0.00000000000E+00  0.00000000000E+00  0.66499949017E+03  0.13722230583E+04  0.12003215402E+04 0.  0.
        1    1    3    3  502    0  0.51864841710E+03 -0.12652212327E+03  0.19023929226E+02  0.53419653513E+03  0.50400001928E-02 0. -1.
       -1    1    3    3    0  502 -0.51864841710E+03  0.12652212327E+03  0.64597556094E+03  0.83802652321E+03  0.50400001928E-02 0.  1.
</event>
<event>
 5   0  0.1023063E-04  0.1199462E+04  0.7818609E-02  0.9113328E-01
        2   -1    0    0  501    0  0.00000000000E+00  0.00000000000E+00  0.54152207357E+03  0.54152207358E+03  0.25500000920E-02 0. -1.
       -2   -1    0    0    0  501  0.00000000000E+00  0.00000000000E+00 -0.66419667021E+03  0.66419667021E+03  0.25500000920E-02 0.  1.
    10030    2    1    2    0    0  0.00000000000E+00  0.00000000000E+00 -0.12267459663E+03  0.12057187438E+04  0.11994618095E+04 0.  0.
        3    1    3    3  502    0  0.57737050405E+03  0.16177330224E+03 -0.49032214928E+02  0.60160740401E+03  0.10100000352E+00 0.  1.
       -3    1    3    3    0  502 -0.57737050405E+03 -0.16177330224E+03 -0.73642381703E+02  0.60411133978E+03  0.10100000352E+00 0. -1.
</event>
<event>
 5   0  0.1004006E-04  0.1201118E+04  0.7818609E-02  0.9111878E-01
        2   -1    0    0  501    0  0.00000000000E+00  0.00000000000E+00  0.69015021371E+03  0.69015021372E+03  0.25500000920E-02 0.  1.
       -2   -1    0    0    0  501  0.00000000000E+00  0.00000000000E+00 -0.52259838557E+03  0.52259838557E+03  0.25500000920E-02 0. -1.
    10030    2    1    2    0    0  0.00000000000E+00  0.00000000000E+00  0.16755182815E+03  0.12127485993E+04  0.12011184579E+04 0.  0.
        5    1    3    3  502    0 -0.26061872678E+03  0.25382066862E+03 -0.39866044560E+03  0.53972149619E+03  0.46999998093E+01 0. -1.
       -5    1    3    3    0  502  0.26061872678E+03 -0.25382066862E+03  0.56621227374E+03  0.67302710310E+03  0.46999998093E+01 0.  1.
</event>
<event>
 5   0  0.5625746E-05  0.1201707E+04  0.7818609E-02  0.9111364E-01
       -1   -1    0    0    0  501  0.00000000000E+00  0.00000000000E+00  0.40897641033E+03  0.40897641036E+03  0.50400001928E-02 0. -1.
        1   -1    0    0  501    0  0.00000000000E+00  0.00000000000E+00 -0.88275198409E+03  0.88275198410E+03  0.50400001928E-02 0.  1.
    10030    2    1    2    0    0  0.00000000000E+00  0.00000000000E+00 -0.47377557375E+03  0.12917283945E+04  0.12017066825E+04 0.  0.
        5    1    3    3  502    0  0.30028379306E+03  0.33596621639E+03 -0.66410122776E+03  0.80255603271E+03  0.46999998093E+01 0.  1.
       -5    1    3    3    0  502 -0.30028379306E+03 -0.33596621639E+03  0.19032565401E+03  0.48917236175E+03  0.46999998093E+01 0. -1.
</event>
<event>
 5   0  0.1023063E-04  0.1200027E+04  0.7818609E-02  0.9112833E-01
       -2   -1    0    0    0  501  0.00000000000E+00  0.00000000000E+00  0.16988307944E+03  0.16988307946E+03  0.25500000920E-02 0. -1.
        2   -1    0    0  501    0  0.00000000000E+00  0.00000000000E+00 -0.21192013366E+04  0.21192013366E+04  0.25500000920E-02 0.  1.
    10030    2    1    2    0    0  0.00000000000E+00  0.00000000000E+00 -0.19493182572E+04  0.22890844161E+04  0.12000274148E+04 0.  0.
        3    1    3    3  502    0 -0.13032053399E+03  0.13319501048E+03  0.11328699754E+03  0.21807867023E+03  0.10100000352E+00 0. -1.
       -3    1    3    3    0  502  0.13032053399E+03 -0.13319501048E+03 -0.20626052547E+04  0.20710057459E+04  0.10100000352E+00 0.  1.
</event>
<event>
 5   0  0.9838215E-05  0.1199900E+04  0.7818609E-02  0.9112944E-01
       -2   -1    0    0    0  501  0.00000000000E+00  0.00000000000E+00  0.25626709579E+03  0.25626709580E+03  0.25500000920E-02 0. -1.
        2   -1    0    0  501    0  0.00000000000E+00  0.00000000000E+00 -0.14045507567E+04  0.14045507567E+04  0.25500000920E-02 0.  1.
    10030    2    1    2    0    0  0.00000000000E+00  0.00000000000E+00 -0.11482836609E+04  0.16608178525E+04  0.11999002347E+04 0.  0.
        4    1    3    3  502    0 -0.42253721954E+03 -0.32879188348E+03 -0.94887242653E+03  0.10894963512E+04  0.12699999809E+01 0.  1.
       -4    1    3    3    0  502  0.42253721954E+03  0.32879188348E+03 -0.19941123435E+03  0.57132150128E+03  0.12699999809E+01 0. -1.
</event>
<event>
 5   0  0.1004006E-04  0.1200201E+04  0.7818609E-02  0.9112681E-01
       -2   -1    0    0    0  501  0.00000000000E+00  0.00000000000E+00  0.33287070291E+03  0.33287070292E+03  0.25500000920E-02 0.  1.
        2   -1    0    0  501    0  0.00000000000E+00  0.00000000000E+00 -0.10818627649E+04  0.10818627649E+04  0.25500000920E-02 0. -1.
    10030    2    1    2    0    0  0.00000000000E+00  0.00000000000E+00 -0.74899206200E+03  0.14147334678E+04  0.12002006816E+04 0.  0.
        5    1    3    3  502    0 -0.35357479873E+03  0.10759461129E+02  0.19688337998E+03  0.40486548336E+03  0.46999998093E+01 0.  1.
       -5    1    3    3    0  502  0.35357479873E+03 -0.10759461129E+02 -0.94587544198E+03  0.10098679845E+04  0.46999998093E+01 0. -1.
</event>
<event>
 5   0  0.5625746E-05  0.1200231E+04  0.7818609E-02  0.9112654E-01
        1   -1    0    0  501    0  0.00000000000E+00  0.00000000000E+00  0.72636384558E+03  0.72636384560E+03  0.50400001928E-02 0.  1.
       -1   -1    0    0    0  501  0.00000000000E+00  0.00000000000E+00 -0.49581055062E+03  0.49581055064E+03  0.50400001928E-02 0. -1.
    10030    2    1    2    0    0  0.00000000000E+00  0.00000000000E+00  0.23055329496E+03  0.12221743962E+04  0.12002314081E+04 0.  0.
        5    1    3    3  502    0 -0.35206277679E+03 -0.54161784437E+02 -0.37649685087E+03  0.51831811314E+03  0.46999998093E+01 0. -1.
       -5    1    3    3    0  502  0.35206277679E+03  0.54161784437E+02  0.60705014584E+03  0.70385628310E+03  0.46999998093E+01 0.  1.
</event>
<event>
 5   0  0.1023063E-04  0.1200303E+04  0.7818609E-02  0.9112592E-01
        2   -1    0    0  501    0  0.00000000000E+00  0.00000000000E+00  0.88315482279E+03  0.88315482279E+03  0.25500000920E-02 0.  1.
       -2   -1    0    0    0  501  0.00000000000E+00  0.00000000000E+00 -0.40783510393E+03  0.40783510394E+03  0.25500000920E-02 0. -1.
    10030    2    1    2    0    0  0.00000000000E+00  0.00000000000E+00  0.47531971886E+03  0.12909899267E+04  0.12003025268E+04 0.  0.
        3    1    3    3  502    0  0.13466199273E+03  0.32478867224E+03 -0.28546189909E+03  0.45289075938E+03  0.10100000352E+00 0. -1.
       -3    1    3    3    0  502 -0.13466199273E+03 -0.32478867224E+03  0.76078161795E+03  0.83809916735E+03  0.10100000352E+00 0.  1.
</event>
<event>
 5   0  0.1012657E-04  0.1200262E+04  0.7818609E-02  0.9112627E-01
       -2   -1    0    0    0  501  0.00000000000E+00  0.00000000000E+00  0.33238116852E+03  0.33238116853E+03  0.25500000920E-02 0.  1.
        2   -1    0    0  501    0  0.00000000000E+00  0.00000000000E+00 -0.10835668214E+04  0.10835668214E+04  0.25500000920E-02 0. -1.
    10030    2    1    2    0    0  0.00000000000E+00  0.00000000000E+00 -0.75118565284E+03  0.14159479899E+04  0.12002619818E+04 0.  0.
        1    1    3    3  502    0 -0.24311211626E+03 -0.29631305098E+03  0.16918333316E+03  0.41896052976E+03  0.50400001928E-02 0. -1.
       -1    1    3    3    0  502  0.24311211626E+03  0.29631305098E+03 -0.92036898600E+03  0.99698746013E+03  0.50400001928E-02 0.  1.
</event>
<event>
 5   0  0.9838215E-05  0.1200255E+04  0.7818609E-02  0.9112633E-01
       -2   -1    0    0    0  501  0.00000000000E+00  0.00000000000E+00  0.38182406000E+03  0.38182406001E+03  0.25500000920E-02 0. -1.
        2   -1    0    0  501    0  0.00000000000E+00  0.00000000000E+00 -0.94324393272E+03  0.94324393272E+03  0.25500000920E-02 0.  1.
    10030    2    1    2    0    0  0.00000000000E+00  0.00000000000E+00 -0.56141987272E+03  0.13250679927E+04  0.12002553528E+04 0.  0.
        4    1    3    3  502    0  0.25220496693E+03  0.46944548418E+02  0.31823860058E+03  0.40876467040E+03  0.12699999809E+01 0. -1.
       -4    1    3    3    0  502 -0.25220496693E+03 -0.46944548418E+02 -0.87965847330E+03  0.91630332233E+03  0.12699999809E+01 0.  1.
</event>
<event>
 5   0  0.1012657E-04  0.1199915E+04  0.7818609E-02  0.9112931E-01
        2   -1    0    0  501    0  0.00000000000E+00  0.00000000000E+00  0.11366504282E+04  0.11366504282E+04  0.25500000920E-02 0. -1.
       -2   -1    0    0    0  501  0.00000000000E+00  0.00000000000E+00 -0.31667536570E+03  0.31667536571E+03  0.25500000920E-02 0.  1.
    10030    2    1    2    0    0  0.00000000000E+00  0.00000000000E+00  0.81997506249E+03  0.14533257939E+04  0.11999153137E+04 0.  0.
        1    1    3    3  502    0 -0.17966549604E+03  0.45782211020E+03 -0.61905964381E+01  0.49185272040E+03  0.50400001928E-02 0.  1.
       -1    1    3    3    0  502  0.17966549604E+03 -0.45782211020E+03  0.82616565893E+03  0.96147307350E+03  0.50400001928E-02 0. -1.
</event>
<event>
 5   0  0.1023063E-04  0.1199756E+04  0.7818609E-02  0.9113070E-01
        2   -1    0    0  501    0  0.00000000000E+00  0.00000000000E+00  0.13751693120E+04  0.13751693120E+04  0.25500000920E-02 0. -1.
       -2   -1    0    0    0  501  0.00000000000E+00  0.00000000000E+00 -0.26167947529E+03  0.26167947530E+03  0.25500000920E-02 0.  1.
    10030    2    1    2    0    0  0.00000000000E+00  0.00000000000E+00  0.11134898367E+04  0.16368487873E+04  0.11997559485E+04 0.  0.
        3    1    3    3  502    0  0.21232328043E+03 -0.13590366356E+03 -0.18590369563E+03  0.31322703496E+03  0.10100000352E+00 0.  1.
       -3    1    3    3    0  502 -0.21232328043E+03  0.13590366356E+03  0.12993935323E+04  0.13236217523E+04  0.10100000352E+00 0. -1.
</event>
<event>
 5   0  0.9941209E-05  0.1196792E+04  0.7818609E-02  0.9115669E-01
       -2   -1    0    0    0  501  0.00000000000E+00  0.00000000000E+00  0.19308439088E+03  0.19308439090E+03  0.25500000920E-02 0. -1.
        2   -1    0    0  501    0  0.00000000000E+00  0.00000000000E+00 -0.18545135836E+04  0.18545135836E+04  0.25500000920E-02 0.  1.
    10030    2    1    2    0    0  0.00000000000E+00  0.00000000000E+00 -0.16614291927E+04  0.20475979745E+04  0.11967917541E+04 0.  0.
        2    1    3    3  502    0  0.34607163487E+03 -0.37226884284E+03 -0.13710140969E+04  0.14622001647E+04  0.25500000920E-02 0.  1.
       -2    1    3    3    0  502 -0.34607163487E+03  0.37226884284E+03 -0.29041509583E+03  0.58539780979E+03  0.25500000920E-02 0. -1.
</event>
<event>
 5   0  0.1012657E-04  0.1199621E+04  0.7818609E-02  0.9113188E-01
       -2   -1    0    0    0  501  0.00000000000E+00  0.00000000000E+00  0.38061703634E+03  0.38061703635E+03  0.25500000920E-02 0. -1.
        2   -1    0    0  501    0  0.00000000000E+00  0.00000000000E+00 -0.94523577481E+03  0.94523577481E+03  0.25500000920E-02 0.  1.
    10030    2    1    2    0    0  0.00000000000E+00  0.00000000000E+00 -0.56461873846E+03  0.13258528112E+04  0.11996213390E+04 0.  0.
        1    1    3    3  502    0  0.16152060261E+03 -0.57757310113E+03 -0.29298192929E+03  0.66747135005E+03  0.50400001928E-02 0.  1.
       -1    1    3    3    0  502 -0.16152060261E+03  0.57757310113E+03 -0.27163680917E+03  0.65838146112E+03  0.50400001928E-02 0. -1.
</event>
<event>
 5   0  0.9941209E-05  0.1200655E+04  0.7818609E-02  0.9112283E-01
        2   -1    0    0  501    0  0.00000000000E+00  0.00000000000E+00  0.89501673204E+03  0.89501673204E+03  0.25500000920E-02 0. -1.
       -2   -1    0    0    0  501  0.00000000000E+00  0.00000000000E+00 -0.40266642597E+03  0.40266642598E+03  0.25500000920E-02 0.  1.
    10030    2    1    2    0    0  0.00000000000E+00  0.00000000000E+00  0.49235030606E+03  0.12976831580E+04  0.12006551356E+04 0.  0.
        2    1    3    3  502    0 -0.44617703365E+03  0.36086325086E+03  0.43676920160E+03  0.72115432929E+03  0.25500000920E-02 0. -1.
       -2    1    3    3    0  502  0.44617703365E+03 -0.36086325086E+03  0.55581104456E+02  0.57652882873E+03  0.25500000920E-02 0.  1.
</event>
<event>
 5   0  0.5620246E-05  0.1200057E+04  0.7818609E-02  0.9112806E-01
        1   -1    0    0  501    0  0.00000000000E+00  0.00000000000E+00  0.96015371975E+03  0.96015371976E+03  0.50400001928E-02 0. -1.
       -1   -1    0    0    0  501  0.00000000000E+00  0.00000000000E+00 -0.37497568836E+03  0.37497568839E+03  0.50400001928E-02 0.  1.
    10030    2    1    2    0    0  0.00000000000E+00  0.00000000000E+00  0.58517803139E+03  0.13351294082E+04  0.12000571687E+04 0.  0.
        1    1    3    3  502    0  0.17062909510E+03  0.53984802406E+03  0.71517553110E+02  0.57067060341E+03  0.50400001928E-02 0.  1.
       -1    1    3    3    0  502 -0.17062909510E+03 -0.53984802406E+03  0.51366047828E+03  0.76445880474E+03  0.50400001928E-02 0. -1.
</event>
<event>
 5   0  0.5447807E-05  0.1200583E+04  0.7818609E-02  0.9112346E-01
        1   -1    0    0  501    0  0.00000000000E+00  0.00000000000E+00  0.25761676946E+03  0.25761676951E+03  0.50400001928E-02 0. -1.
       -1   -1    0    0    0  501  0.00000000000E+00  0.00000000000E+00 -0.13987830206E+04  0.13987830206E+04  0.50400001928E-02 0.  1.
    10030    2    1    2    0    0  0.00000000000E+00  0.00000000000E+00 -0.11411662511E+04  0.16563997901E+04  0.12005831300E+04 0.  0.
        2    1    3    3  502    0 -0.22570437426E+03 -0.53405330294E+03 -0.35598206365E+03  0.68035183882E+03  0.25500000920E-02 0.  1.
       -2    1    3    3    0  502  0.22570437426E+03  0.53405330294E+03 -0.78518418747E+03  0.97604795128E+03  0.25500000920E-02 0. -1.
</event>
<event>
 5   0  0.5732931E-05  0.1198853E+04  0.7818609E-02  0.9113861E-01
        1   -1    0    0  501    0  0.00000000000E+00  0.00000000000E+00  0.65805771958E+03  0.65805771960E+03  0.50400001928E-02 0.  1.
       -1   -1    0    0    0  501  0.00000000000E+00  0.00000000000E+00 -0.54601877612E+03  0.54601877614E+03  0.50400001928E-02 0. -1.
    10030    2    1    2    0    0  0.00000000000E+00  0.00000000000E+00  0.11203894346E+03  0.12040764957E+04  0.11988525692E+04 0.  0.
        4    1    3    3  502    0  0.57969847562E+03  0.12930134220E+03  0.13724894370E+03  0.60959662497E+03  0.12699999809E+01 0. -1.
       -4    1    3    3    0  502 -0.57969847562E+03 -0.12930134220E+03 -0.25210000238E+02  0.59447987077E+03  0.12699999809E+01 0.  1.
</event>
<event>
 5   0  0.5625746E-05  0.1201413E+04  0.7818609E-02  0.9111620E-01
       -1   -1    0    0    0  501  0.00000000000E+00  0.00000000000E+00  0.10693082504E+04  0.10693082504E+04  0.50400001928E-02 0.  1.
        1   -1    0    0  501    0  0.00000000000E+00  0.00000000000E+00 -0.33745972080E+03  0.33745972084E+03  0.50400001928E-02 0. -1.
    10030    2    1    2    0    0  0.00000000000E+00  0.00000000000E+00  0.73184852961E+03  0.14067679713E+04  0.12014132739E+04 0.  0.
        5    1    3    3  502    0 -0.30886027831E+03 -0.21880983961E+03  0.91207627772E+03  0.98751083225E+03  0.46999998093E+01 0.  1.
       -5    1    3    3    0  502  0.30886027831E+03  0.21880983961E+03 -0.18022774811E+03  0.41925713902E+03  0.46999998093E+01 0. -1.
</event>
<event>
 5   0  0.1023063E-04  0.1200584E+04  0.7818609E-02  0.9112346E-01
       -2   -1    0    0    0  501  0.00000000000E+00  0.00000000000E+00  0.30165659053E+03  0.30165659054E+03  0.25500000920E-02 0. -1.
        2   -1    0    0  501    0  0.00000000000E+00  0.00000000000E+00 -0.11945712538E+04  0.11945712538E+04  0.25500000920E-02 0.  1.
    10030    2    1    2    0    0  0.00000000000E+00  0.00000000000E+00 -0.89291466332E+03  0.14962278444E+04  0.12005836774E+04 0.  0.
        3    1    3    3  502    0  0.29988061510E+03 -0.11471705053E+03  0.18565320749E+03  0.37088476464E+03  0.10100000352E+00 0. -1.
       -3    1    3    3    0  502 -0.29988061510E+03  0.11471705053E+03 -0.10785678708E+04  0.11253430797E+04  0.10100000352E+00 0.  1.
</event>
<event>
 5   0  0.3839750E-05  0.1199758E+04  0.7818609E-02  0.9113068E-01
        3   -1    0    0  501    0  0.00000000000E+00  0.00000000000E+00  0.16543190855E+04  0.16543190886E+04  0.10100000352E+00 0.  1.
       -3   -1    0    0    0  501  0.00000000000E+00  0.00000000000E+00 -0.21752452265E+03  0.21752454609E+03  0.10100000352E+00 0. -1.
    10030    2    1    2    0    0  0.00000000000E+00  0.00000000000E+00  0.14367945629E+04  0.18718436347E+04  0.11997582993E+04 0.  0.
        4    1    3    3  502    0 -0.38975307676E+03  0.15443615627E+03  0.48979466951E+02  0.42208836550E+03  0.12699999809E+01 0. -1.
       -4    1    3    3    0  502  0.38975307676E+03 -0.15443615627E+03  0.13878150959E+04  0.14497552692E+04  0.12699999809E+01 0.  1.
</event>
<event>
 5   0  0.1023063E-04  0.1200184E+04  0.7818609E-02  0.9112695E-01
        2   -1    0    0  501    0  0.00000000000E+00  0.00000000000E+00  0.12923458370E+04  0.12923458370E+04  0.25500000920E-02 0. -1.
       -2   -1    0    0    0  501  0.00000000000E+00  0.00000000000E+00 -0.27864869629E+03  0.27864869630E+03  0.25500000920E-02 0.  1.
    10030    2    1    2    0    0  0.00000000000E+00  0.00000000000E+00  0.10136971407E+04  0.15709945333E+04  0.12001841236E+04 0.  0.
        3    1    3    3  502    0 -0.39860433174E+03  0.44790281778E+03  0.47456933644E+03  0.76466882554E+03  0.10100000352E+00 0.  1.
       -3    1    3    3    0  502  0.39860433174E+03 -0.44790281778E+03  0.53912780424E+03  0.80632570774E+03  0.10100000352E+00 0. -1.
</event>
<event>
 5   0  0.5745487E-05  0.1200109E+04  0.7818609E-02  0.9112761E-01
       -1   -1    0    0    0  501  0.00000000000E+00  0.00000000000E+00  0.91522927035E+03  0.91522927037E+03  0.50400001928E-02 0.  1.
        1   -1    0    0  501    0  0.00000000000E+00  0.00000000000E+00 -0.39341542241E+03  0.39341542244E+03  0.50400001928E-02 0. -1.
    10030    2    1    2    0    0  0.00000000000E+00  0.00000000000E+00  0.52181384795E+03  0.13086446928E+04  0.12001088451E+04 0.  0.
        3    1    3    3  502    0 -0.23482426070E+03 -0.55150566951E+03  0.23075945103E+03  0.64230123101E+03  0.10100000352E+00 0. -1.
       -3    1    3    3    0  502  0.23482426070E+03  0.55150566951E+03  0.29105439692E+03  0.66634346180E+03  0.10100000352E+00 0.  1.
</event>
<event>
 5   0  0.5732931E-05  0.1200097E+04  0.7818609E-02  0.9112772E-01
        1   -1    0    0  501    0  0.00000000000E+00  0.00000000000E+00  0.11705957012E+04  0.11705957012E+04  0.50400001928E-02 0. -1.
       -1   -1    0    0    0  501  0.00000000000E+00  0.00000000000E+00 -0.30758526485E+03  0.30758526489E+03  0.50400001928E-02 0.  1.
    10030    2    1    2    0    0  0.00000000000E+00  0.00000000000E+00  0.86301043637E+03  0.14781809661E+04  0.12000966442E+04 0.  0.
        4    1    3    3  502    0 -0.31288814231E+03  0.90440430036E+02  0.10522446883E+04  0.11014985057E+04  0.12699999809E+01 0. -1.
       -4    1    3    3    0  502  0.31288814231E+03 -0.90440430036E+02 -0.18923425197E+03  0.37668246044E+03  0.12699999809E+01 0.  1.
</event>
<event>
 5   0  0.5625746E-05  0.1200373E+04  0.7818609E-02  0.9112530E-01
        1   -1    0    0  501    0  0.00000000000E+00  0.00000000000E+00  0.34418411185E+03  0.34418411188E+03  0.50400001928E-02 0.  1.
       -1   -1    0    0    0  501  0.00000000000E+00  0.00000000000E+00 -0.10466016014E+04  0.10466016014E+04  0.50400001928E-02 0. -1.
    10030    2    1    2    0    0  0.00000000000E+00  0.00000000000E+00 -0.70241748953E+03  0.13907857133E+04  0.12003726799E+04 0.  0.
        5    1    3    3  502    0 -0.47378617421E+03 -0.28270343040E+03 -0.77500174925E+02  0.55715611416E+03  0.46999998093E+01 0.  1.
       -5    1    3    3    0  502  0.47378617421E+03  0.28270343040E+03 -0.62491731460E+03  0.83362959911E+03  0.46999998093E+01 0. -1.
</event>
<event>
 5   0  0.9838215E-05  0.1199603E+04  0.7818609E-02  0.9113204E-01
        2   -1    0    0  501    0  0.00000000000E+00  0.00000000000E+00  0.88204759538E+03  0.88204759538E+03  0.25500000920E-02 0.  1.
       -2   -1    0    0    0  501  0.00000000000E+00  0.00000000000E+00 -0.40787127087E+03  0.40787127088E+03  0.25500000920E-02 0. -1.
    10030    2    1    2    0    0  0.00000000000E+00  0.00000000000E+00  0.47417632451E+03  0.12899188663E+04  0.11996030572E+04 0.  0.
        4    1    3    3  502    0  0.54357632447E+03  0.18108183377E+03  0.42791592894E+03  0.71510803812E+03  0.12699999809E+01 0.  1.
       -4    1    3    3    0  502 -0.54357632447E+03 -0.18108183377E+03  0.46260395566E+02  0.57481082814E+03  0.12699999809E+01 0. -1.
</event>
<event>
 5   0  0.9838215E-05  0.1199944E+04  0.7818609E-02  0.9112906E-01
       -2   -1    0    0    0  501  0.00000000000E+00  0.00000000000E+00  0.81839540485E+03  0.81839540485E+03  0.25500000920E-02 0. -1.
        2   -1    0    0  501    0  0.00000000000E+00  0.00000000000E+00 -0.43984402977E+03  0.43984402977E+03  0.25500000920E-02 0.  1.
    10030    2    1    2    0    0  0.00000000000E+00  0.00000000000E+00  0.37855137508E+03  0.12582394346E+04  0.11999438867E+04 0.  0.
        4    1    3    3  502    0 -0.18211921185E+03 -0.29506626381E+03  0.70268821030E+03  0.78358397199E+03  0.12699999809E+01 0. -1.
       -4    1    3    3    0  502  0.18211921185E+03  0.29506626381E+03 -0.32413683522E+03  0.47465546264E+03  0.12699999809E+01 0.  1.
</event>
<event>
 5   0  0.1023063E-04  0.1200441E+04  0.7818609E-02  0.9112470E-01
        2   -1    0    0  501    0  0.00000000000E+00  0.00000000000E+00  0.23213048961E+04  0.23213048961E+04  0.25500000920E-02 0. -1.
       -2   -1    0    0    0  501  0.00000000000E+00  0.00000000000E+00 -0.15519930675E+03  0.15519930677E+03  0.25500000920E-02 0.  1.
    10030    2    1    2    0    0  0.00000000000E+00  0.00000000000E+00  0.21661055893E+04  0.24765042028E+04  0.12004414365E+04 0.  0.
        3    1    3    3  502    0 -0.15312729741E+03 -0.57858722736E+03  0.11765442769E+04  0.13200256038E+04  0.10100000352E+00 0. -1.
       -3    1    3    3    0  502  0.15312729741E+03  0.57858722736E+03  0.98956131240E+03  0.11564785991E+04  0.10100000352E+00 0.  1.
</event>
<event>
 5   0  0.5620246E-05  0.1203679E+04  0.7818609E-02  0.9109642E-01
        1   -1    0    0  501    0  0.00000000000E+00  0.00000000000E+00  0.94114436338E+03  0.94114436339E+03  0.50400001928E-02 0. -1.
       -1   -1    0    0    0  501  0.00000000000E+00  0.00000000000E+00 -0.38486220776E+03  0.38486220779E+03  0.50400001928E-02 0.  1.
    10030    2    1    2    0    0  0.00000000000E+00  0.00000000000E+00  0.55628215562E+03  0.13260065712E+04  0.12036791891E+04 0.  0.
        1    1    3    3  502    0  0.21987409327E+02  0.19257634209E+03 -0.34953726733E+03  0.39968161701E+03  0.50400001928E-02 0.  1.
       -1    1    3    3    0  502 -0.21987409327E+02 -0.19257634209E+03  0.90581942295E+03  0.92632495417E+03  0.50400001928E-02 0. -1.
</event>
<event>
 5   0  0.9838215E-05  0.1200557E+04  0.7818609E-02  0.9112369E-01
        2   -1    0    0  501    0  0.00000000000E+00  0.00000000000E+00  0.11855014152E+04  0.11855014152E+04  0.25500000920E-02 0.  1.
       -2   -1    0    0    0  501  0.00000000000E+00  0.00000000000E+00 -0.30395095372E+03  0.30395095373E+03  0.25500000920E-02 0. -1.
    10030    2    1    2    0    0  0.00000000000E+00  0.00000000000E+00  0.88155046143E+03  0.14894523689E+04  0.12005570137E+04 0.  0.
        4    1    3    3  502    0 -0.20100754093E+03  0.42628454840E+03 -0.20450747236E+02  0.47174399167E+03  0.12699999809E+01 0. -1.
       -4    1    3    3    0  502  0.20100754093E+03 -0.42628454840E+03  0.90200120867E+03  0.10177083772E+04  0.12699999809E+01 0.  1.
</event>
<event>
 5   0  0.5732931E-05  0.1199198E+04  0.7818609E-02  0.9113559E-01
       -1   -1    0    0    0  501  0.00000000000E+00  0.00000000000E+00  0.11095970576E+03  0.11095970588E+03  0.50400001928E-02 0.  1.
        1   -1    0    0  501    0  0.00000000000E+00  0.00000000000E+00 -0.32400869713E+04  0.32400869713E+04  0.50400001928E-02 0. -1.
    10030    2    1    2    0    0  0.00000000000E+00  0.00000000000E+00 -0.31291272656E+04  0.33510466772E+04  0.11991982274E+04 0.  0.
        4    1    3    3  502    0 -0.55934976282E+03 -0.17197409993E+03 -0.19296614722E+04  0.20164429718E+04  0.12699999809E+01 0.  1.
       -4    1    3    3    0  502  0.55934976282E+03  0.17197409993E+03 -0.11994657934E+04  0.13346037054E+04  0.12699999809E+01 0. -1.
</event>
<event>
 5   0  0.1012657E-04  0.1203004E+04  0.7818609E-02  0.9110231E-01
        2   -1    0    0  501    0  0.00000000000E+00  0.00000000000E+00  0.12037020794E+04  0.12037020794E+04  0.25500000920E-02 0. -1.
       -2   -1    0    0    0  501  0.00000000000E+00  0.00000000000E+00 -0.30057640955E+03  0.30057640956E+03  0.25500000920E-02 0.  1.
    10030    2    1    2    0    0  0.00000000000E+00  0.00000000000E+00  0.90312566984E+03  0.15042784889E+04  0.12030036562E+04 0.  0.
        1    1    3    3  502    0 -0.38376099861E+03 -0.31146511331E+03  0.22896055151E+02  0.49478000185E+03  0.50400001928E-02 0.  1.
       -1    1    3    3    0  502  0.38376099861E+03  0.31146511331E+03  0.88022961469E+03  0.10094984871E+04  0.50400001928E-02 0. -1.
</event>
<event>
 5   0  0.1004006E-04  0.1199914E+04  0.7818609E-02  0.9112932E-01
       -2   -1    0    0    0  501  0.00000000000E+00  0.00000000000E+00  0.16757031433E+03  0.16757031435E+03  0.25500000920E-02 0. -1.
        2   -1    0    0  501    0  0.00000000000E+00  0.00000000000E+00 -0.21480449702E+04  0.21480449702E+04  0.25500000920E-02 0.  1.
    10030    2    1    2    0    0  0.00000000000E+00  0.00000000000E+00 -0.19804746558E+04  0.23156152845E+04  0.11999142817E+04 0.  0.
        5    1    3    3  502    0 -0.39255407899E+03 -0.39306425242E+03 -0.14274517668E+04  0.15317437279E+04  0.46999998093E+01 0.  1.
       -5    1    3    3    0  502  0.39255407899E+03  0.39306425242E+03 -0.55302288905E+03  0.78387155661E+03  0.46999998093E+01 0. -1.
</event>
<event>
 5   0  0.5732931E-05  0.1200244E+04  0.7818609E-02  0.9112643E-01
       -1   -1    0    0    0  501  0.00000000000E+00  0.00000000000E+00  0.87229706376E+03  0.87229706378E+03  0.50400001928E-02 0. -1.
        1   -1    0    0  501    0  0.00000000000E+00  0.00000000000E+00 -0.41287154690E+03  0.41287154693E+03  0.50400001928E-02 0.  1.
    10030    2    1    2    0    0  0.00000000000E+00  0.00000000000E+00  0.45942551686E+03  0.12851686107E+04  0.12002443720E+04 0.  0.
        4    1    3    3  502    0 -0.17911058194E+03  0.42478421453E+03 -0.18168994803E+03  0.49551496404E+03  0.12699999809E+01 0.  1.
       -4    1    3    3    0  502  0.17911058194E+03 -0.42478421453E+03  0.64111546489E+03  0.78965364667E+03  0.12699999809E+01 0. -1.
</event>
<event>
 5   0  0.5620246E-05  0.1203282E+04  0.7818609E-02  0.9109989E-01
        1   -1    0    0  501    0  0.00000000000E+00  0.00000000000E+00  0.11435211647E+04  0.11435211648E+04  0.50400001928E-02 0.  1.
       -1   -1    0    0    0  501  0.00000000000E+00  0.00000000000E+00 -0.31654134982E+03  0.31654134986E+03  0.50400001928E-02 0. -1.
    10030    2    1    2    0    0  0.00000000000E+00  0.00000000000E+00  0.82697981492E+03  0.14600625146E+04  0.12032817344E+04 0.  0.
        1    1    3    3  502    0  0.52283328276E+02  0.32855767287E+02 -0.31268605736E+03  0.31872498859E+03  0.50400001928E-02 0. -1.
       -1    1    3    3    0  502 -0.52283328276E+02 -0.32855767287E+02  0.11396658723E+04  0.11413375260E+04  0.50400001928E-02 0.  1.
</event>
<event>
 5   0  0.5732931E-05  0.1199896E+04  0.7818609E-02  0.9112948E-01
       -1   -1    0    0    0  501  0.00000000000E+00  0.00000000000E+00  0.55255037352E+03  0.55255037354E+03  0.50400001928E-02 0.  1.
        1   -1    0    0  501    0  0.00000000000E+00  0.00000000000E+00 -0.65141115896E+03  0.65141115898E+03  0.50400001928E-02 0. -1.
    10030    2    1    2    0    0  0.00000000000E+00  0.00000000000E+00 -0.98860785441E+02  0.12039615325E+04  0.11998957942E+04 0.  0.
        4    1    3    3  502    0  0.53141246881E+03 -0.41605541663E+02 -0.32569154567E+03  0.62466537356E+03  0.12699999809E+01 0. -1.
       -4    1    3    3    0  502 -0.53141246881E+03  0.41605541663E+02  0.22683076023E+03  0.57929615896E+03  0.12699999809E+01 0.  1.
</event>
<event>
 5   0  0.9838215E-05  0.1199834E+04  0.7818609E-02  0.9113002E-01
       -2   -1    0    0    0  501  0.00000000000E+00  0.00000000000E+00  0.17962665048E+03  0.17962665050E+03  0.25500000920E-02 0. -1.
        2   -1    0    0  501    0  0.00000000000E+00  0.00000000000E+00 -0.20036030789E+04  0.20036030789E+04  0.25500000920E-02 0.  1.
    10030    2    1    2    0    0  0.00000000000E+00  0.00000000000E+00 -0.18239764284E+04  0.21832297294E+04  0.11998341718E+04 0.  0.
        4    1    3    3  502    0 -0.42515163748E+03 -0.32766361107E+03 -0.13994994127E+04  0.14989054593E+04  0.12699999809E+01 0. -1.
       -4    1    3    3    0  502  0.42515163748E+03  0.32766361107E+03 -0.42447701573E+03  0.68432427010E+03  0.12699999809E+01 0.  1.
</event>
<event>
 5   0  0.5620246E-05  0.1199964E+04  0.7818609E-02  0.9112888E-01
       -1   -1    0    0    0  501  0.00000000000E+00  0.00000000000E+00  0.52239660570E+03  0.52239660572E+03  0.50400001928E-02 0.  1.
        1   -1    0    0  501    0  0.00000000000E+00  0.00000000000E+00 -0.68909025359E+03  0.68909025361E+03  0.50400001928E-02 0. -1.
    10030    2    1    2    0    0  0.00000000000E+00  0.00000000000E+00 -0.16669364790E+03  0.12114868593E+04  0.11999640153E+04 0.  0.
        1    1    3    3  502    0  0.16931270787E+03  0.30819442872E+03 -0.57415060638E+03  0.67327521696E+03  0.50400001928E-02 0. -1.
       -1    1    3    3    0  502 -0.16931270787E+03 -0.30819442872E+03  0.40745695848E+03  0.53821164237E+03  0.50400001928E-02 0.  1.
</event>
<event>
 5   0  0.1012657E-04  0.1200134E+04  0.7818609E-02  0.9112739E-01
       -2   -1    0    0    0  501  0.00000000000E+00  0.00000000000E+00  0.29596353978E+03  0.29596353979E+03  0.25500000920E-02 0.  1.
        2   -1    0    0  501    0  0.00000000000E+00  0.00000000000E+00 -0.12166382064E+04  0.12166382064E+04  0.25500000920E-02 0. -1.
    10030    2    1    2    0    0  0.00000000000E+00  0.00000000000E+00 -0.92067466661E+03  0.15126017462E+04  0.12001342428E+04 0.  0.
        1    1    3    3  502    0  0.34838841532E+02 -0.10950571838E+03 -0.12026407506E+04  0.12081183809E+04  0.50400001928E-02 0. -1.
       -1    1    3    3    0  502 -0.34838841532E+02  0.10950571838E+03  0.28196608395E+03  0.30448336532E+03  0.50400001928E-02 0.  1.
</event>
<event>
 5   0  0.3839750E-05  0.1199970E+04  0.7818609E-02  0.9112883E-01
        3   -1    0    0  501    0  0.00000000000E+00  0.00000000000E+00  0.15626190777E+04  0.15626190810E+04  0.10100000352E+00 0. -1.
       -3   -1    0    0    0  501  0.00000000000E+00  0.00000000000E+00 -0.23037074695E+03  0.23037076909E+03  0.10100000352E+00 0.  1.
    10030    2    1    2    0    0  0.00000000000E+00  0.00000000000E+00  0.13322483308E+04  0.17929898501E+04  0.11999695778E+04 0.  0.
        2    1    3    3  502    0 -0.15784333572E+03 -0.52482440756E+03  0.30126311236E+03  0.62539158955E+03  0.25500000920E-02 0.  1.
       -2    1    3    3    0  502  0.15784333572E+03  0.52482440756E+03  0.10309852184E+04  0.11675982606E+04  0.25500000920E-02 0. -1.
</event>
<event>
 5   0  0.5625746E-05  0.1201848E+04  0.7818609E-02  0.9111241E-01
        1   -1    0    0  501    0  0.00000000000E+00  0.00000000000E+00  0.88689970914E+03  0.88689970916E+03  0.50400001928E-02 0. -1.
       -1   -1    0    0    0  501  0.00000000000E+00  0.00000000000E+00 -0.40715942812E+03  0.40715942815E+03  0.50400001928E-02 0.  1.
    10030    2    1    2    0    0  0.00000000000E+00  0.00000000000E+00  0.47974028102E+03  0.12940591373E+04  0.12018478746E+04 0.  0.
        5    1    3    3  502    0 -0.36404266493E+03  0.31381230939E+03  0.62821151403E+03  0.79099748658E+03  0.46999998093E+01 0. -1.
       -5    1    3    3    0  502  0.36404266493E+03 -0.31381230939E+03 -0.14847123301E+03  0.50306165074E+03  0.46999998093E+01 0.  1.
</event>
<event>
 5   0  0.1023063E-04  0.1200113E+04  0.7818609E-02  0.9112758E-01
       -2   -1    0    0    0  501  0.00000000000E+00  0.00000000000E+00  0.52891420786E+03  0.52891420786E+03  0.25500000920E-02 0.  1.
        2   -1    0    0  501    0  0.00000000000E+00  0.00000000000E+00 -0.68076759624E+03  0.68076759625E+03  0.25500000920E-02 0. -1.
    10030    2    1    2    0    0  0.00000000000E+00  0.00000000000E+00 -0.15185338839E+03  0.12096818041E+04  0.12001127512E+04 0.  0.
        3    1    3    3  502    0 -0.11045106640E+02  0.51039795167E+03 -0.39378146855E+03  0.64474174568E+03  0.10100000352E+00 0. -1.
       -3    1    3    3    0  502  0.11045106640E+02 -0.51039795167E+03  0.24192808016E+03  0.56494005843E+03  0.10100000352E+00 0.  1.
</event>
<event>
 5   0  0.5620246E-05  0.1195817E+04  0.7818609E-02  0.9116526E-01
       -1   -1    0    0    0  501  0.00000000000E+00  0.00000000000E+00  0.37005569146E+03  0.37005569150E+03  0.50400001928E-02 0. -1.
        1   -1    0    0  501    0  0.00000000000E+00  0.00000000000E+00 -0.96605660755E+03  0.96605660756E+03  0.50400001928E-02 0.  1.
    10030    2    1    2    0    0  0.00000000000E+00  0.00000000000E+00 -0.59600091608E+03  0.13361122991E+04  0.11958172869E+04 0.  0.
        1    1    3    3  502    0  0.41843751815E+03  0.31776780076E+03  0.20834639474E+02  0.52583306668E+03  0.50400001928E-02 0. -1.
       -1    1    3    3    0  502 -0.41843751815E+03 -0.31776780076E+03 -0.61683555556E+03  0.81027923237E+03  0.50400001928E-02 0.  1.
</event>
<event>
 5   0  0.5625746E-05  0.1200352E+04  0.7818609E-02  0.9112548E-01
        1   -1    0    0  501    0  0.00000000000E+00  0.00000000000E+00  0.70695112350E+03  0.70695112352E+03  0.50400001928E-02 0. -1.
       -1   -1    0    0    0  501  0.00000000000E+00  0.00000000000E+00 -0.50952790326E+03  0.50952790329E+03  0.50400001928E-02 0.  1.
    10030    2    1    2    0    0  0.00000000000E+00  0.00000000000E+00  0.19742322024E+03  0.12164790268E+04  0.12003521545E+04 0.  0.
        5    1    3    3  502    0  0.15341466864E+03  0.11220451376E+03  0.67562535762E+03  0.70186724337E+03  0.46999998093E+01 0. -1.
       -5    1    3    3    0  502 -0.15341466864E+03 -0.11220451376E+03 -0.47820213738E+03  0.51461178344E+03  0.46999998093E+01 0.  1.
</event>
<event>
 5   0  0.3839750E-05  0.1200232E+04  0.7818609E-02  0.9112654E-01
        3   -1    0    0  501    0  0.00000000000E+00  0.00000000000E+00  0.41049162220E+03  0.41049163462E+03  0.10100000352E+00 0. -1.
       -3   -1    0    0    0  501  0.00000000000E+00  0.00000000000E+00 -0.87733557763E+03  0.87733558344E+03  0.10100000352E+00 0.  1.
    10030    2    1    2    0    0  0.00000000000E+00  0.00000000000E+00 -0.46684395543E+03  0.12878272181E+04  0.12002315047E+04 0.  0.
        1    1    3    3  502    0  0.54375591389E+02  0.47412133142E+03 -0.62383302172E+03  0.78543960994E+03  0.50400001928E-02 0.  1.
       -1    1    3    3    0  502 -0.54375591389E+02 -0.47412133142E+03  0.15698906629E+03  0.50238760813E+03  0.50400001928E-02 0. -1.
</event>
<event>
 5   0  0.1004006E-04  0.1200214E+04  0.7818609E-02  0.9112670E-01
        2   -1    0    0  501    0  0.00000000000E+00  0.00000000000E+00  0.16995117987E+04  0.16995117987E+04  0.25500000920E-02 0. -1.
       -2   -1    0    0    0  501  0.00000000000E+00  0.00000000000E+00 -0.21190094380E+03  0.21190094381E+03  0.25500000920E-02 0.  1.
    10030    2    1    2    0    0  0.00000000000E+00  0.00000000000E+00  0.14876108549E+04  0.19114127426E+04  0.12002135713E+04 0.  0.
        5    1    3    3  502    0  0.68531097972E+02 -0.22127175580E+03  0.16254115479E+04  0.16418411894E+04  0.46999998093E+01 0. -1.
       -5    1    3    3    0  502 -0.68531097972E+02  0.22127175580E+03 -0.13780069292E+03  0.26957155315E+03  0.46999998093E+01 0.  1.
</event>
<event>
 5   0  0.5620246E-05  0.1200532E+04  0.7818609E-02  0.9112391E-01
       -1   -1    0    0    0  501  0.00000000000E+00  0.00000000000E+00  0.36012057495E+03  0.36012057498E+03  0.50400001928E-02 0.  1.
        1   -1    0    0  501    0  0.00000000000E+00  0.00000000000E+00 -0.10005515634E+04  0.10005515634E+04  0.50400001928E-02 0. -1.
    10030    2    1    2    0    0  0.00000000000E+00  0.00000000000E+00 -0.64043098845E+03  0.13606721384E+04  0.12005318893E+04 0.  0.
        1    1    3    3  502    0  0.88826211261E+02  0.50956801150E+03  0.24993829355E+02  0.51785552588E+03  0.50400001928E-02 0.  1.
       -1    1    3    3    0  502 -0.88826211261E+02 -0.50956801150E+03 -0.66542481780E+03  0.84281661251E+03  0.50400001928E-02 0. -1.
</event>
<event>
 5   0  0.5625746E-05  0.1199410E+04  0.7818609E-02  0.9113373E-01
       -1   -1    0    0    0  501  0.00000000000E+00  0.00000000000E+00  0.57470467674E+03  0.57470467676E+03  0.50400001928E-02 0. -1.
        1   -1    0    0  501    0  0.00000000000E+00  0.00000000000E+00 -0.62579271954E+03  0.62579271956E+03  0.50400001928E-02 0.  1.
    10030    2    1    2    0    0  0.00000000000E+00  0.00000000000E+00 -0.51088042803E+02  0.12004973963E+04  0.11994098593E+04 0.  0.
        5    1    3    3  502    0  0.36888136653E+03 -0.46778008552E+03  0.43309643940E+02  0.59731858019E+03  0.46999998093E+01 0. -1.
       -5    1    3    3    0  502 -0.36888136653E+03  0.46778008552E+03 -0.94397686743E+02  0.60317881614E+03  0.46999998093E+01 0.  1.
</event>
<event>
 5   0  0.5745487E-05  0.1199902E+04  0.7818609E-02  0.9112942E-01
        1   -1    0    0  501    0  0.00000000000E+00  0.00000000000E+00  0.73683697864E+03  0.73683697866E+03  0.50400001928E-02 0. -1.
       -1   -1    0    0    0  501  0.00000000000E+00  0.00000000000E+00 -0.48849543335E+03  0.48849543338E+03  0.50400001928E-02 0.  1.
    10030    2    1    2    0    0  0.00000000000E+00  0.00000000000E+00  0.24834154529E+03  0.12253324120E+04  0.11999024947E+04 0.  0.
        3    1    3    3  502    0  0.48222063013E+03  0.17671988079E+03  0.44086394016E+03  0.67685129558E+03  0.10100000352E+00 0.  1.
       -3    1    3    3    0  502 -0.48222063013E+03 -0.17671988079E+03 -0.19252239487E+03  0.54848111646E+03  0.10100000352E+00 0. -1.
</event>
<event>
 5   0  0.9838215E-05  0.1205883E+04  0.7818609E-02  0.9107722E-01
        2   -1    0    0  501    0  0.00000000000E+00  0.00000000000E+00  0.23076564806E+04  0.23076564806E+04  0.25500000920E-02 0.  1.
       -2   -1    0    0    0  501  0.00000000000E+00  0.00000000000E+00 -0.15753589628E+03  0.15753589630E+03  0.25500000920E-02 0. -1.
    10030    2    1    2    0    0  0.00000000000E+00  0.00000000000E+00  0.21501205843E+04  0.24651923769E+04  0.12058834637E+04 0.  0.
        4    1    3    3  502    0 -0.57487931362E+02  0.62566319621E+02  0.22953534669E+04  0.22969258929E+04  0.12699999809E+01 0.  1.
       -4    1    3    3    0  502  0.57487931362E+02 -0.62566319621E+02 -0.14523288250E+03  0.16826648407E+03  0.12699999809E+01 0. -1.
</event>
<event>
 5   0  0.5447807E-05  0.1200009E+04  0.7818609E-02  0.9112849E-01
        1   -1    0    0  501    0  0.00000000000E+00  0.00000000000E+00  0.57653535922E+03  0.57653535924E+03  0.50400001928E-02 0. -1.
       -1   -1    0    0    0  501  0.00000000000E+00  0.00000000000E+00 -0.62442916196E+03  0.62442916198E+03  0.50400001928E-02 0.  1.
    10030    2    1    2    0    0  0.00000000000E+00  0.00000000000E+00 -0.47893802739E+02  0.12009645212E+04  0.12000091520E+04 0.  0.
        2    1    3    3  502    0 -0.80832676218E+02 -0.58299398406E+03  0.92720279598E+02  0.59582963778E+03  0.25500000920E-02 0. -1.
       -2    1    3    3    0  502  0.80832676218E+02  0.58299398406E+03 -0.14061408234E+03  0.60513488344E+03  0.25500000920E-02 0.  1.
</event>
<event>
 5   0  0.5625746E-05  0.1199676E+04  0.7818609E-02  0.9113140E-01
        1   -1    0    0  501    0  0.00000000000E+00  0.00000000000E+00  0.31575037062E+03  0.31575037066E+03  0.50400001928E-02 0.  1.
       -1   -1    0    0    0  501  0.00000000000E+00  0.00000000000E+00 -0.11395256704E+04  0.11395256704E+04  0.50400001928E-02 0. -1.
    10030    2    1    2    0    0  0.00000000000E+00  0.00000000000E+00 -0.82377529979E+03  0.14552760411E+04  0.11996760443E+04 0.  0.
        5    1    3    3  502    0  0.34027023409E+03 -0.12285047428E+02 -0.10109081858E+04  0.10667203029E+04  0.46999998093E+01 0. -1.
       -5    1    3    3    0  502 -0.34027023409E+03  0.12285047428E+02  0.18713288602E+03  0.38855573812E+03  0.46999998093E+01 0.  1.
</event>
<event>
 5   0  0.1012657E-04  0.1200082E+04  0.7818609E-02  0.9112784E-01
        2   -1    0    0  501    0  0.00000000000E+00  0.00000000000E+00  0.27019608145E+03  0.27019608146E+03  0.25500000920E-02 0. -1.
       -2   -1    0    0    0  501  0.00000000000E+00  0.00000000000E+00 -0.13325485885E+04  0.13325485885E+04  0.25500000920E-02 0.  1.
    10030    2    1    2    0    0  0.00000000000E+00  0.00000000000E+00 -0.10623525070E+04  0.16027446699E+04  0.12000823421E+04 0.  0.
        1    1    3    3  502    0  0.36574152016E+03 -0.23416096076E+03 -0.10841742398E+04  0.11679178042E+04  0.50400001928E-02 0.  1.
       -1    1    3    3    0  502 -0.36574152016E+03  0.23416096076E+03  0.21821732778E+02  0.43482686572E+03  0.50400001928E-02 0. -1.
</event>
<event>
 5   0  0.9838215E-05  0.1200287E+04  0.7818609E-02  0.9112605E-01
       -2   -1    0    0    0  501  0.00000000000E+00  0.00000000000E+00  0.24213287482E+03  0.24213287483E+03  0.25500000920E-02 0. -1.
        2   -1    0    0  501    0  0.00000000000E+00  0.00000000000E+00 -0.14874981348E+04  0.14874981348E+04  0.25500000920E-02 0.  1.
    10030    2    1    2    0    0  0.00000000000E+00  0.00000000000E+00 -0.12453652600E+04  0.17296310096E+04  0.12002869652E+04 0.  0.
        4    1    3    3  502    0  0.17083433101E+03  0.57531371580E+03 -0.62353093190E+03  0.86542629736E+03  0.12699999809E+01 0. -1.
       -4    1    3    3    0  502 -0.17083433101E+03 -0.57531371580E+03 -0.62183432810E+03  0.86420471228E+03  0.12699999809E+01 0.  1.
</event>
<event>
 5   0  0.9838215E-05  0.1200313E+04  0.7818609E-02  0.9112583E-01
       -2   -1    0    0    0  501  0.00000000000E+00  0.00000000000E+00  0.26379673590E+03  0.26379673591E+03  0.25500000920E-02 0. -1.
        2   -1    0    0  501    0  0.00000000000E+00  0.00000000000E+00 -0.13653983669E+04  0.13653983669E+04  0.25500000920E-02 0.  1.
    10030    2    1    2    0    0  0.00000000000E+00  0.00000000000E+00 -0.11016016310E+04  0.16291951029E+04  0.12003126800E+04 0.  0.
        4    1    3    3  502    0 -0.14459575538E+03 -0.94960445971E+02 -0.13308232348E+04  0.13420199380E+04  0.12699999809E+01 0.  1.
       -4    1    3    3    0  502  0.14459575538E+03  0.94960445971E+02  0.22922160377E+03  0.28717516485E+03  0.12699999809E+01 0. -1.
</event>
<event>
 5   0  0.9941209E-05  0.1199937E+04  0.7818609E-02  0.9112912E-01
        2   -1    0    0  501    0  0.00000000000E+00  0.00000000000E+00  0.94256559907E+03  0.94256559907E+03  0.25500000920E-02 0. -1.
       -2   -1    0    0    0  501  0.00000000000E+00  0.00000000000E+00 -0.38189592015E+03  0.38189592016E+03  0.25500000920E-02 0.  1.
    10030    2    1    2    0    0  0.00000000000E+00  0.00000000000E+00  0.56066967891E+03  0.13244615192E+04  0.11999365929E+04 0.  0.
        2    1    3    3  502    0 -0.85256899531E+02 -0.98188514496E+02  0.92682388863E+03  0.93590183451E+03  0.25500000920E-02 0. -1.
       -2    1    3    3    0  502  0.85256899531E+02  0.98188514496E+02 -0.36615420971E+03  0.38855968473E+03  0.25500000920E-02 0.  1.
</event>
<event>
 5   0  0.1023063E-04  0.1202312E+04  0.7818609E-02  0.9110835E-01
        2   -1    0    0  501    0  0.00000000000E+00  0.00000000000E+00  0.15837836368E+04  0.15837836368E+04  0.25500000920E-02 0. -1.
       -2   -1    0    0    0  501  0.00000000000E+00  0.00000000000E+00 -0.22818039207E+03  0.22818039209E+03  0.25500000920E-02 0.  1.
    10030    2    1    2    0    0  0.00000000000E+00  0.00000000000E+00  0.13556032447E+04  0.18119640289E+04  0.12023117253E+04 0.  0.
        3    1    3    3  502    0 -0.59313951212E+03 -0.95062742480E+02  0.64287942960E+03  0.87985531597E+03  0.10100000352E+00 0. -1.
       -3    1    3    3    0  502  0.59313951212E+03  0.95062742480E+02  0.71272381513E+03  0.93210871292E+03  0.10100000352E+00 0.  1.
</event>
<event>
 5   0  0.5745487E-05  0.1200080E+04  0.7818609E-02  0.9112787E-01
        1   -1    0    0  501    0  0.00000000000E+00  0.00000000000E+00  0.91648435846E+03  0.91648435847E+03  0.50400001928E-02 0.  1.
       -1   -1    0    0    0  501  0.00000000000E+00  0.00000000000E+00 -0.39285755616E+03  0.39285755619E+03  0.50400001928E-02 0. -1.
    10030    2    1    2    0    0  0.00000000000E+00  0.00000000000E+00  0.52362680230E+03  0.13093419147E+04  0.12000796729E+04 0.  0.
        3    1    3    3  502    0 -0.11157120949E+03  0.52570932039E+03 -0.29373976391E+02  0.53822046135E+03  0.10100000352E+00 0. -1.
       -3    1    3    3    0  502  0.11157120949E+03 -0.52570932039E+03  0.55300077869E+03  0.77112145331E+03  0.10100000352E+00 0.  1.
</event>
<event>
 5   0  0.5732931E-05  0.1202014E+04  0.7818609E-02  0.9111095E-01
        1   -1    0    0  501    0  0.00000000000E+00  0.00000000000E+00  0.54915317954E+03  0.54915317956E+03  0.50400001928E-02 0.  1.
       -1   -1    0    0    0  501  0.00000000000E+00  0.00000000000E+00 -0.65775744205E+03  0.65775744207E+03  0.50400001928E-02 0. -1.
    10030    2    1    2    0    0  0.00000000000E+00  0.00000000000E+00 -0.10860426251E+03  0.12069106216E+04  0.12020142939E+04 0.  0.
        4    1    3    3  502    0  0.69826193644E+02 -0.39071262839E+03 -0.50744518100E+03  0.64423154216E+03  0.12699999809E+01 0. -1.
       -4    1    3    3    0  502 -0.69826193644E+02  0.39071262839E+03  0.39884091849E+03  0.56267907946E+03  0.12699999809E+01 0.  1.
</event>
<event>
 5   0  0.1023063E-04  0.1199226E+04  0.7818609E-02  0.9113534E-01
        2   -1    0    0  501    0  0.00000000000E+00  0.00000000000E+00  0.10666025037E+04  0.10666025037E+04  0.25500000920E-02 0.  1.
       -2   -1    0    0    0  501  0.00000000000E+00  0.00000000000E+00 -0.33708501914E+03  0.33708501915E+03  0.25500000920E-02 0. -1.
    10030    2    1    2    0    0  0.00000000000E+00  0.00000000000E+00  0.72951748461E+03  0.14036875229E+04  0.11992259594E+04 0.  0.
        3    1    3    3  502    0  0.17970459063E+03  0.23260858329E+03  0.97648662017E+03  0.10197679258E+04  0.10100000352E+00 0.  1.
       -3    1    3    3    0  502 -0.17970459063E+03 -0.23260858329E+03 -0.24696913557E+03  0.38391959710E+03  0.10100000352E+00 0. -1.
</event>
<event>
 5   0  0.9941209E-05  0.1199479E+04  0.7818609E-02  0.9113313E-01
       -2   -1    0    0    0  501  0.00000000000E+00  0.00000000000E+00  0.12549718055E+04  0.12549718055E+04  0.25500000920E-02 0. -1.
        2   -1    0    0  501    0  0.00000000000E+00  0.00000000000E+00 -0.28661007768E+03  0.28661007769E+03  0.25500000920E-02 0.  1.
    10030    2    1    2    0    0  0.00000000000E+00  0.00000000000E+00  0.96836172787E+03  0.15415818832E+04  0.11994791648E+04 0.  0.
        2    1    3    3  502    0 -0.42156448741E+02  0.32772341455E+03 -0.15907608216E+03  0.36672196898E+03  0.25500000920E-02 0.  1.
       -2    1    3    3    0  502  0.42156448741E+02 -0.32772341455E+03  0.11274378100E+04  0.11748599143E+04  0.25500000920E-02 0. -1.
</event>
<event>
 5   0  0.5620246E-05  0.1199553E+04  0.7818609E-02  0.9113248E-01
       -1   -1    0    0    0  501  0.00000000000E+00  0.00000000000E+00  0.26608777920E+03  0.26608777924E+03  0.50400001928E-02 0.  1.
        1   -1    0    0  501    0  0.00000000000E+00  0.00000000000E+00 -0.13519302135E+04  0.13519302135E+04  0.50400001928E-02 0. -1.
    10030    2    1    2    0    0  0.00000000000E+00  0.00000000000E+00 -0.10858424343E+04  0.16180179928E+04  0.11995534306E+04 0.  0.
        1    1    3    3  502    0  0.48920893035E+03 -0.31274011203E+03 -0.74569946246E+03  0.94509229366E+03  0.50400001928E-02 0. -1.
       -1    1    3    3    0  502 -0.48920893035E+03  0.31274011203E+03 -0.34014297188E+03  0.67292569913E+03  0.50400001928E-02 0.  1.
</event>
<event>
 5   0  0.1012657E-04  0.1200793E+04  0.7818609E-02  0.9112163E-01
        2   -1    0    0  501    0  0.00000000000E+00  0.00000000000E+00  0.36157616907E+03  0.36157616907E+03  0.25500000920E-02 0.  1.
       -2   -1    0    0    0  501  0.00000000000E+00  0.00000000000E+00 -0.99695635407E+03  0.99695635408E+03  0.25500000920E-02 0. -1.
    10030    2    1    2    0    0  0.00000000000E+00  0.00000000000E+00 -0.63538018501E+03  0.13585325232E+04  0.12007925037E+04 0.  0.
        1    1    3    3  502    0  0.16858177307E+03  0.57142176627E+03 -0.23353453512E+03  0.63990704661E+03  0.50400001928E-02 0.  1.
       -1    1    3    3    0  502 -0.16858177307E+03 -0.57142176627E+03 -0.40184564989E+03  0.71862547654E+03  0.50400001928E-02 0. -1.
</event>
<event>
 5   0  0.5447807E-05  0.1200249E+04  0.7818609E-02  0.9112639E-01
        1   -1    0    0  501    0  0.00000000000E+00  0.00000000000E+00  0.81049188487E+03  0.81049188489E+03  0.50400001928E-02 0.  1.
       -1   -1    0    0    0  501  0.00000000000E+00  0.00000000000E+00 -0.44435885133E+03  0.44435885136E+03  0.50400001928E-02 0. -1.
    10030    2    1    2    0    0  0.00000000000E+00  0.00000000000E+00  0.36613303355E+03  0.12548507362E+04  0.12002487126E+04 0.  0.
        2    1    3    3  502    0  0.16241856303E+03 -0.19242969974E+03 -0.38645358877E+03  0.46125411135E+03  0.25500000920E-02 0. -1.
       -2    1    3    3    0  502 -0.16241856303E+03  0.19242969974E+03  0.75258662231E+03  0.79359662490E+03  0.25500000920E-02 0.  1.
</event>
<event>
 5   0  0.1004006E-04  0.1199558E+04  0.7818609E-02  0.9113244E-01
       -2   -1    0    0    0  501  0.00000000000E+00  0.00000000000E+00  0.50274653060E+03  0.50274653060E+03  0.25500000920E-02 0.  1.
        2   -1    0    0  501    0  0.00000000000E+00  0.00000000000E+00 -0.71553893526E+03  0.71553893527E+03  0.25500000920E-02 0. -1.
    10030    2    1    2    0    0  0.00000000000E+00  0.00000000000E+00 -0.21279240467E+03  0.12182854659E+04  0.11995577805E+04 0.  0.
        5    1    3    3  502    0  0.45746861904E+03  0.29967731178E+03  0.14367671242E+03  0.56546362950E+03  0.46999998093E+01 0.  1.
       -5    1    3    3    0  502 -0.45746861904E+03 -0.29967731178E+03 -0.35646911709E+03  0.65282183637E+03  0.46999998093E+01 0. -1.
</event>
<event>
 5   0  0.5447807E-05  0.1198969E+04  0.7818609E-02  0.9113760E-01
        1   -1    0    0  501    0  0.00000000000E+00  0.00000000000E+00  0.26226300930E+03  0.26226300934E+03  0.50400001928E-02 0. -1.
       -1   -1    0    0    0  501  0.00000000000E+00  0.00000000000E+00 -0.13703092690E+04  0.13703092690E+04  0.50400001928E-02 0.  1.
    10030    2    1    2    0    0  0.00000000000E+00  0.00000000000E+00 -0.11080462597E+04  0.16325722783E+04  0.11989686111E+04 0.  0.
        2    1    3    3  502    0 -0.24998859746E+02  0.24068620666E+02  0.26089422616E+03  0.26319201877E+03  0.25500000920E-02 0. -1.
       -2    1    3    3    0  502  0.24998859746E+02 -0.24068620666E+02 -0.13689404858E+04  0.13693802595E+04  0.25500000920E-02 0.  1.
</event>
<event>
 5   0  0.5745487E-05  0.1199400E+04  0.7818609E-02  0.9113382E-01
        1   -1    0    0  501    0  0.00000000000E+00  0.00000000000E+00  0.30978665606E+03  0.30978665610E+03  0.50400001928E-02 0. -1.
       -1   -1    0    0    0  501  0.00000000000E+00  0.00000000000E+00 -0.11609287921E+04  0.11609287921E+04  0.50400001928E-02 0.  1.
    10030    2    1    2    0    0  0.00000000000E+00  0.00000000000E+00 -0.85114213600E+03  0.14707154482E+04  0.11994002642E+04 0.  0.
        3    1    3    3  502    0  0.16277872034E+03  0.37114323370E+03  0.11645775092E+03  0.42167123410E+03  0.10100000352E+00 0. -1.
       -3    1    3    3    0  502 -0.16277872034E+03 -0.37114323370E+03 -0.96759988692E+03  0.10490442141E+04  0.10100000352E+00 0.  1.
</event>
<event>
 5   0  0.5625746E-05  0.1199725E+04  0.7818609E-02  0.9113097E-01
       -1   -1    0    0    0  501  0.00000000000E+00  0.00000000000E+00  0.24262512798E+03  0.24262512804E+03  0.50400001928E-02 0.  1.
        1   -1    0    0  501    0  0.00000000000E+00  0.00000000000E+00 -0.14830905650E+04  0.14830905650E+04  0.50400001928E-02 0. -1.
    10030    2    1    2    0    0  0.00000000000E+00  0.00000000000E+00 -0.12404654370E+04  0.17257156930E+04  0.11997250321E+04 0.  0.
        5    1    3    3  502    0 -0.45724145078E+02  0.58553220360E+02  0.23595557693E+03  0.24741928248E+03  0.46999998093E+01 0.  1.
       -5    1    3    3    0  502  0.45724145078E+02 -0.58553220360E+02 -0.14764210139E+04  0.14782964105E+04  0.46999998093E+01 0. -1.
</event>
<event>
 5   0  0.1012657E-04  0.1200343E+04  0.7818609E-02  0.9112556E-01
        2   -1    0    0  501    0  0.00000000000E+00  0.00000000000E+00  0.89347382603E+03  0.89347382603E+03  0.25500000920E-02 0.  1.
       -2   -1    0    0    0  501  0.00000000000E+00  0.00000000000E+00 -0.40315212334E+03  0.40315212335E+03  0.25500000920E-02 0. -1.
    10030    2    1    2    0    0  0.00000000000E+00  0.00000000000E+00  0.49032170268E+03  0.12966259494E+04  0.12003430678E+04 0.  0.
        1    1    3    3  502    0 -0.19183237421E+03 -0.15593490966E+03  0.83592025026E+03  0.87170982595E+03  0.50400001928E-02 0.  1.
       -1    1    3    3    0  502  0.19183237421E+03  0.15593490966E+03 -0.34559854757E+03  0.42491612343E+03  0.50400001928E-02 0. -1.
</event>
<event>
 5   0  0.5745487E-05  0.1199727E+04  0.7818609E-02  0.9113096E-01
       -1   -1    0    0    0  501  0.00000000000E+00  0.00000000000E+00  0.53048157527E+03  0.53048157530E+03  0.50400001928E-02 0.  1.
        1   -1    0    0  501    0  0.00000000000E+00  0.00000000000E+00 -0.67831972070E+03  0.67831972072E+03  0.50400001928E-02 0. -1.
    10030    2    1    2    0    0  0.00000000000E+00  0.00000000000E+00 -0.14783814542E+03  0.12088012960E+04  0.11997268256E+04 0.  0.
        3    1    3    3  502    0  0.33263942551E+03 -0.27032802526E+03  0.34890957277E+03  0.55268809361E+03  0.10100000352E+00 0.  1.
       -3    1    3    3    0  502 -0.33263942551E+03  0.27032802526E+03 -0.49674771819E+03  0.65611320241E+03  0.10100000352E+00 0. -1.
</event>
<event>
 5   0  0.9941209E-05  0.1200523E+04  0.7818609E-02  0.9112399E-01
       -2   -1    0    0    0  501  0.00000000000E+00  0.00000000000E+00  0.41180232050E+03  0.41180232051E+03  0.25500000920E-02 0. -1.
        2   -1    0    0  501    0  0.00000000000E+00  0.00000000000E+00 -0.87496819549E+03  0.87496819549E+03  0.25500000920E-02 0.  1.
    10030    2    1    2    0    0  0.00000000000E+00  0.00000000000E+00 -0.46316587499E+03  0.12867705160E+04  0.12005231081E+04 0.  0.
        2    1    3    3  502    0 -0.16721829295E+03  0.20798855870E+03  0.34471778816E+03  0.43594902400E+03  0.25500000920E-02 0. -1.
       -2    1    3    3    0  502  0.16721829295E+03 -0.20798855870E+03 -0.80788366315E+03  0.85082149199E+03  0.25500000920E-02 0.  1.
</event>
<event>
 5   0  0.5732931E-05  0.1199881E+04  0.7818609E-02  0.9112960E-01
       -1   -1    0    0    0  501  0.00000000000E+00  0.00000000000E+00  0.31820615018E+03  0.31820615022E+03  0.50400001928E-02 0.  1.
        1   -1    0    0  501    0  0.00000000000E+00  0.00000000000E+00 -0.11311182353E+04  0.11311182353E+04  0.50400001928E-02 0. -1.
    10030    2    1    2    0    0  0.00000000000E+00  0.00000000000E+00 -0.81291208514E+03  0.14493243855E+04  0.11998812926E+04 0.  0.
        4    1    3    3  502    0 -0.55140673125E+03  0.21003448370E+03 -0.27544983413E+03  0.65118207256E+03  0.12699999809E+01 0.  1.
       -4    1    3    3    0  502  0.55140673125E+03 -0.21003448370E+03 -0.53746225101E+03  0.79814231298E+03  0.12699999809E+01 0. -1.
</event>
<event>
 5   0  0.5625746E-05  0.1200338E+04  0.7818609E-02  0.9112561E-01
        1   -1    0    0  501    0  0.00000000000E+00  0.00000000000E+00  0.97313667163E+03  0.97313667164E+03  0.50400001928E-02 0. -1.
       -1   -1    0    0    0  501  0.00000000000E+00  0.00000000000E+00 -0.37014611967E+03  0.37014611970E+03  0.50400001928E-02 0.  1.
    10030    2    1    2    0    0  0.00000000000E+00  0.00000000000E+00  0.60299055196E+03  0.13432827913E+04  0.12003378907E+04 0.  0.
        5    1    3    3  502    0  0.23500873462E+03  0.36311767692E+03 -0.16410031278E+03  0.46263868763E+03  0.46999998093E+01 0.  1.
       -5    1    3    3    0  502 -0.23500873462E+03 -0.36311767692E+03  0.76709086474E+03  0.88064410372E+03  0.46999998093E+01 0. -1.
</event>
<event>
 5   0  0.1004006E-04  0.1199665E+04  0.7818609E-02  0.9113150E-01
       -2   -1    0    0    0  501  0.00000000000E+00  0.00000000000E+00  0.68126658501E+03  0.68126658501E+03  0.25500000920E-02 0. -1.
        2   -1    0    0  501    0  0.00000000000E+00  0.00000000000E+00 -0.52813273346E+03  0.52813273347E+03  0.25500000920E-02 0.  1.
    10030    2    1    2    0    0  0.00000000000E+00  0.00000000000E+00  0.15313385155E+03  0.12093993185E+04  0.11996652596E+04 0.  0.
        5    1    3    3  502    0 -0.25616540439E+02  0.26567754989E+02 -0.52696847683E+03  0.52828015136E+03  0.46999998093E+01 0.  1.
       -5    1    3    3    0  502  0.25616540439E+02 -0.26567754989E+02  0.68010232838E+03  0.68111916712E+03  0.46999998093E+01 0. -1.
</event>
<event>
 5   0  0.5625746E-05  0.1199139E+04  0.7818609E-02  0.9113610E-01
        1   -1    0    0  501    0  0.00000000000E+00  0.00000000000E+00  0.71762179833E+03  0.71762179835E+03  0.50400001928E-02 0.  1.
       -1   -1    0    0    0  501  0.00000000000E+00  0.00000000000E+00 -0.50093751148E+03  0.50093751150E+03  0.50400001928E-02 0. -1.
    10030    2    1    2    0    0  0.00000000000E+00  0.00000000000E+00  0.21668428686E+03  0.12185593099E+04  0.11991391543E+04 0.  0.
        5    1    3    3  502    0  0.88779973357E+02 -0.34814436639E+03 -0.37940524756E+03  0.52254838569E+03  0.46999998093E+01 0. -1.
       -5    1    3    3    0  502 -0.88779973357E+02  0.34814436639E+03  0.59608953441E+03  0.69601092416E+03  0.46999998093E+01 0.  1.
</event>
<event>
 5   0  0.5447807E-05  0.1200503E+04  0.7818609E-02  0.9112416E-01
        1   -1    0    0  501    0  0.00000000000E+00  0.00000000000E+00  0.17222600101E+04  0.17222600101E+04  0.50400001928E-02 0. -1.
       -1   -1    0    0    0  501  0.00000000000E+00  0.00000000000E+00 -0.20920309422E+03  0.20920309428E+03  0.50400001928E-02 0.  1.
    10030    2    1    2    0    0  0.00000000000E+00  0.00000000000E+00  0.15130569159E+04  0.19314631044E+04  0.12005034331E+04 0.  0.
        2    1    3    3  502    0  0.10549379078E+03 -0.52538369807E+03  0.32140170401E+03  0.62486480573E+03  0.25500000920E-02 0.  1.
       -2    1    3    3    0  502 -0.10549379078E+03  0.52538369807E+03  0.11916552119E+04  0.13065982987E+04  0.25500000920E-02 0. -1.
</event>
<event>
 5   0  0.1012657E-04  0.1200066E+04  0.7818609E-02  0.9112799E-01
       -2   -1    0    0    0  501  0.00000000000E+00  0.00000000000E+00  0.10324096936E+04  0.10324096936E+04  0.25500000920E-02 0.  1.
        2   -1    0    0  501    0  0.00000000000E+00  0.00000000000E+00 -0.34873706914E+03  0.34873706915E+03  0.25500000920E-02 0. -1.
    10030    2    1    2    0    0  0.00000000000E+00  0.00000000000E+00  0.68367262450E+03  0.13811467628E+04  0.12000658827E+04 0.  0.
        1    1    3    3  502    0  0.18423626610E+03  0.36389567919E+03 -0.16465635706E+03  0.43985768496E+03  0.50400001928E-02 0. -1.
       -1    1    3    3    0  502 -0.18423626610E+03 -0.36389567919E+03  0.84832898156E+03  0.94128907784E+03  0.50400001928E-02 0.  1.
</event>
<event>
 5   0  0.5732931E-05  0.1199836E+04  0.7818609E-02  0.9113000E-01
        1   -1    0    0  501    0  0.00000000000E+00  0.00000000000E+00  0.17156888385E+04  0.17156888385E+04  0.50400001928E-02 0.  1.
       -1   -1    0    0    0  501  0.00000000000E+00  0.00000000000E+00 -0.20977094605E+03  0.20977094611E+03  0.50400001928E-02 0. -1.
    10030    2    1    2    0    0  0.00000000000E+00  0.00000000000E+00  0.15059178925E+04  0.19254597846E+04  0.11998361069E+04 0.  0.
        4    1    3    3  502    0 -0.91999856981E+02 -0.36131495208E+03  0.15071791871E+04  0.15526117297E+04  0.12699999809E+01 0.  1.
       -4    1    3    3    0  502  0.91999856981E+02  0.36131495208E+03 -0.12612946638E+01  0.37284805490E+03  0.12699999809E+01 0. -1.
</event>
<event>
 5   0  0.1012657E-04  0.1200607E+04  0.7818609E-02  0.9112326E-01
       -2   -1    0    0    0  501  0.00000000000E+00  0.00000000000E+00  0.70468348670E+03  0.70468348671E+03  0.25500000920E-02 0. -1.
        2   -1    0    0  501    0  0.00000000000E+00  0.00000000000E+00 -0.51138448540E+03  0.51138448541E+03  0.25500000920E-02 0.  1.
    10030    2    1    2    0    0  0.00000000000E+00  0.00000000000E+00  0.19329900130E+03  0.12160679721E+04  0.12006068503E+04 0.  0.
        1    1    3    3  502    0 -0.89558166583E+01  0.12760422868E+03  0.69071862974E+03  0.70246371531E+03  0.50400001928E-02 0. -1.
       -1    1    3    3    0  502  0.89558166583E+01 -0.12760422868E+03 -0.49741962844E+03  0.51360425680E+03  0.50400001928E-02 0.  1.
</event>
<event>
 5   0  0.1012657E-04  0.1199696E+04  0.7818609E-02  0.9113123E-01
        2   -1    0    0  501    0  0.00000000000E+00  0.00000000000E+00  0.48600884953E+03  0.48600884953E+03  0.25500000920E-02 0.  1.
       -2   -1    0    0    0  501  0.00000000000E+00  0.00000000000E+00 -0.74035144918E+03  0.74035144918E+03  0.25500000920E-02 0. -1.
    10030    2    1    2    0    0  0.00000000000E+00  0.00000000000E+00 -0.25434259965E+03  0.12263602987E+04  0.11996955548E+04 0.  0.
        1    1    3    3  502    0 -0.13976344140E+03 -0.30456941215E+03  0.38140142725E+03  0.50770404283E+03  0.50400001928E-02 0.  1.
       -1    1    3    3    0  502  0.13976344140E+03  0.30456941215E+03 -0.63574402690E+03  0.71865625589E+03  0.50400001928E-02 0. -1.
</event>
<event>
 5   0  0.5732931E-05  0.1200115E+04  0.7818609E-02  0.9112756E-01
        1   -1    0    0  501    0  0.00000000000E+00  0.00000000000E+00  0.90126901640E+03  0.90126901641E+03  0.50400001928E-02 0. -1.
       -1   -1    0    0    0  501  0.00000000000E+00  0.00000000000E+00 -0.39951332327E+03  0.39951332330E+03  0.50400001928E-02 0.  1.
    10030    2    1    2    0    0  0.00000000000E+00  0.00000000000E+00  0.50175569313E+03  0.13007823397E+04  0.12001149610E+04 0.  0.
        4    1    3    3  502    0 -0.12050486862E+03  0.30097191599E+03  0.79817020275E+03  0.86150032097E+03  0.12699999809E+01 0. -1.
       -4    1    3    3    0  502  0.12050486862E+03 -0.30097191599E+03 -0.29641450962E+03  0.43928201874E+03  0.12699999809E+01 0.  1.
</event>
<event>
 5   0  0.5745487E-05  0.1200513E+04  0.7818609E-02  0.9112408E-01
        1   -1    0    0  501    0  0.00000000000E+00  0.00000000000E+00  0.16873771365E+04  0.16873771365E+04  0.50400001928E-02 0.  1.
       -1   -1    0    0    0  501  0.00000000000E+00  0.00000000000E+00 -0.21353126143E+03  0.21353126149E+03  0.50400001928E-02 0. -1.
    10030    2    1    2    0    0  0.00000000000E+00  0.00000000000E+00  0.14738458751E+04  0.19009083980E+04  0.12005128380E+04 0.  0.
        3    1    3    3  502    0  0.76876952583E+02 -0.25620807243E+03  0.15877851262E+04  0.16101597000E+04  0.10100000352E+00 0.  1.
       -3    1    3    3    0  502 -0.76876952583E+02  0.25620807243E+03 -0.11393925119E+03  0.29074869798E+03  0.10100000352E+00 0. -1.
</event>
<event>
 5   0  0.9838215E-05  0.1200046E+04  0.7818609E-02  0.9112816E-01
       -2   -1    0    0    0  501  0.00000000000E+00  0.00000000000E+00  0.24829032163E+03  0.24829032164E+03  0.25500000920E-02 0.  1.
        2   -1    0    0  501    0  0.00000000000E+00  0.00000000000E+00 -0.14500277892E+04  0.14500277892E+04  0.25500000920E-02 0. -1.
    10030    2    1    2    0    0  0.00000000000E+00  0.00000000000E+00 -0.12017374676E+04  0.16983181108E+04  0.12000464427E+04 0.  0.
        4    1    3    3  502    0 -0.11952566632E+03 -0.37566481163E+03 -0.12410317625E+04  0.13021412688E+04  0.12699999809E+01 0. -1.
       -4    1    3    3    0  502  0.11952566632E+03  0.37566481163E+03  0.39294294941E+02  0.39617684198E+03  0.12699999809E+01 0.  1.
</event>
<event>
 5   0  0.5732931E-05  0.1200618E+04  0.7818609E-02  0.9112315E-01
       -1   -1    0    0    0  501  0.00000000000E+00  0.00000000000E+00  0.11831224727E+03  0.11831224738E+03  0.50400001928E-02 0. -1.
        1   -1    0    0  501    0  0.00000000000E+00  0.00000000000E+00 -0.30459329030E+04  0.30459329030E+04  0.50400001928E-02 0.  1.
    10030    2    1    2    0    0  0.00000000000E+00  0.00000000000E+00 -0.29276206557E+04  0.31642451504E+04  0.12006184522E+04 0.  0.
        4    1    3    3  502    0  0.12261023515E+03  0.11259428824E+03 -0.29838839565E+04  0.29885240207E+04  0.12699999809E+01 0.  1.
       -4    1    3    3    0  502 -0.12261023515E+03 -0.11259428824E+03  0.56263300761E+02  0.17572112969E+03  0.12699999809E+01 0. -1.
</event>
<event>
 5   0  0.5620246E-05  0.1200103E+04  0.7818609E-02  0.9112766E-01
       -1   -1    0    0    0  501  0.00000000000E+00  0.00000000000E+00  0.17088380199E+03  0.17088380206E+03  0.50400001928E-02 0. -1.
        1   -1    0    0  501    0  0.00000000000E+00  0.00000000000E+00 -0.21070579044E+04  0.21070579044E+04  0.50400001928E-02 0.  1.
    10030    2    1    2    0    0  0.00000000000E+00  0.00000000000E+00 -0.19361741024E+04  0.22779417065E+04  0.12001034385E+04 0.  0.
        1    1    3    3  502    0  0.43570786402E+01  0.33590768896E+03 -0.24338803761E+02  0.33681647381E+03  0.50400001928E-02 0. -1.
       -1    1    3    3    0  502 -0.43570786402E+01 -0.33590768896E+03 -0.19118352986E+04  0.19411252326E+04  0.50400001928E-02 0.  1.
</event>
<event>
 5   0  0.5625746E-05  0.1201024E+04  0.7818609E-02  0.9111961E-01
       -1   -1    0    0    0  501  0.00000000000E+00  0.00000000000E+00  0.75447873020E+03  0.75447873022E+03  0.50400001928E-02 0.  1.
        1   -1    0    0  501    0  0.00000000000E+00  0.00000000000E+00 -0.47796543717E+03  0.47796543720E+03  0.50400001928E-02 0. -1.
    10030    2    1    2    0    0  0.00000000000E+00  0.00000000000E+00  0.27651329303E+03  0.12324441674E+04  0.12010241565E+04 0.  0.
        5    1    3    3  502    0 -0.17656166904E+03  0.34374458276E+03 -0.33339614235E+03  0.51040125282E+03  0.46999998093E+01 0. -1.
       -5    1    3    3    0  502  0.17656166904E+03 -0.34374458276E+03  0.60990943538E+03  0.72204291459E+03  0.46999998093E+01 0.  1.
</event>
<event>
 5   0  0.9838215E-05  0.1199802E+04  0.7818609E-02  0.9113030E-01
       -2   -1    0    0    0  501  0.00000000000E+00  0.00000000000E+00  0.33676317110E+03  0.33676317111E+03  0.25500000920E-02 0. -1.
        2   -1    0    0  501    0  0.00000000000E+00  0.00000000000E+00 -0.10686483646E+04  0.10686483646E+04  0.25500000920E-02 0.  1.
    10030    2    1    2    0    0  0.00000000000E+00  0.00000000000E+00 -0.73188519347E+03  0.14054115357E+04  0.11998023372E+04 0.  0.
        4    1    3    3  502    0 -0.75233007764E+01 -0.58893574696E+03 -0.23249960439E+03  0.63321370250E+03  0.12699999809E+01 0. -1.
       -4    1    3    3    0  502  0.75233007764E+01  0.58893574696E+03 -0.49938558908E+03  0.77219783319E+03  0.12699999809E+01 0.  1.
</event>
<event>
 5   0  0.9941209E-05  0.1199763E+04  0.7818609E-02  0.9113064E-01
        2   -1    0    0  501    0  0.00000000000E+00  0.00000000000E+00  0.10621200806E+04  0.10621200806E+04  0.25500000920E-02 0.  1.
       -2   -1    0    0    0  501  0.00000000000E+00  0.00000000000E+00 -0.33881095427E+03  0.33881095428E+03  0.25500000920E-02 0. -1.
    10030    2    1    2    0    0  0.00000000000E+00  0.00000000000E+00  0.72330912634E+03  0.14009310349E+04  0.11997631734E+04 0.  0.
        2    1    3    3  502    0  0.41214124056E+02 -0.41815285139E+03 -0.13827791834E+03  0.44234736786E+03  0.25500000920E-02 0. -1.
       -2    1    3    3    0  502 -0.41214124056E+02  0.41815285139E+03  0.86158704468E+03  0.95858366704E+03  0.25500000920E-02 0.  1.
</event>
<event>
 5   0  0.5625746E-05  0.1200242E+04  0.7818609E-02  0.9112645E-01
        1   -1    0    0  501    0  0.00000000000E+00  0.00000000000E+00  0.10967997206E+04  0.10967997206E+04  0.50400001928E-02 0. -1.
       -1   -1    0    0    0  501  0.00000000000E+00  0.00000000000E+00 -0.32836005750E+03  0.32836005754E+03  0.50400001928E-02 0.  1.
    10030    2    1    2    0    0  0.00000000000E+00  0.00000000000E+00  0.76843966306E+03  0.14251597781E+04  0.12002420078E+04 0.  0.
        5    1    3    3  502    0 -0.16163800444E+03 -0.44592397635E+03 -0.52295692927E+02  0.47721270589E+03  0.46999998093E+01 0.  1.
       -5    1    3    3    0  502  0.16163800444E+03  0.44592397635E+03  0.82073535599E+03  0.94794707222E+03  0.46999998093E+01 0. -1.
</event>
<event>
 5   0  0.5620246E-05  0.1200164E+04  0.7818609E-02  0.9112713E-01
       -1   -1    0    0    0  501  0.00000000000E+00  0.00000000000E+00  0.63317312545E+03  0.63317312547E+03  0.50400001928E-02 0.  1.
        1   -1    0    0  501    0  0.00000000000E+00  0.00000000000E+00 -0.56872041394E+03  0.56872041396E+03  0.50400001928E-02 0. -1.
    10030    2    1    2    0    0  0.00000000000E+00  0.00000000000E+00  0.64452711508E+02  0.12018935394E+04  0.12001641255E+04 0.  0.
        1    1    3    3  502    0 -0.49199086147E+03 -0.44096478419E+02  0.37345034197E+03  0.61924523827E+03  0.50400001928E-02 0.  1.
       -1    1    3    3    0  502  0.49199086147E+03  0.44096478419E+02 -0.30899763046E+03  0.58264830115E+03  0.50400001928E-02 0. -1.
</event>
<event>
 5   0  0.1023063E-04  0.1200052E+04  0.7818609E-02  0.9112811E-01
        2   -1    0    0  501    0  0.00000000000E+00  0.00000000000E+00  0.17091384059E+04  0.17091384059E+04  0.25500000920E-02 0. -1.
       -2   -1    0    0    0  501  0.00000000000E+00  0.00000000000E+00 -0.21065078892E+03  0.21065078893E+03  0.25500000920E-02 0.  1.
    10030    2    1    2    0    0  0.00000000000E+00  0.00000000000E+00  0.14984876169E+04  0.19197891948E+04  0.12000522548E+04 0.  0.
        3    1    3    3  502    0 -0.46334520876E+03  0.35780891598E+03  0.53873566345E+03  0.79558288576E+03  0.10100000352E+00 0.  1.
       -3    1    3    3    0  502  0.46334520876E+03 -0.35780891598E+03  0.95975195350E+03  0.11242063090E+04  0.10100000352E+00 0. -1.
</event>
<event>
 5   0  0.9838215E-05  0.1199728E+04  0.7818609E-02  0.9113094E-01
        2   -1    0    0  501    0  0.00000000000E+00  0.00000000000E+00  0.16768603318E+04  0.16768603318E+04  0.25500000920E-02 0.  1.
       -2   -1    0    0    0  501  0.00000000000E+00  0.00000000000E+00 -0.21458976299E+03  0.21458976301E+03  0.25500000920E-02 0. -1.
    10030    2    1    2    0    0  0.00000000000E+00  0.00000000000E+00  0.14622705688E+04  0.18914500948E+04  0.11997284046E+04 0.  0.
        4    1    3    3  502    0 -0.26777079659E+03 -0.41892928587E+03  0.20202791305E+03  0.53667479596E+03  0.12699999809E+01 0.  1.
       -4    1    3    3    0  502  0.26777079659E+03  0.41892928587E+03  0.12602426557E+04  0.13547752988E+04  0.12699999809E+01 0. -1.
</event>
<event>
 5   0  0.9838215E-05  0.1200006E+04  0.7818609E-02  0.9112851E-01
        2   -1    0    0  501    0  0.00000000000E+00  0.00000000000E+00  0.83976248672E+03  0.83976248673E+03  0.25500000920E-02 0. -1.
       -2   -1    0    0    0  501  0.00000000000E+00  0.00000000000E+00 -0.42869692741E+03  0.42869692742E+03  0.25500000920E-02 0.  1.
    10030    2    1    2    0    0  0.00000000000E+00  0.00000000000E+00  0.41106555931E+03  0.12684594141E+04  0.12000059964E+04 0.  0.
        4    1    3    3  502    0 -0.10850249074E+03  0.16118893496E+03 -0.39451774256E+03  0.43977326583E+03  0.12699999809E+01 0.  1.
       -4    1    3    3    0  502  0.10850249074E+03 -0.16118893496E+03  0.80558330187E+03  0.82868614831E+03  0.12699999809E+01 0. -1.
</event>
<event>
 5   0  0.5745487E-05  0.1198791E+04  0.7818609E-02  0.9113915E-01
        1   -1    0    0  501    0  0.00000000000E+00  0.00000000000E+00  0.58119743820E+03  0.58119743822E+03  0.50400001928E-02 0. -1.
       -1   -1    0    0    0  501  0.00000000000E+00  0.00000000000E+00 -0.61816354967E+03  0.61816354969E+03  0.50400001928E-02 0.  1.
    10030    2    1    2    0    0  0.00000000000E+00  0.00000000000E+00 -0.36966111469E+02  0.11993609879E+04  0.11987911769E+04 0.  0.
        3    1    3    3  502    0 -0.25129085176E+02  0.16463488295E+03  0.55758481840E+03  0.58192521472E+03  0.10100000352E+00 0. -1.
       -3    1    3    3    0  502  0.25129085176E+02 -0.16463488295E+03 -0.59455092987E+03  0.61743577320E+03  0.10100000352E+00 0.  1.
</event>
<event>
 5   0  0.5745487E-05  0.1199687E+04  0.7818609E-02  0.9113130E-01
        1   -1    0    0  501    0  0.00000000000E+00  0.00000000000E+00  0.44004052655E+03  0.44004052658E+03  0.50400001928E-02 0.  1.
       -1   -1    0    0    0  501  0.00000000000E+00  0.00000000000E+00 -0.81767996295E+03  0.81767996297E+03  0.50400001928E-02 0. -1.
    10030    2    1    2    0    0  0.00000000000E+00  0.00000000000E+00 -0.37763943640E+03  0.12577204895E+04  0.11996871617E+04 0.  0.
        3    1    3    3  502    0 -0.18373331532E+03 -0.26739527031E+03 -0.71775947989E+03  0.78767813408E+03  0.10100000352E+00 0. -1.
       -3    1    3    3    0  502  0.18373331532E+03  0.26739527031E+03  0.34012004349E+03  0.47004235546E+03  0.10100000352E+00 0.  1.
</event>
<event>
 5   0  0.5620246E-05  0.1199979E+04  0.7818609E-02  0.9112875E-01
        1   -1    0    0  501    0  0.00000000000E+00  0.00000000000E+00  0.86181895599E+03  0.86181895600E+03  0.50400001928E-02 0. -1.
       -1   -1    0    0    0  501  0.00000000000E+00  0.00000000000E+00 -0.41770682424E+03  0.41770682427E+03  0.50400001928E-02 0.  1.
    10030    2    1    2    0    0  0.00000000000E+00  0.00000000000E+00  0.44411213175E+03  0.12795257803E+04  0.11999794318E+04 0.  0.
        1    1    3    3  502    0  0.50430536500E+03  0.19432017821E+03 -0.55800768172E+02  0.54332122964E+03  0.50400001928E-02 0. -1.
       -1    1    3    3    0  502 -0.50430536500E+03 -0.19432017821E+03  0.49991289993E+03  0.73620455063E+03  0.50400001928E-02 0.  1.
</event>
<event>
 5   0  0.5447807E-05  0.1199884E+04  0.7818609E-02  0.9112958E-01
        1   -1    0    0  501    0  0.00000000000E+00  0.00000000000E+00  0.91601320234E+03  0.91601320235E+03  0.50400001928E-02 0. -1.
       -1   -1    0    0    0  501  0.00000000000E+00  0.00000000000E+00 -0.39293176983E+03  0.39293176986E+03  0.50400001928E-02 0.  1.
    10030    2    1    2    0    0  0.00000000000E+00  0.00000000000E+00  0.52308143251E+03  0.13089449722E+04  0.11998844758E+04 0.  0.
        2    1    3    3  502    0 -0.77751996602E+02  0.48463439940E+03 -0.11480109204E+03  0.50407853038E+03  0.25500000920E-02 0.  1.
       -2    1    3    3    0  502  0.77751996602E+02 -0.48463439940E+03  0.63788252455E+03  0.80486644183E+03  0.25500000920E-02 0. -1.
</event>
<event>
 5   0  0.1023063E-04  0.1200297E+04  0.7818609E-02  0.9112596E-01
        2   -1    0    0  501    0  0.00000000000E+00  0.00000000000E+00  0.25750480206E+04  0.25750480206E+04  0.25500000920E-02 0.  1.
       -2   -1    0    0    0  501  0.00000000000E+00  0.00000000000E+00 -0.13987254406E+03  0.13987254408E+03  0.25500000920E-02 0. -1.
    10030    2    1    2    0    0  0.00000000000E+00  0.00000000000E+00  0.24351754765E+04  0.27149205647E+04  0.12002974927E+04 0.  0.
        3    1    3    3  502    0  0.30819348452E+01  0.43183688193E+03  0.27493761043E+03  0.51194071018E+03  0.10100000352E+00 0. -1.
       -3    1    3    3    0  502 -0.30819348452E+01 -0.43183688193E+03  0.21602378661E+04  0.22029798545E+04  0.10100000352E+00 0.  1.
</event>
<event>
 5   0  0.1023063E-04  0.1199706E+04  0.7818609E-02  0.9113114E-01
        2   -1    0    0  501    0  0.00000000000E+00  0.00000000000E+00  0.11613849304E+04  0.11613849304E+04  0.25500000920E-02 0. -1.
       -2   -1    0    0    0  501  0.00000000000E+00  0.00000000000E+00 -0.30982277533E+03  0.30982277534E+03  0.25500000920E-02 0.  1.
    10030    2    1    2    0    0  0.00000000000E+00  0.00000000000E+00  0.85156215511E+03  0.14712077058E+04  0.11997058012E+04 0.  0.
        3    1    3    3  502    0 -0.46043100442E+03  0.30509752321E+03  0.71270098857E+03  0.90167838934E+03  0.10100000352E+00 0. -1.
       -3    1    3    3    0  502  0.46043100442E+03 -0.30509752321E+03  0.13886116654E+03  0.56952931643E+03  0.10100000352E+00 0.  1.
</event>
<event>
 5   0  0.5745487E-05  0.1199652E+04  0.7818609E-02  0.9113161E-01
       -1   -1    0    0    0  501  0.00000000000E+00  0.00000000000E+00  0.45413389696E+03  0.45413389699E+03  0.50400001928E-02 0. -1.
        1   -1    0    0  501    0  0.00000000000E+00  0.00000000000E+00 -0.79225810104E+03  0.79225810105E+03  0.50400001928E-02 0.  1.
    10030    2    1    2    0    0  0.00000000000E+00  0.00000000000E+00 -0.33812420408E+03  0.12463919980E+04  0.11996520476E+04 0.  0.
        3    1    3    3  502    0 -0.14999534063E+03 -0.57945602343E+03 -0.12851114546E+03  0.61219523847E+03  0.10100000352E+00 0.  1.
       -3    1    3    3    0  502  0.14999534063E+03  0.57945602343E+03 -0.20961305862E+03  0.63419675957E+03  0.10100000352E+00 0. -1.
</event>
<event>
 5   0  0.9941209E-05  0.1201038E+04  0.7818609E-02  0.9111948E-01
       -2   -1    0    0    0  501  0.00000000000E+00  0.00000000000E+00  0.36141686240E+03  0.36141686241E+03  0.25500000920E-02 0.  1.
        2   -1    0    0  501    0  0.00000000000E+00  0.00000000000E+00 -0.99780437933E+03  0.99780437934E+03  0.25500000920E-02 0. -1.
    10030    2    1    2    0    0  0.00000000000E+00  0.00000000000E+00 -0.63638751693E+03  0.13592212417E+04  0.12010384308E+04 0.  0.
        2    1    3    3  502    0  0.57448100295E+03  0.21393098517E+02 -0.51465866767E+03  0.77159551038E+03  0.25500000920E-02 0. -1.
       -2    1    3    3    0  502 -0.57448100295E+03 -0.21393098517E+02 -0.12172884926E+03  0.58762573137E+03  0.25500000920E-02 0.  1.
</event>
<event>
 5   0  0.1012657E-04  0.1194005E+04  0.7818609E-02  0.9118120E-01
       -2   -1    0    0    0  501  0.00000000000E+00  0.00000000000E+00  0.42104784546E+03  0.42104784546E+03  0.25500000920E-02 0. -1.
        2   -1    0    0  501    0  0.00000000000E+00  0.00000000000E+00 -0.84648817443E+03  0.84648817443E+03  0.25500000920E-02 0.  1.
    10030    2    1    2    0    0  0.00000000000E+00  0.00000000000E+00 -0.42544032897E+03  0.12675360199E+04  0.11940050621E+04 0.  0.
        1    1    3    3  502    0  0.55146101208E+02 -0.67657321499E+02 -0.83967792297E+03  0.84420235724E+03  0.50400001928E-02 0.  1.
       -1    1    3    3    0  502 -0.55146101208E+02  0.67657321499E+02  0.41423759400E+03  0.42333366265E+03  0.50400001928E-02 0. -1.
</event>
<event>
 5   0  0.9838215E-05  0.1198527E+04  0.7818609E-02  0.9114147E-01
        2   -1    0    0  501    0  0.00000000000E+00  0.00000000000E+00  0.34663051036E+03  0.34663051037E+03  0.25500000920E-02 0. -1.
       -2   -1    0    0    0  501  0.00000000000E+00  0.00000000000E+00 -0.10360209346E+04  0.10360209346E+04  0.25500000920E-02 0.  1.
    10030    2    1    2    0    0  0.00000000000E+00  0.00000000000E+00 -0.68939042422E+03  0.13826514449E+04  0.11985265375E+04 0.  0.
        4    1    3    3  502    0  0.15500201566E+03 -0.40483170707E+03 -0.82202396148E+03  0.92932197975E+03  0.12699999809E+01 0.  1.
       -4    1    3    3    0  502 -0.15500201566E+03  0.40483170707E+03  0.13263353726E+03  0.45332946519E+03  0.12699999809E+01 0. -1.
</event>
<event>
 5   0  0.5625746E-05  0.1200111E+04  0.7818609E-02  0.9112760E-01
       -1   -1    0    0    0  501  0.00000000000E+00  0.00000000000E+00  0.49325158734E+03  0.49325158737E+03  0.50400001928E-02 0.  1.
        1   -1    0    0  501    0  0.00000000000E+00  0.00000000000E+00 -0.72998522546E+03  0.72998522547E+03  0.50400001928E-02 0. -1.
    10030    2    1    2    0    0  0.00000000000E+00  0.00000000000E+00 -0.23673363812E+03  0.12232368128E+04  0.12001106136E+04 0.  0.
        5    1    3    3  502    0 -0.57583284073E+03  0.16714793569E+03 -0.14166306852E+03  0.61612694134E+03  0.46999998093E+01 0.  1.
       -5    1    3    3    0  502  0.57583284073E+03 -0.16714793569E+03 -0.95070569593E+02  0.60710987150E+03  0.46999998093E+01 0. -1.
</event>
<event>
 5   0  0.1012657E-04  0.1199845E+04  0.7818609E-02  0.9112993E-01
       -2   -1    0    0    0  501  0.00000000000E+00  0.00000000000E+00  0.37238983048E+03  0.37238983049E+03  0.25500000920E-02 0. -1.
        2   -1    0    0  501    0  0.00000000000E+00  0.00000000000E+00 -0.96647849943E+03  0.96647849943E+03  0.25500000920E-02 0.  1.
    10030    2    1    2    0    0  0.00000000000E+00  0.00000000000E+00 -0.59408866895E+03  0.13388683299E+04  0.11998445976E+04 0.  0.
        1    1    3    3  502    0  0.31983664133E+03  0.20536264688E+03 -0.81497722268E+03  0.89925367244E+03  0.50400001928E-02 0.  1.
       -1    1    3    3    0  502 -0.31983664133E+03 -0.20536264688E+03  0.22088855373E+03  0.43961465748E+03  0.50400001928E-02 0. -1.
</event>
<event>
 5   0  0.1023063E-04  0.1200109E+04  0.7818609E-02  0.9112761E-01
        2   -1    0    0  501    0  0.00000000000E+00  0.00000000000E+00  0.20617124554E+04  0.20617124554E+04  0.25500000920E-02 0.  1.
       -2   -1    0    0    0  501  0.00000000000E+00  0.00000000000E+00 -0.17464399209E+03  0.17464399211E+03  0.25500000920E-02 0. -1.
    10030    2    1    2    0    0  0.00000000000E+00  0.00000000000E+00  0.18870684633E+04  0.22363564475E+04  0.12001094846E+04 0.  0.
        3    1    3    3  502    0  0.48005834928E+02 -0.75467665591E+02  0.20492208401E+04  0.20511718578E+04  0.10100000352E+00 0.  1.
       -3    1    3    3    0  502 -0.48005834928E+02  0.75467665591E+02 -0.16215237681E+03  0.18518458965E+03  0.10100000352E+00 0. -1.
</event>
<event>
 5   0  0.5732931E-05  0.1199162E+04  0.7818609E-02  0.9113590E-01
        1   -1    0    0  501    0  0.00000000000E+00  0.00000000000E+00  0.13041013019E+04  0.13041013019E+04  0.50400001928E-02 0. -1.
       -1   -1    0    0    0  501  0.00000000000E+00  0.00000000000E+00 -0.27566672090E+03  0.27566672095E+03  0.50400001928E-02 0.  1.
    10030    2    1    2    0    0  0.00000000000E+00  0.00000000000E+00  0.10284345810E+04  0.15797680228E+04  0.11991619234E+04 0.  0.
        4    1    3    3  502    0 -0.16429020685E+03  0.52070207859E+03  0.84058483224E+03  0.10023504376E+04  0.12699999809E+01 0. -1.
       -4    1    3    3    0  502  0.16429020685E+03 -0.52070207859E+03  0.18784974874E+03  0.57741758521E+03  0.12699999809E+01 0.  1.
</event>
<event>
 5   0  0.1004006E-04  0.1198756E+04  0.7818609E-02  0.9113946E-01
        2   -1    0    0  501    0  0.00000000000E+00  0.00000000000E+00  0.39266231214E+03  0.39266231215E+03  0.25500000920E-02 0.  1.
       -2   -1    0    0    0  501  0.00000000000E+00  0.00000000000E+00 -0.91491888232E+03  0.91491888233E+03  0.25500000920E-02 0. -1.
    10030    2    1    2    0    0  0.00000000000E+00  0.00000000000E+00 -0.52225657018E+03  0.13075811945E+04  0.11987562951E+04 0.  0.
        5    1    3    3  502    0 -0.60575859269E+02  0.78650166123E+02  0.38361197567E+03  0.39627707634E+03  0.46999998093E+01 0.  1.
       -5    1    3    3    0  502  0.60575859269E+02 -0.78650166123E+02 -0.90586854586E+03  0.91130411813E+03  0.46999998093E+01 0. -1.
</event>
<event>
 5   0  0.9941209E-05  0.1200368E+04  0.7818609E-02  0.9112534E-01
        2   -1    0    0  501    0  0.00000000000E+00  0.00000000000E+00  0.12109415259E+04  0.12109415259E+04  0.25500000920E-02 0.  1.
       -2   -1    0    0    0  501  0.00000000000E+00  0.00000000000E+00 -0.29747194591E+03  0.29747194592E+03  0.25500000920E-02 0. -1.
    10030    2    1    2    0    0  0.00000000000E+00  0.00000000000E+00  0.91346957999E+03  0.15084134718E+04  0.12003684969E+04 0.  0.
        2    1    3    3  502    0  0.27772912883E+03 -0.32597500107E+03 -0.71687688758E+02  0.43420305739E+03  0.25500000920E-02 0. -1.
       -2    1    3    3    0  502 -0.27772912883E+03  0.32597500107E+03  0.98515726875E+03  0.10742104144E+04  0.25500000920E-02 0.  1.
</event>
<event>
 5   0  0.9941209E-05  0.1200045E+04  0.7818609E-02  0.9112818E-01
        2   -1    0    0  501    0  0.00000000000E+00  0.00000000000E+00  0.69890753483E+03  0.69890753483E+03  0.25500000920E-02 0.  1.
       -2   -1    0    0    0  501  0.00000000000E+00  0.00000000000E+00 -0.51512781335E+03  0.51512781336E+03  0.25500000920E-02 0. -1.
    10030    2    1    2    0    0  0.00000000000E+00  0.00000000000E+00  0.18377972148E+03  0.12140353482E+04  0.12000445161E+04 0.  0.
        2    1    3    3  502    0  0.43706655067E+02 -0.88313947711E+02 -0.50688648372E+03  0.51637537939E+03  0.25500000920E-02 0. -1.
       -2    1    3    3    0  502 -0.43706655067E+02  0.88313947711E+02  0.69066620520E+03  0.69765996880E+03  0.25500000920E-02 0.  1.
</event>
<event>
 5   0  0.5745487E-05  0.1203801E+04  0.7818609E-02  0.9109536E-01
       -1   -1    0    0    0  501  0.00000000000E+00  0.00000000000E+00  0.23349239238E+03  0.23349239243E+03  0.50400001928E-02 0. -1.
        1   -1    0    0  501    0  0.00000000000E+00  0.00000000000E+00 -0.15515897356E+04  0.15515897356E+04  0.50400001928E-02 0.  1.
    10030    2    1    2    0    0  0.00000000000E+00  0.00000000000E+00 -0.13180973432E+04  0.17850821280E+04  0.12038013115E+04 0.  0.
        3    1    3    3  502    0  0.21296418448E+03  0.43725548097E+03 -0.13322859497E+03  0.50427766977E+03  0.10100000352E+00 0. -1.
       -3    1    3    3    0  502 -0.21296418448E+03 -0.43725548097E+03 -0.11848687483E+04  0.12808044583E+04  0.10100000352E+00 0.  1.
</event>
<event>
 5   0  0.5447807E-05  0.1199805E+04  0.7818609E-02  0.9113028E-01
       -1   -1    0    0    0  501  0.00000000000E+00  0.00000000000E+00  0.86687102799E+03  0.86687102801E+03  0.50400001928E-02 0.  1.
        1   -1    0    0  501    0  0.00000000000E+00  0.00000000000E+00 -0.41515150253E+03  0.41515150256E+03  0.50400001928E-02 0. -1.
    10030    2    1    2    0    0  0.00000000000E+00  0.00000000000E+00  0.45171952546E+03  0.12820225306E+04  0.11998046671E+04 0.  0.
        2    1    3    3  502    0  0.17764071430E+03  0.23897992628E+03  0.78233021438E+03  0.83708314574E+03  0.25500000920E-02 0.  1.
       -2    1    3    3    0  502 -0.17764071430E+03 -0.23897992628E+03 -0.33061068892E+03  0.44493938483E+03  0.25500000920E-02 0. -1.
</event>
<event>
 5   0  0.1012657E-04  0.1200353E+04  0.7818609E-02  0.9112548E-01
        2   -1    0    0  501    0  0.00000000000E+00  0.00000000000E+00  0.65831499939E+03  0.65831499940E+03  0.25500000920E-02 0.  1.
       -2   -1    0    0    0  501  0.00000000000E+00  0.00000000000E+00 -0.54717248017E+03  0.54717248018E+03  0.25500000920E-02 0. -1.
    10030    2    1    2    0    0  0.00000000000E+00  0.00000000000E+00  0.11114251922E+03  0.12054874796E+04  0.12003530330E+04 0.  0.
        1    1    3    3  502    0 -0.64210461181E+02 -0.18999883992E+03 -0.51252436421E+03  0.55036693799E+03  0.50400001928E-02 0. -1.
       -1    1    3    3    0  502  0.64210461181E+02  0.18999883992E+03  0.62366688343E+03  0.65512054159E+03  0.50400001928E-02 0.  1.
</event>
<event>
 5   0  0.3839750E-05  0.1199609E+04  0.7818609E-02  0.9113198E-01
       -4   -1    0    0    0  501  0.00000000000E+00  0.00000000000E+00  0.46433760098E+03  0.46433933775E+03  0.12699999809E+01 0. -1.
        4   -1    0    0  501    0  0.00000000000E+00  0.00000000000E+00 -0.77478975107E+03  0.77479079193E+03  0.12699999809E+01 0.  1.
    10030    2    1    2    0    0  0.00000000000E+00  0.00000000000E+00 -0.31045215009E+03  0.12391301297E+04  0.11996094951E+04 0.  0.
        3    1    3    3  502    0 -0.37404520276E+03 -0.27994394142E+03 -0.54376609076E+03  0.71691003321E+03  0.10100000352E+00 0. -1.
       -3    1    3    3    0  502  0.37404520276E+03  0.27994394142E+03  0.23331394067E+03  0.52222009647E+03  0.10100000352E+00 0.  1.
</event>
<event>
 5   0  0.5625746E-05  0.1195934E+04  0.7818609E-02  0.9116423E-01
       -1   -1    0    0    0  501  0.00000000000E+00  0.00000000000E+00  0.24768023036E+03  0.24768023041E+03  0.50400001928E-02 0. -1.
        1   -1    0    0  501    0  0.00000000000E+00  0.00000000000E+00 -0.14436546219E+04  0.14436546219E+04  0.50400001928E-02 0.  1.
    10030    2    1    2    0    0  0.00000000000E+00  0.00000000000E+00 -0.11959743915E+04  0.16913348523E+04  0.11959342948E+04 0.  0.
        5    1    3    3  502    0 -0.27028074840E+03  0.70623062963E+02  0.14969280344E+03  0.31696896595E+03  0.46999998093E+01 0. -1.
       -5    1    3    3    0  502  0.27028074840E+03 -0.70623062963E+02 -0.13456671950E+04  0.13743658864E+04  0.46999998093E+01 0.  1.
</event>
<event>
 5   0  0.1004006E-04  0.1199479E+04  0.7818609E-02  0.9113312E-01
       -2   -1    0    0    0  501  0.00000000000E+00  0.00000000000E+00  0.45253341675E+03  0.45253341675E+03  0.25500000920E-02 0.  1.
        2   -1    0    0  501    0  0.00000000000E+00  0.00000000000E+00 -0.79483132142E+03  0.79483132143E+03  0.25500000920E-02 0. -1.
    10030    2    1    2    0    0  0.00000000000E+00  0.00000000000E+00 -0.34229790468E+03  0.12473647382E+04  0.11994794431E+04 0.  0.
        5    1    3    3  502    0  0.73864262405E+02  0.41725758089E+03  0.27018214864E+03  0.50257367770E+03  0.46999998093E+01 0.  1.
       -5    1    3    3    0  502 -0.73864262405E+02 -0.41725758089E+03 -0.61248005332E+03  0.74479106049E+03  0.46999998093E+01 0. -1.
</event>
<event>
 5   0  0.5447807E-05  0.1199424E+04  0.7818609E-02  0.9113361E-01
        1   -1    0    0  501    0  0.00000000000E+00  0.00000000000E+00  0.94048978756E+03  0.94048978758E+03  0.50400001928E-02 0.  1.
       -1   -1    0    0    0  501  0.00000000000E+00  0.00000000000E+00 -0.38241209750E+03  0.38241209753E+03  0.50400001928E-02 0. -1.
    10030    2    1    2    0    0  0.00000000000E+00  0.00000000000E+00  0.55807769007E+03  0.13229018851E+04  0.11994243159E+04 0.  0.
        2    1    3    3  502    0  0.95983558182E+02 -0.14515124859E+03  0.91203161142E+03  0.92848445794E+03  0.25500000920E-02 0.  1.
       -2    1    3    3    0  502 -0.95983558182E+02  0.14515124859E+03 -0.35395392135E+03  0.39441742717E+03  0.25500000920E-02 0. -1.
</event>
<event>
 5   0  0.5745487E-05  0.1199915E+04  0.7818609E-02  0.9112931E-01
        1   -1    0    0  501    0  0.00000000000E+00  0.00000000000E+00  0.11657422697E+04  0.11657422697E+04  0.50400001928E-02 0.  1.
       -1   -1    0    0    0  501  0.00000000000E+00  0.00000000000E+00 -0.30877257561E+03  0.30877257565E+03  0.50400001928E-02 0. -1.
    10030    2    1    2    0    0  0.00000000000E+00  0.00000000000E+00  0.85696969408E+03  0.14745148454E+04  0.11999154023E+04 0.  0.
        3    1    3    3  502    0  0.16104644400E+02  0.56614649244E+03  0.67168528014E+03  0.87860249045E+03  0.10100000352E+00 0.  1.
       -3    1    3    3    0  502 -0.16104644400E+02 -0.56614649244E+03  0.18528441395E+03  0.59591235490E+03  0.10100000352E+00 0. -1.
</event>
<event>
 5   0  0.5745487E-05  0.1199255E+04  0.7818609E-02  0.9113509E-01
       -1   -1    0    0    0  501  0.00000000000E+00  0.00000000000E+00  0.17481731400E+03  0.17481731407E+03  0.50400001928E-02 0.  1.
        1   -1    0    0  501    0  0.00000000000E+00  0.00000000000E+00 -0.20567377996E+04  0.20567377996E+04  0.50400001928E-02 0. -1.
    10030    2    1    2    0    0  0.00000000000E+00  0.00000000000E+00 -0.18819204856E+04  0.22315551136E+04  0.11992553987E+04 0.  0.
        3    1    3    3  502    0 -0.57996528581E+03  0.12763555249E+03 -0.78636055979E+03  0.98540017617E+03  0.10100000352E+00 0. -1.
       -3    1    3    3    0  502  0.57996528581E+03 -0.12763555249E+03 -0.10955599258E+04  0.12461549375E+04  0.10100000352E+00 0.  1.
</event>
<event>
 5   0  0.9941209E-05  0.1200019E+04  0.7818609E-02  0.9112840E-01
        2   -1    0    0  501    0  0.00000000000E+00  0.00000000000E+00  0.54841612015E+03  0.54841612016E+03  0.25500000920E-02 0.  1.
       -2   -1    0    0    0  501  0.00000000000E+00  0.00000000000E+00 -0.65645638874E+03  0.65645638874E+03  0.25500000920E-02 0. -1.
    10030    2    1    2    0    0  0.00000000000E+00  0.00000000000E+00 -0.10804026858E+03  0.12048725089E+04  0.12000187761E+04 0.  0.
        2    1    3    3  502    0 -0.47765086369E+02 -0.56924259812E+03 -0.23831807800E+03  0.61896215175E+03  0.25500000920E-02 0. -1.
       -2    1    3    3    0  502  0.47765086369E+02  0.56924259812E+03  0.13027780942E+03  0.58591035715E+03  0.25500000920E-02 0.  1.
</event>
<event>
 5   0  0.1012657E-04  0.1199995E+04  0.7818609E-02  0.9112861E-01
       -2   -1    0    0    0  501  0.00000000000E+00  0.00000000000E+00  0.33273792961E+03  0.33273792962E+03  0.25500000920E-02 0.  1.
        2   -1    0    0  501    0  0.00000000000E+00  0.00000000000E+00 -0.10819228679E+04  0.10819228679E+04  0.25500000920E-02 0. -1.
    10030    2    1    2    0    0  0.00000000000E+00  0.00000000000E+00 -0.74918493828E+03  0.14146607975E+04  0.11999946251E+04 0.  0.
        1    1    3    3  502    0 -0.57233887476E+02 -0.20426566268E+03 -0.10362388608E+04  0.10577292449E+04  0.50400001928E-02 0. -1.
       -1    1    3    3    0  502  0.57233887476E+02  0.20426566268E+03  0.28705392250E+03  0.35693155264E+03  0.50400001928E-02 0.  1.
</event>
<event>
 5   0  0.5620246E-05  0.1200849E+04  0.7818609E-02  0.9112114E-01
        1   -1    0    0  501    0  0.00000000000E+00  0.00000000000E+00  0.94436880439E+03  0.94436880440E+03  0.50400001928E-02 0. -1.
       -1   -1    0    0    0  501  0.00000000000E+00  0.00000000000E+00 -0.38174642367E+03  0.38174642370E+03  0.50400001928E-02 0.  1.
    10030    2    1    2    0    0  0.00000000000E+00  0.00000000000E+00  0.56262238072E+03  0.13261152281E+04  0.12008487227E+04 0.  0.
        1    1    3    3  502    0 -0.34794201436E+03 -0.46199929073E+03  0.10323745156E+03  0.58750741393E+03  0.50400001928E-02 0.  1.
       -1    1    3    3    0  502  0.34794201436E+03  0.46199929073E+03  0.45938492916E+03  0.73860781417E+03  0.50400001928E-02 0. -1.
</event>
<event>
 5   0  0.1012657E-04  0.1200202E+04  0.7818609E-02  0.9112680E-01
       -2   -1    0    0    0  501  0.00000000000E+00  0.00000000000E+00  0.19838317863E+03  0.19838317864E+03  0.25500000920E-02 0.  1.
        2   -1    0    0  501    0  0.00000000000E+00  0.00000000000E+00 -0.18152795789E+04  0.18152795789E+04  0.25500000920E-02 0. -1.
    10030    2    1    2    0    0  0.00000000000E+00  0.00000000000E+00 -0.16168964003E+04  0.20136627576E+04  0.12002015380E+04 0.  0.
        1    1    3    3  502    0  0.28487603557E+03  0.25530370249E+03 -0.15842000072E+04  0.16297312659E+04  0.50400001928E-02 0. -1.
       -1    1    3    3    0  502 -0.28487603557E+03 -0.25530370249E+03 -0.32696393069E+02  0.38393149166E+03  0.50400001928E-02 0.  1.
</event>
<event>
 5   0  0.1012657E-04  0.1200340E+04  0.7818609E-02  0.9112559E-01
        2   -1    0    0  501    0  0.00000000000E+00  0.00000000000E+00  0.60926907671E+03  0.60926907671E+03  0.25500000920E-02 0. -1.
       -2   -1    0    0    0  501  0.00000000000E+00  0.00000000000E+00 -0.59120692930E+03  0.59120692931E+03  0.25500000920E-02 0.  1.
    10030    2    1    2    0    0  0.00000000000E+00  0.00000000000E+00  0.18062147403E+02  0.12004760060E+04  0.12003401184E+04 0.  0.
        1    1    3    3  502    0  0.51334265826E+03 -0.21371626855E+03  0.23490785765E+03  0.60363650473E+03  0.50400001928E-02 0. -1.
       -1    1    3    3    0  502 -0.51334265826E+03  0.21371626855E+03 -0.21684571025E+03  0.59683950129E+03  0.50400001928E-02 0.  1.
</event>
<event>
 5   0  0.1004006E-04  0.1200136E+04  0.7818609E-02  0.9112738E-01
       -2   -1    0    0    0  501  0.00000000000E+00  0.00000000000E+00  0.31473637748E+03  0.31473637749E+03  0.25500000920E-02 0. -1.
        2   -1    0    0  501    0  0.00000000000E+00  0.00000000000E+00 -0.11440734146E+04  0.11440734146E+04  0.25500000920E-02 0.  1.
    10030    2    1    2    0    0  0.00000000000E+00  0.00000000000E+00 -0.82933703712E+03  0.14588097921E+04  0.12001358625E+04 0.  0.
        5    1    3    3  502    0  0.15338666627E+03 -0.18937194507E+02 -0.11194425514E+04  0.11300707069E+04  0.46999998093E+01 0.  1.
       -5    1    3    3    0  502 -0.15338666627E+03  0.18937194507E+02  0.29010551428E+03  0.32873908520E+03  0.46999998093E+01 0. -1.
</event>
<event>
 5   0  0.1023063E-04  0.1199179E+04  0.7818609E-02  0.9113576E-01
        2   -1    0    0  501    0  0.00000000000E+00  0.00000000000E+00  0.34244878664E+03  0.34244878665E+03  0.25500000920E-02 0. -1.
       -2   -1    0    0    0  501  0.00000000000E+00  0.00000000000E+00 -0.10498139774E+04  0.10498139774E+04  0.25500000920E-02 0.  1.
    10030    2    1    2    0    0  0.00000000000E+00  0.00000000000E+00 -0.70736519080E+03  0.13922627641E+04  0.11991789237E+04 0.  0.
        3    1    3    3  502    0 -0.24082393847E+03  0.14024151169E+03  0.26268721283E+03  0.38297314910E+03  0.10100000352E+00 0. -1.
       -3    1    3    3    0  502  0.24082393847E+03 -0.14024151169E+03 -0.97005240363E+03  0.10092896150E+04  0.10100000352E+00 0.  1.
</event>
<event>
 5   0  0.5732931E-05  0.1199791E+04  0.7818609E-02  0.9113040E-01
        1   -1    0    0  501    0  0.00000000000E+00  0.00000000000E+00  0.62703130583E+03  0.62703130585E+03  0.50400001928E-02 0.  1.
       -1   -1    0    0    0  501  0.00000000000E+00  0.00000000000E+00 -0.57393392068E+03  0.57393392070E+03  0.50400001928E-02 0. -1.
    10030    2    1    2    0    0  0.00000000000E+00  0.00000000000E+00  0.53097385147E+02  0.12009652266E+04  0.11997908747E+04 0.  0.
        4    1    3    3  502    0  0.33428126477E+03 -0.29238981996E+03  0.43022639252E+03  0.61833011613E+03  0.12699999809E+01 0.  1.
       -4    1    3    3    0  502 -0.33428126477E+03  0.29238981996E+03 -0.37712900737E+03  0.58263511042E+03  0.12699999809E+01 0. -1.
</event>
<event>
 5   0  0.5620246E-05  0.1200554E+04  0.7818609E-02  0.9112372E-01
       -1   -1    0    0    0  501  0.00000000000E+00  0.00000000000E+00  0.31479644230E+03  0.31479644234E+03  0.50400001928E-02 0. -1.
        1   -1    0    0  501    0  0.00000000000E+00  0.00000000000E+00 -0.11446519423E+04  0.11446519423E+04  0.50400001928E-02 0.  1.
    10030    2    1    2    0    0  0.00000000000E+00  0.00000000000E+00 -0.82985549999E+03  0.14594483846E+04  0.12005538041E+04 0.  0.
        1    1    3    3  502    0 -0.16317469063E+03  0.54603377455E+03 -0.64414551355E+03  0.86005947775E+03  0.50400001928E-02 0.  1.
       -1    1    3    3    0  502  0.16317469063E+03 -0.54603377455E+03 -0.18570998645E+03  0.59938890689E+03  0.50400001928E-02 0. -1.
</event>
<event>
 5   0  0.5620246E-05  0.1201166E+04  0.7818609E-02  0.9111837E-01
        1   -1    0    0  501    0  0.00000000000E+00  0.00000000000E+00  0.11132895649E+04  0.11132895649E+04  0.50400001928E-02 0.  1.
       -1   -1    0    0    0  501  0.00000000000E+00  0.00000000000E+00 -0.32399454316E+03  0.32399454320E+03  0.50400001928E-02 0. -1.
    10030    2    1    2    0    0  0.00000000000E+00  0.00000000000E+00  0.78929502171E+03  0.14372841081E+04  0.12011656738E+04 0.  0.
        1    1    3    3  502    0 -0.22209078382E+03  0.90999436956E+01  0.10622594926E+04  0.10852660295E+04  0.50400001928E-02 0.  1.
       -1    1    3    3    0  502  0.22209078382E+03 -0.90999436956E+01 -0.27296447088E+03  0.35201807854E+03  0.50400001928E-02 0. -1.
</event>
<event>
 5   0  0.1004006E-04  0.1199964E+04  0.7818609E-02  0.9112888E-01
        2   -1    0    0  501    0  0.00000000000E+00  0.00000000000E+00  0.16194311799E+04  0.16194311799E+04  0.25500000920E-02 0.  1.
       -2   -1    0    0    0  501  0.00000000000E+00  0.00000000000E+00 -0.22228682969E+03  0.22228682970E+03  0.25500000920E-02 0. -1.
    10030    2    1    2    0    0  0.00000000000E+00  0.00000000000E+00  0.13971443502E+04  0.18417180096E+04  0.11999637043E+04 0.  0.
        5    1    3    3  502    0  0.51812454304E+03  0.19373270470E+03  0.34201090277E+03  0.65036831917E+03  0.46999998093E+01 0. -1.
       -5    1    3    3    0  502 -0.51812454304E+03 -0.19373270470E+03  0.10551334474E+04  0.11913496904E+04  0.46999998093E+01 0.  1.
</event>
<event>
 5   0  0.1012657E-04  0.1200571E+04  0.7818609E-02  0.9112357E-01
        2   -1    0    0  501    0  0.00000000000E+00  0.00000000000E+00  0.16524531383E+04  0.16524531383E+04  0.25500000920E-02 0.  1.
       -2   -1    0    0    0  501  0.00000000000E+00  0.00000000000E+00 -0.21806518819E+03  0.21806518820E+03  0.25500000920E-02 0. -1.
    10030    2    1    2    0    0  0.00000000000E+00  0.00000000000E+00  0.14343879501E+04  0.18705183265E+04  0.12005707053E+04 0.  0.
        1    1    3    3  502    0  0.21938766601E+03  0.55346191203E+03  0.59760641493E+03  0.84355465932E+03  0.50400001928E-02 0.  1.
       -1    1    3    3    0  502 -0.21938766601E+03 -0.55346191203E+03  0.83678153519E+03  0.10269636672E+04  0.50400001928E-02 0. -1.
</event>
<event>
 5   0  0.5625746E-05  0.1201630E+04  0.7818609E-02  0.9111431E-01
        1   -1    0    0  501    0  0.00000000000E+00  0.00000000000E+00  0.27444268522E+03  0.27444268527E+03  0.50400001928E-02 0.  1.
       -1   -1    0    0    0  501  0.00000000000E+00  0.00000000000E+00 -0.13153154420E+04  0.13153154420E+04  0.50400001928E-02 0. -1.
    10030    2    1    2    0    0  0.00000000000E+00  0.00000000000E+00 -0.10408727568E+04  0.15897581273E+04  0.12016300626E+04 0.  0.
        5    1    3    3  502    0  0.34818194455E+03 -0.69397406158E+02 -0.11616621529E+04  0.12147130171E+04  0.46999998093E+01 0. -1.
       -5    1    3    3    0  502 -0.34818194455E+03  0.69397406158E+02  0.12078939607E+03  0.37504511021E+03  0.46999998093E+01 0.  1.
</event>
<event>
 5   0  0.5745487E-05  0.1200044E+04  0.7818609E-02  0.9112818E-01
       -1   -1    0    0    0  501  0.00000000000E+00  0.00000000000E+00  0.55494102856E+03  0.55494102858E+03  0.50400001928E-02 0.  1.
        1   -1    0    0  501    0  0.00000000000E+00  0.00000000000E+00 -0.64876530683E+03  0.64876530685E+03  0.50400001928E-02 0. -1.
    10030    2    1    2    0    0  0.00000000000E+00  0.00000000000E+00 -0.93824278269E+02  0.12037063354E+04  0.12000441437E+04 0.  0.
        3    1    3    3  502    0  0.29834821358E+02 -0.34846111624E+03  0.44213210993E+03  0.56373404982E+03  0.10100000352E+00 0.  1.
       -3    1    3    3    0  502 -0.29834821358E+02  0.34846111624E+03 -0.53595638820E+03  0.63997228561E+03  0.10100000352E+00 0. -1.
</event>
<event>
 5   0  0.1012657E-04  0.1200186E+04  0.7818609E-02  0.9112694E-01
        2   -1    0    0  501    0  0.00000000000E+00  0.00000000000E+00  0.14526541505E+04  0.14526541505E+04  0.25500000920E-02 0. -1.
       -2   -1    0    0    0  501  0.00000000000E+00  0.00000000000E+00 -0.24789903246E+03  0.24789903247E+03  0.25500000920E-02 0.  1.
    10030    2    1    2    0    0  0.00000000000E+00  0.00000000000E+00  0.12047551180E+04  0.17005531829E+04  0.12001859163E+04 0.  0.
        1    1    3    3  502    0  0.33584472126E+02 -0.73495112104E+02  0.14449103919E+04  0.14471680928E+04  0.50400001928E-02 0. -1.
       -1    1    3    3    0  502 -0.33584472126E+02  0.73495112104E+02 -0.24015527391E+03  0.25338509010E+03  0.50400001928E-02 0.  1.
</event>
<event>
 5   0  0.5620246E-05  0.1201375E+04  0.7818609E-02  0.9111654E-01
        1   -1    0    0  501    0  0.00000000000E+00  0.00000000000E+00  0.46808768157E+03  0.46808768160E+03  0.50400001928E-02 0.  1.
       -1   -1    0    0    0  501  0.00000000000E+00  0.00000000000E+00 -0.77085068013E+03  0.77085068014E+03  0.50400001928E-02 0. -1.
    10030    2    1    2    0    0  0.00000000000E+00  0.00000000000E+00 -0.30276299856E+03  0.12389383617E+04  0.12013753913E+04 0.  0.
        1    1    3    3  502    0  0.58473297253E+03  0.13712239082E+03 -0.16222248435E+03  0.62211842417E+03  0.50400001928E-02 0.  1.
       -1    1    3    3    0  502 -0.58473297253E+03 -0.13712239082E+03 -0.14054051420E+03  0.61681993758E+03  0.50400001928E-02 0. -1.
</event>
<event>
 5   0  0.5447807E-05  0.1200082E+04  0.7818609E-02  0.9112785E-01
       -1   -1    0    0    0  501  0.00000000000E+00  0.00000000000E+00  0.27995886426E+03  0.27995886430E+03  0.50400001928E-02 0. -1.
        1   -1    0    0  501    0  0.00000000000E+00  0.00000000000E+00 -0.12860786257E+04  0.12860786257E+04  0.50400001928E-02 0.  1.
    10030    2    1    2    0    0  0.00000000000E+00  0.00000000000E+00 -0.10061197614E+04  0.15660374900E+04  0.12000818496E+04 0.  0.
        2    1    3    3  502    0 -0.16662935215E+03  0.56711600149E+03 -0.36830785759E+03  0.69644567492E+03  0.25500000920E-02 0.  1.
       -2    1    3    3    0  502  0.16662935215E+03 -0.56711600149E+03 -0.63781190381E+03  0.86959181505E+03  0.25500000920E-02 0. -1.
</event>
<event>
 5   0  0.5732931E-05  0.1200692E+04  0.7818609E-02  0.9112251E-01
       -1   -1    0    0    0  501  0.00000000000E+00  0.00000000000E+00  0.16939257974E+03  0.16939257981E+03  0.50400001928E-02 0. -1.
        1   -1    0    0  501    0  0.00000000000E+00  0.00000000000E+00 -0.21276941333E+04  0.21276941333E+04  0.50400001928E-02 0.  1.
    10030    2    1    2    0    0  0.00000000000E+00  0.00000000000E+00 -0.19583015536E+04  0.22970867131E+04  0.12006924639E+04 0.  0.
        4    1    3    3  502    0  0.53787831502E+03 -0.24463290851E+03 -0.77618128142E+03  0.97550875764E+03  0.12699999809E+01 0.  1.
       -4    1    3    3    0  502 -0.53787831502E+03  0.24463290851E+03 -0.11821202721E+04  0.13215779555E+04  0.12699999809E+01 0. -1.
</event>
<event>
 5   0  0.5447807E-05  0.1199171E+04  0.7818609E-02  0.9113583E-01
       -1   -1    0    0    0  501  0.00000000000E+00  0.00000000000E+00  0.39700472078E+03  0.39700472081E+03  0.50400001928E-02 0. -1.
        1   -1    0    0  501    0  0.00000000000E+00  0.00000000000E+00 -0.90553762014E+03  0.90553762015E+03  0.50400001928E-02 0.  1.
    10030    2    1    2    0    0  0.00000000000E+00  0.00000000000E+00 -0.50853289936E+03  0.13025423410E+04  0.11991708970E+04 0.  0.
        2    1    3    3  502    0 -0.14172210728E+03 -0.34914445163E+03 -0.76085582890E+03  0.84905158629E+03  0.25500000920E-02 0.  1.
       -2    1    3    3    0  502  0.14172210728E+03  0.34914445163E+03  0.25232292954E+03  0.45349075467E+03  0.25500000920E-02 0. -1.
</event>
<event>
 5   0  0.5620246E-05  0.1197823E+04  0.7818609E-02  0.9114764E-01
       -1   -1    0    0    0  501  0.00000000000E+00  0.00000000000E+00  0.37967877359E+03  0.37967877363E+03  0.50400001928E-02 0.  1.
        1   -1    0    0  501    0  0.00000000000E+00  0.00000000000E+00 -0.94473315656E+03  0.94473315658E+03  0.50400001928E-02 0. -1.
    10030    2    1    2    0    0  0.00000000000E+00  0.00000000000E+00 -0.56505438297E+03  0.13244119302E+04  0.11978232362E+04 0.  0.
        1    1    3    3  502    0  0.35561285417E+03 -0.21378102723E+03 -0.76006456813E+03  0.86594513534E+03  0.50400001928E-02 0. -1.
       -1    1    3    3    0  502 -0.35561285417E+03  0.21378102723E+03  0.19501018516E+03  0.45846679487E+03  0.50400001928E-02 0.  1.
</event>
<event>
 5   0  0.5745487E-05  0.1199516E+04  0.7818609E-02  0.9113280E-01
        1   -1    0    0  501    0  0.00000000000E+00  0.00000000000E+00  0.78758791567E+03  0.78758791569E+03  0.50400001928E-02 0. -1.
       -1   -1    0    0    0  501  0.00000000000E+00  0.00000000000E+00 -0.45672310863E+03  0.45672310866E+03  0.50400001928E-02 0.  1.
    10030    2    1    2    0    0  0.00000000000E+00  0.00000000000E+00  0.33086480704E+03  0.12443110243E+04  0.11995159043E+04 0.  0.
        3    1    3    3  502    0  0.25610510537E+03 -0.38768745559E+03  0.55882833753E+03  0.72676028321E+03  0.10100000352E+00 0. -1.
       -3    1    3    3    0  502 -0.25610510537E+03  0.38768745559E+03 -0.22796353049E+03  0.51755074114E+03  0.10100000352E+00 0.  1.
</event>
<event>
 5   0  0.5732931E-05  0.1200640E+04  0.7818609E-02  0.9112296E-01
        1   -1    0    0  501    0  0.00000000000E+00  0.00000000000E+00  0.50709476775E+03  0.50709476778E+03  0.50400001928E-02 0. -1.
       -1   -1    0    0    0  501  0.00000000000E+00  0.00000000000E+00 -0.71068399237E+03  0.71068399239E+03  0.50400001928E-02 0.  1.
    10030    2    1    2    0    0  0.00000000000E+00  0.00000000000E+00 -0.20358922462E+03  0.12177787602E+04  0.12006400528E+04 0.  0.
        4    1    3    3  502    0  0.69944654205E+01  0.74357693233E+02  0.50236285443E+03  0.50788585282E+03  0.12699999809E+01 0. -1.
       -4    1    3    3    0  502 -0.69944654205E+01 -0.74357693233E+02 -0.70595207905E+03  0.70989290734E+03  0.12699999809E+01 0.  1.
</event>
<event>
 5   0  0.1023063E-04  0.1202304E+04  0.7818609E-02  0.9110842E-01
       -2   -1    0    0    0  501  0.00000000000E+00  0.00000000000E+00  0.46452595304E+03  0.46452595305E+03  0.25500000920E-02 0. -1.
        2   -1    0    0  501    0  0.00000000000E+00  0.00000000000E+00 -0.77796272956E+03  0.77796272957E+03  0.25500000920E-02 0.  1.
    10030    2    1    2    0    0  0.00000000000E+00  0.00000000000E+00 -0.31343677652E+03  0.12424886826E+04  0.12023042517E+04 0.  0.
        3    1    3    3  502    0  0.16886535636E+03  0.56921408302E+03 -0.25401221201E+03  0.64578819665E+03  0.10100000352E+00 0. -1.
       -3    1    3    3    0  502 -0.16886535636E+03 -0.56921408302E+03 -0.59424564518E+02  0.59670048597E+03  0.10100000352E+00 0.  1.
</event>
<event>
 5   0  0.5447807E-05  0.1200106E+04  0.7818609E-02  0.9112763E-01
        1   -1    0    0  501    0  0.00000000000E+00  0.00000000000E+00  0.27502109550E+04  0.27502109550E+04  0.50400001928E-02 0. -1.
       -1   -1    0    0    0  501  0.00000000000E+00  0.00000000000E+00 -0.13092224058E+03  0.13092224068E+03  0.50400001928E-02 0.  1.
    10030    2    1    2    0    0  0.00000000000E+00  0.00000000000E+00  0.26192887144E+04  0.28811331956E+04  0.12001062960E+04 0.  0.
        2    1    3    3  502    0  0.27947599445E+03  0.23448909859E+03  0.16589836788E+03  0.40076706115E+03  0.25500000920E-02 0.  1.
       -2    1    3    3    0  502 -0.27947599445E+03 -0.23448909859E+03  0.24533903465E+04  0.24803661345E+04  0.25500000920E-02 0. -1.
</event>
<event>
 5   0  0.5745487E-05  0.1199925E+04  0.7818609E-02  0.9112922E-01
       -1   -1    0    0    0  501  0.00000000000E+00  0.00000000000E+00  0.56384947342E+03  0.56384947344E+03  0.50400001928E-02 0. -1.
        1   -1    0    0  501    0  0.00000000000E+00  0.00000000000E+00 -0.63838872799E+03  0.63838872801E+03  0.50400001928E-02 0.  1.
    10030    2    1    2    0    0  0.00000000000E+00  0.00000000000E+00 -0.74539254573E+02  0.12022382014E+04  0.11999252446E+04 0.  0.
        3    1    3    3  502    0 -0.10849476935E+03  0.58550616978E+03 -0.11066756318E+03  0.60566980242E+03  0.10100000352E+00 0.  1.
       -3    1    3    3    0  502  0.10849476935E+03 -0.58550616978E+03  0.36128308609E+02  0.59656839902E+03  0.10100000352E+00 0. -1.
</event>
<event>
 5   0  0.5447807E-05  0.1198923E+04  0.7818609E-02  0.9113800E-01
       -1   -1    0    0    0  501  0.00000000000E+00  0.00000000000E+00  0.52398665209E+03  0.52398665211E+03  0.50400001928E-02 0.  1.
        1   -1    0    0  501    0  0.00000000000E+00  0.00000000000E+00 -0.68580791171E+03  0.68580791173E+03  0.50400001928E-02 0. -1.
    10030    2    1    2    0    0  0.00000000000E+00  0.00000000000E+00 -0.16182125962E+03  0.12097945638E+04  0.11989231696E+04 0.  0.
        2    1    3    3  502    0 -0.52226538101E+03  0.12364026203E+03  0.18854283154E+03  0.56885537875E+03  0.25500000920E-02 0. -1.
       -2    1    3    3    0  502  0.52226538101E+03 -0.12364026203E+03 -0.35036409116E+03  0.64093918509E+03  0.25500000920E-02 0.  1.
</event>
<event>
 5   0  0.1012657E-04  0.1200346E+04  0.7818609E-02  0.9112554E-01
        2   -1    0    0  501    0  0.00000000000E+00  0.00000000000E+00  0.55601813584E+03  0.55601813584E+03  0.25500000920E-02 0.  1.
       -2   -1    0    0    0  501  0.00000000000E+00  0.00000000000E+00 -0.64783416300E+03  0.64783416301E+03  0.25500000920E-02 0. -1.
    10030    2    1    2    0    0  0.00000000000E+00  0.00000000000E+00 -0.91816027167E+02  0.12038522989E+04  0.12003458562E+04 0.  0.
        1    1    3    3  502    0  0.49605022343E+02 -0.17509054531E+03  0.52768065874E+03  0.55817939314E+03  0.50400001928E-02 0.  1.
       -1    1    3    3    0  502 -0.49605022343E+02  0.17509054531E+03 -0.61949668590E+03  0.64567290571E+03  0.50400001928E-02 0. -1.
</event>
<event>
 5   0  0.5620246E-05  0.1199654E+04  0.7818609E-02  0.9113159E-01
        1   -1    0    0  501    0  0.00000000000E+00  0.00000000000E+00  0.64916583672E+03  0.64916583674E+03  0.50400001928E-02 0. -1.
       -1   -1    0    0    0  501  0.00000000000E+00  0.00000000000E+00 -0.55423840747E+03  0.55423840749E+03  0.50400001928E-02 0.  1.
    10030    2    1    2    0    0  0.00000000000E+00  0.00000000000E+00  0.94927429245E+02  0.12034042442E+04  0.11996543495E+04 0.  0.
        1    1    3    3  502    0  0.46505203250E+03 -0.34590882473E+03  0.20243393150E+03  0.61392654659E+03  0.50400001928E-02 0.  1.
       -1    1    3    3    0  502 -0.46505203250E+03  0.34590882473E+03 -0.10750650225E+03  0.58947769764E+03  0.50400001928E-02 0. -1.
</event>
<event>
 5   0  0.9941209E-05  0.1199903E+04  0.7818609E-02  0.9112941E-01
        2   -1    0    0  501    0  0.00000000000E+00  0.00000000000E+00  0.35717055671E+03  0.35717055672E+03  0.25500000920E-02 0.  1.
       -2   -1    0    0    0  501  0.00000000000E+00  0.00000000000E+00 -0.10077596792E+04  0.10077596792E+04  0.25500000920E-02 0. -1.
    10030    2    1    2    0    0  0.00000000000E+00  0.00000000000E+00 -0.65058912248E+03  0.13649302359E+04  0.11999034722E+04 0.  0.
        2    1    3    3  502    0 -0.26634918503E+03 -0.38729485211E+03 -0.74940217256E+03  0.88461449631E+03  0.25500000920E-02 0. -1.
       -2    1    3    3    0  502  0.26634918503E+03  0.38729485211E+03  0.98813050079E+02  0.48031573960E+03  0.25500000920E-02 0.  1.
</event>
<event>
 5   0  0.5625746E-05  0.1199995E+04  0.7818609E-02  0.9112861E-01
        1   -1    0    0  501    0  0.00000000000E+00  0.00000000000E+00  0.12026097504E+04  0.12026097504E+04  0.50400001928E-02 0. -1.
       -1   -1    0    0    0  501  0.00000000000E+00  0.00000000000E+00 -0.29934625325E+03  0.29934625329E+03  0.50400001928E-02 0.  1.
    10030    2    1    2    0    0  0.00000000000E+00  0.00000000000E+00  0.90326349712E+03  0.15019560037E+04  0.11999945382E+04 0.  0.
        5    1    3    3  502    0 -0.49949406775E+03 -0.22674407533E+03  0.14743680383E+03  0.56803776330E+03  0.46999998093E+01 0.  1.
       -5    1    3    3    0  502  0.49949406775E+03  0.22674407533E+03  0.75582669329E+03  0.93391824037E+03  0.46999998093E+01 0. -1.
</event>
<event>
 5   0  0.5732931E-05  0.1199899E+04  0.7818609E-02  0.9112945E-01
        1   -1    0    0  501    0  0.00000000000E+00  0.00000000000E+00  0.35995254259E+03  0.35995254262E+03  0.50400001928E-02 0.  1.
       -1   -1    0    0    0  501  0.00000000000E+00  0.00000000000E+00 -0.99996344827E+03  0.99996344828E+03  0.50400001928E-02 0. -1.
    10030    2    1    2    0    0  0.00000000000E+00  0.00000000000E+00 -0.64001090568E+03  0.13599159909E+04  0.11998989720E+04 0.  0.
        4    1    3    3  502    0  0.33439055196E+03 -0.31868978776E+03 -0.75388731819E+03  0.88415378950E+03  0.12699999809E+01 0. -1.
       -4    1    3    3    0  502 -0.33439055196E+03  0.31868978776E+03  0.11387641251E+03  0.47576220141E+03  0.12699999809E+01 0.  1.
</event>
<event>
 5   0  0.5745487E-05  0.1199263E+04  0.7818609E-02  0.9113502E-01
        1   -1    0    0  501    0  0.00000000000E+00  0.00000000000E+00  0.42615471470E+03  0.42615471473E+03  0.50400001928E-02 0.  1.
       -1   -1    0    0    0  501  0.00000000000E+00  0.00000000000E+00 -0.84372622407E+03  0.84372622409E+03  0.50400001928E-02 0. -1.
    10030    2    1    2    0    0  0.00000000000E+00  0.00000000000E+00 -0.41757150937E+03  0.12698809388E+04  0.11992629542E+04 0.  0.
        3    1    3    3  502    0 -0.26796788210E+03 -0.37027134438E+03  0.20220637510E+03  0.49979504063E+03  0.10100000352E+00 0.  1.
       -3    1    3    3    0  502  0.26796788210E+03  0.37027134438E+03 -0.61977788447E+03  0.77008589819E+03  0.10100000352E+00 0. -1.
</event>
<event>
 5   0  0.3839750E-05  0.1199747E+04  0.7818609E-02  0.9113078E-01
       -3   -1    0    0    0  501  0.00000000000E+00  0.00000000000E+00  0.45894591541E+03  0.45894592653E+03  0.10100000352E+00 0.  1.
        3   -1    0    0  501    0  0.00000000000E+00  0.00000000000E+00 -0.78407522433E+03  0.78407523084E+03  0.10100000352E+00 0. -1.
    10030    2    1    2    0    0  0.00000000000E+00  0.00000000000E+00 -0.32512930892E+03  0.12430211574E+04  0.11997468609E+04 0.  0.
        1    1    3    3  502    0 -0.27204314101E+03  0.15002690070E+03 -0.69423349043E+03  0.76057588758E+03  0.50400001928E-02 0. -1.
       -1    1    3    3    0  502  0.27204314101E+03 -0.15002690070E+03  0.36910418151E+03  0.48244526978E+03  0.50400001928E-02 0.  1.
</event>
<event>
 5   0  0.1023063E-04  0.1200205E+04  0.7818609E-02  0.9112677E-01
       -2   -1    0    0    0  501  0.00000000000E+00  0.00000000000E+00  0.34100423318E+03  0.34100423319E+03  0.25500000920E-02 0. -1.
        2   -1    0    0  501    0  0.00000000000E+00  0.00000000000E+00 -0.10560659983E+04  0.10560659983E+04  0.25500000920E-02 0.  1.
    10030    2    1    2    0    0  0.00000000000E+00  0.00000000000E+00 -0.71506176510E+03  0.13970702315E+04  0.12002049424E+04 0.  0.
        3    1    3    3  502    0  0.99980078856E+02  0.57489658509E+03 -0.52058129969E+03  0.78198913004E+03  0.10100000352E+00 0.  1.
       -3    1    3    3    0  502 -0.99980078856E+02 -0.57489658509E+03 -0.19448046542E+03  0.61508110144E+03  0.10100000352E+00 0. -1.
</event>
<event>
 5   0  0.9838215E-05  0.1199628E+04  0.7818609E-02  0.9113182E-01
       -2   -1    0    0    0  501  0.00000000000E+00  0.00000000000E+00  0.65082108703E+03  0.65082108704E+03  0.25500000920E-02 0.  1.
        2   -1    0    0  501    0  0.00000000000E+00  0.00000000000E+00 -0.55280476870E+03  0.55280476871E+03  0.25500000920E-02 0. -1.
    10030    2    1    2    0    0  0.00000000000E+00  0.00000000000E+00  0.98016318332E+02  0.12036258557E+04  0.11996282766E+04 0.  0.
        4    1    3    3  502    0  0.25588239155E+03 -0.56942199942E+02  0.59030310181E+03  0.64589285284E+03  0.12699999809E+01 0.  1.
       -4    1    3    3    0  502 -0.25588239155E+03  0.56942199942E+02 -0.49228678348E+03  0.55773300291E+03  0.12699999809E+01 0. -1.
</event>
<event>
 5   0  0.5732931E-05  0.1200008E+04  0.7818609E-02  0.9112850E-01
       -1   -1    0    0    0  501  0.00000000000E+00  0.00000000000E+00  0.86266843057E+03  0.86266843058E+03  0.50400001928E-02 0.  1.
        1   -1    0    0  501    0  0.00000000000E+00  0.00000000000E+00 -0.41731514607E+03  0.41731514611E+03  0.50400001928E-02 0. -1.
    10030    2    1    2    0    0  0.00000000000E+00  0.00000000000E+00  0.44535328449E+03  0.12799835767E+04  0.12000076702E+04 0.  0.
        4    1    3    3  502    0 -0.21919768945E+03 -0.45677099106E+03 -0.12017274425E+03  0.52070189811E+03  0.12699999809E+01 0. -1.
       -4    1    3    3    0  502  0.21919768945E+03  0.45677099106E+03  0.56552602874E+03  0.75928167858E+03  0.12699999809E+01 0.  1.
</event>
<event>
 5   0  0.5625746E-05  0.1199422E+04  0.7818609E-02  0.9113362E-01
        1   -1    0    0  501    0  0.00000000000E+00  0.00000000000E+00  0.89478040117E+03  0.89478040118E+03  0.50400001928E-02 0. -1.
       -1   -1    0    0    0  501  0.00000000000E+00  0.00000000000E+00 -0.40194611742E+03  0.40194611746E+03  0.50400001928E-02 0.  1.
    10030    2    1    2    0    0  0.00000000000E+00  0.00000000000E+00  0.49283428374E+03  0.12967265186E+04  0.11994223747E+04 0.  0.
        5    1    3    3  502    0 -0.28358289998E+03 -0.33544154553E+03 -0.19498301912E+03  0.48060457693E+03  0.46999998093E+01 0.  1.
       -5    1    3    3    0  502  0.28358289998E+03  0.33544154553E+03  0.68781730286E+03  0.81612194171E+03  0.46999998093E+01 0. -1.
</event>
<event>
 5   0  0.1023063E-04  0.1200184E+04  0.7818609E-02  0.9112695E-01
        2   -1    0    0  501    0  0.00000000000E+00  0.00000000000E+00  0.13749386424E+04  0.13749386424E+04  0.25500000920E-02 0.  1.
       -2   -1    0    0    0  501  0.00000000000E+00  0.00000000000E+00 -0.26191035752E+03  0.26191035753E+03  0.25500000920E-02 0. -1.
    10030    2    1    2    0    0  0.00000000000E+00  0.00000000000E+00  0.11130282849E+04  0.16368489999E+04  0.12001844382E+04 0.  0.
        3    1    3    3  502    0  0.29437414135E+03 -0.14095397316E+03 -0.13027543207E+03  0.35141977184E+03  0.10100000352E+00 0. -1.
       -3    1    3    3    0  502 -0.29437414135E+03  0.14095397316E+03  0.12433037169E+04  0.12854292281E+04  0.10100000352E+00 0.  1.
</event>
<event>
 5   0  0.5732931E-05  0.1200033E+04  0.7818609E-02  0.9112828E-01
       -1   -1    0    0    0  501  0.00000000000E+00  0.00000000000E+00  0.22044985536E+03  0.22044985542E+03  0.50400001928E-02 0.  1.
        1   -1    0    0  501    0  0.00000000000E+00  0.00000000000E+00 -0.16331135238E+04  0.16331135238E+04  0.50400001928E-02 0. -1.
    10030    2    1    2    0    0  0.00000000000E+00  0.00000000000E+00 -0.14126636684E+04  0.18535633792E+04  0.12000327332E+04 0.  0.
        4    1    3    3  502    0  0.12721106014E+03  0.31124484168E+02  0.19810233986E+03  0.23748165675E+03  0.12699999809E+01 0.  1.
       -4    1    3    3    0  502 -0.12721106014E+03 -0.31124484168E+02 -0.16107660083E+04  0.16160817225E+04  0.12699999809E+01 0. -1.
</event>
<event>
 5   0  0.1023063E-04  0.1199472E+04  0.7818609E-02  0.9113319E-01
       -2   -1    0    0    0  501  0.00000000000E+00  0.00000000000E+00  0.31164994777E+03  0.31164994778E+03  0.25500000920E-02 0.  1.
        2   -1    0    0  501    0  0.00000000000E+00  0.00000000000E+00 -0.11541253605E+04  0.11541253605E+04  0.25500000920E-02 0. -1.
    10030    2    1    2    0    0  0.00000000000E+00  0.00000000000E+00 -0.84247541270E+03  0.14657753083E+04  0.11994717309E+04 0.  0.
        3    1    3    3  502    0 -0.32376161162E+03 -0.49315521402E+03 -0.28928556242E+03  0.65704626405E+03  0.10100000352E+00 0.  1.
       -3    1    3    3    0  502  0.32376161162E+03  0.49315521402E+03 -0.55318985028E+03  0.80872904420E+03  0.10100000352E+00 0. -1.
</event>
<event>
 5   0  0.5625746E-05  0.1199251E+04  0.7818609E-02  0.9113513E-01
        1   -1    0    0  501    0  0.00000000000E+00  0.00000000000E+00  0.12032958266E+03  0.12032958277E+03  0.50400001928E-02 0. -1.
       -1   -1    0    0    0  501  0.00000000000E+00  0.00000000000E+00 -0.29880477062E+04  0.29880477062E+04  0.50400001928E-02 0.  1.
    10030    2    1    2    0    0  0.00000000000E+00  0.00000000000E+00 -0.28677181235E+04  0.31083772890E+04  0.11992506554E+04 0.  0.
        5    1    3    3  502    0 -0.12212583895E+03 -0.11665853945E+03  0.57357495615E+02  0.17842619669E+03  0.46999998093E+01 0. -1.
       -5    1    3    3    0  502  0.12212583895E+03  0.11665853945E+03 -0.29250756191E+04  0.29299510923E+04  0.46999998093E+01 0.  1.
</event>
<event>
 5   0  0.5447807E-05  0.1198721E+04  0.7818609E-02  0.9113977E-01
        1   -1    0    0  501    0  0.00000000000E+00  0.00000000000E+00  0.48202038043E+03  0.48202038045E+03  0.50400001928E-02 0.  1.
       -1   -1    0    0    0  501  0.00000000000E+00  0.00000000000E+00 -0.74526538116E+03  0.74526538118E+03  0.50400001928E-02 0. -1.
    10030    2    1    2    0    0  0.00000000000E+00  0.00000000000E+00 -0.26324500073E+03  0.12272857616E+04  0.11987211562E+04 0.  0.
        2    1    3    3  502    0 -0.58035352579E+03  0.53931649797E+02  0.11399755124E+02  0.58296551542E+03  0.25500000920E-02 0.  1.
       -2    1    3    3    0  502  0.58035352579E+03 -0.53931649797E+02 -0.27464475586E+03  0.64432024621E+03  0.25500000920E-02 0. -1.
</event>
<event>
 5   0  0.1004006E-04  0.1199565E+04  0.7818609E-02  0.9113237E-01
        2   -1    0    0  501    0  0.00000000000E+00  0.00000000000E+00  0.14756531941E+04  0.14756531941E+04  0.25500000920E-02 0. -1.
       -2   -1    0    0    0  501  0.00000000000E+00  0.00000000000E+00 -0.24378295607E+03  0.24378295608E+03  0.25500000920E-02 0.  1.
    10030    2    1    2    0    0  0.00000000000E+00  0.00000000000E+00  0.12318702380E+04  0.17194361502E+04  0.11995650842E+04 0.  0.
        5    1    3    3  502    0  0.91094509331E+02 -0.39406873838E+03  0.12507290000E+04  0.13145088442E+04  0.46999998093E+01 0. -1.
       -5    1    3    3    0  502 -0.91094509331E+02  0.39406873838E+03 -0.18858761957E+02  0.40492730594E+03  0.46999998093E+01 0.  1.
</event>
<event>
 5   0  0.5620246E-05  0.1199814E+04  0.7818609E-02  0.9113019E-01
       -1   -1    0    0    0  501  0.00000000000E+00  0.00000000000E+00  0.33972590630E+03  0.33972590634E+03  0.50400001928E-02 0.  1.
        1   -1    0    0  501    0  0.00000000000E+00  0.00000000000E+00 -0.10593499224E+04  0.10593499224E+04  0.50400001928E-02 0. -1.
    10030    2    1    2    0    0  0.00000000000E+00  0.00000000000E+00 -0.71962401609E+03  0.13990758287E+04  0.11998143398E+04 0.  0.
        1    1    3    3  502    0  0.47858640293E+03  0.32743431799E+03 -0.18056039941E+03  0.60733864979E+03  0.50400001928E-02 0. -1.
       -1    1    3    3    0  502 -0.47858640293E+03 -0.32743431799E+03 -0.53906361668E+03  0.79173717894E+03  0.50400001928E-02 0.  1.
</event>
<event>
 5   0  0.5620246E-05  0.1199776E+04  0.7818609E-02  0.9113053E-01
       -1   -1    0    0    0  501  0.00000000000E+00  0.00000000000E+00  0.46792103830E+03  0.46792103832E+03  0.50400001928E-02 0. -1.
        1   -1    0    0  501    0  0.00000000000E+00  0.00000000000E+00 -0.76907326295E+03  0.76907326296E+03  0.50400001928E-02 0.  1.
    10030    2    1    2    0    0  0.00000000000E+00  0.00000000000E+00 -0.30115222465E+03  0.12369943013E+04  0.11997759120E+04 0.  0.
        1    1    3    3  502    0  0.10322287905E+03  0.41702057449E+03  0.28110596237E+03  0.51340206896E+03  0.50400001928E-02 0. -1.
       -1    1    3    3    0  502 -0.10322287905E+03 -0.41702057449E+03 -0.58225818702E+03  0.72359223233E+03  0.50400001928E-02 0.  1.
</event>
<event>
 5   0  0.1023063E-04  0.1199983E+04  0.7818609E-02  0.9112871E-01
       -2   -1    0    0    0  501  0.00000000000E+00  0.00000000000E+00  0.27044835573E+03  0.27044835574E+03  0.25500000920E-02 0. -1.
        2   -1    0    0  501    0  0.00000000000E+00  0.00000000000E+00 -0.13310858774E+04  0.13310858774E+04  0.25500000920E-02 0.  1.
    10030    2    1    2    0    0  0.00000000000E+00  0.00000000000E+00 -0.10606375216E+04  0.16015342331E+04  0.11999833114E+04 0.  0.
        3    1    3    3  502    0  0.56121519777E+02 -0.11979490656E+03 -0.13113792537E+04  0.13180349016E+04  0.10100000352E+00 0.  1.
       -3    1    3    3    0  502 -0.56121519777E+02  0.11979490656E+03  0.25074173201E+03  0.28349933156E+03  0.10100000352E+00 0. -1.
</event>
<event>
 5   0  0.5732931E-05  0.1200454E+04  0.7818609E-02  0.9112459E-01
       -1   -1    0    0    0  501  0.00000000000E+00  0.00000000000E+00  0.29149883594E+03  0.29149883599E+03  0.50400001928E-02 0. -1.
        1   -1    0    0  501    0  0.00000000000E+00  0.00000000000E+00 -0.12359313937E+04  0.12359313937E+04  0.50400001928E-02 0.  1.
    10030    2    1    2    0    0  0.00000000000E+00  0.00000000000E+00 -0.94443255775E+03  0.15274302297E+04  0.12004541851E+04 0.  0.
        4    1    3    3  502    0  0.18593060457E+03  0.55749701743E+03 -0.31691416055E+03  0.66768953280E+03  0.12699999809E+01 0. -1.
       -4    1    3    3    0  502 -0.18593060457E+03 -0.55749701743E+03 -0.62751839721E+03  0.85974069689E+03  0.12699999809E+01 0.  1.
</event>
<event>
 5   0  0.5620246E-05  0.1200233E+04  0.7818609E-02  0.9112653E-01
        1   -1    0    0  501    0  0.00000000000E+00  0.00000000000E+00  0.39531547684E+03  0.39531547688E+03  0.50400001928E-02 0.  1.
       -1   -1    0    0    0  501  0.00000000000E+00  0.00000000000E+00 -0.91101828093E+03  0.91101828094E+03  0.50400001928E-02 0. -1.
    10030    2    1    2    0    0  0.00000000000E+00  0.00000000000E+00 -0.51570280408E+03  0.13063337578E+04  0.12002326877E+04 0.  0.
        1    1    3    3  502    0  0.24223752534E+03 -0.15754140279E+03  0.31461132986E+03  0.42717514111E+03  0.50400001928E-02 0.  1.
       -1    1    3    3    0  502 -0.24223752534E+03  0.15754140279E+03 -0.83031413395E+03  0.87915861671E+03  0.50400001928E-02 0. -1.
</event>
<event>
 5   0  0.1004006E-04  0.1199246E+04  0.7818609E-02  0.9113517E-01
       -2   -1    0    0    0  501  0.00000000000E+00  0.00000000000E+00  0.41876182568E+03  0.41876182569E+03  0.25500000920E-02 0.  1.
        2   -1    0    0  501    0  0.00000000000E+00  0.00000000000E+00 -0.85859746488E+03  0.85859746489E+03  0.25500000920E-02 0. -1.
    10030    2    1    2    0    0  0.00000000000E+00  0.00000000000E+00 -0.43983563920E+03  0.12773592906E+04  0.11992461664E+04 0.  0.
        5    1    3    3  502    0  0.26138353314E+03  0.28513340186E+03 -0.70791173907E+03  0.80671155227E+03  0.46999998093E+01 0. -1.
       -5    1    3    3    0  502 -0.26138353314E+03 -0.28513340186E+03  0.26807609986E+03  0.47064773830E+03  0.46999998093E+01 0.  1.
</event>
<event>
 5   0  0.5625746E-05  0.1199791E+04  0.7818609E-02  0.9113039E-01
       -1   -1    0    0    0  501  0.00000000000E+00  0.00000000000E+00  0.11923998545E+03  0.11923998555E+03  0.50400001928E-02 0.  1.
        1   -1    0    0  501    0  0.00000000000E+00  0.00000000000E+00 -0.30180707253E+04  0.30180707253E+04  0.50400001928E-02 0. -1.
    10030    2    1    2    0    0  0.00000000000E+00  0.00000000000E+00 -0.28988307398E+04  0.31373107108E+04  0.11997911644E+04 0.  0.
        5    1    3    3  502    0  0.20750765979E+03  0.53547109087E+03 -0.19028080902E+04  0.19875838187E+04  0.46999998093E+01 0. -1.
       -5    1    3    3    0  502 -0.20750765979E+03 -0.53547109087E+03 -0.99602264957E+03  0.11497268921E+04  0.46999998093E+01 0.  1.
</event>
<event>
 5   0  0.1023063E-04  0.1200199E+04  0.7818609E-02  0.9112683E-01
        2   -1    0    0  501    0  0.00000000000E+00  0.00000000000E+00  0.24002188688E+03  0.24002188690E+03  0.25500000920E-02 0. -1.
       -2   -1    0    0    0  501  0.00000000000E+00  0.00000000000E+00 -0.15003600470E+04  0.15003600470E+04  0.25500000920E-02 0.  1.
    10030    2    1    2    0    0  0.00000000000E+00  0.00000000000E+00 -0.12603381601E+04  0.17403819339E+04  0.12001987327E+04 0.  0.
        3    1    3    3  502    0 -0.22580201442E+03 -0.38816855915E+03 -0.12073982832E+04  0.12882049544E+04  0.10100000352E+00 0.  1.
       -3    1    3    3    0  502  0.22580201442E+03  0.38816855915E+03 -0.52939876914E+02  0.45217697951E+03  0.10100000352E+00 0. -1.
</event>
<event>
 5   0  0.5447807E-05  0.1199947E+04  0.7818609E-02  0.9112903E-01
       -1   -1    0    0    0  501  0.00000000000E+00  0.00000000000E+00  0.59669711841E+03  0.59669711843E+03  0.50400001928E-02 0.  1.
        1   -1    0    0  501    0  0.00000000000E+00  0.00000000000E+00 -0.60326807533E+03  0.60326807535E+03  0.50400001928E-02 0. -1.
    10030    2    1    2    0    0  0.00000000000E+00  0.00000000000E+00 -0.65709569180E+01  0.11999651938E+04  0.11999472025E+04 0.  0.
        2    1    3    3  502    0 -0.79070888078E+02 -0.17540975310E+01  0.59146122964E+03  0.59672578993E+03  0.25500000920E-02 0.  1.
       -2    1    3    3    0  502  0.79070888078E+02  0.17540975310E+01 -0.59803218655E+03  0.60323940385E+03  0.25500000920E-02 0. -1.
</event>
<event>
 5   0  0.5732931E-05  0.1199574E+04  0.7818609E-02  0.9113230E-01
        1   -1    0    0  501    0  0.00000000000E+00  0.00000000000E+00  0.90749682198E+03  0.90749682200E+03  0.50400001928E-02 0. -1.
       -1   -1    0    0    0  501  0.00000000000E+00  0.00000000000E+00 -0.39641393607E+03  0.39641393610E+03  0.50400001928E-02 0.  1.
    10030    2    1    2    0    0  0.00000000000E+00  0.00000000000E+00  0.51108288591E+03  0.13039107581E+04  0.11995739030E+04 0.  0.
        4    1    3    3  502    0 -0.34808503547E+03 -0.33253464592E+03  0.64443105197E+03  0.80438515420E+03  0.12699999809E+01 0. -1.
       -4    1    3    3    0  502  0.34808503547E+03  0.33253464592E+03 -0.13334816606E+03  0.49952560389E+03  0.12699999809E+01 0.  1.
</event>
<event>
 5   0  0.5620246E-05  0.1199996E+04  0.7818609E-02  0.9112860E-01
       -1   -1    0    0    0  501  0.00000000000E+00  0.00000000000E+00  0.66134086554E+03  0.66134086556E+03  0.50400001928E-02 0.  1.
        1   -1    0    0  501    0  0.00000000000E+00  0.00000000000E+00 -0.54434458668E+03  0.54434458670E+03  0.50400001928E-02 0. -1.
    10030    2    1    2    0    0  0.00000000000E+00  0.00000000000E+00  0.11699627886E+03  0.12056854523E+04  0.11999955335E+04 0.  0.
        1    1    3    3  502    0  0.58229886584E+03 -0.10255403345E+03  0.16100158748E+03  0.61278936849E+03  0.50400001928E-02 0.  1.
       -1    1    3    3    0  502 -0.58229886584E+03  0.10255403345E+03 -0.44005308615E+02  0.59289608377E+03  0.50400001928E-02 0. -1.
</event>
<event>
 5   0  0.5732931E-05  0.1199861E+04  0.7818609E-02  0.9112979E-01
       -1   -1    0    0    0  501  0.00000000000E+00  0.00000000000E+00  0.60957338451E+03  0.60957338453E+03  0.50400001928E-02 0. -1.
        1   -1    0    0  501    0  0.00000000000E+00  0.00000000000E+00 -0.59043974496E+03  0.59043974498E+03  0.50400001928E-02 0.  1.
    10030    2    1    2    0    0  0.00000000000E+00  0.00000000000E+00  0.19133639552E+02  0.12000131295E+04  0.11998605814E+04 0.  0.
        4    1    3    3  502    0 -0.20014843702E+03  0.15323056655E+03  0.55404005472E+03  0.60868793195E+03  0.12699999809E+01 0. -1.
       -4    1    3    3    0  502  0.20014843702E+03 -0.15323056655E+03 -0.53490641517E+03  0.59132519755E+03  0.12699999809E+01 0.  1.
</event>
<event>
 5   0  0.9941209E-05  0.1199544E+04  0.7818609E-02  0.9113256E-01
       -2   -1    0    0    0  501  0.00000000000E+00  0.00000000000E+00  0.51313891666E+03  0.51313891667E+03  0.25500000920E-02 0.  1.
        2   -1    0    0  501    0  0.00000000000E+00  0.00000000000E+00 -0.70103142293E+03  0.70103142293E+03  0.25500000920E-02 0. -1.
    10030    2    1    2    0    0  0.00000000000E+00  0.00000000000E+00 -0.18789250626E+03  0.12141703396E+04  0.11995440882E+04 0.  0.
        2    1    3    3  502    0  0.38837082308E+03 -0.43633073091E+03 -0.23165699254E+03  0.62839586660E+03  0.25500000920E-02 0. -1.
       -2    1    3    3    0  502 -0.38837082308E+03  0.43633073091E+03  0.43764486281E+02  0.58577447300E+03  0.25500000920E-02 0.  1.
</event>
<event>
 5   0  0.1012657E-04  0.1198995E+04  0.7818609E-02  0.9113737E-01
        2   -1    0    0  501    0  0.00000000000E+00  0.00000000000E+00  0.63042509964E+03  0.63042509965E+03  0.25500000920E-02 0. -1.
       -2   -1    0    0    0  501  0.00000000000E+00  0.00000000000E+00 -0.57008676722E+03  0.57008676722E+03  0.25500000920E-02 0.  1.
    10030    2    1    2    0    0  0.00000000000E+00  0.00000000000E+00  0.60338332424E+02  0.12005118669E+04  0.11989945905E+04 0.  0.
        1    1    3    3  502    0 -0.30251998776E+02  0.56444581291E+03  0.23012854097E+03  0.61030599255E+03  0.50400001928E-02 0. -1.
       -1    1    3    3    0  502  0.30251998776E+02 -0.56444581291E+03 -0.16979020855E+03  0.59020587432E+03  0.50400001928E-02 0.  1.
</event>
<event>
 5   0  0.1023063E-04  0.1199901E+04  0.7818609E-02  0.9112943E-01
        2   -1    0    0  501    0  0.00000000000E+00  0.00000000000E+00  0.14073083947E+04  0.14073083947E+04  0.25500000920E-02 0.  1.
       -2   -1    0    0    0  501  0.00000000000E+00  0.00000000000E+00 -0.25576533355E+03  0.25576533356E+03  0.25500000920E-02 0. -1.
    10030    2    1    2    0    0  0.00000000000E+00  0.00000000000E+00  0.11515430611E+04  0.16630737283E+04  0.11999011642E+04 0.  0.
        3    1    3    3  502    0 -0.32485711893E+03 -0.28878315550E+03  0.11489374748E+04  0.12284075829E+04  0.10100000352E+00 0.  1.
       -3    1    3    3    0  502  0.32485711893E+03  0.28878315550E+03  0.26055863603E+01  0.43466614533E+03  0.10100000352E+00 0. -1.
</event>
<event>
 5   0  0.1012657E-04  0.1199390E+04  0.7818609E-02  0.9113391E-01
        2   -1    0    0  501    0  0.00000000000E+00  0.00000000000E+00  0.10306432858E+04  0.10306432858E+04  0.25500000920E-02 0.  1.
       -2   -1    0    0    0  501  0.00000000000E+00  0.00000000000E+00 -0.34894113402E+03  0.34894113403E+03  0.25500000920E-02 0. -1.
    10030    2    1    2    0    0  0.00000000000E+00  0.00000000000E+00  0.68170215180E+03  0.13795844198E+04  0.11993895730E+04 0.  0.
        1    1    3    3  502    0  0.25069193098E+03 -0.80097294470E+02 -0.27896843435E+03  0.38351715506E+03  0.50400001928E-02 0. -1.
       -1    1    3    3    0  502 -0.25069193098E+03  0.80097294470E+02  0.96067058616E+03  0.99606726478E+03  0.50400001928E-02 0.  1.
</event>
<event>
 5   0  0.9838215E-05  0.1199556E+04  0.7818609E-02  0.9113245E-01
       -2   -1    0    0    0  501  0.00000000000E+00  0.00000000000E+00  0.69102489530E+03  0.69102489531E+03  0.25500000920E-02 0.  1.
        2   -1    0    0  501    0  0.00000000000E+00  0.00000000000E+00 -0.52057964770E+03  0.52057964771E+03  0.25500000920E-02 0. -1.
    10030    2    1    2    0    0  0.00000000000E+00  0.00000000000E+00  0.17044524760E+03  0.12116045430E+04  0.11995557454E+04 0.  0.
        4    1    3    3  502    0  0.28192207086E+03 -0.15695302655E+03 -0.42544204902E+03  0.53396334757E+03  0.12699999809E+01 0. -1.
       -4    1    3    3    0  502 -0.28192207086E+03  0.15695302655E+03  0.59588729662E+03  0.67764119544E+03  0.12699999809E+01 0.  1.
</event>
<event>
 5   0  0.5745487E-05  0.1199394E+04  0.7818609E-02  0.9113387E-01
        1   -1    0    0  501    0  0.00000000000E+00  0.00000000000E+00  0.47864124719E+03  0.47864124722E+03  0.50400001928E-02 0. -1.
       -1   -1    0    0    0  501  0.00000000000E+00  0.00000000000E+00 -0.75136983474E+03  0.75136983475E+03  0.50400001928E-02 0.  1.
    10030    2    1    2    0    0  0.00000000000E+00  0.00000000000E+00 -0.27272858755E+03  0.12300110820E+04  0.11993941718E+04 0.  0.
        3    1    3    3  502    0  0.42341241483E+02  0.43868501648E+03  0.28071043066E+03  0.52252816240E+03  0.10100000352E+00 0. -1.
       -3    1    3    3    0  502 -0.42341241483E+02 -0.43868501648E+03 -0.55343901821E+03  0.70748291958E+03  0.10100000352E+00 0.  1.
</event>
<event>
 5   0  0.5620246E-05  0.1200239E+04  0.7818609E-02  0.9112648E-01
       -1   -1    0    0    0  501  0.00000000000E+00  0.00000000000E+00  0.24701923363E+03  0.24701923368E+03  0.50400001928E-02 0.  1.
        1   -1    0    0  501    0  0.00000000000E+00  0.00000000000E+00 -0.14579558219E+04  0.14579558219E+04  0.50400001928E-02 0. -1.
    10030    2    1    2    0    0  0.00000000000E+00  0.00000000000E+00 -0.12109365883E+04  0.17049750556E+04  0.12002385260E+04 0.  0.
        1    1    3    3  502    0  0.52589034942E+03  0.27624411429E+03 -0.48433396617E+03  0.76645343049E+03  0.50400001928E-02 0. -1.
       -1    1    3    3    0  502 -0.52589034942E+03 -0.27624411429E+03 -0.72660262209E+03  0.93852162508E+03  0.50400001928E-02 0.  1.
</event>
<event>
 5   0  0.5625746E-05  0.1200061E+04  0.7818609E-02  0.9112804E-01
       -1   -1    0    0    0  501  0.00000000000E+00  0.00000000000E+00  0.26013809519E+03  0.26013809524E+03  0.50400001928E-02 0. -1.
        1   -1    0    0  501    0  0.00000000000E+00  0.00000000000E+00 -0.13840199692E+04  0.13840199692E+04  0.50400001928E-02 0.  1.
    10030    2    1    2    0    0  0.00000000000E+00  0.00000000000E+00 -0.11238818740E+04  0.16441580645E+04  0.12000605294E+04 0.  0.
        5    1    3    3  502    0  0.17360437373E+03 -0.49352813519E+03 -0.96443569606E+03  0.10972086404E+04  0.46999998093E+01 0. -1.
       -5    1    3    3    0  502 -0.17360437373E+03  0.49352813519E+03 -0.15944617798E+03  0.54694942406E+03  0.46999998093E+01 0.  1.
</event>
<event>
 5   0  0.5620246E-05  0.1200552E+04  0.7818609E-02  0.9112373E-01
       -1   -1    0    0    0  501  0.00000000000E+00  0.00000000000E+00  0.27385302537E+03  0.27385302541E+03  0.50400001928E-02 0. -1.
        1   -1    0    0  501    0  0.00000000000E+00  0.00000000000E+00 -0.13157842891E+04  0.13157842891E+04  0.50400001928E-02 0.  1.
    10030    2    1    2    0    0  0.00000000000E+00  0.00000000000E+00 -0.10419312638E+04  0.15896373145E+04  0.12005523868E+04 0.  0.
        1    1    3    3  502    0  0.52680090737E+03  0.61397142958E+02 -0.14870438706E+03  0.55081920802E+03  0.50400001928E-02 0. -1.
       -1    1    3    3    0  502 -0.52680090737E+03 -0.61397142958E+02 -0.89322687670E+03  0.10388181065E+04  0.50400001928E-02 0.  1.
</event>
<event>
 5   0  0.5732931E-05  0.1199882E+04  0.7818609E-02  0.9112959E-01
        1   -1    0    0  501    0  0.00000000000E+00  0.00000000000E+00  0.83797631116E+03  0.83797631117E+03  0.50400001928E-02 0.  1.
       -1   -1    0    0    0  501  0.00000000000E+00  0.00000000000E+00 -0.42952227999E+03  0.42952228002E+03  0.50400001928E-02 0. -1.
    10030    2    1    2    0    0  0.00000000000E+00  0.00000000000E+00  0.40845403117E+03  0.12674985912E+04  0.11998824872E+04 0.  0.
        4    1    3    3  502    0 -0.19538917861E+03  0.16230090990E+03  0.77837110885E+03  0.81876841198E+03  0.12699999809E+01 0.  1.
       -4    1    3    3    0  502  0.19538917861E+03 -0.16230090990E+03 -0.36991707768E+03  0.44873017921E+03  0.12699999809E+01 0. -1.
</event>
<event>
 5   0  0.5745487E-05  0.1199673E+04  0.7818609E-02  0.9113143E-01
       -1   -1    0    0    0  501  0.00000000000E+00  0.00000000000E+00  0.58635009711E+03  0.58635009714E+03  0.50400001928E-02 0. -1.
        1   -1    0    0  501    0  0.00000000000E+00  0.00000000000E+00 -0.61363344659E+03  0.61363344661E+03  0.50400001928E-02 0.  1.
    10030    2    1    2    0    0  0.00000000000E+00  0.00000000000E+00 -0.27283349475E+02  0.11999835437E+04  0.11996733406E+04 0.  0.
        3    1    3    3  502    0 -0.55704223906E+03 -0.25588275250E+02  0.20744308822E+03  0.59496509223E+03  0.10100000352E+00 0. -1.
       -3    1    3    3    0  502  0.55704223906E+03  0.25588275250E+02 -0.23472643769E+03  0.60501845152E+03  0.10100000352E+00 0.  1.
</event>
<event>
 5   0  0.9838215E-05  0.1200285E+04  0.7818609E-02  0.9112607E-01
        2   -1    0    0  501    0  0.00000000000E+00  0.00000000000E+00  0.22680416429E+04  0.22680416429E+04  0.25500000920E-02 0. -1.
       -2   -1    0    0    0  501  0.00000000000E+00  0.00000000000E+00 -0.15880277895E+03  0.15880277897E+03  0.25500000920E-02 0.  1.
    10030    2    1    2    0    0  0.00000000000E+00  0.00000000000E+00  0.21092388640E+04  0.24268444219E+04  0.12002854922E+04 0.  0.
        4    1    3    3  502    0  0.18126881181E+03 -0.11314272294E+03 -0.79280265195E+02  0.22791803623E+03  0.12699999809E+01 0.  1.
       -4    1    3    3    0  502 -0.18126881181E+03  0.11314272294E+03  0.21885191292E+04  0.21989263857E+04  0.12699999809E+01 0. -1.
</event>
<event>
 5   0  0.5447807E-05  0.1200116E+04  0.7818609E-02  0.9112755E-01
       -1   -1    0    0    0  501  0.00000000000E+00  0.00000000000E+00  0.19591238695E+03  0.19591238701E+03  0.50400001928E-02 0.  1.
        1   -1    0    0  501    0  0.00000000000E+00  0.00000000000E+00 -0.18379123337E+04  0.18379123337E+04  0.50400001928E-02 0. -1.
    10030    2    1    2    0    0  0.00000000000E+00  0.00000000000E+00 -0.16419999467E+04  0.20338247207E+04  0.12001163150E+04 0.  0.
        2    1    3    3  502    0  0.93147726056E+02  0.47387486069E+03 -0.21745269427E+03  0.52964096963E+03  0.25500000920E-02 0.  1.
       -2    1    3    3    0  502 -0.93147726056E+02 -0.47387486069E+03 -0.14245472525E+04  0.15041837511E+04  0.25500000920E-02 0. -1.
</event>
<event>
 5   0  0.5745487E-05  0.1200325E+04  0.7818609E-02  0.9112572E-01
       -1   -1    0    0    0  501  0.00000000000E+00  0.00000000000E+00  0.19481001134E+04  0.19481001135E+04  0.50400001928E-02 0.  1.
        1   -1    0    0  501    0  0.00000000000E+00  0.00000000000E+00 -0.18489552309E+03  0.18489552316E+03  0.50400001928E-02 0. -1.
    10030    2    1    2    0    0  0.00000000000E+00  0.00000000000E+00  0.17632045904E+04  0.21329956366E+04  0.12003249386E+04 0.  0.
        3    1    3    3  502    0  0.17890144726E+02  0.36243781341E+03  0.17310708552E+04  0.17686965658E+04  0.10100000352E+00 0.  1.
       -3    1    3    3    0  502 -0.17890144726E+02 -0.36243781341E+03  0.32133735152E+02  0.36429907083E+03  0.10100000352E+00 0. -1.
</event>
<event>
 5   0  0.1004006E-04  0.1200490E+04  0.7818609E-02  0.9112428E-01
        2   -1    0    0  501    0  0.00000000000E+00  0.00000000000E+00  0.11277970966E+04  0.11277970966E+04  0.25500000920E-02 0.  1.
       -2   -1    0    0    0  501  0.00000000000E+00  0.00000000000E+00 -0.31946698691E+03  0.31946698692E+03  0.25500000920E-02 0. -1.
    10030    2    1    2    0    0  0.00000000000E+00  0.00000000000E+00  0.80833010972E+03  0.14472640836E+04  0.12004898006E+04 0.  0.
        5    1    3    3  502    0  0.79024413197E+02 -0.98878333531E+02  0.11115019747E+04  0.11186958982E+04  0.46999998093E+01 0.  1.
       -5    1    3    3    0  502 -0.79024413197E+02  0.98878333531E+02 -0.30317186501E+03  0.32856818540E+03  0.46999998093E+01 0. -1.
</event>
<event>
 5   0  0.5447807E-05  0.1200064E+04  0.7818609E-02  0.9112800E-01
       -1   -1    0    0    0  501  0.00000000000E+00  0.00000000000E+00  0.11277219130E+04  0.11277219131E+04  0.50400001928E-02 0. -1.
        1   -1    0    0  501    0  0.00000000000E+00  0.00000000000E+00 -0.31926189474E+03  0.31926189478E+03  0.50400001928E-02 0.  1.
    10030    2    1    2    0    0  0.00000000000E+00  0.00000000000E+00  0.80846001830E+03  0.14469838078E+04  0.12000643895E+04 0.  0.
        2    1    3    3  502    0 -0.22521984108E+03 -0.46997710589E+03  0.45659882406E+02  0.52315129909E+03  0.25500000920E-02 0.  1.
       -2    1    3    3    0  502  0.22521984108E+03  0.46997710589E+03  0.76280013589E+03  0.92383250874E+03  0.25500000920E-02 0. -1.
</event>
<event>
 5   0  0.5745487E-05  0.1200974E+04  0.7818609E-02  0.9112004E-01
       -1   -1    0    0    0  501  0.00000000000E+00  0.00000000000E+00  0.12529836220E+04  0.12529836220E+04  0.50400001928E-02 0.  1.
        1   -1    0    0  501    0  0.00000000000E+00  0.00000000000E+00 -0.28778081046E+03  0.28778081051E+03  0.50400001928E-02 0. -1.
    10030    2    1    2    0    0  0.00000000000E+00  0.00000000000E+00  0.96520281155E+03  0.15407644325E+04  0.12009740085E+04 0.  0.
        3    1    3    3  502    0  0.35877072915E+03  0.40720471949E+03  0.15287987558E+03  0.56383010404E+03  0.10100000352E+00 0. -1.
       -3    1    3    3    0  502 -0.35877072915E+03 -0.40720471949E+03  0.81232293597E+03  0.97693432849E+03  0.10100000352E+00 0.  1.
</event>
<event>
 5   0  0.5625746E-05  0.1200332E+04  0.7818609E-02  0.9112566E-01
       -1   -1    0    0    0  501  0.00000000000E+00  0.00000000000E+00  0.53383113324E+03  0.53383113326E+03  0.50400001928E-02 0.  1.
        1   -1    0    0  501    0  0.00000000000E+00  0.00000000000E+00 -0.67474425249E+03  0.67474425250E+03  0.50400001928E-02 0. -1.
    10030    2    1    2    0    0  0.00000000000E+00  0.00000000000E+00 -0.14091311925E+03  0.12085753858E+04  0.12003324356E+04 0.  0.
        5    1    3    3  502    0  0.91416192912E+02 -0.27690763183E+03  0.45768598655E+03  0.54270923078E+03  0.46999998093E+01 0.  1.
       -5    1    3    3    0  502 -0.91416192912E+02  0.27690763183E+03 -0.59859910580E+03  0.66586615498E+03  0.46999998093E+01 0. -1.
</event>
<event>
 5   0  0.9941209E-05  0.1200376E+04  0.7818609E-02  0.9112527E-01
       -2   -1    0    0    0  501  0.00000000000E+00  0.00000000000E+00  0.22664249218E+03  0.22664249219E+03  0.25500000920E-02 0. -1.
        2   -1    0    0  501    0  0.00000000000E+00  0.00000000000E+00 -0.15894007129E+04  0.15894007129E+04  0.25500000920E-02 0.  1.
    10030    2    1    2    0    0  0.00000000000E+00  0.00000000000E+00 -0.13627582207E+04  0.18160432051E+04  0.12003761721E+04 0.  0.
        2    1    3    3  502    0  0.35097052931E+03  0.46690273535E+03 -0.47258170980E+03  0.75134010220E+03  0.25500000920E-02 0. -1.
       -2    1    3    3    0  502 -0.35097052931E+03 -0.46690273535E+03 -0.89017651092E+03  0.10647031029E+04  0.25500000920E-02 0.  1.
</event>
<event>
 5   0  0.9941209E-05  0.1200212E+04  0.7818609E-02  0.9112671E-01
        2   -1    0    0  501    0  0.00000000000E+00  0.00000000000E+00  0.31268973199E+03  0.31268973200E+03  0.25500000920E-02 0. -1.
       -2   -1    0    0    0  501  0.00000000000E+00  0.00000000000E+00 -0.11517070330E+04  0.11517070330E+04  0.25500000920E-02 0.  1.
    10030    2    1    2    0    0  0.00000000000E+00  0.00000000000E+00 -0.83901730099E+03  0.14643967650E+04  0.12002115872E+04 0.  0.
        2    1    3    3  502    0  0.32008951448E+03  0.77155374914E+02 -0.10316574085E+04  0.10829253241E+04  0.25500000920E-02 0.  1.
       -2    1    3    3    0  502 -0.32008951448E+03 -0.77155374914E+02  0.19264010750E+03  0.38147144085E+03  0.25500000920E-02 0. -1.
</event>
<event>
 5   0  0.1004006E-04  0.1200094E+04  0.7818609E-02  0.9112775E-01
       -2   -1    0    0    0  501  0.00000000000E+00  0.00000000000E+00  0.26862300176E+03  0.26862300178E+03  0.25500000920E-02 0. -1.
        2   -1    0    0  501    0  0.00000000000E+00  0.00000000000E+00 -0.13403775181E+04  0.13403775181E+04  0.25500000920E-02 0.  1.
    10030    2    1    2    0    0  0.00000000000E+00  0.00000000000E+00 -0.10717545163E+04  0.16090005199E+04  0.12000937170E+04 0.  0.
        5    1    3    3  502    0  0.95467685123E+02  0.46259153353E+03 -0.10319997968E+04  0.11349672578E+04  0.46999998093E+01 0. -1.
       -5    1    3    3    0  502 -0.95467685123E+02 -0.46259153353E+03 -0.39754719556E+02  0.47403326205E+03  0.46999998093E+01 0.  1.
</event>
<event>
 5   0  0.9838215E-05  0.1200142E+04  0.7818609E-02  0.9112732E-01
       -2   -1    0    0    0  501  0.00000000000E+00  0.00000000000E+00  0.23210274510E+03  0.23210274512E+03  0.25500000920E-02 0. -1.
        2   -1    0    0  501    0  0.00000000000E+00  0.00000000000E+00 -0.15514049302E+04  0.15514049302E+04  0.25500000920E-02 0.  1.
    10030    2    1    2    0    0  0.00000000000E+00  0.00000000000E+00 -0.13193021851E+04  0.17835076754E+04  0.12001422301E+04 0.  0.
        4    1    3    3  502    0  0.52413969362E+03 -0.20017209635E+03 -0.34338317353E+03  0.65780308858E+03  0.12699999809E+01 0.  1.
       -4    1    3    3    0  502 -0.52413969362E+03  0.20017209635E+03 -0.97591901160E+03  0.11257045868E+04  0.12699999809E+01 0. -1.
</event>
<event>
 5   0  0.5620246E-05  0.1200765E+04  0.7818609E-02  0.9112187E-01
        1   -1    0    0  501    0  0.00000000000E+00  0.00000000000E+00  0.67193332329E+03  0.67193332330E+03  0.50400001928E-02 0. -1.
       -1   -1    0    0    0  501  0.00000000000E+00  0.00000000000E+00 -0.53645116153E+03  0.53645116155E+03  0.50400001928E-02 0.  1.
    10030    2    1    2    0    0  0.00000000000E+00  0.00000000000E+00  0.13548216175E+03  0.12083844849E+04  0.12007654422E+04 0.  0.
        1    1    3    3  502    0  0.28491913198E+03  0.20761114745E+03  0.55680630514E+03  0.65902546369E+03  0.50400001928E-02 0. -1.
       -1    1    3    3    0  502 -0.28491913198E+03 -0.20761114745E+03 -0.42132414339E+03  0.54935902117E+03  0.50400001928E-02 0.  1.
</event>
<event>
 5   0  0.9838215E-05  0.1200970E+04  0.7818609E-02  0.9112008E-01
       -2   -1    0    0    0  501  0.00000000000E+00  0.00000000000E+00  0.25181256496E+03  0.25181256497E+03  0.25500000920E-02 0.  1.
        2   -1    0    0  501    0  0.00000000000E+00  0.00000000000E+00 -0.14319471975E+04  0.14319471975E+04  0.25500000920E-02 0. -1.
    10030    2    1    2    0    0  0.00000000000E+00  0.00000000000E+00 -0.11801346325E+04  0.16837597625E+04  0.12009701024E+04 0.  0.
        4    1    3    3  502    0  0.36635232404E+03 -0.44893105067E+03 -0.36915748692E+03  0.68704583300E+03  0.12699999809E+01 0. -1.
       -4    1    3    3    0  502 -0.36635232404E+03  0.44893105067E+03 -0.81097714561E+03  0.99671392946E+03  0.12699999809E+01 0.  1.
</event>
<event>
 5   0  0.5732931E-05  0.1200554E+04  0.7818609E-02  0.9112372E-01
       -1   -1    0    0    0  501  0.00000000000E+00  0.00000000000E+00  0.50539551766E+03  0.50539551769E+03  0.50400001928E-02 0.  1.
        1   -1    0    0  501    0  0.00000000000E+00  0.00000000000E+00 -0.71297105485E+03  0.71297105486E+03  0.50400001928E-02 0. -1.
    10030    2    1    2    0    0  0.00000000000E+00  0.00000000000E+00 -0.20757553718E+03  0.12183665726E+04  0.12005538311E+04 0.  0.
        4    1    3    3  502    0  0.85533728861E+02  0.22064081658E+03 -0.66363613307E+03  0.70456576608E+03  0.12699999809E+01 0. -1.
       -4    1    3    3    0  502 -0.85533728861E+02 -0.22064081658E+03  0.45606059589E+03  0.51380080647E+03  0.12699999809E+01 0.  1.
</event>
<event>
 5   0  0.1012657E-04  0.1199438E+04  0.7818609E-02  0.9113349E-01
       -2   -1    0    0    0  501  0.00000000000E+00  0.00000000000E+00  0.72803453295E+03  0.72803453295E+03  0.25500000920E-02 0. -1.
        2   -1    0    0  501    0  0.00000000000E+00  0.00000000000E+00 -0.49401906096E+03  0.49401906097E+03  0.25500000920E-02 0.  1.
    10030    2    1    2    0    0  0.00000000000E+00  0.00000000000E+00  0.23401547199E+03  0.12220535939E+04  0.11994380956E+04 0.  0.
        1    1    3    3  502    0 -0.29451175062E+03 -0.48156933319E+03 -0.89336811100E+02  0.57151313175E+03  0.50400001928E-02 0.  1.
       -1    1    3    3    0  502  0.29451175062E+03  0.48156933319E+03  0.32335228309E+03  0.65054046217E+03  0.50400001928E-02 0. -1.
</event>
<event>
 5   0  0.5745487E-05  0.1199371E+04  0.7818609E-02  0.9113407E-01
        1   -1    0    0  501    0  0.00000000000E+00  0.00000000000E+00  0.23168953482E+04  0.23168953482E+04  0.50400001928E-02 0. -1.
       -1   -1    0    0    0  501  0.00000000000E+00  0.00000000000E+00 -0.15521749331E+03  0.15521749339E+03  0.50400001928E-02 0.  1.
    10030    2    1    2    0    0  0.00000000000E+00  0.00000000000E+00  0.21616778549E+04  0.24721128416E+04  0.11993709823E+04 0.  0.
        3    1    3    3  502    0  0.34732240494E+03 -0.16183777600E+03  0.13001765171E+03  0.40463430239E+03  0.10100000352E+00 0.  1.
       -3    1    3    3    0  502 -0.34732240494E+03  0.16183777600E+03  0.20316602032E+04  0.20674785392E+04  0.10100000352E+00 0. -1.
</event>
<event>
 5   0  0.1023063E-04  0.1199847E+04  0.7818609E-02  0.9112991E-01
        2   -1    0    0  501    0  0.00000000000E+00  0.00000000000E+00  0.15443058147E+04  0.15443058147E+04  0.25500000920E-02 0. -1.
       -2   -1    0    0    0  501  0.00000000000E+00  0.00000000000E+00 -0.23305492581E+03  0.23305492583E+03  0.25500000920E-02 0.  1.
    10030    2    1    2    0    0  0.00000000000E+00  0.00000000000E+00  0.13112508889E+04  0.17773607405E+04  0.11998467854E+04 0.  0.
        3    1    3    3  502    0 -0.33312037870E+03 -0.47393789135E+03  0.42460668449E+03  0.71824588984E+03  0.10100000352E+00 0.  1.
       -3    1    3    3    0  502  0.33312037870E+03  0.47393789135E+03  0.88664420441E+03  0.10591148507E+04  0.10100000352E+00 0. -1.
</event>
<event>
 5   0  0.5625746E-05  0.1204096E+04  0.7818609E-02  0.9109279E-01
        1   -1    0    0  501    0  0.00000000000E+00  0.00000000000E+00  0.43465392406E+03  0.43465392409E+03  0.50400001928E-02 0. -1.
       -1   -1    0    0    0  501  0.00000000000E+00  0.00000000000E+00 -0.83390935741E+03  0.83390935742E+03  0.50400001928E-02 0.  1.
    10030    2    1    2    0    0  0.00000000000E+00  0.00000000000E+00 -0.39925543335E+03  0.12685632815E+04  0.12040962994E+04 0.  0.
        5    1    3    3  502    0  0.41179781253E+03  0.41758933666E+03 -0.34285330163E+03  0.67935908689E+03  0.46999998093E+01 0.  1.
       -5    1    3    3    0  502 -0.41179781253E+03 -0.41758933666E+03 -0.56402131719E+02  0.58920419462E+03  0.46999998093E+01 0. -1.
</event>
<event>
 5   0  0.1012657E-04  0.1199970E+04  0.7818609E-02  0.9112882E-01
       -2   -1    0    0    0  501  0.00000000000E+00  0.00000000000E+00  0.32384542998E+03  0.32384542999E+03  0.25500000920E-02 0.  1.
        2   -1    0    0  501    0  0.00000000000E+00  0.00000000000E+00 -0.11115865867E+04  0.11115865868E+04  0.25500000920E-02 0. -1.
    10030    2    1    2    0    0  0.00000000000E+00  0.00000000000E+00 -0.78774115677E+03  0.14354320167E+04  0.11999703932E+04 0.  0.
        1    1    3    3  502    0  0.16851408979E+03  0.51503731672E+03 -0.70193408203E+03  0.88677612260E+03  0.50400001928E-02 0. -1.
       -1    1    3    3    0  502 -0.16851408979E+03 -0.51503731672E+03 -0.85807074741E+02  0.54865589414E+03  0.50400001928E-02 0.  1.
</event>
<event>
 5   0  0.1023063E-04  0.1199682E+04  0.7818609E-02  0.9113135E-01
       -2   -1    0    0    0  501  0.00000000000E+00  0.00000000000E+00  0.70033114909E+03  0.70033114909E+03  0.25500000920E-02 0.  1.
        2   -1    0    0  501    0  0.00000000000E+00  0.00000000000E+00 -0.51377048296E+03  0.51377048297E+03  0.25500000920E-02 0. -1.
    10030    2    1    2    0    0  0.00000000000E+00  0.00000000000E+00  0.18656066612E+03  0.12141016321E+04  0.11996824125E+04 0.  0.
        3    1    3    3  502    0 -0.15417520876E+03  0.54537252886E+02 -0.49077413540E+03  0.51730413601E+03  0.10100000352E+00 0. -1.
       -3    1    3    3    0  502  0.15417520876E+03 -0.54537252886E+02  0.67733480152E+03  0.69679749605E+03  0.10100000352E+00 0.  1.
</event>
<event>
 5   0  0.5625746E-05  0.1200664E+04  0.7818609E-02  0.9112276E-01
       -1   -1    0    0    0  501  0.00000000000E+00  0.00000000000E+00  0.29480123481E+03  0.29480123485E+03  0.50400001928E-02 0. -1.
        1   -1    0    0  501    0  0.00000000000E+00  0.00000000000E+00 -0.12225135350E+04  0.12225135350E+04  0.50400001928E-02 0.  1.
    10030    2    1    2    0    0  0.00000000000E+00  0.00000000000E+00 -0.92771230014E+03  0.15173147698E+04  0.12006639825E+04 0.  0.
        5    1    3    3  502    0  0.60427619419E+02  0.31561393880E+03 -0.11046465737E+04  0.11504476512E+04  0.46999998093E+01 0.  1.
       -5    1    3    3    0  502 -0.60427619419E+02 -0.31561393880E+03  0.17693427351E+03  0.36686711858E+03  0.46999998093E+01 0. -1.
</event>
<event>
 5   0  0.5732931E-05  0.1202222E+04  0.7818609E-02  0.9110914E-01
       -1   -1    0    0    0  501  0.00000000000E+00  0.00000000000E+00  0.88926789198E+03  0.88926789200E+03  0.50400001928E-02 0.  1.
        1   -1    0    0  501    0  0.00000000000E+00  0.00000000000E+00 -0.40632811011E+03  0.40632811014E+03  0.50400001928E-02 0. -1.
    10030    2    1    2    0    0  0.00000000000E+00  0.00000000000E+00  0.48293978187E+03  0.12955960021E+04  0.12022221791E+04 0.  0.
        4    1    3    3  502    0 -0.11646662020E+03 -0.49818891138E+03 -0.98595767992E+02  0.52103685418E+03  0.12699999809E+01 0. -1.
       -4    1    3    3    0  502  0.11646662020E+03  0.49818891138E+03  0.58153554986E+03  0.77455914796E+03  0.12699999809E+01 0.  1.
</event>
<event>
 5   0  0.5447807E-05  0.1201299E+04  0.7818609E-02  0.9111721E-01
       -1   -1    0    0    0  501  0.00000000000E+00  0.00000000000E+00  0.26856524360E+03  0.26856524365E+03  0.50400001928E-02 0. -1.
        1   -1    0    0  501    0  0.00000000000E+00  0.00000000000E+00 -0.13433592438E+04  0.13433592438E+04  0.50400001928E-02 0.  1.
    10030    2    1    2    0    0  0.00000000000E+00  0.00000000000E+00 -0.10747940002E+04  0.16119244874E+04  0.12012986350E+04 0.  0.
        2    1    3    3  502    0  0.22154122950E+03  0.94232553978E+02 -0.12757864681E+04  0.12983032784E+04  0.25500000920E-02 0.  1.
       -2    1    3    3    0  502 -0.22154122950E+03 -0.94232553978E+02  0.20099246789E+03  0.31362120903E+03  0.25500000920E-02 0. -1.
</event>
<event>
 5   0  0.9838215E-05  0.1199992E+04  0.7818609E-02  0.9112864E-01
       -2   -1    0    0    0  501  0.00000000000E+00  0.00000000000E+00  0.84154260811E+03  0.84154260811E+03  0.25500000920E-02 0.  1.
        2   -1    0    0  501    0  0.00000000000E+00  0.00000000000E+00 -0.42777987513E+03  0.42777987514E+03  0.25500000920E-02 0. -1.
    10030    2    1    2    0    0  0.00000000000E+00  0.00000000000E+00  0.41376273298E+03  0.12693224833E+04  0.11999916530E+04 0.  0.
        4    1    3    3  502    0  0.59805040164E+03 -0.41321956648E+02  0.18050916254E+03  0.62606465933E+03  0.12699999809E+01 0.  1.
       -4    1    3    3    0  502 -0.59805040164E+03  0.41321956648E+02  0.23325357044E+03  0.64325782392E+03  0.12699999809E+01 0. -1.
</event>
<event>
 5   0  0.1012657E-04  0.1198827E+04  0.7818609E-02  0.9113884E-01
       -2   -1    0    0    0  501  0.00000000000E+00  0.00000000000E+00  0.35119173457E+03  0.35119173457E+03  0.25500000920E-02 0. -1.
        2   -1    0    0  501    0  0.00000000000E+00  0.00000000000E+00 -0.10230774985E+04  0.10230774985E+04  0.25500000920E-02 0.  1.
    10030    2    1    2    0    0  0.00000000000E+00  0.00000000000E+00 -0.67188576391E+03  0.13742692331E+04  0.11988266952E+04 0.  0.
        1    1    3    3  502    0 -0.28305744190E+03  0.19607319786E+03  0.22650289331E+03  0.41215261134E+03  0.50400001928E-02 0. -1.
       -1    1    3    3    0  502  0.28305744190E+03 -0.19607319786E+03 -0.89838865722E+03  0.96211662172E+03  0.50400001928E-02 0.  1.
</event>
<event>
 5   0  0.5620246E-05  0.1199872E+04  0.7818609E-02  0.9112969E-01
       -1   -1    0    0    0  501  0.00000000000E+00  0.00000000000E+00  0.37411212253E+03  0.37411212256E+03  0.50400001928E-02 0. -1.
        1   -1    0    0  501    0  0.00000000000E+00  0.00000000000E+00 -0.96207271783E+03  0.96207271784E+03  0.50400001928E-02 0.  1.
    10030    2    1    2    0    0  0.00000000000E+00  0.00000000000E+00 -0.58796059530E+03  0.13361848404E+04  0.11998717707E+04 0.  0.
        1    1    3    3  502    0  0.36483991400E+03  0.22442443311E+03 -0.76175936652E+03  0.87392895680E+03  0.50400001928E-02 0.  1.
       -1    1    3    3    0  502 -0.36483991400E+03 -0.22442443311E+03  0.17379877122E+03  0.46225588361E+03  0.50400001928E-02 0. -1.
</event>
<event>
 5   0  0.1004006E-04  0.1200620E+04  0.7818609E-02  0.9112314E-01
       -2   -1    0    0    0  501  0.00000000000E+00  0.00000000000E+00  0.50084652987E+03  0.50084652988E+03  0.25500000920E-02 0.  1.
        2   -1    0    0  501    0  0.00000000000E+00  0.00000000000E+00 -0.71952574672E+03  0.71952574672E+03  0.25500000920E-02 0. -1.
    10030    2    1    2    0    0  0.00000000000E+00  0.00000000000E+00 -0.21867921685E+03  0.12203722766E+04  0.12006197956E+04 0.  0.
        5    1    3    3  502    0 -0.41622811807E+03  0.41897509038E+03 -0.34817102450E-01  0.59059974927E+03  0.46999998093E+01 0. -1.
       -5    1    3    3    0  502  0.41622811807E+03 -0.41897509038E+03 -0.21864439974E+03  0.62977252732E+03  0.46999998093E+01 0.  1.
</event>
<event>
 5   0  0.5732931E-05  0.1199138E+04  0.7818609E-02  0.9113611E-01
        1   -1    0    0  501    0  0.00000000000E+00  0.00000000000E+00  0.13839701424E+04  0.13839701424E+04  0.50400001928E-02 0. -1.
       -1   -1    0    0    0  501  0.00000000000E+00  0.00000000000E+00 -0.25974759956E+03  0.25974759960E+03  0.50400001928E-02 0.  1.
    10030    2    1    2    0    0  0.00000000000E+00  0.00000000000E+00  0.11242225429E+04  0.16437177420E+04  0.11991378943E+04 0.  0.
        4    1    3    3  502    0 -0.13914939954E+03  0.55413016995E+03  0.31288159965E+03  0.65139796510E+03  0.12699999809E+01 0. -1.
       -4    1    3    3    0  502  0.13914939954E+03 -0.55413016995E+03  0.81134094321E+03  0.99231977692E+03  0.12699999809E+01 0.  1.
</event>
<event>
 5   0  0.5745487E-05  0.1200342E+04  0.7818609E-02  0.9112557E-01
        1   -1    0    0  501    0  0.00000000000E+00  0.00000000000E+00  0.71644461567E+03  0.71644461569E+03  0.50400001928E-02 0.  1.
       -1   -1    0    0    0  501  0.00000000000E+00  0.00000000000E+00 -0.50276758113E+03  0.50276758116E+03  0.50400001928E-02 0. -1.
    10030    2    1    2    0    0  0.00000000000E+00  0.00000000000E+00  0.21367703454E+03  0.12192121968E+04  0.12003418288E+04 0.  0.
        3    1    3    3  502    0  0.17832975075E+03 -0.14666003669E+03  0.66952810063E+03  0.70822210788E+03  0.10100000352E+00 0.  1.
       -3    1    3    3    0  502 -0.17832975075E+03  0.14666003669E+03 -0.45585106608E+03  0.51099008896E+03  0.10100000352E+00 0. -1.
</event>
<event>
 5   0  0.3839750E-05  0.1199604E+04  0.7818609E-02  0.9113203E-01
       -3   -1    0    0    0  501  0.00000000000E+00  0.00000000000E+00  0.12033856593E+04  0.12033856635E+04  0.10100000352E+00 0.  1.
        3   -1    0    0  501    0  0.00000000000E+00  0.00000000000E+00 -0.29895867150E+03  0.29895868856E+03  0.10100000352E+00 0. -1.
    10030    2    1    2    0    0  0.00000000000E+00  0.00000000000E+00  0.90442698776E+03  0.15023443521E+04  0.11996042581E+04 0.  0.
        1    1    3    3  502    0  0.44329473722E+03 -0.13122626920E+03 -0.26367624662E+02  0.46306134521E+03  0.50400001928E-02 0. -1.
       -1    1    3    3    0  502 -0.44329473722E+03  0.13122626920E+03  0.93079461243E+03  0.10392830068E+04  0.50400001928E-02 0.  1.
</event>
<event>
 5   0  0.5447807E-05  0.1199594E+04  0.7818609E-02  0.9113212E-01
        1   -1    0    0  501    0  0.00000000000E+00  0.00000000000E+00  0.52616758120E+03  0.52616758122E+03  0.50400001928E-02 0. -1.
       -1   -1    0    0    0  501  0.00000000000E+00  0.00000000000E+00 -0.68372928051E+03  0.68372928052E+03  0.50400001928E-02 0.  1.
    10030    2    1    2    0    0  0.00000000000E+00  0.00000000000E+00 -0.15756169931E+03  0.12098968617E+04  0.11995935674E+04 0.  0.
        2    1    3    3  502    0 -0.11208536678E+03 -0.56056027173E+03  0.10434190123E+03  0.58110083467E+03  0.25500000920E-02 0. -1.
       -2    1    3    3    0  502  0.11208536678E+03  0.56056027173E+03 -0.26190360053E+03  0.62879602708E+03  0.25500000920E-02 0.  1.
</event>
<event>
 5   0  0.3839750E-05  0.1198655E+04  0.7818609E-02  0.9114035E-01
       -3   -1    0    0    0  501  0.00000000000E+00  0.00000000000E+00  0.81441383154E+03  0.81441383780E+03  0.10100000352E+00 0.  1.
        3   -1    0    0  501    0  0.00000000000E+00  0.00000000000E+00 -0.44104523244E+03  0.44104524400E+03  0.10100000352E+00 0. -1.
    10030    2    1    2    0    0  0.00000000000E+00  0.00000000000E+00  0.37336859911E+03  0.12554590818E+04  0.11986548274E+04 0.  0.
        5    1    3    3  502    0 -0.53764596784E+03  0.18146023036E+03  0.38864395306E+03  0.68779154850E+03  0.46999998093E+01 0.  1.
       -5    1    3    3    0  502  0.53764596784E+03 -0.18146023036E+03 -0.15275353950E+02  0.56766753331E+03  0.46999998093E+01 0. -1.
</event>
<event>
 5   0  0.9838215E-05  0.1200589E+04  0.7818609E-02  0.9112341E-01
       -2   -1    0    0    0  501  0.00000000000E+00  0.00000000000E+00  0.12784710405E+03  0.12784710408E+03  0.25500000920E-02 0.  1.
        2   -1    0    0  501    0  0.00000000000E+00  0.00000000000E+00 -0.28186273501E+04  0.28186273501E+04  0.25500000920E-02 0. -1.
    10030    2    1    2    0    0  0.00000000000E+00  0.00000000000E+00 -0.26907802460E+04  0.29464744542E+04  0.12005887625E+04 0.  0.
        4    1    3    3  502    0 -0.52360494705E+02 -0.55661518793E+03 -0.80888324187E+03  0.98328825922E+03  0.12699999809E+01 0.  1.
       -4    1    3    3    0  502  0.52360494705E+02  0.55661518793E+03 -0.18818970042E+04  0.19631861949E+04  0.12699999809E+01 0. -1.
</event>
<event>
 5   0  0.5620246E-05  0.1199761E+04  0.7818609E-02  0.9113066E-01
       -1   -1    0    0    0  501  0.00000000000E+00  0.00000000000E+00  0.18324748355E+03  0.18324748362E+03  0.50400001928E-02 0. -1.
        1   -1    0    0  501    0  0.00000000000E+00  0.00000000000E+00 -0.19637726596E+04  0.19637726596E+04  0.50400001928E-02 0.  1.
    10030    2    1    2    0    0  0.00000000000E+00  0.00000000000E+00 -0.17805251761E+04  0.21470201433E+04  0.11997606398E+04 0.  0.
        1    1    3    3  502    0 -0.80556151859E+02 -0.54327104290E+02  0.16907228296E+03  0.19500298652E+03  0.50400001928E-02 0. -1.
       -1    1    3    3    0  502  0.80556151859E+02  0.54327104290E+02 -0.19495974590E+04  0.19520171567E+04  0.50400001928E-02 0.  1.
</event>
<event>
 5   0  0.5745487E-05  0.1199753E+04  0.7818609E-02  0.9113073E-01
       -1   -1    0    0    0  501  0.00000000000E+00  0.00000000000E+00  0.35456624912E+03  0.35456624916E+03  0.50400001928E-02 0.  1.
        1   -1    0    0  501    0  0.00000000000E+00  0.00000000000E+00 -0.10149069364E+04  0.10149069364E+04  0.50400001928E-02 0. -1.
    10030    2    1    2    0    0  0.00000000000E+00  0.00000000000E+00 -0.66034068728E+03  0.13694731856E+04  0.11997528840E+04 0.  0.
        3    1    3    3  502    0 -0.15530355130E+03  0.23853065527E+03 -0.93291850565E+03  0.97537326954E+03  0.10100000352E+00 0. -1.
       -3    1    3    3    0  502  0.15530355130E+03 -0.23853065527E+03  0.27257781837E+03  0.39409991603E+03  0.10100000352E+00 0.  1.
</event>
<event>
 5   0  0.9941209E-05  0.1202002E+04  0.7818609E-02  0.9111106E-01
        2   -1    0    0  501    0  0.00000000000E+00  0.00000000000E+00  0.80669422357E+03  0.80669422357E+03  0.25500000920E-02 0. -1.
       -2   -1    0    0    0  501  0.00000000000E+00  0.00000000000E+00 -0.44775582199E+03  0.44775582199E+03  0.25500000920E-02 0.  1.
    10030    2    1    2    0    0  0.00000000000E+00  0.00000000000E+00  0.35893840158E+03  0.12544500456E+04  0.12020017224E+04 0.  0.
        2    1    3    3  502    0  0.32018098441E+03 -0.43867282358E+03  0.44809569702E+03  0.70408768106E+03  0.25500000920E-02 0. -1.
       -2    1    3    3    0  502 -0.32018098441E+03  0.43867282358E+03 -0.89157295441E+02  0.55036236450E+03  0.25500000920E-02 0.  1.
</event>
<event>
 5   0  0.9838215E-05  0.1200002E+04  0.7818609E-02  0.9112855E-01
        2   -1    0    0  501    0  0.00000000000E+00  0.00000000000E+00  0.10190603107E+04  0.10190603107E+04  0.25500000920E-02 0.  1.
       -2   -1    0    0    0  501  0.00000000000E+00  0.00000000000E+00 -0.35326763825E+03  0.35326763826E+03  0.25500000920E-02 0. -1.
    10030    2    1    2    0    0  0.00000000000E+00  0.00000000000E+00  0.66579267249E+03  0.13723279490E+04  0.12000017154E+04 0.  0.
        4    1    3    3  502    0  0.14615182192E+03 -0.36442632442E+03  0.85173583623E+03  0.93788189480E+03  0.12699999809E+01 0.  1.
       -4    1    3    3    0  502 -0.14615182192E+03  0.36442632442E+03 -0.18594316373E+03  0.43444605421E+03  0.12699999809E+01 0. -1.
</event>
<event>
 5   0  0.5625746E-05  0.1200397E+04  0.7818609E-02  0.9112509E-01
       -1   -1    0    0    0  501  0.00000000000E+00  0.00000000000E+00  0.42871654194E+03  0.42871654197E+03  0.50400001928E-02 0. -1.
        1   -1    0    0  501    0  0.00000000000E+00  0.00000000000E+00 -0.84027102032E+03  0.84027102033E+03  0.50400001928E-02 0.  1.
    10030    2    1    2    0    0  0.00000000000E+00  0.00000000000E+00 -0.41155447838E+03  0.12689875623E+04  0.12003967447E+04 0.  0.
        5    1    3    3  502    0 -0.11599794408E+03  0.36304081962E+03 -0.69590944277E+03  0.79345207938E+03  0.46999998093E+01 0.  1.
       -5    1    3    3    0  502  0.11599794408E+03 -0.36304081962E+03  0.28435496439E+03  0.47553548292E+03  0.46999998093E+01 0. -1.
</event>
<event>
 5   0  0.9838215E-05  0.1199900E+04  0.7818609E-02  0.9112944E-01
        2   -1    0    0  501    0  0.00000000000E+00  0.00000000000E+00  0.90638841407E+03  0.90638841408E+03  0.25500000920E-02 0.  1.
       -2   -1    0    0    0  501  0.00000000000E+00  0.00000000000E+00 -0.39711432471E+03  0.39711432472E+03  0.25500000920E-02 0. -1.
    10030    2    1    2    0    0  0.00000000000E+00  0.00000000000E+00  0.50927408936E+03  0.13035027388E+04  0.11998997008E+04 0.  0.
        4    1    3    3  502    0  0.11436115527E+02 -0.30788566612E+02 -0.39613549728E+03  0.39749674927E+03  0.12699999809E+01 0. -1.
       -4    1    3    3    0  502 -0.11436115527E+02  0.30788566612E+02  0.90540958665E+03  0.90600598953E+03  0.12699999809E+01 0.  1.
</event>
<event>
 5   0  0.5447807E-05  0.1200063E+04  0.7818609E-02  0.9112802E-01
        1   -1    0    0  501    0  0.00000000000E+00  0.00000000000E+00  0.10462731838E+04  0.10462731839E+04  0.50400001928E-02 0.  1.
       -1   -1    0    0    0  501  0.00000000000E+00  0.00000000000E+00 -0.34411430199E+03  0.34411430202E+03  0.50400001928E-02 0. -1.
    10030    2    1    2    0    0  0.00000000000E+00  0.00000000000E+00  0.70215888186E+03  0.13903874859E+04  0.12000626090E+04 0.  0.
        2    1    3    3  502    0 -0.34672023906E+03  0.31695727266E+03  0.78359541453E+03  0.91361841627E+03  0.25500000920E-02 0.  1.
       -2    1    3    3    0  502  0.34672023906E+03 -0.31695727266E+03 -0.81436532675E+02  0.47676906960E+03  0.25500000920E-02 0. -1.
</event>
<event>
 5   0  0.1004006E-04  0.1200097E+04  0.7818609E-02  0.9112772E-01
       -2   -1    0    0    0  501  0.00000000000E+00  0.00000000000E+00  0.65413539325E+03  0.65413539325E+03  0.25500000920E-02 0.  1.
        2   -1    0    0  501    0  0.00000000000E+00  0.00000000000E+00 -0.55043348904E+03  0.55043348905E+03  0.25500000920E-02 0. -1.
    10030    2    1    2    0    0  0.00000000000E+00  0.00000000000E+00  0.10370190420E+03  0.12045688823E+04  0.12000967075E+04 0.  0.
        5    1    3    3  502    0 -0.36932303282E+03  0.32746471097E+03  0.39430163523E+03  0.63176618226E+03  0.46999998093E+01 0.  1.
       -5    1    3    3    0  502  0.36932303282E+03 -0.32746471097E+03 -0.29059973102E+03  0.57280270004E+03  0.46999998093E+01 0. -1.
</event>
<event>
 5   0  0.5447807E-05  0.1199348E+04  0.7818609E-02  0.9113427E-01
        1   -1    0    0  501    0  0.00000000000E+00  0.00000000000E+00  0.63399517225E+03  0.63399517227E+03  0.50400001928E-02 0. -1.
       -1   -1    0    0    0  501  0.00000000000E+00  0.00000000000E+00 -0.56721087066E+03  0.56721087068E+03  0.50400001928E-02 0.  1.
    10030    2    1    2    0    0  0.00000000000E+00  0.00000000000E+00  0.66784301590E+02  0.12012060430E+04  0.11993480790E+04 0.  0.
        2    1    3    3  502    0  0.44362858065E+03  0.16671106646E+03 -0.33461420879E+03  0.58014271173E+03  0.25500000920E-02 0.  1.
       -2    1    3    3    0  502 -0.44362858065E+03 -0.16671106646E+03  0.40139851038E+03  0.62106333122E+03  0.25500000920E-02 0. -1.
</event>
<event>
 5   0  0.1023063E-04  0.1200269E+04  0.7818609E-02  0.9112621E-01
        2   -1    0    0  501    0  0.00000000000E+00  0.00000000000E+00  0.58285508058E+03  0.58285508059E+03  0.25500000920E-02 0. -1.
       -2   -1    0    0    0  501  0.00000000000E+00  0.00000000000E+00 -0.61792593628E+03  0.61792593629E+03  0.25500000920E-02 0.  1.
    10030    2    1    2    0    0  0.00000000000E+00  0.00000000000E+00 -0.35070855697E+02  0.12007810169E+04  0.12002687556E+04 0.  0.
        3    1    3    3  502    0 -0.35346365505E+03 -0.47001733122E+03 -0.13720426277E+03  0.60388564067E+03  0.10100000352E+00 0.  1.
       -3    1    3    3    0  502  0.35346365505E+03  0.47001733122E+03  0.10213340707E+03  0.59689537620E+03  0.10100000352E+00 0. -1.
</event>
<event>
 5   0  0.3839750E-05  0.1199692E+04  0.7818609E-02  0.9113126E-01
        4   -1    0    0  501    0  0.00000000000E+00  0.00000000000E+00  0.89776563494E+03  0.89776653323E+03  0.12699999809E+01 0. -1.
       -4   -1    0    0    0  501  0.00000000000E+00  0.00000000000E+00 -0.40078767722E+03  0.40078968938E+03  0.12699999809E+01 0.  1.
    10030    2    1    2    0    0  0.00000000000E+00  0.00000000000E+00  0.49697795772E+03  0.12985562226E+04  0.11996921158E+04 0.  0.
        4    1    3    3  502    0  0.50198637844E+03  0.32555912421E+03  0.29485108565E+03  0.66702162117E+03  0.12699999809E+01 0. -1.
       -4    1    3    3    0  502 -0.50198637844E+03 -0.32555912421E+03  0.20212687207E+03  0.63153460144E+03  0.12699999809E+01 0.  1.
</event>
<event>
 5   0  0.9941209E-05  0.1199800E+04  0.7818609E-02  0.9113032E-01
       -2   -1    0    0    0  501  0.00000000000E+00  0.00000000000E+00  0.69327584592E+03  0.69327584593E+03  0.25500000920E-02 0. -1.
        2   -1    0    0  501    0  0.00000000000E+00  0.00000000000E+00 -0.51910075862E+03  0.51910075863E+03  0.25500000920E-02 0.  1.
    10030    2    1    2    0    0  0.00000000000E+00  0.00000000000E+00  0.17417508730E+03  0.12123766046E+04  0.11998000126E+04 0.  0.
        2    1    3    3  502    0 -0.58257894591E+03 -0.11452180669E+03  0.35928796121E+00  0.59372855879E+03  0.25500000920E-02 0.  1.
       -2    1    3    3    0  502  0.58257894591E+03  0.11452180669E+03  0.17381579934E+03  0.61864804577E+03  0.25500000920E-02 0. -1.
</event>
<event>
 5   0  0.5625746E-05  0.1200199E+04  0.7818609E-02  0.9112682E-01
       -1   -1    0    0    0  501  0.00000000000E+00  0.00000000000E+00  0.56470030624E+03  0.56470030626E+03  0.50400001928E-02 0. -1.
        1   -1    0    0  501    0  0.00000000000E+00  0.00000000000E+00 -0.63771769972E+03  0.63771769974E+03  0.50400001928E-02 0.  1.
    10030    2    1    2    0    0  0.00000000000E+00  0.00000000000E+00 -0.73017393483E+02  0.12024180060E+04  0.12001989508E+04 0.  0.
        5    1    3    3  502    0 -0.26553315459E+03  0.53576133407E+03 -0.87091918890E+02  0.60428069272E+03  0.46999998093E+01 0.  1.
       -5    1    3    3    0  502  0.26553315459E+03 -0.53576133407E+03  0.14074525408E+02  0.59813731327E+03  0.46999998093E+01 0. -1.
</event>
<event>
 5   0  0.9838215E-05  0.1199735E+04  0.7818609E-02  0.9113089E-01
        2   -1    0    0  501    0  0.00000000000E+00  0.00000000000E+00  0.61987527768E+03  0.61987527768E+03  0.25500000920E-02 0.  1.
       -2   -1    0    0    0  501  0.00000000000E+00  0.00000000000E+00 -0.58050525855E+03  0.58050525855E+03  0.25500000920E-02 0. -1.
    10030    2    1    2    0    0  0.00000000000E+00  0.00000000000E+00  0.39370019128E+02  0.12003805362E+04  0.11997347346E+04 0.  0.
        4    1    3    3  502    0  0.20274428377E+03 -0.55243686127E+03  0.13614145625E+03  0.60400980067E+03  0.12699999809E+01 0. -1.
       -4    1    3    3    0  502 -0.20274428377E+03  0.55243686127E+03 -0.96771437124E+02  0.59637073556E+03  0.12699999809E+01 0.  1.
</event>
<event>
 5   0  0.1004006E-04  0.1203539E+04  0.7818609E-02  0.9109764E-01
       -2   -1    0    0    0  501  0.00000000000E+00  0.00000000000E+00  0.13650856681E+03  0.13650856683E+03  0.25500000920E-02 0.  1.
        2   -1    0    0  501    0  0.00000000000E+00  0.00000000000E+00 -0.26527766104E+04  0.26527766104E+04  0.25500000920E-02 0. -1.
    10030    2    1    2    0    0  0.00000000000E+00  0.00000000000E+00 -0.25162680436E+04  0.27892851772E+04  0.12035393358E+04 0.  0.
        5    1    3    3  502    0 -0.34442701204E+03  0.12310300666E+03 -0.23655350389E+04  0.23936504396E+04  0.46999998093E+01 0. -1.
       -5    1    3    3    0  502  0.34442701204E+03 -0.12310300666E+03 -0.15073300465E+03  0.39563473756E+03  0.46999998093E+01 0.  1.
</event>
<event>
 5   0  0.5732931E-05  0.1198767E+04  0.7818609E-02  0.9113937E-01
       -1   -1    0    0    0  501  0.00000000000E+00  0.00000000000E+00  0.31624450965E+03  0.31624450969E+03  0.50400001928E-02 0.  1.
        1   -1    0    0  501    0  0.00000000000E+00  0.00000000000E+00 -0.11360214216E+04  0.11360214216E+04  0.50400001928E-02 0. -1.
    10030    2    1    2    0    0  0.00000000000E+00  0.00000000000E+00 -0.81977691191E+03  0.14522659313E+04  0.11987669289E+04 0.  0.
        4    1    3    3  502    0 -0.21180026007E+03  0.29306334758E+03 -0.98900674214E+03  0.10530343892E+04  0.12699999809E+01 0. -1.
       -4    1    3    3    0  502  0.21180026007E+03 -0.29306334758E+03  0.16922983023E+03  0.39923154209E+03  0.12699999809E+01 0.  1.
</event>
<event>
 5   0  0.3839750E-05  0.1200186E+04  0.7818609E-02  0.9112694E-01
       -4   -1    0    0    0  501  0.00000000000E+00  0.00000000000E+00  0.31430884659E+03  0.31431141237E+03  0.12699999809E+01 0.  1.
        4   -1    0    0  501    0  0.00000000000E+00  0.00000000000E+00 -0.11457172592E+04  0.11457179631E+04  0.12699999809E+01 0. -1.
    10030    2    1    2    0    0  0.00000000000E+00  0.00000000000E+00 -0.83140841259E+03  0.14600293754E+04  0.12001857475E+04 0.  0.
        3    1    3    3  502    0 -0.52532002111E+03 -0.26885644772E+03 -0.28318615156E+03  0.65455276388E+03  0.10100000352E+00 0.  1.
       -3    1    3    3    0  502  0.52532002111E+03  0.26885644772E+03 -0.54822226103E+03  0.80547661155E+03  0.10100000352E+00 0. -1.
</event>
<event>
 5   0  0.1004006E-04  0.1200577E+04  0.7818609E-02  0.9112351E-01
        2   -1    0    0  501    0  0.00000000000E+00  0.00000000000E+00  0.15223793646E+04  0.15223793646E+04  0.25500000920E-02 0. -1.
       -2   -1    0    0    0  501  0.00000000000E+00  0.00000000000E+00 -0.23669956677E+03  0.23669956679E+03  0.25500000920E-02 0.  1.
    10030    2    1    2    0    0  0.00000000000E+00  0.00000000000E+00  0.12856797978E+04  0.17590789314E+04  0.12005774212E+04 0.  0.
        5    1    3    3  502    0  0.29505834329E+03 -0.36308978569E+03  0.11938596891E+04  0.12822701219E+04  0.46999998093E+01 0. -1.
       -5    1    3    3    0  502 -0.29505834329E+03  0.36308978569E+03  0.91820108773E+02  0.47680880947E+03  0.46999998093E+01 0.  1.
</event>
<event>
 5   0  0.5745487E-05  0.1200384E+04  0.7818609E-02  0.9112520E-01
        1   -1    0    0  501    0  0.00000000000E+00  0.00000000000E+00  0.58647035235E+03  0.58647035237E+03  0.50400001928E-02 0. -1.
       -1   -1    0    0    0  501  0.00000000000E+00  0.00000000000E+00 -0.61423510384E+03  0.61423510387E+03  0.50400001928E-02 0.  1.
    10030    2    1    2    0    0  0.00000000000E+00  0.00000000000E+00 -0.27764751497E+02  0.12007054562E+04  0.12003844014E+04 0.  0.
        3    1    3    3  502    0  0.68017223309E+02  0.26138354951E+02 -0.60979427454E+03  0.61413241547E+03  0.10100000352E+00 0.  1.
       -3    1    3    3    0  502 -0.68017223309E+02 -0.26138354951E+02  0.58202952304E+03  0.58657304077E+03  0.10100000352E+00 0. -1.
</event>
<event>
 5   0  0.1012657E-04  0.1200084E+04  0.7818609E-02  0.9112783E-01
       -2   -1    0    0    0  501  0.00000000000E+00  0.00000000000E+00  0.32467719255E+03  0.32467719256E+03  0.25500000920E-02 0.  1.
        2   -1    0    0  501    0  0.00000000000E+00  0.00000000000E+00 -0.11089486470E+04  0.11089486470E+04  0.25500000920E-02 0. -1.
    10030    2    1    2    0    0  0.00000000000E+00  0.00000000000E+00 -0.78427145448E+03  0.14336258396E+04  0.12000838861E+04 0.  0.
        1    1    3    3  502    0 -0.55837398284E+03 -0.82356212107E+02 -0.63545498250E+03  0.84992181122E+03  0.50400001928E-02 0. -1.
       -1    1    3    3    0  502  0.55837398284E+03  0.82356212107E+02 -0.14881647198E+03  0.58370402837E+03  0.50400001928E-02 0.  1.
</event>
<event>
 5   0  0.5620246E-05  0.1200082E+04  0.7818609E-02  0.9112785E-01
       -1   -1    0    0    0  501  0.00000000000E+00  0.00000000000E+00  0.69287161619E+03  0.69287161621E+03  0.50400001928E-02 0. -1.
        1   -1    0    0  501    0  0.00000000000E+00  0.00000000000E+00 -0.51964777686E+03  0.51964777688E+03  0.50400001928E-02 0.  1.
    10030    2    1    2    0    0  0.00000000000E+00  0.00000000000E+00  0.17322383933E+03  0.12125193931E+04  0.12000819889E+04 0.  0.
        1    1    3    3  502    0 -0.26004009323E+02 -0.31288461079E+00  0.69230195788E+03  0.69279023326E+03  0.50400001928E-02 0. -1.
       -1    1    3    3    0  502  0.26004009323E+02  0.31288461079E+00 -0.51907811855E+03  0.51972915983E+03  0.50400001928E-02 0.  1.
</event>
<event>
 5   0  0.1012657E-04  0.1200234E+04  0.7818609E-02  0.9112651E-01
        2   -1    0    0  501    0  0.00000000000E+00  0.00000000000E+00  0.14056100106E+04  0.14056100106E+04  0.25500000920E-02 0.  1.
       -2   -1    0    0    0  501  0.00000000000E+00  0.00000000000E+00 -0.25621662672E+03  0.25621662673E+03  0.25500000920E-02 0. -1.
    10030    2    1    2    0    0  0.00000000000E+00  0.00000000000E+00  0.11493933839E+04  0.16618266373E+04  0.12002344028E+04 0.  0.
        1    1    3    3  502    0 -0.51336511407E+03 -0.13710266152E+03  0.96089362114E+03  0.10980243309E+04  0.50400001928E-02 0.  1.
       -1    1    3    3    0  502  0.51336511407E+03  0.13710266152E+03  0.18849976275E+03  0.56380230641E+03  0.50400001928E-02 0. -1.
</event>
<event>
 5   0  0.1012657E-04  0.1199998E+04  0.7818609E-02  0.9112858E-01
       -2   -1    0    0    0  501  0.00000000000E+00  0.00000000000E+00  0.21868218193E+03  0.21868218195E+03  0.25500000920E-02 0.  1.
        2   -1    0    0  501    0  0.00000000000E+00  0.00000000000E+00 -0.16462185170E+04  0.16462185170E+04  0.25500000920E-02 0. -1.
    10030    2    1    2    0    0  0.00000000000E+00  0.00000000000E+00 -0.14275363351E+04  0.18649006990E+04  0.11999977621E+04 0.  0.
        1    1    3    3  502    0  0.13699110673E+03  0.50338379717E+03 -0.11743572545E+04  0.12850201445E+04  0.50400001928E-02 0. -1.
       -1    1    3    3    0  502 -0.13699110673E+03 -0.50338379717E+03 -0.25317908059E+03  0.57988055447E+03  0.50400001928E-02 0.  1.
</event>
<event>
 5   0  0.1004006E-04  0.1195959E+04  0.7818609E-02  0.9116401E-01
        2   -1    0    0  501    0  0.00000000000E+00  0.00000000000E+00  0.50295845704E+03  0.50295845704E+03  0.25500000920E-02 0. -1.
       -2   -1    0    0    0  501  0.00000000000E+00  0.00000000000E+00 -0.71095254988E+03  0.71095254988E+03  0.25500000920E-02 0.  1.
    10030    2    1    2    0    0  0.00000000000E+00  0.00000000000E+00 -0.20799409284E+03  0.12139110069E+04  0.11959591925E+04 0.  0.
        5    1    3    3  502    0  0.55308871861E+03  0.16529969665E+03  0.54313298525E+02  0.57983027238E+03  0.46999998093E+01 0. -1.
       -5    1    3    3    0  502 -0.55308871861E+03 -0.16529969665E+03 -0.26230739137E+03  0.63408073455E+03  0.46999998093E+01 0.  1.
</event>
<event>
 5   0  0.1023063E-04  0.1199815E+04  0.7818609E-02  0.9113019E-01
        2   -1    0    0  501    0  0.00000000000E+00  0.00000000000E+00  0.57640255595E+03  0.57640255596E+03  0.25500000920E-02 0.  1.
       -2   -1    0    0    0  501  0.00000000000E+00  0.00000000000E+00 -0.62437089814E+03  0.62437089814E+03  0.25500000920E-02 0. -1.
    10030    2    1    2    0    0  0.00000000000E+00  0.00000000000E+00 -0.47968342184E+02  0.12007734541E+04  0.11998149550E+04 0.  0.
        3    1    3    3  502    0 -0.49206983099E+03 -0.34307170555E+03 -0.16358528054E+02  0.60008209885E+03  0.10100000352E+00 0.  1.
       -3    1    3    3    0  502  0.49206983099E+03  0.34307170555E+03 -0.31609814131E+02  0.60069135525E+03  0.10100000352E+00 0. -1.
</event>
<event>
 5   0  0.5447807E-05  0.1199900E+04  0.7818609E-02  0.9112944E-01
        1   -1    0    0  501    0  0.00000000000E+00  0.00000000000E+00  0.80485556587E+03  0.80485556588E+03  0.50400001928E-02 0. -1.
       -1   -1    0    0    0  501  0.00000000000E+00  0.00000000000E+00 -0.44721075798E+03  0.44721075801E+03  0.50400001928E-02 0.  1.
    10030    2    1    2    0    0  0.00000000000E+00  0.00000000000E+00  0.35764480789E+03  0.12520663239E+04  0.11999001087E+04 0.  0.
        2    1    3    3  502    0 -0.41450149936E+01 -0.14869808341E+03 -0.42766198766E+03  0.45279474032E+03  0.25500000920E-02 0.  1.
       -2    1    3    3    0  502  0.41450149936E+01  0.14869808341E+03  0.78530679555E+03  0.79927158357E+03  0.25500000920E-02 0. -1.
</event>
<event>
 5   0  0.5745487E-05  0.1200332E+04  0.7818609E-02  0.9112566E-01
        1   -1    0    0  501    0  0.00000000000E+00  0.00000000000E+00  0.85259233492E+03  0.85259233494E+03  0.50400001928E-02 0. -1.
       -1   -1    0    0    0  501  0.00000000000E+00  0.00000000000E+00 -0.42247554161E+03  0.42247554164E+03  0.50400001928E-02 0.  1.
    10030    2    1    2    0    0  0.00000000000E+00  0.00000000000E+00  0.43011679331E+03  0.12750678766E+04  0.12003323015E+04 0.  0.
        3    1    3    3  502    0 -0.51475536896E+03 -0.18269679341E+03 -0.49118788715E+02  0.54841943237E+03  0.10100000352E+00 0.  1.
       -3    1    3    3    0  502  0.51475536896E+03  0.18269679341E+03  0.47923558202E+03  0.72664844421E+03  0.10100000352E+00 0. -1.
</event>
<event>
 5   0  0.3839750E-05  0.1200054E+04  0.7818609E-02  0.9112809E-01
       -3   -1    0    0    0  501  0.00000000000E+00  0.00000000000E+00  0.52457091941E+03  0.52457092913E+03  0.10100000352E+00 0.  1.
        3   -1    0    0  501    0  0.00000000000E+00  0.00000000000E+00 -0.68633662567E+03  0.68633663311E+03  0.10100000352E+00 0. -1.
    10030    2    1    2    0    0  0.00000000000E+00  0.00000000000E+00 -0.16176570626E+03  0.12109075622E+04  0.12000537407E+04 0.  0.
        2    1    3    3  502    0  0.37268901673E+03  0.19138012174E+03  0.35254700719E+03  0.54755168384E+03  0.25500000920E-02 0.  1.
       -2    1    3    3    0  502 -0.37268901673E+03 -0.19138012174E+03 -0.51431271345E+03  0.66335587840E+03  0.25500000920E-02 0. -1.
</event>
<event>
 5   0  0.5447807E-05  0.1199691E+04  0.7818609E-02  0.9113127E-01
       -1   -1    0    0    0  501  0.00000000000E+00  0.00000000000E+00  0.40523660394E+03  0.40523660397E+03  0.50400001928E-02 0. -1.
        1   -1    0    0  501    0  0.00000000000E+00  0.00000000000E+00 -0.88791225979E+03  0.88791225981E+03  0.50400001928E-02 0.  1.
    10030    2    1    2    0    0  0.00000000000E+00  0.00000000000E+00 -0.48267565585E+03  0.12931488638E+04  0.11996908748E+04 0.  0.
        2    1    3    3  502    0 -0.68991520058E+02  0.14244690644E+03  0.38232273214E+03  0.41378934558E+03  0.25500000920E-02 0. -1.
       -2    1    3    3    0  502  0.68991520058E+02 -0.14244690644E+03 -0.86499838800E+03  0.87935951819E+03  0.25500000920E-02 0.  1.
</event>
<event>
 5   0  0.5620246E-05  0.1201359E+04  0.7818609E-02  0.9111668E-01
       -1   -1    0    0    0  501  0.00000000000E+00  0.00000000000E+00  0.53847946524E+03  0.53847946527E+03  0.50400001928E-02 0.  1.
        1   -1    0    0  501    0  0.00000000000E+00  0.00000000000E+00 -0.67006427638E+03  0.67006427640E+03  0.50400001928E-02 0. -1.
    10030    2    1    2    0    0  0.00000000000E+00  0.00000000000E+00 -0.13158481114E+03  0.12085437417E+04  0.12013589859E+04 0.  0.
        1    1    3    3  502    0 -0.41999235178E+03 -0.27258584016E+03  0.26803437198E+03  0.56792520669E+03  0.50400001928E-02 0.  1.
       -1    1    3    3    0  502  0.41999235178E+03  0.27258584016E+03 -0.39961918312E+03  0.64061853498E+03  0.50400001928E-02 0. -1.
</event>
<event>
 5   0  0.9838215E-05  0.1199600E+04  0.7818609E-02  0.9113207E-01
       -2   -1    0    0    0  501  0.00000000000E+00  0.00000000000E+00  0.25092372626E+03  0.25092372628E+03  0.25500000920E-02 0. -1.
        2   -1    0    0  501    0  0.00000000000E+00  0.00000000000E+00 -0.14337428257E+04  0.14337428257E+04  0.25500000920E-02 0.  1.
    10030    2    1    2    0    0  0.00000000000E+00  0.00000000000E+00 -0.11828190995E+04  0.16846665520E+04  0.11996000873E+04 0.  0.
        4    1    3    3  502    0 -0.26975491368E+03  0.53269025999E+03 -0.67124637490E+03  0.89838740823E+03  0.12699999809E+01 0. -1.
       -4    1    3    3    0  502  0.26975491368E+03 -0.53269025999E+03 -0.51157272457E+03  0.78627914379E+03  0.12699999809E+01 0.  1.
</event>
<event>
 5   0  0.5745487E-05  0.1200043E+04  0.7818609E-02  0.9112819E-01
        1   -1    0    0  501    0  0.00000000000E+00  0.00000000000E+00  0.11606137682E+04  0.11606137682E+04  0.50400001928E-02 0. -1.
       -1   -1    0    0    0  501  0.00000000000E+00  0.00000000000E+00 -0.31020272742E+03  0.31020272746E+03  0.50400001928E-02 0.  1.
    10030    2    1    2    0    0  0.00000000000E+00  0.00000000000E+00  0.85041104073E+03  0.14708164956E+04  0.12000425933E+04 0.  0.
        3    1    3    3  502    0  0.45826357360E+03  0.81380066175E+02  0.88932774033E+03  0.10037589641E+04  0.10100000352E+00 0. -1.
       -3    1    3    3    0  502 -0.45826357360E+03 -0.81380066175E+02 -0.38916699601E+02  0.46705753154E+03  0.10100000352E+00 0.  1.
</event>
<event>
 5   0  0.9941209E-05  0.1200155E+04  0.7818609E-02  0.9112721E-01
        2   -1    0    0  501    0  0.00000000000E+00  0.00000000000E+00  0.11606415750E+04  0.11606415750E+04  0.25500000920E-02 0.  1.
       -2   -1    0    0    0  501  0.00000000000E+00  0.00000000000E+00 -0.31025316612E+03  0.31025316613E+03  0.25500000920E-02 0. -1.
    10030    2    1    2    0    0  0.00000000000E+00  0.00000000000E+00  0.85038840885E+03  0.14708947411E+04  0.12001545290E+04 0.  0.
        2    1    3    3  502    0  0.21817259323E+03 -0.12032644111E+03 -0.24386335493E+03  0.34863601184E+03  0.25500000920E-02 0. -1.
       -2    1    3    3    0  502 -0.21817259323E+03  0.12032644111E+03  0.10942517638E+04  0.11222587293E+04  0.25500000920E-02 0.  1.
</event>
<event>
 5   0  0.5625746E-05  0.1200236E+04  0.7818609E-02  0.9112650E-01
        1   -1    0    0  501    0  0.00000000000E+00  0.00000000000E+00  0.73218759579E+03  0.73218759581E+03  0.50400001928E-02 0.  1.
       -1   -1    0    0    0  501  0.00000000000E+00  0.00000000000E+00 -0.49187088708E+03  0.49187088710E+03  0.50400001928E-02 0. -1.
    10030    2    1    2    0    0  0.00000000000E+00  0.00000000000E+00  0.24031670871E+03  0.12240584829E+04  0.12002362472E+04 0.  0.
        5    1    3    3  502    0 -0.52045610379E+03  0.28561554143E+03  0.30848091690E+02  0.59449515409E+03  0.46999998093E+01 0. -1.
       -5    1    3    3    0  502  0.52045610379E+03 -0.28561554143E+03  0.20946861702E+03  0.62956332882E+03  0.46999998093E+01 0.  1.
</event>
<event>
 5   0  0.9838215E-05  0.1200110E+04  0.7818609E-02  0.9112760E-01
       -2   -1    0    0    0  501  0.00000000000E+00  0.00000000000E+00  0.25511775550E+03  0.25511775552E+03  0.25500000920E-02 0.  1.
        2   -1    0    0  501    0  0.00000000000E+00  0.00000000000E+00 -0.14113721886E+04  0.14113721886E+04  0.25500000920E-02 0. -1.
    10030    2    1    2    0    0  0.00000000000E+00  0.00000000000E+00 -0.11562544331E+04  0.16664899441E+04  0.12001101699E+04 0.  0.
        4    1    3    3  502    0  0.39429971742E+03  0.12787749902E+03 -0.11805994590E+04  0.12512560160E+04  0.12699999809E+01 0. -1.
       -4    1    3    3    0  502 -0.39429971742E+03 -0.12787749902E+03  0.24345025930E+02  0.41523392816E+03  0.12699999809E+01 0.  1.
</event>
<event>
 5   0  0.1012657E-04  0.1199899E+04  0.7818609E-02  0.9112945E-01
       -2   -1    0    0    0  501  0.00000000000E+00  0.00000000000E+00  0.62424119980E+03  0.62424119981E+03  0.25500000920E-02 0. -1.
        2   -1    0    0  501    0  0.00000000000E+00  0.00000000000E+00 -0.57660313262E+03  0.57660313262E+03  0.25500000920E-02 0.  1.
    10030    2    1    2    0    0  0.00000000000E+00  0.00000000000E+00  0.47638067184E+02  0.12008443324E+04  0.11998990480E+04 0.  0.
        1    1    3    3  502    0  0.44118438690E+03 -0.23795484902E+03  0.35373501022E+03  0.61351009030E+03  0.50400001928E-02 0. -1.
       -1    1    3    3    0  502 -0.44118438690E+03  0.23795484902E+03 -0.30609694304E+03  0.58733424213E+03  0.50400001928E-02 0.  1.
</event>
<event>
 5   0  0.1012657E-04  0.1197864E+04  0.7818609E-02  0.9114728E-01
       -2   -1    0    0    0  501  0.00000000000E+00  0.00000000000E+00  0.24447348438E+03  0.24447348439E+03  0.25500000920E-02 0.  1.
        2   -1    0    0  501    0  0.00000000000E+00  0.00000000000E+00 -0.14673154085E+04  0.14673154085E+04  0.25500000920E-02 0. -1.
    10030    2    1    2    0    0  0.00000000000E+00  0.00000000000E+00 -0.12228419241E+04  0.17117888929E+04  0.11978642838E+04 0.  0.
        1    1    3    3  502    0 -0.63614567501E+02  0.38877786370E+03  0.33269311198E+02  0.39535033527E+03  0.50400001928E-02 0.  1.
       -1    1    3    3    0  502  0.63614567501E+02 -0.38877786370E+03 -0.12561112353E+04  0.13164385576E+04  0.50400001928E-02 0. -1.
</event>
<event>
 5   0  0.5732931E-05  0.1201551E+04  0.7818609E-02  0.9111500E-01
        1   -1    0    0  501    0  0.00000000000E+00  0.00000000000E+00  0.96313135873E+03  0.96313135874E+03  0.50400001928E-02 0.  1.
       -1   -1    0    0    0  501  0.00000000000E+00  0.00000000000E+00 -0.37474746350E+03  0.37474746353E+03  0.50400001928E-02 0. -1.
    10030    2    1    2    0    0  0.00000000000E+00  0.00000000000E+00  0.58838389523E+03  0.13378788223E+04  0.12015507209E+04 0.  0.
        4    1    3    3  502    0  0.16072746172E+03 -0.57797039394E+03  0.33020902871E+03  0.68477931391E+03  0.12699999809E+01 0.  1.
       -4    1    3    3    0  502 -0.16072746172E+03  0.57797039394E+03  0.25817486653E+03  0.65309950836E+03  0.12699999809E+01 0. -1.
</event>
<event>
 5   0  0.9838215E-05  0.1200546E+04  0.7818609E-02  0.9112379E-01
        2   -1    0    0  501    0  0.00000000000E+00  0.00000000000E+00  0.50290563806E+03  0.50290563807E+03  0.25500000920E-02 0. -1.
       -2   -1    0    0    0  501  0.00000000000E+00  0.00000000000E+00 -0.71649106535E+03  0.71649106536E+03  0.25500000920E-02 0.  1.
    10030    2    1    2    0    0  0.00000000000E+00  0.00000000000E+00 -0.21358542729E+03  0.12193967034E+04  0.12005455366E+04 0.  0.
        4    1    3    3  502    0 -0.16078203667E+03  0.29193552416E+03  0.40029456641E+03  0.52087864842E+03  0.12699999809E+01 0. -1.
       -4    1    3    3    0  502  0.16078203667E+03 -0.29193552416E+03 -0.61387999371E+03  0.69851805500E+03  0.12699999809E+01 0.  1.
</event>
<event>
 5   0  0.9838215E-05  0.1199837E+04  0.7818609E-02  0.9112999E-01
        2   -1    0    0  501    0  0.00000000000E+00  0.00000000000E+00  0.35893849365E+03  0.35893849366E+03  0.25500000920E-02 0. -1.
       -2   -1    0    0    0  501  0.00000000000E+00  0.00000000000E+00 -0.10026845457E+04  0.10026845457E+04  0.25500000920E-02 0.  1.
    10030    2    1    2    0    0  0.00000000000E+00  0.00000000000E+00 -0.64374605207E+03  0.13616230394E+04  0.11998367897E+04 0.  0.
        4    1    3    3  502    0 -0.34864148338E+03  0.97928705306E+01  0.23205651765E+03  0.41892555965E+03  0.12699999809E+01 0. -1.
       -4    1    3    3    0  502  0.34864148338E+03 -0.97928705306E+01 -0.87580256973E+03  0.94269747973E+03  0.12699999809E+01 0.  1.
</event>
<event>
 5   0  0.3839750E-05  0.1200217E+04  0.7818609E-02  0.9112667E-01
        4   -1    0    0  501    0  0.00000000000E+00  0.00000000000E+00  0.85368393398E+03  0.85368487864E+03  0.12699999809E+01 0.  1.
       -4   -1    0    0    0  501  0.00000000000E+00  0.00000000000E+00 -0.42185178359E+03  0.42185369527E+03  0.12699999809E+01 0. -1.
    10030    2    1    2    0    0  0.00000000000E+00  0.00000000000E+00  0.43183215039E+03  0.12755385739E+04  0.12002165002E+04 0.  0.
        5    1    3    3  502    0 -0.90357450546E+01 -0.49091970361E+03  0.58256575845E+03  0.76189812508E+03  0.46999998093E+01 0.  1.
       -5    1    3    3    0  502  0.90357450546E+01  0.49091970361E+03 -0.15073360806E+03  0.51364044883E+03  0.46999998093E+01 0. -1.
</event>
<event>
 5   0  0.9838215E-05  0.1198315E+04  0.7818609E-02  0.9114333E-01
       -2   -1    0    0    0  501  0.00000000000E+00  0.00000000000E+00  0.46591103451E+03  0.46591103451E+03  0.25500000920E-02 0.  1.
        2   -1    0    0  501    0  0.00000000000E+00  0.00000000000E+00 -0.77051107214E+03  0.77051107215E+03  0.25500000920E-02 0. -1.
    10030    2    1    2    0    0  0.00000000000E+00  0.00000000000E+00 -0.30460003764E+03  0.12364221067E+04  0.11983148346E+04 0.  0.
        4    1    3    3  502    0 -0.14659811477E+03 -0.55139844076E+03  0.36428574078E+02  0.57171662704E+03  0.12699999809E+01 0. -1.
       -4    1    3    3    0  502  0.14659811477E+03  0.55139844076E+03 -0.34102861171E+03  0.66470547962E+03  0.12699999809E+01 0.  1.
</event>
<event>
 5   0  0.5745487E-05  0.1199770E+04  0.7818609E-02  0.9113058E-01
       -1   -1    0    0    0  501  0.00000000000E+00  0.00000000000E+00  0.76878841276E+03  0.76878841278E+03  0.50400001928E-02 0. -1.
        1   -1    0    0  501    0  0.00000000000E+00  0.00000000000E+00 -0.46808955520E+03  0.46808955522E+03  0.50400001928E-02 0.  1.
    10030    2    1    2    0    0  0.00000000000E+00  0.00000000000E+00  0.30069885757E+03  0.12368779680E+04  0.11997696882E+04 0.  0.
        3    1    3    3  502    0  0.13895749616E+02 -0.38968929765E+03  0.62031193234E+03  0.73269212099E+03  0.10100000352E+00 0. -1.
       -3    1    3    3    0  502 -0.13895749616E+02  0.38968929765E+03 -0.31961307478E+03  0.50418584701E+03  0.10100000352E+00 0.  1.
</event>
<event>
 5   0  0.5625746E-05  0.1199120E+04  0.7818609E-02  0.9113627E-01
        1   -1    0    0  501    0  0.00000000000E+00  0.00000000000E+00  0.10586164211E+04  0.10586164211E+04  0.50400001928E-02 0.  1.
       -1   -1    0    0    0  501  0.00000000000E+00  0.00000000000E+00 -0.33956808741E+03  0.33956808745E+03  0.50400001928E-02 0. -1.
    10030    2    1    2    0    0  0.00000000000E+00  0.00000000000E+00  0.71904833371E+03  0.13981845086E+04  0.11991202666E+04 0.  0.
        5    1    3    3  502    0  0.16127021328E+03  0.39819313069E+03  0.84713943301E+03  0.94985954750E+03  0.46999998093E+01 0.  1.
       -5    1    3    3    0  502 -0.16127021328E+03 -0.39819313069E+03 -0.12809109930E+03  0.44832496109E+03  0.46999998093E+01 0. -1.
</event>
<event>
 5   0  0.5625746E-05  0.1199729E+04  0.7818609E-02  0.9113094E-01
        1   -1    0    0  501    0  0.00000000000E+00  0.00000000000E+00  0.45054313964E+03  0.45054313967E+03  0.50400001928E-02 0.  1.
       -1   -1    0    0    0  501  0.00000000000E+00  0.00000000000E+00 -0.79867510848E+03  0.79867510850E+03  0.50400001928E-02 0. -1.
    10030    2    1    2    0    0  0.00000000000E+00  0.00000000000E+00 -0.34813196884E+03  0.12492182482E+04  0.11997292877E+04 0.  0.
        5    1    3    3  502    0 -0.23322624790E+03  0.55214733847E+03 -0.19858150710E+03  0.63144110656E+03  0.46999998093E+01 0.  1.
       -5    1    3    3    0  502  0.23322624790E+03 -0.55214733847E+03 -0.14955046174E+03  0.61777714161E+03  0.46999998093E+01 0. -1.
</event>
<event>
 5   0  0.5447807E-05  0.1199835E+04  0.7818609E-02  0.9113001E-01
       -1   -1    0    0    0  501  0.00000000000E+00  0.00000000000E+00  0.38455715054E+03  0.38455715057E+03  0.50400001928E-02 0.  1.
        1   -1    0    0  501    0  0.00000000000E+00  0.00000000000E+00 -0.93588428157E+03  0.93588428159E+03  0.50400001928E-02 0. -1.
    10030    2    1    2    0    0  0.00000000000E+00  0.00000000000E+00 -0.55132713103E+03  0.13204414322E+04  0.11998349763E+04 0.  0.
        2    1    3    3  502    0 -0.50687136417E+03  0.28547061272E+03 -0.11433727709E+03  0.59286175748E+03  0.25500000920E-02 0.  1.
       -2    1    3    3    0  502  0.50687136417E+03 -0.28547061272E+03 -0.43698985395E+03  0.72757967468E+03  0.25500000920E-02 0. -1.
</event>
<event>
 5   0  0.1023063E-04  0.1199916E+04  0.7818609E-02  0.9112930E-01
        2   -1    0    0  501    0  0.00000000000E+00  0.00000000000E+00  0.89225196610E+03  0.89225196611E+03  0.25500000920E-02 0. -1.
       -2   -1    0    0    0  501  0.00000000000E+00  0.00000000000E+00 -0.40341676070E+03  0.40341676071E+03  0.25500000920E-02 0.  1.
    10030    2    1    2    0    0  0.00000000000E+00  0.00000000000E+00  0.48883520540E+03  0.12956687268E+04  0.11999156602E+04 0.  0.
        3    1    3    3  502    0 -0.52170516398E+03  0.26429001420E+03  0.99853825628E+02  0.59329274934E+03  0.10100000352E+00 0.  1.
       -3    1    3    3    0  502  0.52170516398E+03 -0.26429001420E+03  0.38898137977E+03  0.70237597748E+03  0.10100000352E+00 0. -1.
</event>
<event>
 5   0  0.1004006E-04  0.1199352E+04  0.7818609E-02  0.9113424E-01
        2   -1    0    0  501    0  0.00000000000E+00  0.00000000000E+00  0.94168748521E+03  0.94168748521E+03  0.25500000920E-02 0.  1.
       -2   -1    0    0    0  501  0.00000000000E+00  0.00000000000E+00 -0.38187988389E+03  0.38187988390E+03  0.25500000920E-02 0. -1.
    10030    2    1    2    0    0  0.00000000000E+00  0.00000000000E+00  0.55980760132E+03  0.13235673691E+04  0.11993523378E+04 0.  0.
        5    1    3    3  502    0  0.16097982643E+03 -0.28226079620E+03  0.83608888123E+03  0.89702417409E+03  0.46999998093E+01 0.  1.
       -5    1    3    3    0  502 -0.16097982643E+03  0.28226079620E+03 -0.27628127992E+03  0.42654319502E+03  0.46999998093E+01 0. -1.
</event>
<event>
 5   0  0.9941209E-05  0.1200059E+04  0.7818609E-02  0.9112805E-01
       -2   -1    0    0    0  501  0.00000000000E+00  0.00000000000E+00  0.61738130480E+03  0.61738130481E+03  0.25500000920E-02 0. -1.
        2   -1    0    0  501    0  0.00000000000E+00  0.00000000000E+00 -0.58316580029E+03  0.58316580029E+03  0.25500000920E-02 0.  1.
    10030    2    1    2    0    0  0.00000000000E+00  0.00000000000E+00  0.34215504515E+02  0.12005471051E+04  0.12000594364E+04 0.  0.
        2    1    3    3  502    0  0.20792900592E+03 -0.40076187641E+03 -0.37826305890E+03  0.58900551341E+03  0.25500000920E-02 0.  1.
       -2    1    3    3    0  502 -0.20792900592E+03  0.40076187641E+03  0.41247856341E+03  0.61154159169E+03  0.25500000920E-02 0. -1.
</event>
<event>
 5   0  0.5447807E-05  0.1199251E+04  0.7818609E-02  0.9113512E-01
        1   -1    0    0  501    0  0.00000000000E+00  0.00000000000E+00  0.15866251906E+04  0.15866251906E+04  0.50400001928E-02 0.  1.
       -1   -1    0    0    0  501  0.00000000000E+00  0.00000000000E+00 -0.22661348497E+03  0.22661348503E+03  0.50400001928E-02 0. -1.
    10030    2    1    2    0    0  0.00000000000E+00  0.00000000000E+00  0.13600117056E+04  0.18132386756E+04  0.11992508726E+04 0.  0.
        2    1    3    3  502    0 -0.47498774902E+03  0.24276980712E+03  0.26593380128E+03  0.59604641400E+03  0.25500000920E-02 0.  1.
       -2    1    3    3    0  502  0.47498774902E+03 -0.24276980712E+03  0.10940779043E+04  0.12171922616E+04  0.25500000920E-02 0. -1.
</event>
<event>
 5   0  0.1012657E-04  0.1199758E+04  0.7818609E-02  0.9113068E-01
       -2   -1    0    0    0  501  0.00000000000E+00  0.00000000000E+00  0.19744173250E+03  0.19744173252E+03  0.25500000920E-02 0. -1.
        2   -1    0    0  501    0  0.00000000000E+00  0.00000000000E+00 -0.18225877851E+04  0.18225877851E+04  0.25500000920E-02 0.  1.
    10030    2    1    2    0    0  0.00000000000E+00  0.00000000000E+00 -0.16251460526E+04  0.20200295176E+04  0.11997581255E+04 0.  0.
        1    1    3    3  502    0 -0.38065287164E+02  0.58750119845E+03 -0.61877759715E+03  0.85410323675E+03  0.50400001928E-02 0. -1.
       -1    1    3    3    0  502  0.38065287164E+02 -0.58750119845E+03 -0.10063684554E+04  0.11659262808E+04  0.50400001928E-02 0.  1.
</event>
<event>
 5   0  0.3839750E-05  0.1200296E+04  0.7818609E-02  0.9112598E-01
        3   -1    0    0  501    0  0.00000000000E+00  0.00000000000E+00  0.11413008868E+04  0.11413008913E+04  0.10100000352E+00 0. -1.
       -3   -1    0    0    0  501  0.00000000000E+00  0.00000000000E+00 -0.31558494606E+03  0.31558496222E+03  0.10100000352E+00 0.  1.
    10030    2    1    2    0    0  0.00000000000E+00  0.00000000000E+00  0.82571594075E+03  0.14568858535E+04  0.12002956200E+04 0.  0.
        4    1    3    3  502    0 -0.59566063939E+02  0.24497860340E+03 -0.24818928233E+03  0.35378265200E+03  0.12699999809E+01 0.  1.
       -4    1    3    3    0  502  0.59566063939E+02 -0.24497860340E+03  0.10739052231E+04  0.11031032015E+04  0.12699999809E+01 0. -1.
</event>
<event>
 5   0  0.3839750E-05  0.1199815E+04  0.7818609E-02  0.9113019E-01
        4   -1    0    0  501    0  0.00000000000E+00  0.00000000000E+00  0.45159787843E+03  0.45159966420E+03  0.12699999809E+01 0. -1.
       -4   -1    0    0    0  501  0.00000000000E+00  0.00000000000E+00 -0.79691957353E+03  0.79692058549E+03  0.12699999809E+01 0.  1.
    10030    2    1    2    0    0  0.00000000000E+00  0.00000000000E+00 -0.34532169510E+03  0.12485202497E+04  0.11998148777E+04 0.  0.
        3    1    3    3  502    0  0.17730043429E+03  0.53615788634E+03  0.38013074813E+02  0.56599092497E+03  0.10100000352E+00 0. -1.
       -3    1    3    3    0  502 -0.17730043429E+03 -0.53615788634E+03 -0.38333476991E+03  0.68252932472E+03  0.10100000352E+00 0.  1.
</event>
<event>
 5   0  0.5620246E-05  0.1209085E+04  0.7818609E-02  0.9104941E-01
        1   -1    0    0  501    0  0.00000000000E+00  0.00000000000E+00  0.74146289326E+03  0.74146289328E+03  0.50400001928E-02 0. -1.
       -1   -1    0    0    0  501  0.00000000000E+00  0.00000000000E+00 -0.49290644673E+03  0.49290644675E+03  0.50400001928E-02 0.  1.
    10030    2    1    2    0    0  0.00000000000E+00  0.00000000000E+00  0.24855644653E+03  0.12343693400E+04  0.12090853405E+04 0.  0.
        1    1    3    3  502    0 -0.50963787666E+03 -0.30620102498E+03  0.23602961901E+03  0.63968727837E+03  0.50400001928E-02 0. -1.
       -1    1    3    3    0  502  0.50963787666E+03  0.30620102498E+03  0.12526827523E+02  0.59468206166E+03  0.50400001928E-02 0.  1.
</event>
<event>
 5   0  0.5745487E-05  0.1200357E+04  0.7818609E-02  0.9112544E-01
        1   -1    0    0  501    0  0.00000000000E+00  0.00000000000E+00  0.32609750050E+03  0.32609750054E+03  0.50400001928E-02 0. -1.
       -1   -1    0    0    0  501  0.00000000000E+00  0.00000000000E+00 -0.11046208773E+04  0.11046208773E+04  0.50400001928E-02 0.  1.
    10030    2    1    2    0    0  0.00000000000E+00  0.00000000000E+00 -0.77852337682E+03  0.14307183779E+04  0.12003567922E+04 0.  0.
        3    1    3    3  502    0  0.24400391815E+03 -0.36716647800E+03 -0.87468555885E+03  0.97950189979E+03  0.10100000352E+00 0.  1.
       -3    1    3    3    0  502 -0.24400391815E+03  0.36716647800E+03  0.96162182031E+02  0.45121647808E+03  0.10100000352E+00 0. -1.
</event>
<event>
 5   0  0.5447807E-05  0.1200510E+04  0.7818609E-02  0.9112410E-01
        1   -1    0    0  501    0  0.00000000000E+00  0.00000000000E+00  0.64786457079E+03  0.64786457081E+03  0.50400001928E-02 0. -1.
       -1   -1    0    0    0  501  0.00000000000E+00  0.00000000000E+00 -0.55614394281E+03  0.55614394284E+03  0.50400001928E-02 0.  1.
    10030    2    1    2    0    0  0.00000000000E+00  0.00000000000E+00  0.91720627978E+02  0.12040085136E+04  0.12005098198E+04 0.  0.
        2    1    3    3  502    0  0.71333327049E+02  0.20861716001E+03 -0.51406452005E+03  0.55934952738E+03  0.25500000920E-02 0.  1.
       -2    1    3    3    0  502 -0.71333327049E+02 -0.20861716001E+03  0.60578514803E+03  0.64465898627E+03  0.25500000920E-02 0. -1.
</event>
<event>
 5   0  0.5745487E-05  0.1200353E+04  0.7818609E-02  0.9112548E-01
        1   -1    0    0  501    0  0.00000000000E+00  0.00000000000E+00  0.99771756940E+03  0.99771756942E+03  0.50400001928E-02 0.  1.
       -1   -1    0    0    0  501  0.00000000000E+00  0.00000000000E+00 -0.36103579749E+03  0.36103579753E+03  0.50400001928E-02 0. -1.
    10030    2    1    2    0    0  0.00000000000E+00  0.00000000000E+00  0.63668177191E+03  0.13587533669E+04  0.12003528787E+04 0.  0.
        3    1    3    3  502    0  0.66545684662E+02 -0.28358755588E+03  0.91233660995E+03  0.95770994046E+03  0.10100000352E+00 0.  1.
       -3    1    3    3    0  502 -0.66545684662E+02  0.28358755588E+03 -0.27565483804E+03  0.40104342649E+03  0.10100000352E+00 0. -1.
</event>
<event>
 5   0  0.5732931E-05  0.1200075E+04  0.7818609E-02  0.9112791E-01
        1   -1    0    0  501    0  0.00000000000E+00  0.00000000000E+00  0.97333690377E+03  0.97333690378E+03  0.50400001928E-02 0.  1.
       -1   -1    0    0    0  501  0.00000000000E+00  0.00000000000E+00 -0.36990767390E+03  0.36990767394E+03  0.50400001928E-02 0. -1.
    10030    2    1    2    0    0  0.00000000000E+00  0.00000000000E+00  0.60342922986E+03  0.13432445777E+04  0.12000746477E+04 0.  0.
        4    1    3    3  502    0 -0.33588862991E+03 -0.29482356393E+03  0.74985599553E+03  0.87294199835E+03  0.12699999809E+01 0.  1.
       -4    1    3    3    0  502  0.33588862991E+03  0.29482356393E+03 -0.14642676566E+03  0.47030257937E+03  0.12699999809E+01 0. -1.
</event>
<event>
 5   0  0.5447807E-05  0.1199299E+04  0.7818609E-02  0.9113471E-01
       -1   -1    0    0    0  501  0.00000000000E+00  0.00000000000E+00  0.10432291350E+04  0.10432291350E+04  0.50400001928E-02 0. -1.
        1   -1    0    0  501    0  0.00000000000E+00  0.00000000000E+00 -0.34467914470E+03  0.34467914474E+03  0.50400001928E-02 0.  1.
    10030    2    1    2    0    0  0.00000000000E+00  0.00000000000E+00  0.69854999027E+03  0.13879082797E+04  0.11992986717E+04 0.  0.
        2    1    3    3  502    0  0.10711069111E+03 -0.54236893948E+03  0.61805638042E+03  0.82923486181E+03  0.25500000920E-02 0. -1.
       -2    1    3    3    0  502 -0.10711069111E+03  0.54236893948E+03  0.80493609853E+02  0.55867341792E+03  0.25500000920E-02 0.  1.
</event>
<event>
 5   0  0.9941209E-05  0.1200218E+04  0.7818609E-02  0.9112666E-01
       -2   -1    0    0    0  501  0.00000000000E+00  0.00000000000E+00  0.54890504195E+03  0.54890504195E+03  0.25500000920E-02 0. -1.
        2   -1    0    0  501    0  0.00000000000E+00  0.00000000000E+00 -0.65608917981E+03  0.65608917982E+03  0.25500000920E-02 0.  1.
    10030    2    1    2    0    0  0.00000000000E+00  0.00000000000E+00 -0.10718413787E+03  0.12049942218E+04  0.12002177449E+04 0.  0.
        2    1    3    3  502    0  0.15013119703E+03  0.17423207407E+03  0.50290116514E+03  0.55299708305E+03  0.25500000920E-02 0. -1.
       -2    1    3    3    0  502 -0.15013119703E+03 -0.17423207407E+03 -0.61008530301E+03  0.65199713872E+03  0.25500000920E-02 0.  1.
</event>
<event>
 5   0  0.5447807E-05  0.1200017E+04  0.7818609E-02  0.9112841E-01
       -1   -1    0    0    0  501  0.00000000000E+00  0.00000000000E+00  0.52241121912E+03  0.52241121914E+03  0.50400001928E-02 0.  1.
        1   -1    0    0  501    0  0.00000000000E+00  0.00000000000E+00 -0.68913204651E+03  0.68913204653E+03  0.50400001928E-02 0. -1.
    10030    2    1    2    0    0  0.00000000000E+00  0.00000000000E+00 -0.16672082739E+03  0.12115432657E+04  0.12000171875E+04 0.  0.
        2    1    3    3  502    0 -0.42514507301E+03 -0.88087432378E+02 -0.50146679420E+03  0.66330737561E+03  0.25500000920E-02 0. -1.
       -2    1    3    3    0  502  0.42514507301E+03  0.88087432378E+02  0.33474596681E+03  0.54823589006E+03  0.25500000920E-02 0.  1.
</event>
<event>
 5   0  0.5625746E-05  0.1200558E+04  0.7818609E-02  0.9112368E-01
        1   -1    0    0  501    0  0.00000000000E+00  0.00000000000E+00  0.16786942296E+04  0.16786942296E+04  0.50400001928E-02 0. -1.
       -1   -1    0    0    0  501  0.00000000000E+00  0.00000000000E+00 -0.21465179664E+03  0.21465179670E+03  0.50400001928E-02 0.  1.
    10030    2    1    2    0    0  0.00000000000E+00  0.00000000000E+00  0.14640424329E+04  0.18933460263E+04  0.12005577578E+04 0.  0.
        5    1    3    3  502    0  0.13891903376E+03  0.58342082435E+03  0.69230301494E+03  0.91596064911E+03  0.46999998093E+01 0. -1.
       -5    1    3    3    0  502 -0.13891903376E+03 -0.58342082435E+03  0.77173941800E+03  0.97738537718E+03  0.46999998093E+01 0.  1.
</event>
<event>
 5   0  0.3839750E-05  0.1200377E+04  0.7818609E-02  0.9112527E-01
        3   -1    0    0  501    0  0.00000000000E+00  0.00000000000E+00  0.27778754792E+03  0.27778756628E+03  0.10100000352E+00 0. -1.
       -3   -1    0    0    0  501  0.00000000000E+00  0.00000000000E+00 -0.12967677884E+04  0.12967677923E+04  0.10100000352E+00 0.  1.
    10030    2    1    2    0    0  0.00000000000E+00  0.00000000000E+00 -0.10189802404E+04  0.15745553586E+04  0.12003765438E+04 0.  0.
        2    1    3    3  502    0  0.57751639804E+03  0.14902159667E+03 -0.42156259428E+03  0.73037500449E+03  0.25500000920E-02 0.  1.
       -2    1    3    3    0  502 -0.57751639804E+03 -0.14902159667E+03 -0.59741764616E+03  0.84418035408E+03  0.25500000920E-02 0. -1.
</event>
<event>
 5   0  0.1023063E-04  0.1200399E+04  0.7818609E-02  0.9112507E-01
       -2   -1    0    0    0  501  0.00000000000E+00  0.00000000000E+00  0.47319273119E+03  0.47319273120E+03  0.25500000920E-02 0. -1.
        2   -1    0    0  501    0  0.00000000000E+00  0.00000000000E+00 -0.76129587588E+03  0.76129587588E+03  0.25500000920E-02 0.  1.
    10030    2    1    2    0    0  0.00000000000E+00  0.00000000000E+00 -0.28810314469E+03  0.12344886071E+04  0.12003993915E+04 0.  0.
        3    1    3    3  502    0 -0.37450318690E+03  0.32645096917E+03 -0.49038945675E+03  0.69807213221E+03  0.10100000352E+00 0.  1.
       -3    1    3    3    0  502  0.37450318690E+03 -0.32645096917E+03  0.20228631206E+03  0.53641647488E+03  0.10100000352E+00 0. -1.
</event>
<event>
 5   0  0.1023063E-04  0.1199882E+04  0.7818609E-02  0.9112960E-01
       -2   -1    0    0    0  501  0.00000000000E+00  0.00000000000E+00  0.84883317525E+03  0.84883317525E+03  0.25500000920E-02 0. -1.
        2   -1    0    0  501    0  0.00000000000E+00  0.00000000000E+00 -0.42402791366E+03  0.42402791367E+03  0.25500000920E-02 0.  1.
    10030    2    1    2    0    0  0.00000000000E+00  0.00000000000E+00  0.42480526159E+03  0.12728610889E+04  0.11998815948E+04 0.  0.
        3    1    3    3  502    0 -0.48766135547E+03  0.34084333776E+03  0.13063551697E+03  0.60914154924E+03  0.10100000352E+00 0.  1.
       -3    1    3    3    0  502  0.48766135547E+03 -0.34084333776E+03  0.29416974462E+03  0.66371953969E+03  0.10100000352E+00 0. -1.
</event>
<event>
 5   0  0.9838215E-05  0.1197570E+04  0.7818609E-02  0.9114986E-01
       -2   -1    0    0    0  501  0.00000000000E+00  0.00000000000E+00  0.23905503831E+03  0.23905503832E+03  0.25500000920E-02 0.  1.
        2   -1    0    0  501    0  0.00000000000E+00  0.00000000000E+00 -0.14998377025E+04  0.14998377025E+04  0.25500000920E-02 0. -1.
    10030    2    1    2    0    0  0.00000000000E+00  0.00000000000E+00 -0.12607826642E+04  0.17388927409E+04  0.11975704730E+04 0.  0.
        4    1    3    3  502    0  0.92287236800E+02 -0.27719136041E+03  0.12854307566E+03  0.31918164039E+03  0.12699999809E+01 0.  1.
       -4    1    3    3    0  502 -0.92287236800E+02  0.27719136041E+03 -0.13893257399E+04  0.14197111005E+04  0.12699999809E+01 0. -1.
</event>
<event>
 5   0  0.1023063E-04  0.1199230E+04  0.7818609E-02  0.9113531E-01
        2   -1    0    0  501    0  0.00000000000E+00  0.00000000000E+00  0.27133111583E+03  0.27133111585E+03  0.25500000920E-02 0.  1.
       -2   -1    0    0    0  501  0.00000000000E+00  0.00000000000E+00 -0.13250899547E+04  0.13250899547E+04  0.25500000920E-02 0. -1.
    10030    2    1    2    0    0  0.00000000000E+00  0.00000000000E+00 -0.10537588388E+04  0.15964210705E+04  0.11992299796E+04 0.  0.
        3    1    3    3  502    0  0.45935532100E+03  0.35017351676E+03 -0.31260367773E+03  0.65677231390E+03  0.10100000352E+00 0.  1.
       -3    1    3    3    0  502 -0.45935532100E+03 -0.35017351676E+03 -0.74115516110E+03  0.93964875661E+03  0.10100000352E+00 0. -1.
</event>
<event>
 5   0  0.1012657E-04  0.1204752E+04  0.7818609E-02  0.9108707E-01
       -2   -1    0    0    0  501  0.00000000000E+00  0.00000000000E+00  0.18153498154E+03  0.18153498156E+03  0.25500000920E-02 0.  1.
        2   -1    0    0  501    0  0.00000000000E+00  0.00000000000E+00 -0.19988259150E+04  0.19988259150E+04  0.25500000920E-02 0. -1.
    10030    2    1    2    0    0  0.00000000000E+00  0.00000000000E+00 -0.18172909334E+04  0.21803608965E+04  0.12047519672E+04 0.  0.
        1    1    3    3  502    0  0.56393565854E+03  0.60447140039E+02 -0.54138727135E+03  0.78407745875E+03  0.50400001928E-02 0.  1.
       -1    1    3    3    0  502 -0.56393565854E+03 -0.60447140039E+02 -0.12759036621E+04  0.13962834378E+04  0.50400001928E-02 0. -1.
</event>
<event>
 5   0  0.1023063E-04  0.1199867E+04  0.7818609E-02  0.9112973E-01
       -2   -1    0    0    0  501  0.00000000000E+00  0.00000000000E+00  0.21891845697E+03  0.21891845698E+03  0.25500000920E-02 0.  1.
        2   -1    0    0  501    0  0.00000000000E+00  0.00000000000E+00 -0.16440829746E+04  0.16440829746E+04  0.25500000920E-02 0. -1.
    10030    2    1    2    0    0  0.00000000000E+00  0.00000000000E+00 -0.14251645177E+04  0.18630014316E+04  0.11998668392E+04 0.  0.
        3    1    3    3  502    0  0.39007159676E+03  0.29702598844E+03 -0.17575270459E+03  0.52083520597E+03  0.10100000352E+00 0.  1.
       -3    1    3    3    0  502 -0.39007159676E+03 -0.29702598844E+03 -0.12494118131E+04  0.13421662256E+04  0.10100000352E+00 0. -1.
</event>
<event>
 5   0  0.1004006E-04  0.1199859E+04  0.7818609E-02  0.9112980E-01
        2   -1    0    0  501    0  0.00000000000E+00  0.00000000000E+00  0.14307841288E+04  0.14307841288E+04  0.25500000920E-02 0.  1.
       -2   -1    0    0    0  501  0.00000000000E+00  0.00000000000E+00 -0.25155110560E+03  0.25155110561E+03  0.25500000920E-02 0. -1.
    10030    2    1    2    0    0  0.00000000000E+00  0.00000000000E+00  0.11792330232E+04  0.16823352344E+04  0.11998588742E+04 0.  0.
        5    1    3    3  502    0  0.58036240004E+03 -0.13896954321E+03  0.67559449948E+03  0.90143389500E+03  0.46999998093E+01 0.  1.
       -5    1    3    3    0  502 -0.58036240004E+03  0.13896954321E+03  0.50363852370E+03  0.78090133940E+03  0.46999998093E+01 0. -1.
</event>
<event>
 5   0  0.5745487E-05  0.1199939E+04  0.7818609E-02  0.9112910E-01
       -1   -1    0    0    0  501  0.00000000000E+00  0.00000000000E+00  0.56056660409E+03  0.56056660411E+03  0.50400001928E-02 0. -1.
        1   -1    0    0  501    0  0.00000000000E+00  0.00000000000E+00 -0.64214254527E+03  0.64214254529E+03  0.50400001928E-02 0.  1.
    10030    2    1    2    0    0  0.00000000000E+00  0.00000000000E+00 -0.81575941179E+02  0.12027091494E+04  0.11999394418E+04 0.  0.
        3    1    3    3  502    0 -0.30743664074E+03 -0.27060752330E+03  0.39865066835E+03  0.57154884771E+03  0.10100000352E+00 0. -1.
       -3    1    3    3    0  502  0.30743664074E+03  0.27060752330E+03 -0.48022660953E+03  0.63116030170E+03  0.10100000352E+00 0.  1.
</event>
<event>
 5   0  0.5620246E-05  0.1200300E+04  0.7818609E-02  0.9112594E-01
       -1   -1    0    0    0  501  0.00000000000E+00  0.00000000000E+00  0.63287153814E+03  0.63287153816E+03  0.50400001928E-02 0.  1.
        1   -1    0    0  501    0  0.00000000000E+00  0.00000000000E+00 -0.56911993174E+03  0.56911993176E+03  0.50400001928E-02 0. -1.
    10030    2    1    2    0    0  0.00000000000E+00  0.00000000000E+00  0.63751606402E+02  0.12019914699E+04  0.12002996403E+04 0.  0.
        1    1    3    3  502    0 -0.79368617132E+02 -0.56164981168E+03  0.22818761894E+03  0.61140778357E+03  0.50400001928E-02 0.  1.
       -1    1    3    3    0  502  0.79368617132E+02  0.56164981168E+03 -0.16443601254E+03  0.59058368636E+03  0.50400001928E-02 0. -1.
</event>
<event>
 5   0  0.5745487E-05  0.1200086E+04  0.7818609E-02  0.9112781E-01
       -1   -1    0    0    0  501  0.00000000000E+00  0.00000000000E+00  0.26543140244E+03  0.26543140249E+03  0.50400001928E-02 0.  1.
        1   -1    0    0  501    0  0.00000000000E+00  0.00000000000E+00 -0.13564773258E+04  0.13564773258E+04  0.50400001928E-02 0. -1.
    10030    2    1    2    0    0  0.00000000000E+00  0.00000000000E+00 -0.10910459234E+04  0.16219087283E+04  0.12000861286E+04 0.  0.
        3    1    3    3  502    0  0.27507531417E+03  0.50255144691E+03 -0.30441376188E+03  0.64876200095E+03  0.10100000352E+00 0.  1.
       -3    1    3    3    0  502 -0.27507531417E+03 -0.50255144691E+03 -0.78663216147E+03  0.97314672734E+03  0.10100000352E+00 0. -1.
</event>
<event>
 5   0  0.5620246E-05  0.1199964E+04  0.7818609E-02  0.9112888E-01
        1   -1    0    0  501    0  0.00000000000E+00  0.00000000000E+00  0.13888236716E+04  0.13888236716E+04  0.50400001928E-02 0.  1.
       -1   -1    0    0    0  501  0.00000000000E+00  0.00000000000E+00 -0.25919676956E+03  0.25919676961E+03  0.50400001928E-02 0. -1.
    10030    2    1    2    0    0  0.00000000000E+00  0.00000000000E+00  0.11296269021E+04  0.16480204412E+04  0.11999643482E+04 0.  0.
        1    1    3    3  502    0 -0.15335743310E+03  0.55852984909E+03  0.77980297747E+03  0.97137365535E+03  0.50400001928E-02 0.  1.
       -1    1    3    3    0  502  0.15335743310E+03 -0.55852984909E+03  0.34982392460E+03  0.67664678589E+03  0.50400001928E-02 0. -1.
</event>
<event>
 5   0  0.5732931E-05  0.1200039E+04  0.7818609E-02  0.9112822E-01
       -1   -1    0    0    0  501  0.00000000000E+00  0.00000000000E+00  0.55893550978E+03  0.55893550980E+03  0.50400001928E-02 0.  1.
        1   -1    0    0  501    0  0.00000000000E+00  0.00000000000E+00 -0.64412379373E+03  0.64412379375E+03  0.50400001928E-02 0. -1.
    10030    2    1    2    0    0  0.00000000000E+00  0.00000000000E+00 -0.85188283957E+02  0.12030593036E+04  0.12000394344E+04 0.  0.
        4    1    3    3  502    0  0.49613057743E+03 -0.27817950622E+03 -0.23410538817E+03  0.61509050815E+03  0.12699999809E+01 0. -1.
       -4    1    3    3    0  502 -0.49613057743E+03  0.27817950622E+03  0.14891710421E+03  0.58796879541E+03  0.12699999809E+01 0.  1.
</event>
<event>
 5   0  0.9838215E-05  0.1200472E+04  0.7818609E-02  0.9112444E-01
        2   -1    0    0  501    0  0.00000000000E+00  0.00000000000E+00  0.13597432221E+04  0.13597432221E+04  0.25500000920E-02 0. -1.
       -2   -1    0    0    0  501  0.00000000000E+00  0.00000000000E+00 -0.26496413982E+03  0.26496413983E+03  0.25500000920E-02 0.  1.
    10030    2    1    2    0    0  0.00000000000E+00  0.00000000000E+00  0.10947790823E+04  0.16247073620E+04  0.12004718960E+04 0.  0.
        4    1    3    3  502    0  0.88518326407E+02 -0.42795617548E+03  0.11042560697E+04  0.11875879178E+04  0.12699999809E+01 0. -1.
       -4    1    3    3    0  502 -0.88518326407E+02  0.42795617548E+03 -0.94769873907E+01  0.43711944412E+03  0.12699999809E+01 0.  1.
</event>
<event>
 5   0  0.1004006E-04  0.1198275E+04  0.7818609E-02  0.9114368E-01
       -2   -1    0    0    0  501  0.00000000000E+00  0.00000000000E+00  0.38253844101E+03  0.38253844102E+03  0.25500000920E-02 0.  1.
        2   -1    0    0  501    0  0.00000000000E+00  0.00000000000E+00 -0.93837818643E+03  0.93837818644E+03  0.25500000920E-02 0. -1.
    10030    2    1    2    0    0  0.00000000000E+00  0.00000000000E+00 -0.55583974542E+03  0.13209166275E+04  0.11982749743E+04 0.  0.
        5    1    3    3  502    0  0.50430434269E+03  0.30479332113E+03 -0.39726812640E+03  0.71067988076E+03  0.46999998093E+01 0.  1.
       -5    1    3    3    0  502 -0.50430434269E+03 -0.30479332113E+03 -0.15857161901E+03  0.61023674670E+03  0.46999998093E+01 0. -1.
</event>
<event>
 5   0  0.5732931E-05  0.1201180E+04  0.7818609E-02  0.9111824E-01
        1   -1    0    0  501    0  0.00000000000E+00  0.00000000000E+00  0.29066003749E+03  0.29066003753E+03  0.50400001928E-02 0.  1.
       -1   -1    0    0    0  501  0.00000000000E+00  0.00000000000E+00 -0.12409976335E+04  0.12409976335E+04  0.50400001928E-02 0. -1.
    10030    2    1    2    0    0  0.00000000000E+00  0.00000000000E+00 -0.95033759603E+03  0.15316576711E+04  0.12011801176E+04 0.  0.
        4    1    3    3  502    0 -0.36660806542E+03  0.46252021176E+03 -0.61704863029E+03  0.85386008512E+03  0.12699999809E+01 0.  1.
       -4    1    3    3    0  502  0.36660806542E+03 -0.46252021176E+03 -0.33328896574E+03  0.67779758594E+03  0.12699999809E+01 0. -1.
</event>
<event>
 5   0  0.1023063E-04  0.1199827E+04  0.7818609E-02  0.9113008E-01
       -2   -1    0    0    0  501  0.00000000000E+00  0.00000000000E+00  0.24434191515E+03  0.24434191517E+03  0.25500000920E-02 0.  1.
        2   -1    0    0  501    0  0.00000000000E+00  0.00000000000E+00 -0.14729194961E+04  0.14729194961E+04  0.25500000920E-02 0. -1.
    10030    2    1    2    0    0  0.00000000000E+00  0.00000000000E+00 -0.12285775809E+04  0.17172614112E+04  0.11998266051E+04 0.  0.
        3    1    3    3  502    0  0.56043265786E+03  0.20565973733E+03 -0.69914765037E+03  0.91934114385E+03  0.10100000352E+00 0.  1.
       -3    1    3    3    0  502 -0.56043265786E+03 -0.20565973733E+03 -0.52942993056E+03  0.79792026740E+03  0.10100000352E+00 0. -1.
</event>
<event>
 5   0  0.1012657E-04  0.1196130E+04  0.7818609E-02  0.9116250E-01
       -2   -1    0    0    0  501  0.00000000000E+00  0.00000000000E+00  0.49650611787E+03  0.49650611788E+03  0.25500000920E-02 0.  1.
        2   -1    0    0  501    0  0.00000000000E+00  0.00000000000E+00 -0.72039804195E+03  0.72039804196E+03  0.25500000920E-02 0. -1.
    10030    2    1    2    0    0  0.00000000000E+00  0.00000000000E+00 -0.22389192408E+03  0.12169041598E+04  0.11961304864E+04 0.  0.
        1    1    3    3  502    0 -0.38844087969E+03  0.27710550566E+03  0.25488271851E+03  0.54096116173E+03  0.50400001928E-02 0.  1.
       -1    1    3    3    0  502  0.38844087969E+03 -0.27710550566E+03 -0.47877464259E+03  0.67594299811E+03  0.50400001928E-02 0. -1.
</event>
<event>
 5   0  0.9941209E-05  0.1199743E+04  0.7818609E-02  0.9113082E-01
       -2   -1    0    0    0  501  0.00000000000E+00  0.00000000000E+00  0.86989414555E+03  0.86989414555E+03  0.25500000920E-02 0.  1.
        2   -1    0    0  501    0  0.00000000000E+00  0.00000000000E+00 -0.41366587516E+03  0.41366587517E+03  0.25500000920E-02 0. -1.
    10030    2    1    2    0    0  0.00000000000E+00  0.00000000000E+00  0.45622827039E+03  0.12835600207E+04  0.11997425107E+04 0.  0.
        2    1    3    3  502    0 -0.10871298440E+03 -0.49366842649E+03  0.57366245839E+03  0.76460162469E+03  0.25500000920E-02 0.  1.
       -2    1    3    3    0  502  0.10871298440E+03  0.49366842649E+03 -0.11743418801E+03  0.51895839603E+03  0.25500000920E-02 0. -1.
</event>
<event>
 5   0  0.3839750E-05  0.1199906E+04  0.7818609E-02  0.9112939E-01
        4   -1    0    0  501    0  0.00000000000E+00  0.00000000000E+00  0.71955553935E+03  0.71955666011E+03  0.12699999809E+01 0. -1.
       -4   -1    0    0    0  501  0.00000000000E+00  0.00000000000E+00 -0.50022803037E+03  0.50022964253E+03  0.12699999809E+01 0.  1.
    10030    2    1    2    0    0  0.00000000000E+00  0.00000000000E+00  0.21932750898E+03  0.12197863026E+04  0.11999058579E+04 0.  0.
        5    1    3    3  502    0 -0.44607665600E+02 -0.23990299331E+03 -0.44748445392E+03  0.50971336703E+03  0.46999998093E+01 0.  1.
       -5    1    3    3    0  502  0.44607665600E+02  0.23990299331E+03  0.66681196290E+03  0.71007293562E+03  0.46999998093E+01 0. -1.
</event>
<event>
 5   0  0.5732931E-05  0.1200000E+04  0.7818609E-02  0.9112857E-01
       -1   -1    0    0    0  501  0.00000000000E+00  0.00000000000E+00  0.10170308789E+04  0.10170308789E+04  0.50400001928E-02 0. -1.
        1   -1    0    0  501    0  0.00000000000E+00  0.00000000000E+00 -0.35397148283E+03  0.35397148286E+03  0.50400001928E-02 0.  1.
    10030    2    1    2    0    0  0.00000000000E+00  0.00000000000E+00  0.66305939608E+03  0.13710023618E+04  0.11999998805E+04 0.  0.
        4    1    3    3  502    0 -0.37162020190E+02 -0.45704398210E+03 -0.11055822820E+03  0.47169370575E+03  0.12699999809E+01 0.  1.
       -4    1    3    3    0  502  0.37162020190E+02  0.45704398210E+03  0.77361762428E+03  0.89930865603E+03  0.12699999809E+01 0. -1.
</event>
<event>
 5   0  0.1004006E-04  0.1199650E+04  0.7818609E-02  0.9113163E-01
        2   -1    0    0  501    0  0.00000000000E+00  0.00000000000E+00  0.24586482018E+04  0.24586482018E+04  0.25500000920E-02 0. -1.
       -2   -1    0    0    0  501  0.00000000000E+00  0.00000000000E+00 -0.14633641247E+03  0.14633641249E+03  0.25500000920E-02 0.  1.
    10030    2    1    2    0    0  0.00000000000E+00  0.00000000000E+00  0.23123117893E+04  0.26049846143E+04  0.11996495445E+04 0.  0.
        5    1    3    3  502    0 -0.34434196445E+03 -0.46659157270E+03  0.14889527239E+04  0.15978990545E+04  0.46999998093E+01 0. -1.
       -5    1    3    3    0  502  0.34434196445E+03  0.46659157270E+03  0.82335906540E+03  0.10070855598E+04  0.46999998093E+01 0.  1.
</event>
<event>
 5   0  0.3839750E-05  0.1197828E+04  0.7818609E-02  0.9114760E-01
        4   -1    0    0  501    0  0.00000000000E+00  0.00000000000E+00  0.21643796643E+03  0.21644169241E+03  0.12699999809E+01 0.  1.
       -4   -1    0    0    0  501  0.00000000000E+00  0.00000000000E+00 -0.16572606290E+04  0.16572611156E+04  0.12699999809E+01 0. -1.
    10030    2    1    2    0    0  0.00000000000E+00  0.00000000000E+00 -0.14408226626E+04  0.18737028080E+04  0.11978281462E+04 0.  0.
        4    1    3    3  502    0 -0.47762396109E+03 -0.36062046255E+03 -0.68458051587E+03  0.90929855483E+03  0.12699999809E+01 0. -1.
       -4    1    3    3    0  502  0.47762396109E+03  0.36062046255E+03 -0.75624214670E+03  0.96440425319E+03  0.12699999809E+01 0.  1.
</event>
<event>
 5   0  0.5625746E-05  0.1199770E+04  0.7818609E-02  0.9113058E-01
        1   -1    0    0  501    0  0.00000000000E+00  0.00000000000E+00  0.60958035498E+03  0.60958035500E+03  0.50400001928E-02 0.  1.
       -1   -1    0    0    0  501  0.00000000000E+00  0.00000000000E+00 -0.59034347041E+03  0.59034347043E+03  0.50400001928E-02 0. -1.
    10030    2    1    2    0    0  0.00000000000E+00  0.00000000000E+00  0.19236884567E+02  0.11999238254E+04  0.11997696150E+04 0.  0.
        5    1    3    3  502    0 -0.21493447999E+03  0.37011563685E+03 -0.41074175157E+03  0.59322280115E+03  0.46999998093E+01 0. -1.
       -5    1    3    3    0  502  0.21493447999E+03 -0.37011563685E+03  0.42997863613E+03  0.60670102428E+03  0.46999998093E+01 0.  1.
</event>
<event>
 5   0  0.5732931E-05  0.1199875E+04  0.7818609E-02  0.9112966E-01
       -1   -1    0    0    0  501  0.00000000000E+00  0.00000000000E+00  0.37449768251E+03  0.37449768255E+03  0.50400001928E-02 0.  1.
        1   -1    0    0  501    0  0.00000000000E+00  0.00000000000E+00 -0.96108817905E+03  0.96108817906E+03  0.50400001928E-02 0. -1.
    10030    2    1    2    0    0  0.00000000000E+00  0.00000000000E+00 -0.58659049654E+03  0.13355858616E+04  0.11998754865E+04 0.  0.
        4    1    3    3  502    0 -0.39191797029E+01  0.29271870245E+03 -0.87618769758E+03  0.92379981221E+03  0.12699999809E+01 0. -1.
       -4    1    3    3    0  502  0.39191797029E+01 -0.29271870245E+03  0.28959720105E+03  0.41178604941E+03  0.12699999809E+01 0.  1.
</event>
<event>
 5   0  0.5745487E-05  0.1201336E+04  0.7818609E-02  0.9111688E-01
       -1   -1    0    0    0  501  0.00000000000E+00  0.00000000000E+00  0.28426352351E+03  0.28426352356E+03  0.50400001928E-02 0.  1.
        1   -1    0    0  501    0  0.00000000000E+00  0.00000000000E+00 -0.12692521230E+04  0.12692521230E+04  0.50400001928E-02 0. -1.
    10030    2    1    2    0    0  0.00000000000E+00  0.00000000000E+00 -0.98498859946E+03  0.15535156465E+04  0.12013360575E+04 0.  0.
        3    1    3    3  502    0 -0.28649552693E+03  0.66820014860E+02 -0.11697151978E+04  0.12061418886E+04  0.10100000352E+00 0. -1.
       -3    1    3    3    0  502  0.28649552693E+03 -0.66820014860E+02  0.18472659835E+03  0.34737375790E+03  0.10100000352E+00 0.  1.
</event>
<event>
 5   0  0.3839750E-05  0.1199028E+04  0.7818609E-02  0.9113707E-01
        3   -1    0    0  501    0  0.00000000000E+00  0.00000000000E+00  0.10109171243E+04  0.10109171293E+04  0.10100000352E+00 0.  1.
       -3   -1    0    0    0  501  0.00000000000E+00  0.00000000000E+00 -0.35553589090E+03  0.35553590525E+03  0.10100000352E+00 0. -1.
    10030    2    1    2    0    0  0.00000000000E+00  0.00000000000E+00  0.65538123340E+03  0.13664530346E+04  0.11990284962E+04 0.  0.
        3    1    3    3  502    0 -0.30260765452E+03 -0.23719964456E+03 -0.19651881439E+03  0.43180402796E+03  0.10100000352E+00 0. -1.
       -3    1    3    3    0  502  0.30260765452E+03  0.23719964456E+03  0.85190004779E+03  0.93464900662E+03  0.10100000352E+00 0.  1.
</event>
<event>
 5   0  0.5625746E-05  0.1205739E+04  0.7818609E-02  0.9107848E-01
       -1   -1    0    0    0  501  0.00000000000E+00  0.00000000000E+00  0.16336946958E+03  0.16336946966E+03  0.50400001928E-02 0. -1.
        1   -1    0    0  501    0  0.00000000000E+00  0.00000000000E+00 -0.22247225852E+04  0.22247225852E+04  0.50400001928E-02 0.  1.
    10030    2    1    2    0    0  0.00000000000E+00  0.00000000000E+00 -0.20613531156E+04  0.23880920548E+04  0.12057391904E+04 0.  0.
        5    1    3    3  502    0  0.29791833916E+03  0.70327128498E+02 -0.20421712319E+01  0.30614947701E+03  0.46999998093E+01 0. -1.
       -5    1    3    3    0  502 -0.29791833916E+03 -0.70327128498E+02 -0.20593109443E+04  0.20819425778E+04  0.46999998093E+01 0.  1.
</event>
<event>
 5   0  0.5620246E-05  0.1200605E+04  0.7818609E-02  0.9112327E-01
       -1   -1    0    0    0  501  0.00000000000E+00  0.00000000000E+00  0.38766033209E+03  0.38766033213E+03  0.50400001928E-02 0.  1.
        1   -1    0    0  501    0  0.00000000000E+00  0.00000000000E+00 -0.92958426477E+03  0.92958426478E+03  0.50400001928E-02 0. -1.
    10030    2    1    2    0    0  0.00000000000E+00  0.00000000000E+00 -0.54192393267E+03  0.13172445969E+04  0.12006047556E+04 0.  0.
        1    1    3    3  502    0 -0.51741251169E+03 -0.29698432497E+03 -0.34413089583E+03  0.68872452405E+03  0.50400001928E-02 0.  1.
       -1    1    3    3    0  502  0.51741251169E+03  0.29698432497E+03 -0.19779303684E+03  0.62852007286E+03  0.50400001928E-02 0. -1.
</event>
<event>
 5   0  0.3839750E-05  0.1200758E+04  0.7818609E-02  0.9112193E-01
        3   -1    0    0  501    0  0.00000000000E+00  0.00000000000E+00  0.35223083758E+03  0.35223085206E+03  0.10100000352E+00 0. -1.
       -3   -1    0    0    0  501  0.00000000000E+00  0.00000000000E+00 -0.10233486142E+04  0.10233486192E+04  0.10100000352E+00 0.  1.
    10030    2    1    2    0    0  0.00000000000E+00  0.00000000000E+00 -0.67111777662E+03  0.13755794713E+04  0.12007580154E+04 0.  0.
        2    1    3    3  502    0  0.93108987155E+02  0.50010414431E+03  0.29742391832E+02  0.50956653002E+03  0.25500000920E-02 0.  1.
       -2    1    3    3    0  502 -0.93108987155E+02 -0.50010414431E+03 -0.70086016845E+03  0.86601294123E+03  0.25500000920E-02 0. -1.
</event>
<event>
 5   0  0.1012657E-04  0.1200124E+04  0.7818609E-02  0.9112748E-01
       -2   -1    0    0    0  501  0.00000000000E+00  0.00000000000E+00  0.25385165587E+03  0.25385165589E+03  0.25500000920E-02 0. -1.
        2   -1    0    0  501    0  0.00000000000E+00  0.00000000000E+00 -0.14184448631E+04  0.14184448631E+04  0.25500000920E-02 0.  1.
    10030    2    1    2    0    0  0.00000000000E+00  0.00000000000E+00 -0.11645932072E+04  0.16722965190E+04  0.12001242890E+04 0.  0.
        1    1    3    3  502    0 -0.38842248041E+03  0.18477050707E+03  0.72348127653E+00  0.43013101146E+03  0.50400001928E-02 0. -1.
       -1    1    3    3    0  502  0.38842248041E+03 -0.18477050707E+03 -0.11653166885E+04  0.12421655075E+04  0.50400001928E-02 0.  1.
</event>
<event>
 5   0  0.5620246E-05  0.1200016E+04  0.7818609E-02  0.9112843E-01
       -1   -1    0    0    0  501  0.00000000000E+00  0.00000000000E+00  0.68854523353E+03  0.68854523355E+03  0.50400001928E-02 0. -1.
        1   -1    0    0  501    0  0.00000000000E+00  0.00000000000E+00 -0.52285509214E+03  0.52285509216E+03  0.50400001928E-02 0.  1.
    10030    2    1    2    0    0  0.00000000000E+00  0.00000000000E+00  0.16569014140E+03  0.12114003257E+04  0.12000156358E+04 0.  0.
        1    1    3    3  502    0  0.50551843015E+03 -0.24963605513E+03  0.29007863456E+03  0.63404468099E+03  0.50400001928E-02 0. -1.
       -1    1    3    3    0  502 -0.50551843015E+03  0.24963605513E+03 -0.12438849316E+03  0.57735564472E+03  0.50400001928E-02 0.  1.
</event>
<event>
 5   0  0.9838215E-05  0.1199983E+04  0.7818609E-02  0.9112871E-01
       -2   -1    0    0    0  501  0.00000000000E+00  0.00000000000E+00  0.65389383965E+03  0.65389383965E+03  0.25500000920E-02 0. -1.
        2   -1    0    0  501    0  0.00000000000E+00  0.00000000000E+00 -0.55053267643E+03  0.55053267644E+03  0.25500000920E-02 0.  1.
    10030    2    1    2    0    0  0.00000000000E+00  0.00000000000E+00  0.10336116321E+03  0.12044265161E+04  0.11999832093E+04 0.  0.
        4    1    3    3  502    0 -0.75358821718E+02  0.56799822773E+03  0.23034919381E+03  0.61754619479E+03  0.12699999809E+01 0. -1.
       -4    1    3    3    0  502  0.75358821718E+02 -0.56799822773E+03 -0.12698803059E+03  0.58688032130E+03  0.12699999809E+01 0.  1.
</event>
<event>
 5   0  0.1004006E-04  0.1199057E+04  0.7818609E-02  0.9113682E-01
       -2   -1    0    0    0  501  0.00000000000E+00  0.00000000000E+00  0.67383928710E+03  0.67383928711E+03  0.25500000920E-02 0. -1.
        2   -1    0    0  501    0  0.00000000000E+00  0.00000000000E+00 -0.53341254042E+03  0.53341254042E+03  0.25500000920E-02 0.  1.
    10030    2    1    2    0    0  0.00000000000E+00  0.00000000000E+00  0.14042674668E+03  0.12072518275E+04  0.11990568393E+04 0.  0.
        5    1    3    3  502    0  0.17912258197E+03  0.43475215034E+03 -0.30423961523E+03  0.56006978590E+03  0.46999998093E+01 0.  1.
       -5    1    3    3    0  502 -0.17912258197E+03 -0.43475215034E+03  0.44466636192E+03  0.64718204164E+03  0.46999998093E+01 0. -1.
</event>
<event>
 5   0  0.5447807E-05  0.1199942E+04  0.7818609E-02  0.9112907E-01
        1   -1    0    0  501    0  0.00000000000E+00  0.00000000000E+00  0.10377085295E+04  0.10377085295E+04  0.50400001928E-02 0.  1.
       -1   -1    0    0    0  501  0.00000000000E+00  0.00000000000E+00 -0.34688485155E+03  0.34688485159E+03  0.50400001928E-02 0. -1.
    10030    2    1    2    0    0  0.00000000000E+00  0.00000000000E+00  0.69082367794E+03  0.13845933811E+04  0.11999422807E+04 0.  0.
        2    1    3    3  502    0  0.35512090572E+03  0.44892053527E+03  0.13795380782E+03  0.58878838114E+03  0.25500000920E-02 0. -1.
       -2    1    3    3    0  502 -0.35512090572E+03 -0.44892053527E+03  0.55286987012E+03  0.79580499996E+03  0.25500000920E-02 0.  1.
</event>
<event>
 5   0  0.5620246E-05  0.1203054E+04  0.7818609E-02  0.9110187E-01
        1   -1    0    0  501    0  0.00000000000E+00  0.00000000000E+00  0.13541893679E+04  0.13541893679E+04  0.50400001928E-02 0.  1.
       -1   -1    0    0    0  501  0.00000000000E+00  0.00000000000E+00 -0.26719668158E+03  0.26719668162E+03  0.50400001928E-02 0. -1.
    10030    2    1    2    0    0  0.00000000000E+00  0.00000000000E+00  0.10869926863E+04  0.16213860495E+04  0.12030542887E+04 0.  0.
        1    1    3    3  502    0  0.43214867519E+02  0.69837719435E+02  0.13465979083E+04  0.13490999809E+04  0.50400001928E-02 0.  1.
       -1    1    3    3    0  502 -0.43214867519E+02 -0.69837719435E+02 -0.25960522201E+03  0.27228606859E+03  0.50400001928E-02 0. -1.
</event>
<event>
 5   0  0.9941209E-05  0.1203930E+04  0.7818609E-02  0.9109424E-01
       -2   -1    0    0    0  501  0.00000000000E+00  0.00000000000E+00  0.27062170673E+03  0.27062170675E+03  0.25500000920E-02 0. -1.
        2   -1    0    0  501    0  0.00000000000E+00  0.00000000000E+00 -0.13389967612E+04  0.13389967612E+04  0.25500000920E-02 0.  1.
    10030    2    1    2    0    0  0.00000000000E+00  0.00000000000E+00 -0.10683750544E+04  0.16096184679E+04  0.12039295475E+04 0.  0.
        2    1    3    3  502    0  0.42659554774E+03  0.41913732734E+03 -0.44251258654E+03  0.74396051628E+03  0.25500000920E-02 0. -1.
       -2    1    3    3    0  502 -0.42659554774E+03 -0.41913732734E+03 -0.62586246790E+03  0.86565795165E+03  0.25500000920E-02 0.  1.
</event>
<event>
 5   0  0.5745487E-05  0.1199883E+04  0.7818609E-02  0.9112959E-01
        1   -1    0    0  501    0  0.00000000000E+00  0.00000000000E+00  0.53785521783E+03  0.53785521785E+03  0.50400001928E-02 0. -1.
       -1   -1    0    0    0  501  0.00000000000E+00  0.00000000000E+00 -0.66919483080E+03  0.66919483082E+03  0.50400001928E-02 0.  1.
    10030    2    1    2    0    0  0.00000000000E+00  0.00000000000E+00 -0.13133961297E+03  0.12070500487E+04  0.11998832135E+04 0.  0.
        3    1    3    3  502    0  0.92350439309E+02 -0.53503434920E+03  0.19107916952E+03  0.57558806250E+03  0.10100000352E+00 0.  1.
       -3    1    3    3    0  502 -0.92350439309E+02  0.53503434920E+03 -0.32241878249E+03  0.63146198617E+03  0.10100000352E+00 0. -1.
</event>
<event>
 5   0  0.5745487E-05  0.1200115E+04  0.7818609E-02  0.9112756E-01
        1   -1    0    0  501    0  0.00000000000E+00  0.00000000000E+00  0.28494174403E+03  0.28494174408E+03  0.50400001928E-02 0. -1.
       -1   -1    0    0    0  501  0.00000000000E+00  0.00000000000E+00 -0.12636587222E+04  0.12636587222E+04  0.50400001928E-02 0.  1.
    10030    2    1    2    0    0  0.00000000000E+00  0.00000000000E+00 -0.97871697813E+03  0.15486004663E+04  0.12001151948E+04 0.  0.
        3    1    3    3  502    0 -0.29637077653E+03  0.36772154158E+03 -0.96699714090E+03  0.10761683186E+04  0.10100000352E+00 0.  1.
       -3    1    3    3    0  502  0.29637077653E+03 -0.36772154158E+03 -0.11719837233E+02  0.47243214762E+03  0.10100000352E+00 0. -1.
</event>
<event>
 5   0  0.9941209E-05  0.1199968E+04  0.7818609E-02  0.9112884E-01
        2   -1    0    0  501    0  0.00000000000E+00  0.00000000000E+00  0.57868931288E+03  0.57868931289E+03  0.25500000920E-02 0. -1.
       -2   -1    0    0    0  501  0.00000000000E+00  0.00000000000E+00 -0.62206275054E+03  0.62206275054E+03  0.25500000920E-02 0.  1.
    10030    2    1    2    0    0  0.00000000000E+00  0.00000000000E+00 -0.43373437658E+02  0.12007520634E+04  0.11999684424E+04 0.  0.
        2    1    3    3  502    0  0.16651018397E+03  0.18536976798E+03 -0.56783932573E+03  0.62010409779E+03  0.25500000920E-02 0.  1.
       -2    1    3    3    0  502 -0.16651018397E+03 -0.18536976798E+03  0.52446588807E+03  0.58064796564E+03  0.25500000920E-02 0. -1.
</event>
<event>
 5   0  0.5625746E-05  0.1200451E+04  0.7818609E-02  0.9112462E-01
       -1   -1    0    0    0  501  0.00000000000E+00  0.00000000000E+00  0.65260331397E+03  0.65260331399E+03  0.50400001928E-02 0.  1.
        1   -1    0    0  501    0  0.00000000000E+00  0.00000000000E+00 -0.55205155843E+03  0.55205155845E+03  0.50400001928E-02 0. -1.
    10030    2    1    2    0    0  0.00000000000E+00  0.00000000000E+00  0.10055175555E+03  0.12046548724E+04  0.12004510428E+04 0.  0.
        5    1    3    3  502    0  0.45449416373E+03  0.33113559848E+03 -0.16029903101E+03  0.58475088610E+03  0.46999998093E+01 0.  1.
       -5    1    3    3    0  502 -0.45449416373E+03 -0.33113559848E+03  0.26085078655E+03  0.61990398635E+03  0.46999998093E+01 0. -1.
</event>
<event>
 5   0  0.1023063E-04  0.1195901E+04  0.7818609E-02  0.9116452E-01
       -2   -1    0    0    0  501  0.00000000000E+00  0.00000000000E+00  0.89503229785E+03  0.89503229786E+03  0.25500000920E-02 0. -1.
        2   -1    0    0  501    0  0.00000000000E+00  0.00000000000E+00 -0.39947688414E+03  0.39947688414E+03  0.25500000920E-02 0.  1.
    10030    2    1    2    0    0  0.00000000000E+00  0.00000000000E+00  0.49555541372E+03  0.12945091820E+04  0.11959008547E+04 0.  0.
        3    1    3    3  502    0 -0.80186613808E+02 -0.25659297485E+02  0.88858428805E+03  0.89256391354E+03  0.10100000352E+00 0. -1.
       -3    1    3    3    0  502  0.80186613808E+02  0.25659297485E+02 -0.39302887433E+03  0.40194526846E+03  0.10100000352E+00 0.  1.
</event>
<event>
 5   0  0.1023063E-04  0.1199936E+04  0.7818609E-02  0.9112912E-01
       -2   -1    0    0    0  501  0.00000000000E+00  0.00000000000E+00  0.20063872906E+03  0.20063872908E+03  0.25500000920E-02 0. -1.
        2   -1    0    0  501    0  0.00000000000E+00  0.00000000000E+00 -0.17940787072E+04  0.17940787072E+04  0.25500000920E-02 0.  1.
    10030    2    1    2    0    0  0.00000000000E+00  0.00000000000E+00 -0.15934399781E+04  0.19947174363E+04  0.11999361177E+04 0.  0.
        3    1    3    3  502    0  0.18602978973E+03  0.44335794388E+03 -0.13932900913E+04  0.14739167676E+04  0.10100000352E+00 0. -1.
       -3    1    3    3    0  502 -0.18602978973E+03 -0.44335794388E+03 -0.20014988678E+03  0.52080066864E+03  0.10100000352E+00 0.  1.
</event>
<event>
 5   0  0.9941209E-05  0.1200354E+04  0.7818609E-02  0.9112547E-01
       -2   -1    0    0    0  501  0.00000000000E+00  0.00000000000E+00  0.20651312789E+03  0.20651312791E+03  0.25500000920E-02 0.  1.
        2   -1    0    0  501    0  0.00000000000E+00  0.00000000000E+00 -0.17442599655E+04  0.17442599655E+04  0.25500000920E-02 0. -1.
    10030    2    1    2    0    0  0.00000000000E+00  0.00000000000E+00 -0.15377468376E+04  0.19507730934E+04  0.12003542500E+04 0.  0.
        2    1    3    3  502    0  0.15007969513E+03 -0.52188126829E+03 -0.35349012528E+03  0.64795003030E+03  0.25500000920E-02 0.  1.
       -2    1    3    3    0  502 -0.15007969513E+03  0.52188126829E+03 -0.11842567123E+04  0.13028230631E+04  0.25500000920E-02 0. -1.
</event>
<event>
 5   0  0.5732931E-05  0.1198807E+04  0.7818609E-02  0.9113902E-01
       -1   -1    0    0    0  501  0.00000000000E+00  0.00000000000E+00  0.36164852172E+03  0.36164852175E+03  0.50400001928E-02 0.  1.
        1   -1    0    0  501    0  0.00000000000E+00  0.00000000000E+00 -0.99346314316E+03  0.99346314317E+03  0.50400001928E-02 0. -1.
    10030    2    1    2    0    0  0.00000000000E+00  0.00000000000E+00 -0.63181462144E+03  0.13551116649E+04  0.11988068687E+04 0.  0.
        4    1    3    3  502    0  0.15959895630E+03 -0.11691702936E+03 -0.95549016375E+03  0.97575841504E+03  0.12699999809E+01 0. -1.
       -4    1    3    3    0  502 -0.15959895630E+03  0.11691702936E+03  0.32367554230E+03  0.37935324988E+03  0.12699999809E+01 0.  1.
</event>
<event>
 5   0  0.1012657E-04  0.1201529E+04  0.7818609E-02  0.9111519E-01
        2   -1    0    0  501    0  0.00000000000E+00  0.00000000000E+00  0.11364410933E+04  0.11364410933E+04  0.25500000920E-02 0. -1.
       -2   -1    0    0    0  501  0.00000000000E+00  0.00000000000E+00 -0.31758619675E+03  0.31758619676E+03  0.25500000920E-02 0.  1.
    10030    2    1    2    0    0  0.00000000000E+00  0.00000000000E+00  0.81885489650E+03  0.14540272900E+04  0.12015290336E+04 0.  0.
        1    1    3    3  502    0 -0.28690198651E+03  0.43354045201E+03  0.45078737824E+02  0.52182580046E+03  0.50400001928E-02 0.  1.
       -1    1    3    3    0  502  0.28690198651E+03 -0.43354045201E+03  0.77377615868E+03  0.93220148957E+03  0.50400001928E-02 0. -1.
</event>
<event>
 5   0  0.9941209E-05  0.1200514E+04  0.7818609E-02  0.9112407E-01
       -2   -1    0    0    0  501  0.00000000000E+00  0.00000000000E+00  0.78590175147E+03  0.78590175147E+03  0.25500000920E-02 0.  1.
        2   -1    0    0  501    0  0.00000000000E+00  0.00000000000E+00 -0.45846483552E+03  0.45846483552E+03  0.25500000920E-02 0. -1.
    10030    2    1    2    0    0  0.00000000000E+00  0.00000000000E+00  0.32743691595E+03  0.12443665870E+04  0.12005137521E+04 0.  0.
        2    1    3    3  502    0 -0.20571875563E+03  0.48985130680E+02  0.74601181164E+03  0.77540529568E+03  0.25500000920E-02 0.  1.
       -2    1    3    3    0  502  0.20571875563E+03 -0.48985130680E+02 -0.41857489569E+03  0.46896129132E+03  0.25500000920E-02 0. -1.
</event>
<event>
 5   0  0.1012657E-04  0.1200070E+04  0.7818609E-02  0.9112796E-01
        2   -1    0    0  501    0  0.00000000000E+00  0.00000000000E+00  0.15029323694E+04  0.15029323694E+04  0.25500000920E-02 0. -1.
       -2   -1    0    0    0  501  0.00000000000E+00  0.00000000000E+00 -0.23955953159E+03  0.23955953161E+03  0.25500000920E-02 0.  1.
    10030    2    1    2    0    0  0.00000000000E+00  0.00000000000E+00  0.12633728378E+04  0.17424919010E+04  0.12000696220E+04 0.  0.
        1    1    3    3  502    0  0.53165055547E+03  0.17156659065E+03  0.94965074982E+03  0.11017821721E+04  0.50400001928E-02 0. -1.
       -1    1    3    3    0  502 -0.53165055547E+03 -0.17156659065E+03  0.31372208797E+03  0.64070972886E+03  0.50400001928E-02 0.  1.
</event>
<event>
 5   0  0.1023063E-04  0.1200416E+04  0.7818609E-02  0.9112492E-01
       -2   -1    0    0    0  501  0.00000000000E+00  0.00000000000E+00  0.75739647673E+03  0.75739647673E+03  0.25500000920E-02 0. -1.
        2   -1    0    0  501    0  0.00000000000E+00  0.00000000000E+00 -0.47564228099E+03  0.47564228100E+03  0.25500000920E-02 0.  1.
    10030    2    1    2    0    0  0.00000000000E+00  0.00000000000E+00  0.28175419574E+03  0.12330387577E+04  0.12004162408E+04 0.  0.
        3    1    3    3  502    0  0.40214464325E+03 -0.27041298495E+03 -0.22287416510E+03  0.53340078758E+03  0.10100000352E+00 0.  1.
       -3    1    3    3    0  502 -0.40214464325E+03  0.27041298495E+03  0.50462836084E+03  0.69963797016E+03  0.10100000352E+00 0. -1.
</event>
<event>
 5   0  0.5447807E-05  0.1200142E+04  0.7818609E-02  0.9112732E-01
        1   -1    0    0  501    0  0.00000000000E+00  0.00000000000E+00  0.26026912649E+03  0.26026912654E+03  0.50400001928E-02 0. -1.
       -1   -1    0    0    0  501  0.00000000000E+00  0.00000000000E+00 -0.13835116309E+04  0.13835116309E+04  0.50400001928E-02 0.  1.
    10030    2    1    2    0    0  0.00000000000E+00  0.00000000000E+00 -0.11232425044E+04  0.16437807574E+04  0.12001422644E+04 0.  0.
        2    1    3    3  502    0 -0.54550752262E+03 -0.61448871398E+02 -0.89354983201E+03  0.10487066908E+04  0.25500000920E-02 0.  1.
       -2    1    3    3    0  502  0.54550752262E+03  0.61448871398E+02 -0.22969267240E+03  0.59507406665E+03  0.25500000920E-02 0. -1.
</event>
<event>
 5   0  0.1012657E-04  0.1201151E+04  0.7818609E-02  0.9111850E-01
       -2   -1    0    0    0  501  0.00000000000E+00  0.00000000000E+00  0.21236438459E+03  0.21236438461E+03  0.25500000920E-02 0. -1.
        2   -1    0    0  501    0  0.00000000000E+00  0.00000000000E+00 -0.16984523565E+04  0.16984523565E+04  0.25500000920E-02 0.  1.
    10030    2    1    2    0    0  0.00000000000E+00  0.00000000000E+00 -0.14860879719E+04  0.19108167411E+04  0.12011507640E+04 0.  0.
        1    1    3    3  502    0 -0.40621757499E+03 -0.12988590282E+03 -0.14157334919E+04  0.14785751202E+04  0.50400001928E-02 0.  1.
       -1    1    3    3    0  502  0.40621757499E+03  0.12988590282E+03 -0.70354480037E+02  0.43224162093E+03  0.50400001928E-02 0. -1.
</event>
<event>
 5   0  0.9838215E-05  0.1199996E+04  0.7818609E-02  0.9112860E-01
        2   -1    0    0  501    0  0.00000000000E+00  0.00000000000E+00  0.16356958850E+04  0.16356958850E+04  0.25500000920E-02 0.  1.
       -2   -1    0    0    0  501  0.00000000000E+00  0.00000000000E+00 -0.22008821468E+03  0.22008821469E+03  0.25500000920E-02 0. -1.
    10030    2    1    2    0    0  0.00000000000E+00  0.00000000000E+00  0.14156076703E+04  0.18557840996E+04  0.11999956451E+04 0.  0.
        4    1    3    3  502    0  0.29548220034E+03  0.38012905697E+03  0.15410785622E+03  0.50552811487E+03  0.12699999809E+01 0. -1.
       -4    1    3    3    0  502 -0.29548220034E+03 -0.38012905697E+03  0.12614998141E+04  0.13502559848E+04  0.12699999809E+01 0.  1.
</event>
<event>
 5   0  0.5620246E-05  0.1203912E+04  0.7818609E-02  0.9109439E-01
       -1   -1    0    0    0  501  0.00000000000E+00  0.00000000000E+00  0.40592679252E+03  0.40592679255E+03  0.50400001928E-02 0. -1.
        1   -1    0    0  501    0  0.00000000000E+00  0.00000000000E+00 -0.89265173522E+03  0.89265173523E+03  0.50400001928E-02 0.  1.
    10030    2    1    2    0    0  0.00000000000E+00  0.00000000000E+00 -0.48672494270E+03  0.12985785278E+04  0.12039123818E+04 0.  0.
        1    1    3    3  502    0  0.18309179350E+01 -0.56028081185E+03 -0.48074318739E+03  0.73826279375E+03  0.50400001928E-02 0. -1.
       -1    1    3    3    0  502 -0.18309179350E+01  0.56028081185E+03 -0.59817553062E+01  0.56031573403E+03  0.50400001928E-02 0.  1.
</event>
<event>
 5   0  0.5447807E-05  0.1199729E+04  0.7818609E-02  0.9113094E-01
       -1   -1    0    0    0  501  0.00000000000E+00  0.00000000000E+00  0.19575516762E+03  0.19575516768E+03  0.50400001928E-02 0.  1.
        1   -1    0    0  501    0  0.00000000000E+00  0.00000000000E+00 -0.18382014543E+04  0.18382014543E+04  0.50400001928E-02 0. -1.
    10030    2    1    2    0    0  0.00000000000E+00  0.00000000000E+00 -0.16424462867E+04  0.20339566220E+04  0.11997290259E+04 0.  0.
        2    1    3    3  502    0  0.33702832582E+03 -0.47956065772E+03 -0.10374773358E+04  0.11916063692E+04  0.25500000920E-02 0.  1.
       -2    1    3    3    0  502 -0.33702832582E+03  0.47956065772E+03 -0.60496895090E+03  0.84235025280E+03  0.25500000920E-02 0. -1.
</event>
<event>
 5   0  0.5625746E-05  0.1198309E+04  0.7818609E-02  0.9114338E-01
        1   -1    0    0  501    0  0.00000000000E+00  0.00000000000E+00  0.15788055825E+04  0.15788055825E+04  0.50400001928E-02 0.  1.
       -1   -1    0    0    0  501  0.00000000000E+00  0.00000000000E+00 -0.22737831228E+03  0.22737831234E+03  0.50400001928E-02 0. -1.
    10030    2    1    2    0    0  0.00000000000E+00  0.00000000000E+00  0.13514272702E+04  0.18061838949E+04  0.11983090567E+04 0.  0.
        5    1    3    3  502    0 -0.16855443488E+03 -0.23605241114E+03 -0.11446874668E+03  0.31185977985E+03  0.46999998093E+01 0. -1.
       -5    1    3    3    0  502  0.16855443488E+03  0.23605241114E+03  0.14658960169E+04  0.14943241150E+04  0.46999998093E+01 0.  1.
</event>
<event>
 5   0  0.3839750E-05  0.1199743E+04  0.7818609E-02  0.9113081E-01
        3   -1    0    0  501    0  0.00000000000E+00  0.00000000000E+00  0.23082430204E+03  0.23082432414E+03  0.10100000352E+00 0. -1.
       -3   -1    0    0    0  501  0.00000000000E+00  0.00000000000E+00 -0.15589600617E+04  0.15589600650E+04  0.10100000352E+00 0.  1.
    10030    2    1    2    0    0  0.00000000000E+00  0.00000000000E+00 -0.13281357597E+04  0.17897843891E+04  0.11997431239E+04 0.  0.
        2    1    3    3  502    0 -0.20558174645E+03  0.54676545166E+03 -0.46045092124E+03  0.74379524365E+03  0.25500000920E-02 0. -1.
       -2    1    3    3    0  502  0.20558174645E+03 -0.54676545166E+03 -0.86768483845E+03  0.10459891455E+04  0.25500000920E-02 0.  1.
</event>
<event>
 5   0  0.5745487E-05  0.1200286E+04  0.7818609E-02  0.9112607E-01
       -1   -1    0    0    0  501  0.00000000000E+00  0.00000000000E+00  0.30087229680E+03  0.30087229684E+03  0.50400001928E-02 0.  1.
        1   -1    0    0  501    0  0.00000000000E+00  0.00000000000E+00 -0.11970904561E+04  0.11970904561E+04  0.50400001928E-02 0. -1.
    10030    2    1    2    0    0  0.00000000000E+00  0.00000000000E+00 -0.89621815931E+03  0.14979627530E+04  0.12002855578E+04 0.  0.
        3    1    3    3  502    0  0.54088233610E+03  0.16627454785E+03 -0.19860033017E+03  0.59970244965E+03  0.10100000352E+00 0.  1.
       -3    1    3    3    0  502 -0.54088233610E+03 -0.16627454785E+03 -0.69761782914E+03  0.89826030331E+03  0.10100000352E+00 0. -1.
</event>
<event>
 5   0  0.9838215E-05  0.1199991E+04  0.7818609E-02  0.9112864E-01
        2   -1    0    0  501    0  0.00000000000E+00  0.00000000000E+00  0.16755040402E+04  0.16755040402E+04  0.25500000920E-02 0.  1.
       -2   -1    0    0    0  501  0.00000000000E+00  0.00000000000E+00 -0.21485760873E+03  0.21485760875E+03  0.25500000920E-02 0. -1.
    10030    2    1    2    0    0  0.00000000000E+00  0.00000000000E+00  0.14606464314E+04  0.18903616489E+04  0.11999913191E+04 0.  0.
        4    1    3    3  502    0  0.64721536330E+02 -0.31125675880E+03  0.15319137026E+04  0.15645545219E+04  0.12699999809E+01 0.  1.
       -4    1    3    3    0  502 -0.64721536330E+02  0.31125675880E+03 -0.71267271105E+02  0.32580712698E+03  0.12699999809E+01 0. -1.
</event>
<event>
 5   0  0.5620246E-05  0.1200096E+04  0.7818609E-02  0.9112772E-01
       -1   -1    0    0    0  501  0.00000000000E+00  0.00000000000E+00  0.46384612016E+03  0.46384612018E+03  0.50400001928E-02 0. -1.
        1   -1    0    0  501    0  0.00000000000E+00  0.00000000000E+00 -0.77624424576E+03  0.77624424578E+03  0.50400001928E-02 0.  1.
    10030    2    1    2    0    0  0.00000000000E+00  0.00000000000E+00 -0.31239812561E+03  0.12400903660E+04  0.12000964657E+04 0.  0.
        1    1    3    3  502    0  0.81327132380E+02  0.58166278208E+03 -0.28322746599E+03  0.65204562113E+03  0.50400001928E-02 0.  1.
       -1    1    3    3    0  502 -0.81327132380E+02 -0.58166278208E+03 -0.29170659615E+02  0.58804474483E+03  0.50400001928E-02 0. -1.
</event>
<event>
 5   0  0.1004006E-04  0.1199936E+04  0.7818609E-02  0.9112912E-01
       -2   -1    0    0    0  501  0.00000000000E+00  0.00000000000E+00  0.11110550773E+04  0.11110550773E+04  0.25500000920E-02 0.  1.
        2   -1    0    0  501    0  0.00000000000E+00  0.00000000000E+00 -0.32398182290E+03  0.32398182291E+03  0.25500000920E-02 0. -1.
    10030    2    1    2    0    0  0.00000000000E+00  0.00000000000E+00  0.78707325443E+03  0.14350369003E+04  0.11999360805E+04 0.  0.
        5    1    3    3  502    0 -0.27711583417E+03 -0.37553079743E+03  0.84439187623E+03  0.96479857794E+03  0.46999998093E+01 0.  1.
       -5    1    3    3    0  502  0.27711583417E+03  0.37553079743E+03 -0.57318621796E+02  0.47023832231E+03  0.46999998093E+01 0. -1.
</event>
<event>
 5   0  0.1004006E-04  0.1201115E+04  0.7818609E-02  0.9111881E-01
       -2   -1    0    0    0  501  0.00000000000E+00  0.00000000000E+00  0.10242574519E+04  0.10242574519E+04  0.25500000920E-02 0.  1.
        2   -1    0    0  501    0  0.00000000000E+00  0.00000000000E+00 -0.35212780461E+03  0.35212780462E+03  0.25500000920E-02 0. -1.
    10030    2    1    2    0    0  0.00000000000E+00  0.00000000000E+00  0.67212964728E+03  0.13763852565E+04  0.12011153615E+04 0.  0.
        5    1    3    3  502    0  0.47061913156E+03  0.34890788009E+03  0.18478410531E+03  0.61431777717E+03  0.46999998093E+01 0. -1.
       -5    1    3    3    0  502 -0.47061913156E+03 -0.34890788009E+03  0.48734554197E+03  0.76206747933E+03  0.46999998093E+01 0.  1.
</event>
<event>
 5   0  0.1004006E-04  0.1200330E+04  0.7818609E-02  0.9112568E-01
       -2   -1    0    0    0  501  0.00000000000E+00  0.00000000000E+00  0.62248161359E+03  0.62248161360E+03  0.25500000920E-02 0.  1.
        2   -1    0    0  501    0  0.00000000000E+00  0.00000000000E+00 -0.57864806663E+03  0.57864806664E+03  0.25500000920E-02 0. -1.
    10030    2    1    2    0    0  0.00000000000E+00  0.00000000000E+00  0.43833546957E+02  0.12011296802E+04  0.12003295918E+04 0.  0.
        5    1    3    3  502    0 -0.50524438639E+03 -0.11563703811E+03  0.32466079211E+03  0.61161305945E+03  0.46999998093E+01 0.  1.
       -5    1    3    3    0  502  0.50524438639E+03  0.11563703811E+03 -0.28082724515E+03  0.58951662078E+03  0.46999998093E+01 0. -1.
</event>
<event>
 5   0  0.9941209E-05  0.1199851E+04  0.7818609E-02  0.9112987E-01
       -2   -1    0    0    0  501  0.00000000000E+00  0.00000000000E+00  0.32249130504E+03  0.32249130505E+03  0.25500000920E-02 0.  1.
        2   -1    0    0  501    0  0.00000000000E+00  0.00000000000E+00 -0.11160311119E+04  0.11160311119E+04  0.25500000920E-02 0. -1.
    10030    2    1    2    0    0  0.00000000000E+00  0.00000000000E+00 -0.79353980685E+03  0.14385224169E+04  0.11998505403E+04 0.  0.
        2    1    3    3  502    0 -0.37049382270E+02  0.43049123583E+03  0.10220900969E+03  0.44400680459E+03  0.25500000920E-02 0.  1.
       -2    1    3    3    0  502  0.37049382270E+02 -0.43049123583E+03 -0.89574881654E+03  0.99451561234E+03  0.25500000920E-02 0. -1.
</event>
<event>
 5   0  0.5732931E-05  0.1198752E+04  0.7818609E-02  0.9113949E-01
       -1   -1    0    0    0  501  0.00000000000E+00  0.00000000000E+00  0.39018304274E+03  0.39018304277E+03  0.50400001928E-02 0.  1.
        1   -1    0    0  501    0  0.00000000000E+00  0.00000000000E+00 -0.92072604114E+03  0.92072604116E+03  0.50400001928E-02 0. -1.
    10030    2    1    2    0    0  0.00000000000E+00  0.00000000000E+00 -0.53054299840E+03  0.13109090839E+04  0.11987521650E+04 0.  0.
        4    1    3    3  502    0  0.53334490070E+02 -0.56419097559E+03 -0.47870950063E+03  0.74183584685E+03  0.12699999809E+01 0. -1.
       -4    1    3    3    0  502 -0.53334490070E+02  0.56419097559E+03 -0.51833497765E+02  0.56907323708E+03  0.12699999809E+01 0.  1.
</event>
<event>
 5   0  0.1012657E-04  0.1200291E+04  0.7818609E-02  0.9112602E-01
        2   -1    0    0  501    0  0.00000000000E+00  0.00000000000E+00  0.94617953389E+03  0.94617953389E+03  0.25500000920E-02 0. -1.
       -2   -1    0    0    0  501  0.00000000000E+00  0.00000000000E+00 -0.38066228515E+03  0.38066228516E+03  0.25500000920E-02 0.  1.
    10030    2    1    2    0    0  0.00000000000E+00  0.00000000000E+00  0.56551724873E+03  0.13268418191E+04  0.12002914039E+04 0.  0.
        1    1    3    3  502    0  0.40273660179E+03 -0.33591372176E+03  0.60531040445E+03  0.80089667539E+03  0.50400001928E-02 0. -1.
       -1    1    3    3    0  502 -0.40273660179E+03  0.33591372176E+03 -0.39793155715E+02  0.52594514367E+03  0.50400001928E-02 0.  1.
</event>
<event>
 5   0  0.1004006E-04  0.1199673E+04  0.7818609E-02  0.9113143E-01
        2   -1    0    0  501    0  0.00000000000E+00  0.00000000000E+00  0.24675054043E+03  0.24675054044E+03  0.25500000920E-02 0. -1.
       -2   -1    0    0    0  501  0.00000000000E+00  0.00000000000E+00 -0.14581687161E+04  0.14581687161E+04  0.25500000920E-02 0.  1.
    10030    2    1    2    0    0  0.00000000000E+00  0.00000000000E+00 -0.12114181757E+04  0.17049192566E+04  0.11996731534E+04 0.  0.
        5    1    3    3  502    0 -0.24742720500E+03 -0.39295480427E+03 -0.66142087779E+02  0.46907415805E+03  0.46999998093E+01 0. -1.
       -5    1    3    3    0  502  0.24742720500E+03  0.39295480427E+03 -0.11452760879E+04  0.12358450985E+04  0.46999998093E+01 0.  1.
</event>
<event>
 5   0  0.9838215E-05  0.1199688E+04  0.7818609E-02  0.9113129E-01
        2   -1    0    0  501    0  0.00000000000E+00  0.00000000000E+00  0.65855122568E+03  0.65855122569E+03  0.25500000920E-02 0. -1.
       -2   -1    0    0    0  501  0.00000000000E+00  0.00000000000E+00 -0.54637062734E+03  0.54637062734E+03  0.25500000920E-02 0.  1.
    10030    2    1    2    0    0  0.00000000000E+00  0.00000000000E+00  0.11218059834E+03  0.12049218530E+04  0.11996883701E+04 0.  0.
        4    1    3    3  502    0 -0.15726213508E+03 -0.57659073998E+03  0.10753064588E+03  0.60725012414E+03  0.12699999809E+01 0. -1.
       -4    1    3    3    0  502  0.15726213508E+03  0.57659073998E+03  0.46499524615E+01  0.59767172889E+03  0.12699999809E+01 0.  1.
</event>
<event>
 5   0  0.1023063E-04  0.1200240E+04  0.7818609E-02  0.9112647E-01
        2   -1    0    0  501    0  0.00000000000E+00  0.00000000000E+00  0.10052689743E+04  0.10052689743E+04  0.25500000920E-02 0. -1.
       -2   -1    0    0    0  501  0.00000000000E+00  0.00000000000E+00 -0.35825607459E+03  0.35825607460E+03  0.25500000920E-02 0.  1.
    10030    2    1    2    0    0  0.00000000000E+00  0.00000000000E+00  0.64701289973E+03  0.13635250489E+04  0.12002395039E+04 0.  0.
        3    1    3    3  502    0 -0.29873472092E+03 -0.21005351146E+03 -0.21749250469E+03  0.42505048048E+03  0.10100000352E+00 0.  1.
       -3    1    3    3    0  502  0.29873472092E+03  0.21005351146E+03  0.86450540442E+03  0.93847456846E+03  0.10100000352E+00 0. -1.
</event>
<event>
 5   0  0.1004006E-04  0.1200382E+04  0.7818609E-02  0.9112522E-01
        2   -1    0    0  501    0  0.00000000000E+00  0.00000000000E+00  0.11322010685E+04  0.11322010685E+04  0.25500000920E-02 0. -1.
       -2   -1    0    0    0  501  0.00000000000E+00  0.00000000000E+00 -0.31816713661E+03  0.31816713662E+03  0.25500000920E-02 0.  1.
    10030    2    1    2    0    0  0.00000000000E+00  0.00000000000E+00  0.81403393193E+03  0.14503682052E+04  0.12003818926E+04 0.  0.
        5    1    3    3  502    0 -0.50434126522E+03  0.29765214122E+03  0.56570915954E+03  0.81425171302E+03  0.46999998093E+01 0. -1.
       -5    1    3    3    0  502  0.50434126522E+03 -0.29765214122E+03  0.24832477239E+03  0.63611649213E+03  0.46999998093E+01 0.  1.
</event>
<event>
 5   0  0.5732931E-05  0.1201015E+04  0.7818609E-02  0.9111968E-01
       -1   -1    0    0    0  501  0.00000000000E+00  0.00000000000E+00  0.30053079448E+03  0.30053079452E+03  0.50400001928E-02 0. -1.
        1   -1    0    0  501    0  0.00000000000E+00  0.00000000000E+00 -0.11999083253E+04  0.11999083253E+04  0.50400001928E-02 0.  1.
    10030    2    1    2    0    0  0.00000000000E+00  0.00000000000E+00 -0.89937753078E+03  0.15004391198E+04  0.12010152411E+04 0.  0.
        4    1    3    3  502    0  0.50021237470E+03 -0.12544871708E+03 -0.65319638860E+02  0.51982503647E+03  0.12699999809E+01 0. -1.
       -4    1    3    3    0  502 -0.50021237470E+03  0.12544871708E+03 -0.83405789192E+03  0.98061408331E+03  0.12699999809E+01 0.  1.
</event>
<event>
 5   0  0.5745487E-05  0.1200195E+04  0.7818609E-02  0.9112685E-01
        1   -1    0    0  501    0  0.00000000000E+00  0.00000000000E+00  0.42897862771E+03  0.42897862774E+03  0.50400001928E-02 0.  1.
       -1   -1    0    0    0  501  0.00000000000E+00  0.00000000000E+00 -0.83947605520E+03  0.83947605522E+03  0.50400001928E-02 0. -1.
    10030    2    1    2    0    0  0.00000000000E+00  0.00000000000E+00 -0.41049742749E+03  0.12684546830E+04  0.12001954611E+04 0.  0.
        3    1    3    3  502    0  0.55255459853E+03 -0.23176147936E+03 -0.17039899074E+03  0.62294927074E+03  0.10100000352E+00 0.  1.
       -3    1    3    3    0  502 -0.55255459853E+03  0.23176147936E+03 -0.24009843675E+03  0.64550541222E+03  0.10100000352E+00 0. -1.
</event>
<event>
 5   0  0.5625746E-05  0.1199580E+04  0.7818609E-02  0.9113224E-01
       -1   -1    0    0    0  501  0.00000000000E+00  0.00000000000E+00  0.48506256808E+03  0.48506256811E+03  0.50400001928E-02 0. -1.
        1   -1    0    0  501    0  0.00000000000E+00  0.00000000000E+00 -0.74165272379E+03  0.74165272381E+03  0.50400001928E-02 0.  1.
    10030    2    1    2    0    0  0.00000000000E+00  0.00000000000E+00 -0.25659015571E+03  0.12267152919E+04  0.11995798845E+04 0.  0.
        5    1    3    3  502    0 -0.12437487600E+03  0.73024100363E+02 -0.72363626635E+03  0.73788424904E+03  0.46999998093E+01 0.  1.
       -5    1    3    3    0  502  0.12437487600E+03 -0.73024100363E+02  0.46704611064E+03  0.48883104287E+03  0.46999998093E+01 0. -1.
</event>
<event>
 5   0  0.1012657E-04  0.1200147E+04  0.7818609E-02  0.9112728E-01
        2   -1    0    0  501    0  0.00000000000E+00  0.00000000000E+00  0.94108601397E+03  0.94108601398E+03  0.25500000920E-02 0.  1.
       -2   -1    0    0    0  501  0.00000000000E+00  0.00000000000E+00 -0.38263073549E+03  0.38263073550E+03  0.25500000920E-02 0. -1.
    10030    2    1    2    0    0  0.00000000000E+00  0.00000000000E+00  0.55845527848E+03  0.13237167495E+04  0.12001473804E+04 0.  0.
        1    1    3    3  502    0 -0.35321317112E+03  0.41217096484E+03  0.56138757734E+03  0.78089721509E+03  0.50400001928E-02 0.  1.
       -1    1    3    3    0  502  0.35321317112E+03 -0.41217096484E+03 -0.29322988569E+01  0.54281953439E+03  0.50400001928E-02 0. -1.
</event>
<event>
 5   0  0.1004006E-04  0.1200801E+04  0.7818609E-02  0.9112156E-01
       -2   -1    0    0    0  501  0.00000000000E+00  0.00000000000E+00  0.78005364704E+03  0.78005364704E+03  0.25500000920E-02 0. -1.
        2   -1    0    0  501    0  0.00000000000E+00  0.00000000000E+00 -0.46212268372E+03  0.46212268373E+03  0.25500000920E-02 0.  1.
    10030    2    1    2    0    0  0.00000000000E+00  0.00000000000E+00  0.31793096332E+03  0.12421763308E+04  0.12008005410E+04 0.  0.
        5    1    3    3  502    0 -0.19305547963E+02 -0.44770068908E+03  0.57229511415E+03  0.72687853103E+03  0.46999998093E+01 0. -1.
       -5    1    3    3    0  502  0.19305547963E+02  0.44770068908E+03 -0.25436415084E+03  0.51529779974E+03  0.46999998093E+01 0.  1.
</event>
<event>
 5   0  0.5625746E-05  0.1198961E+04  0.7818609E-02  0.9113766E-01
       -1   -1    0    0    0  501  0.00000000000E+00  0.00000000000E+00  0.47529375452E+03  0.47529375455E+03  0.50400001928E-02 0. -1.
        1   -1    0    0  501    0  0.00000000000E+00  0.00000000000E+00 -0.75611521647E+03  0.75611521649E+03  0.50400001928E-02 0.  1.
    10030    2    1    2    0    0  0.00000000000E+00  0.00000000000E+00 -0.28082146195E+03  0.12314089710E+04  0.11989609503E+04 0.  0.
        5    1    3    3  502    0  0.38014160899E+03  0.42298080098E+03 -0.33510455118E+03  0.66010419715E+03  0.46999998093E+01 0.  1.
       -5    1    3    3    0  502 -0.38014160899E+03 -0.42298080098E+03  0.54283089228E+02  0.57130477388E+03  0.46999998093E+01 0. -1.
</event>
<event>
 5   0  0.5620246E-05  0.1199929E+04  0.7818609E-02  0.9112919E-01
        1   -1    0    0  501    0  0.00000000000E+00  0.00000000000E+00  0.64099768675E+03  0.64099768677E+03  0.50400001928E-02 0.  1.
       -1   -1    0    0    0  501  0.00000000000E+00  0.00000000000E+00 -0.56155785490E+03  0.56155785493E+03  0.50400001928E-02 0. -1.
    10030    2    1    2    0    0  0.00000000000E+00  0.00000000000E+00  0.79439831844E+02  0.12025555417E+04  0.11999288079E+04 0.  0.
        1    1    3    3  502    0  0.40813448253E+03  0.79543537705E+01  0.48036440957E+03  0.63038638435E+03  0.50400001928E-02 0.  1.
       -1    1    3    3    0  502 -0.40813448253E+03 -0.79543537705E+01 -0.40092457772E+03  0.57216915735E+03  0.50400001928E-02 0. -1.
</event>
<event>
 5   0  0.9838215E-05  0.1200985E+04  0.7818609E-02  0.9111994E-01
       -2   -1    0    0    0  501  0.00000000000E+00  0.00000000000E+00  0.38937340086E+03  0.38937340087E+03  0.25500000920E-02 0. -1.
        2   -1    0    0  501    0  0.00000000000E+00  0.00000000000E+00 -0.92608142353E+03  0.92608142353E+03  0.25500000920E-02 0.  1.
    10030    2    1    2    0    0  0.00000000000E+00  0.00000000000E+00 -0.53670802267E+03  0.13154548244E+04  0.12009853844E+04 0.  0.
        4    1    3    3  502    0 -0.43106282459E+03  0.82681515774E+02  0.18050847446E+03  0.47459068053E+03  0.12699999809E+01 0. -1.
       -4    1    3    3    0  502  0.43106282459E+03 -0.82681515774E+02 -0.71721649713E+03  0.84086414387E+03  0.12699999809E+01 0.  1.
</event>
<event>
 5   0  0.5620246E-05  0.1205846E+04  0.7818609E-02  0.9107755E-01
        1   -1    0    0  501    0  0.00000000000E+00  0.00000000000E+00  0.86575141335E+03  0.86575141336E+03  0.50400001928E-02 0.  1.
       -1   -1    0    0    0  501  0.00000000000E+00  0.00000000000E+00 -0.41988505541E+03  0.41988505544E+03  0.50400001928E-02 0. -1.
    10030    2    1    2    0    0  0.00000000000E+00  0.00000000000E+00  0.44586635794E+03  0.12856364688E+04  0.12058458943E+04 0.  0.
        1    1    3    3  502    0  0.44165754390E+03  0.26993905516E+03 -0.10669714276E+03  0.52850048239E+03  0.50400001928E-02 0. -1.
       -1    1    3    3    0  502 -0.44165754390E+03 -0.26993905516E+03  0.55256350070E+03  0.75713598641E+03  0.50400001928E-02 0.  1.
</event>
<event>
 5   0  0.9838215E-05  0.1200094E+04  0.7818609E-02  0.9112775E-01
        2   -1    0    0  501    0  0.00000000000E+00  0.00000000000E+00  0.11468601941E+04  0.11468601941E+04  0.25500000920E-02 0. -1.
       -2   -1    0    0    0  501  0.00000000000E+00  0.00000000000E+00 -0.31394949862E+03  0.31394949863E+03  0.25500000920E-02 0.  1.
    10030    2    1    2    0    0  0.00000000000E+00  0.00000000000E+00  0.83291069552E+03  0.14608096928E+04  0.12000936346E+04 0.  0.
        4    1    3    3  502    0 -0.53715484928E+03  0.18603488921E+03  0.18259744549E+03  0.59706595289E+03  0.12699999809E+01 0.  1.
       -4    1    3    3    0  502  0.53715484928E+03 -0.18603488921E+03  0.65031325003E+03  0.86374373987E+03  0.12699999809E+01 0. -1.
</event>
<event>
 5   0  0.1012657E-04  0.1202612E+04  0.7818609E-02  0.9110573E-01
        2   -1    0    0  501    0  0.00000000000E+00  0.00000000000E+00  0.78689059830E+03  0.78689059830E+03  0.25500000920E-02 0. -1.
       -2   -1    0    0    0  501  0.00000000000E+00  0.00000000000E+00 -0.45949088680E+03  0.45949088680E+03  0.25500000920E-02 0.  1.
    10030    2    1    2    0    0  0.00000000000E+00  0.00000000000E+00  0.32739971150E+03  0.12463814851E+04  0.12026122548E+04 0.  0.
        1    1    3    3  502    0 -0.44868165820E+03 -0.10273982799E+03  0.56469016726E+03  0.72852294932E+03  0.50400001928E-02 0. -1.
       -1    1    3    3    0  502  0.44868165820E+03  0.10273982799E+03 -0.23729045576E+03  0.51785853578E+03  0.50400001928E-02 0.  1.
</event>
<event>
 5   0  0.3839750E-05  0.1198924E+04  0.7818609E-02  0.9113799E-01
        4   -1    0    0  501    0  0.00000000000E+00  0.00000000000E+00  0.36256725078E+03  0.36256947505E+03  0.12699999809E+01 0. -1.
       -4   -1    0    0    0  501  0.00000000000E+00  0.00000000000E+00 -0.99113343764E+03  0.99113425130E+03  0.12699999809E+01 0.  1.
    10030    2    1    2    0    0  0.00000000000E+00  0.00000000000E+00 -0.62856618686E+03  0.13537037264E+04  0.11989238205E+04 0.  0.
        4    1    3    3  502    0 -0.10749239208E+03  0.28978284749E+03  0.26566536238E+03  0.40756399586E+03  0.12699999809E+01 0. -1.
       -4    1    3    3    0  502  0.10749239208E+03 -0.28978284749E+03 -0.89423154924E+03  0.94613973049E+03  0.12699999809E+01 0.  1.
</event>
<event>
 5   0  0.5620246E-05  0.1199763E+04  0.7818609E-02  0.9113064E-01
        1   -1    0    0  501    0  0.00000000000E+00  0.00000000000E+00  0.12115311184E+04  0.12115311184E+04  0.50400001928E-02 0.  1.
       -1   -1    0    0    0  501  0.00000000000E+00  0.00000000000E+00 -0.29702710977E+03  0.29702710981E+03  0.50400001928E-02 0. -1.
    10030    2    1    2    0    0  0.00000000000E+00  0.00000000000E+00  0.91450400865E+03  0.15085582282E+04  0.11997626208E+04 0.  0.
        1    1    3    3  502    0 -0.40926612143E+03 -0.41264322958E+03  0.27039495408E+03  0.64100438710E+03  0.50400001928E-02 0.  1.
       -1    1    3    3    0  502  0.40926612143E+03  0.41264322958E+03  0.64410905457E+03  0.86755384113E+03  0.50400001928E-02 0. -1.
</event>
<event>
 5   0  0.5625746E-05  0.1199808E+04  0.7818609E-02  0.9113025E-01
        1   -1    0    0  501    0  0.00000000000E+00  0.00000000000E+00  0.17173562561E+04  0.17173562561E+04  0.50400001928E-02 0. -1.
       -1   -1    0    0    0  501  0.00000000000E+00  0.00000000000E+00 -0.20955732246E+03  0.20955732252E+03  0.50400001928E-02 0.  1.
    10030    2    1    2    0    0  0.00000000000E+00  0.00000000000E+00  0.15077989336E+04  0.19269135786E+04  0.11998076159E+04 0.  0.
        5    1    3    3  502    0  0.28537758034E+03 -0.30575924009E+03  0.14445499415E+04  0.15038868640E+04  0.46999998093E+01 0. -1.
       -5    1    3    3    0  502 -0.28537758034E+03  0.30575924009E+03  0.63248992113E+02  0.42302671460E+03  0.46999998093E+01 0.  1.
</event>
<event>
 5   0  0.9838215E-05  0.1198566E+04  0.7818609E-02  0.9114113E-01
       -2   -1    0    0    0  501  0.00000000000E+00  0.00000000000E+00  0.40265463472E+03  0.40265463473E+03  0.25500000920E-02 0.  1.
        2   -1    0    0  501    0  0.00000000000E+00  0.00000000000E+00 -0.89193106373E+03  0.89193106373E+03  0.25500000920E-02 0. -1.
    10030    2    1    2    0    0  0.00000000000E+00  0.00000000000E+00 -0.48927642901E+03  0.12945856985E+04  0.11985661044E+04 0.  0.
        4    1    3    3  502    0  0.51352446406E+03 -0.25044915522E+03 -0.43997554420E+03  0.72111874677E+03  0.12699999809E+01 0. -1.
       -4    1    3    3    0  502 -0.51352446406E+03  0.25044915522E+03 -0.49300884805E+02  0.57346695170E+03  0.12699999809E+01 0.  1.
</event>
<event>
 5   0  0.5732931E-05  0.1200157E+04  0.7818609E-02  0.9112719E-01
        1   -1    0    0  501    0  0.00000000000E+00  0.00000000000E+00  0.89148407652E+03  0.89148407653E+03  0.50400001928E-02 0.  1.
       -1   -1    0    0    0  501  0.00000000000E+00  0.00000000000E+00 -0.40392700964E+03  0.40392700967E+03  0.50400001928E-02 0. -1.
    10030    2    1    2    0    0  0.00000000000E+00  0.00000000000E+00  0.48755706688E+03  0.12954110862E+04  0.12001574850E+04 0.  0.
        4    1    3    3  502    0  0.49934152388E+03 -0.86862419852E+02 -0.10297550065E+03  0.51719687169E+03  0.12699999809E+01 0. -1.
       -4    1    3    3    0  502 -0.49934152388E+03  0.86862419852E+02  0.59053256753E+03  0.77821421451E+03  0.12699999809E+01 0.  1.
</event>
<event>
 5   0  0.9838215E-05  0.1199988E+04  0.7818609E-02  0.9112867E-01
        2   -1    0    0  501    0  0.00000000000E+00  0.00000000000E+00  0.96405582568E+03  0.96405582569E+03  0.25500000920E-02 0.  1.
       -2   -1    0    0    0  501  0.00000000000E+00  0.00000000000E+00 -0.37341473720E+03  0.37341473721E+03  0.25500000920E-02 0. -1.
    10030    2    1    2    0    0  0.00000000000E+00  0.00000000000E+00  0.59064108848E+03  0.13374705629E+04  0.11999877546E+04 0.  0.
        4    1    3    3  502    0 -0.20928490578E+03 -0.25138969864E+03  0.85593282068E+03  0.91630756779E+03  0.12699999809E+01 0.  1.
       -4    1    3    3    0  502  0.20928490578E+03  0.25138969864E+03 -0.26529173220E+03  0.42116299511E+03  0.12699999809E+01 0. -1.
</event>
<event>
 5   0  0.5447807E-05  0.1195994E+04  0.7818609E-02  0.9116370E-01
       -1   -1    0    0    0  501  0.00000000000E+00  0.00000000000E+00  0.40631258737E+03  0.40631258740E+03  0.50400001928E-02 0. -1.
        1   -1    0    0  501    0  0.00000000000E+00  0.00000000000E+00 -0.88011229805E+03  0.88011229806E+03  0.50400001928E-02 0.  1.
    10030    2    1    2    0    0  0.00000000000E+00  0.00000000000E+00 -0.47379971068E+03  0.12864248855E+04  0.11959944900E+04 0.  0.
        2    1    3    3  502    0 -0.31117241384E+03 -0.45789909303E+03 -0.48004709023E+03  0.73276535083E+03  0.25500000920E-02 0.  1.
       -2    1    3    3    0  502  0.31117241384E+03  0.45789909303E+03  0.62473795466E+01  0.55365953463E+03  0.25500000920E-02 0. -1.
</event>
<event>
 5   0  0.1012657E-04  0.1200060E+04  0.7818609E-02  0.9112804E-01
        2   -1    0    0  501    0  0.00000000000E+00  0.00000000000E+00  0.94123143967E+03  0.94123143967E+03  0.25500000920E-02 0.  1.
       -2   -1    0    0    0  501  0.00000000000E+00  0.00000000000E+00 -0.38251615561E+03  0.38251615562E+03  0.25500000920E-02 0. -1.
    10030    2    1    2    0    0  0.00000000000E+00  0.00000000000E+00  0.55871528406E+03  0.13237475953E+04  0.12000603849E+04 0.  0.
        1    1    3    3  502    0  0.48491377204E+03  0.32681776537E+03  0.13101653823E+03  0.59926334060E+03  0.50400001928E-02 0. -1.
       -1    1    3    3    0  502 -0.48491377204E+03 -0.32681776537E+03  0.42769874584E+03  0.72448425469E+03  0.50400001928E-02 0.  1.
</event>
<event>
 5   0  0.5620246E-05  0.1198681E+04  0.7818609E-02  0.9114012E-01
        1   -1    0    0  501    0  0.00000000000E+00  0.00000000000E+00  0.35163533230E+03  0.35163533233E+03  0.50400001928E-02 0.  1.
       -1   -1    0    0    0  501  0.00000000000E+00  0.00000000000E+00 -0.10215388792E+04  0.10215388792E+04  0.50400001928E-02 0. -1.
    10030    2    1    2    0    0  0.00000000000E+00  0.00000000000E+00 -0.66990354692E+03  0.13731742116E+04  0.11986812141E+04 0.  0.
        1    1    3    3  502    0 -0.12644370835E+03  0.57744653902E+03 -0.22168125335E+03  0.63132804066E+03  0.50400001928E-02 0. -1.
       -1    1    3    3    0  502  0.12644370835E+03 -0.57744653902E+03 -0.44822229357E+03  0.74184617091E+03  0.50400001928E-02 0.  1.
</event>
<event>
 5   0  0.5620246E-05  0.1200441E+04  0.7818609E-02  0.9112471E-01
        1   -1    0    0  501    0  0.00000000000E+00  0.00000000000E+00  0.12130520321E+04  0.12130520321E+04  0.50400001928E-02 0. -1.
       -1   -1    0    0    0  501  0.00000000000E+00  0.00000000000E+00 -0.29699024489E+03  0.29699024493E+03  0.50400001928E-02 0.  1.
    10030    2    1    2    0    0  0.00000000000E+00  0.00000000000E+00  0.91606178722E+03  0.15100422771E+04  0.12004409525E+04 0.  0.
        1    1    3    3  502    0  0.53839602317E+03 -0.21649784682E+03  0.65095872632E+03  0.87206012341E+03  0.50400001928E-02 0. -1.
       -1    1    3    3    0  502 -0.53839602317E+03  0.21649784682E+03  0.26510306091E+03  0.63798215365E+03  0.50400001928E-02 0.  1.
</event>
<event>
 5   0  0.5745487E-05  0.1206118E+04  0.7818609E-02  0.9107519E-01
       -1   -1    0    0    0  501  0.00000000000E+00  0.00000000000E+00  0.10120077984E+04  0.10120077984E+04  0.50400001928E-02 0.  1.
        1   -1    0    0  501    0  0.00000000000E+00  0.00000000000E+00 -0.35936479909E+03  0.35936479913E+03  0.50400001928E-02 0. -1.
    10030    2    1    2    0    0  0.00000000000E+00  0.00000000000E+00  0.65264299932E+03  0.13713725976E+04  0.12061177044E+04 0.  0.
        3    1    3    3  502    0  0.30092300875E+03  0.43026901452E+02  0.91852348424E+03  0.96751815112E+03  0.10100000352E+00 0.  1.
       -3    1    3    3    0  502 -0.30092300875E+03 -0.43026901452E+02 -0.26588048492E+03  0.40385444643E+03  0.10100000352E+00 0. -1.
</event>
<event>
 5   0  0.1023063E-04  0.1199921E+04  0.7818609E-02  0.9112926E-01
       -2   -1    0    0    0  501  0.00000000000E+00  0.00000000000E+00  0.16025510132E+03  0.16025510134E+03  0.25500000920E-02 0.  1.
        2   -1    0    0  501    0  0.00000000000E+00  0.00000000000E+00 -0.22461211179E+04  0.22461211179E+04  0.25500000920E-02 0. -1.
    10030    2    1    2    0    0  0.00000000000E+00  0.00000000000E+00 -0.20858660165E+04  0.24063762192E+04  0.11999206096E+04 0.  0.
        3    1    3    3  502    0 -0.24889214141E+03 -0.46025888196E+03 -0.45425061235E+03  0.69291353393E+03  0.10100000352E+00 0.  1.
       -3    1    3    3    0  502  0.24889214141E+03  0.46025888196E+03 -0.16316154042E+04  0.17134626853E+04  0.10100000352E+00 0. -1.
</event>
<event>
 5   0  0.9941209E-05  0.1198937E+04  0.7818609E-02  0.9113788E-01
       -2   -1    0    0    0  501  0.00000000000E+00  0.00000000000E+00  0.23827810579E+03  0.23827810580E+03  0.25500000920E-02 0. -1.
        2   -1    0    0  501    0  0.00000000000E+00  0.00000000000E+00 -0.15081628696E+04  0.15081628696E+04  0.25500000920E-02 0.  1.
    10030    2    1    2    0    0  0.00000000000E+00  0.00000000000E+00 -0.12698847638E+04  0.17464409754E+04  0.11989365151E+04 0.  0.
        2    1    3    3  502    0 -0.32143237048E+03 -0.30565850056E+03 -0.47534502174E+02  0.44610023164E+03  0.25500000920E-02 0. -1.
       -2    1    3    3    0  502  0.32143237048E+03  0.30565850056E+03 -0.12223502616E+04  0.13003407438E+04  0.25500000920E-02 0.  1.
</event>
<event>
 5   0  0.5447807E-05  0.1200682E+04  0.7818609E-02  0.9112260E-01
       -1   -1    0    0    0  501  0.00000000000E+00  0.00000000000E+00  0.36301557807E+03  0.36301557811E+03  0.50400001928E-02 0.  1.
        1   -1    0    0  501    0  0.00000000000E+00  0.00000000000E+00 -0.99282085892E+03  0.99282085893E+03  0.50400001928E-02 0. -1.
    10030    2    1    2    0    0  0.00000000000E+00  0.00000000000E+00 -0.62980528085E+03  0.13558364370E+04  0.12006822028E+04 0.  0.
        2    1    3    3  502    0 -0.37641574287E+03  0.35874821650E+03 -0.65370744557E+03  0.83529786228E+03  0.25500000920E-02 0. -1.
       -2    1    3    3    0  502  0.37641574287E+03 -0.35874821650E+03  0.23902164723E+02  0.52053857476E+03  0.25500000920E-02 0.  1.
</event>
<event>
 5   0  0.1012657E-04  0.1200401E+04  0.7818609E-02  0.9112506E-01
        2   -1    0    0  501    0  0.00000000000E+00  0.00000000000E+00  0.15834549906E+04  0.15834549906E+04  0.25500000920E-02 0. -1.
       -2   -1    0    0    0  501  0.00000000000E+00  0.00000000000E+00 -0.22750287223E+03  0.22750287225E+03  0.25500000920E-02 0.  1.
    10030    2    1    2    0    0  0.00000000000E+00  0.00000000000E+00  0.13559521184E+04  0.18109578629E+04  0.12004008638E+04 0.  0.
        1    1    3    3  502    0 -0.54884095653E+02  0.28240253465E+03 -0.11671004998E+03  0.31045883998E+03  0.50400001928E-02 0.  1.
       -1    1    3    3    0  502  0.54884095653E+02 -0.28240253465E+03  0.14726621684E+04  0.15004990229E+04  0.50400001928E-02 0. -1.
</event>
<event>
 5   0  0.1004006E-04  0.1200016E+04  0.7818609E-02  0.9112843E-01
       -2   -1    0    0    0  501  0.00000000000E+00  0.00000000000E+00  0.31664060589E+03  0.31664060590E+03  0.25500000920E-02 0.  1.
        2   -1    0    0  501    0  0.00000000000E+00  0.00000000000E+00 -0.11369651593E+04  0.11369651593E+04  0.25500000920E-02 0. -1.
    10030    2    1    2    0    0  0.00000000000E+00  0.00000000000E+00 -0.82032455345E+03  0.14536057652E+04  0.12000155615E+04 0.  0.
        5    1    3    3  502    0  0.62378766827E+02 -0.45924598035E+03 -0.87172105340E+03  0.98727790716E+03  0.46999998093E+01 0.  1.
       -5    1    3    3    0  502 -0.62378766827E+02  0.45924598035E+03  0.51396499947E+02  0.46632785809E+03  0.46999998093E+01 0. -1.
</event>
<event>
 5   0  0.5732931E-05  0.1198811E+04  0.7818609E-02  0.9113898E-01
        1   -1    0    0  501    0  0.00000000000E+00  0.00000000000E+00  0.11412250850E+04  0.11412250850E+04  0.50400001928E-02 0.  1.
       -1   -1    0    0    0  501  0.00000000000E+00  0.00000000000E+00 -0.31482555378E+03  0.31482555382E+03  0.50400001928E-02 0. -1.
    10030    2    1    2    0    0  0.00000000000E+00  0.00000000000E+00  0.82639953121E+03  0.14560506388E+04  0.11988107764E+04 0.  0.
        4    1    3    3  502    0  0.49893314730E+02 -0.56954849780E+03  0.19454051723E+03  0.60392256121E+03  0.12699999809E+01 0. -1.
       -4    1    3    3    0  502 -0.49893314730E+02  0.56954849780E+03  0.63185901398E+03  0.85212807761E+03  0.12699999809E+01 0.  1.
</event>
<event>
 5   0  0.1012657E-04  0.1199755E+04  0.7818609E-02  0.9113071E-01
       -2   -1    0    0    0  501  0.00000000000E+00  0.00000000000E+00  0.54002451616E+03  0.54002451617E+03  0.25500000920E-02 0. -1.
        2   -1    0    0  501    0  0.00000000000E+00  0.00000000000E+00 -0.66636442984E+03  0.66636442985E+03  0.25500000920E-02 0.  1.
    10030    2    1    2    0    0  0.00000000000E+00  0.00000000000E+00 -0.12633991368E+03  0.12063889460E+04  0.11997551897E+04 0.  0.
        1    1    3    3  502    0  0.43220506295E+02  0.26763589782E+03 -0.60125133697E+03  0.65954541633E+03  0.50400001928E-02 0.  1.
       -1    1    3    3    0  502 -0.43220506295E+02 -0.26763589782E+03  0.47491142329E+03  0.54684352969E+03  0.50400001928E-02 0. -1.
</event>
<event>
 5   0  0.5620246E-05  0.1200109E+04  0.7818609E-02  0.9112761E-01
        1   -1    0    0  501    0  0.00000000000E+00  0.00000000000E+00  0.14080672675E+04  0.14080672675E+04  0.50400001928E-02 0.  1.
       -1   -1    0    0    0  501  0.00000000000E+00  0.00000000000E+00 -0.25571589952E+03  0.25571589957E+03  0.50400001928E-02 0. -1.
    10030    2    1    2    0    0  0.00000000000E+00  0.00000000000E+00  0.11523513680E+04  0.16637831671E+04  0.12001086417E+04 0.  0.
        1    1    3    3  502    0  0.56172759878E+03 -0.37684292536E+02  0.86401558971E+03  0.10312521226E+04  0.50400001928E-02 0. -1.
       -1    1    3    3    0  502 -0.56172759878E+03  0.37684292536E+02  0.28833577825E+03  0.63253104444E+03  0.50400001928E-02 0.  1.
</event>
<event>
 5   0  0.1012657E-04  0.1199372E+04  0.7818609E-02  0.9113407E-01
       -2   -1    0    0    0  501  0.00000000000E+00  0.00000000000E+00  0.30657683181E+03  0.30657683182E+03  0.25500000920E-02 0. -1.
        2   -1    0    0  501    0  0.00000000000E+00  0.00000000000E+00 -0.11730279824E+04  0.11730279824E+04  0.25500000920E-02 0.  1.
    10030    2    1    2    0    0  0.00000000000E+00  0.00000000000E+00 -0.86645115056E+03  0.14796048142E+04  0.11993718397E+04 0.  0.
        1    1    3    3  502    0 -0.35205799175E+03 -0.40992156343E+03 -0.11237538132E+03  0.55191371071E+03  0.50400001928E-02 0. -1.
       -1    1    3    3    0  502  0.35205799175E+03  0.40992156343E+03 -0.75407576925E+03  0.92769110350E+03  0.50400001928E-02 0.  1.
</event>
<event>
 5   0  0.5732931E-05  0.1197567E+04  0.7818609E-02  0.9114989E-01
       -1   -1    0    0    0  501  0.00000000000E+00  0.00000000000E+00  0.29947128505E+03  0.29947128510E+03  0.50400001928E-02 0.  1.
        1   -1    0    0  501    0  0.00000000000E+00  0.00000000000E+00 -0.11972493260E+04  0.11972493260E+04  0.50400001928E-02 0. -1.
    10030    2    1    2    0    0  0.00000000000E+00  0.00000000000E+00 -0.89777804090E+03  0.14967206111E+04  0.11975671910E+04 0.  0.
        4    1    3    3  502    0  0.33256202862E+03 -0.48613877844E+03 -0.31421308604E+03  0.66757762928E+03  0.12699999809E+01 0.  1.
       -4    1    3    3    0  502 -0.33256202862E+03  0.48613877844E+03 -0.58356495486E+03  0.82914298178E+03  0.12699999809E+01 0. -1.
</event>
<event>
 5   0  0.9941209E-05  0.1199284E+04  0.7818609E-02  0.9113483E-01
        2   -1    0    0  501    0  0.00000000000E+00  0.00000000000E+00  0.18026546027E+04  0.18026546027E+04  0.25500000920E-02 0. -1.
       -2   -1    0    0    0  501  0.00000000000E+00  0.00000000000E+00 -0.19946736387E+03  0.19946736389E+03  0.25500000920E-02 0.  1.
    10030    2    1    2    0    0  0.00000000000E+00  0.00000000000E+00  0.16031872388E+04  0.20021219665E+04  0.11992843893E+04 0.  0.
        2    1    3    3  502    0 -0.41136337686E+02  0.19417409820E+03 -0.14303706239E+03  0.24465359167E+03  0.25500000920E-02 0.  1.
       -2    1    3    3    0  502  0.41136337686E+02 -0.19417409820E+03  0.17462243012E+04  0.17574683749E+04  0.25500000920E-02 0. -1.
</event>
<event>
 5   0  0.9941209E-05  0.1199993E+04  0.7818609E-02  0.9112863E-01
       -2   -1    0    0    0  501  0.00000000000E+00  0.00000000000E+00  0.45173043872E+03  0.45173043872E+03  0.25500000920E-02 0.  1.
        2   -1    0    0  501    0  0.00000000000E+00  0.00000000000E+00 -0.79692625635E+03  0.79692625635E+03  0.25500000920E-02 0. -1.
    10030    2    1    2    0    0  0.00000000000E+00  0.00000000000E+00 -0.34519581763E+03  0.12486566951E+04  0.11999930790E+04 0.  0.
        2    1    3    3  502    0 -0.59400287886E+03 -0.40624033346E+02 -0.24981029186E+03  0.64567399987E+03  0.25500000920E-02 0. -1.
       -2    1    3    3    0  502  0.59400287886E+03  0.40624033346E+02 -0.95385525771E+02  0.60298269521E+03  0.25500000920E-02 0.  1.
</event>
<event>
 5   0  0.5732931E-05  0.1199928E+04  0.7818609E-02  0.9112920E-01
        1   -1    0    0  501    0  0.00000000000E+00  0.00000000000E+00  0.56763579762E+03  0.56763579765E+03  0.50400001928E-02 0.  1.
       -1   -1    0    0    0  501  0.00000000000E+00  0.00000000000E+00 -0.63413285455E+03  0.63413285457E+03  0.50400001928E-02 0. -1.
    10030    2    1    2    0    0  0.00000000000E+00  0.00000000000E+00 -0.66497056930E+02  0.12017686522E+04  0.11999275123E+04 0.  0.
        4    1    3    3  502    0 -0.41156658382E+02  0.36218852162E+03  0.44401228955E+03  0.57447621526E+03  0.12699999809E+01 0.  1.
       -4    1    3    3    0  502  0.41156658382E+02 -0.36218852162E+03 -0.51050934648E+03  0.62729243696E+03  0.12699999809E+01 0. -1.
</event>
<event>
 5   0  0.5625746E-05  0.1204517E+04  0.7818609E-02  0.9108912E-01
        1   -1    0    0  501    0  0.00000000000E+00  0.00000000000E+00  0.14411546369E+04  0.14411546369E+04  0.50400001928E-02 0. -1.
       -1   -1    0    0    0  501  0.00000000000E+00  0.00000000000E+00 -0.25168368174E+03  0.25168368179E+03  0.50400001928E-02 0.  1.
    10030    2    1    2    0    0  0.00000000000E+00  0.00000000000E+00  0.11894709552E+04  0.16928383187E+04  0.12045166749E+04 0.  0.
        5    1    3    3  502    0  0.36918839120E+03  0.33408940597E+03  0.10708709161E+04  0.11809751938E+04  0.46999998093E+01 0. -1.
       -5    1    3    3    0  502 -0.36918839120E+03 -0.33408940597E+03  0.11860003903E+03  0.51186312490E+03  0.46999998093E+01 0.  1.
</event>
<event>
 5   0  0.5447807E-05  0.1199837E+04  0.7818609E-02  0.9113000E-01
        1   -1    0    0  501    0  0.00000000000E+00  0.00000000000E+00  0.13142796664E+04  0.13142796664E+04  0.50400001928E-02 0.  1.
       -1   -1    0    0    0  501  0.00000000000E+00  0.00000000000E+00 -0.27383971267E+03  0.27383971272E+03  0.50400001928E-02 0. -1.
    10030    2    1    2    0    0  0.00000000000E+00  0.00000000000E+00  0.10404399537E+04  0.15881193791E+04  0.11998365993E+04 0.  0.
        2    1    3    3  502    0 -0.19236654810E+03  0.68683410272E+02 -0.22639595183E+03  0.30492200098E+03  0.25500000920E-02 0. -1.
       -2    1    3    3    0  502  0.19236654810E+03 -0.68683410272E+02  0.12668359056E+04  0.12831973782E+04  0.25500000920E-02 0.  1.
</event>
<event>
 5   0  0.1023063E-04  0.1199968E+04  0.7818609E-02  0.9112885E-01
       -2   -1    0    0    0  501  0.00000000000E+00  0.00000000000E+00  0.24199420836E+03  0.24199420837E+03  0.25500000920E-02 0. -1.
        2   -1    0    0  501    0  0.00000000000E+00  0.00000000000E+00 -0.14875584986E+04  0.14875584986E+04  0.25500000920E-02 0.  1.
    10030    2    1    2    0    0  0.00000000000E+00  0.00000000000E+00 -0.12455642903E+04  0.17295527070E+04  0.11999675684E+04 0.  0.
        3    1    3    3  502    0  0.36550571231E+02 -0.30742174382E+03  0.11797946669E+03  0.33130535401E+03  0.10100000352E+00 0. -1.
       -3    1    3    3    0  502 -0.36550571231E+02  0.30742174382E+03 -0.13635437569E+04  0.13982473530E+04  0.10100000352E+00 0.  1.
</event>
<event>
 5   0  0.5447807E-05  0.1200752E+04  0.7818609E-02  0.9112198E-01
       -1   -1    0    0    0  501  0.00000000000E+00  0.00000000000E+00  0.31166705284E+03  0.31166705288E+03  0.50400001928E-02 0.  1.
        1   -1    0    0  501    0  0.00000000000E+00  0.00000000000E+00 -0.11565276043E+04  0.11565276043E+04  0.50400001928E-02 0. -1.
    10030    2    1    2    0    0  0.00000000000E+00  0.00000000000E+00 -0.84486055146E+03  0.14681946572E+04  0.12007523475E+04 0.  0.
        2    1    3    3  502    0 -0.45357320327E+03  0.31426884002E+03 -0.71167221809E+03  0.90053922765E+03  0.25500000920E-02 0. -1.
       -2    1    3    3    0  502  0.45357320327E+03 -0.31426884002E+03 -0.13318833337E+03  0.56765542954E+03  0.25500000920E-02 0.  1.
</event>
<event>
 5   0  0.5620246E-05  0.1199521E+04  0.7818609E-02  0.9113276E-01
        1   -1    0    0  501    0  0.00000000000E+00  0.00000000000E+00  0.81524084337E+03  0.81524084338E+03  0.50400001928E-02 0. -1.
       -1   -1    0    0    0  501  0.00000000000E+00  0.00000000000E+00 -0.44123456790E+03  0.44123456793E+03  0.50400001928E-02 0.  1.
    10030    2    1    2    0    0  0.00000000000E+00  0.00000000000E+00  0.37400627546E+03  0.12564754113E+04  0.11995206397E+04 0.  0.
        1    1    3    3  502    0  0.24838717050E+03  0.53137409408E+03  0.55930507914E+02  0.58922222979E+03  0.50400001928E-02 0. -1.
       -1    1    3    3    0  502 -0.24838717050E+03 -0.53137409408E+03  0.31807576755E+03  0.66725318153E+03  0.50400001928E-02 0.  1.
</event>
<event>
 5   0  0.1012657E-04  0.1199837E+04  0.7818609E-02  0.9112999E-01
        2   -1    0    0  501    0  0.00000000000E+00  0.00000000000E+00  0.15463469542E+04  0.15463469542E+04  0.25500000920E-02 0.  1.
       -2   -1    0    0    0  501  0.00000000000E+00  0.00000000000E+00 -0.23274345933E+03  0.23274345934E+03  0.25500000920E-02 0. -1.
    10030    2    1    2    0    0  0.00000000000E+00  0.00000000000E+00  0.13136034948E+04  0.17790904135E+04  0.11998368880E+04 0.  0.
        1    1    3    3  502    0  0.47728016079E+02 -0.57870723993E+03  0.88031336616E+03  0.10545765291E+04  0.50400001928E-02 0.  1.
       -1    1    3    3    0  502 -0.47728016079E+02  0.57870723993E+03  0.43329012868E+03  0.72451388442E+03  0.50400001928E-02 0. -1.
</event>
<event>
 5   0  0.5625746E-05  0.1200177E+04  0.7818609E-02  0.9112702E-01
       -1   -1    0    0    0  501  0.00000000000E+00  0.00000000000E+00  0.30564317237E+03  0.30564317241E+03  0.50400001928E-02 0. -1.
        1   -1    0    0  501    0  0.00000000000E+00  0.00000000000E+00 -0.11781915652E+04  0.11781915652E+04  0.50400001928E-02 0.  1.
    10030    2    1    2    0    0  0.00000000000E+00  0.00000000000E+00 -0.87254839281E+03  0.14838347376E+04  0.12001769997E+04 0.  0.
        5    1    3    3  502    0 -0.50418015027E+03 -0.21112860088E+03 -0.13014118080E+03  0.56190010408E+03  0.46999998093E+01 0. -1.
       -5    1    3    3    0  502  0.50418015027E+03  0.21112860088E+03 -0.74240721201E+03  0.92193463351E+03  0.46999998093E+01 0.  1.
</event>
<event>
 5   0  0.5625746E-05  0.1200031E+04  0.7818609E-02  0.9112830E-01
       -1   -1    0    0    0  501  0.00000000000E+00  0.00000000000E+00  0.54595906316E+03  0.54595906318E+03  0.50400001928E-02 0. -1.
        1   -1    0    0  501    0  0.00000000000E+00  0.00000000000E+00 -0.65942386863E+03  0.65942386865E+03  0.50400001928E-02 0.  1.
    10030    2    1    2    0    0  0.00000000000E+00  0.00000000000E+00 -0.11346480547E+03  0.12053829318E+04  0.12000307289E+04 0.  0.
        5    1    3    3  502    0 -0.38058006857E+03 -0.39498398971E+02 -0.52095710638E+03  0.64638974992E+03  0.46999998093E+01 0.  1.
       -5    1    3    3    0  502  0.38058006857E+03  0.39498398971E+02  0.40749230091E+03  0.55899318190E+03  0.46999998093E+01 0. -1.
</event>
<event>
 5   0  0.9941209E-05  0.1200194E+04  0.7818609E-02  0.9112687E-01
       -2   -1    0    0    0  501  0.00000000000E+00  0.00000000000E+00  0.54662796956E+03  0.54662796957E+03  0.25500000920E-02 0. -1.
        2   -1    0    0  501    0  0.00000000000E+00  0.00000000000E+00 -0.65879629879E+03  0.65879629880E+03  0.25500000920E-02 0.  1.
    10030    2    1    2    0    0  0.00000000000E+00  0.00000000000E+00 -0.11216832923E+03  0.12054242684E+04  0.12001941229E+04 0.  0.
        2    1    3    3  502    0 -0.46566875501E+03 -0.24773461714E+02  0.32325920377E+03  0.56741310051E+03  0.25500000920E-02 0. -1.
       -2    1    3    3    0  502  0.46566875501E+03  0.24773461714E+02 -0.43542753300E+03  0.63801116785E+03  0.25500000920E-02 0.  1.
</event>
<event>
 5   0  0.9941209E-05  0.1198481E+04  0.7818609E-02  0.9114187E-01
       -2   -1    0    0    0  501  0.00000000000E+00  0.00000000000E+00  0.10353627296E+04  0.10353627296E+04  0.25500000920E-02 0.  1.
        2   -1    0    0  501    0  0.00000000000E+00  0.00000000000E+00 -0.34682457807E+03  0.34682457808E+03  0.25500000920E-02 0. -1.
    10030    2    1    2    0    0  0.00000000000E+00  0.00000000000E+00  0.68853815156E+03  0.13821873077E+04  0.11984811085E+04 0.  0.
        2    1    3    3  502    0  0.33019435612E+03  0.29668732692E+03  0.80851014107E+03  0.92235585919E+03  0.25500000920E-02 0. -1.
       -2    1    3    3    0  502 -0.33019435612E+03 -0.29668732692E+03 -0.11997198951E+03  0.45983144851E+03  0.25500000920E-02 0.  1.
</event>
<event>
 5   0  0.5745487E-05  0.1200102E+04  0.7818609E-02  0.9112767E-01
        1   -1    0    0  501    0  0.00000000000E+00  0.00000000000E+00  0.16193373664E+04  0.16193373664E+04  0.50400001928E-02 0.  1.
       -1   -1    0    0    0  501  0.00000000000E+00  0.00000000000E+00 -0.22235088218E+03  0.22235088224E+03  0.50400001928E-02 0. -1.
    10030    2    1    2    0    0  0.00000000000E+00  0.00000000000E+00  0.13969864842E+04  0.18416882486E+04  0.12001018157E+04 0.  0.
        3    1    3    3  502    0 -0.27059875395E+02 -0.52516391479E+03  0.11420239605E+04  0.12572780562E+04  0.10100000352E+00 0.  1.
       -3    1    3    3    0  502  0.27059875395E+02  0.52516391479E+03  0.25496252376E+03  0.58441019239E+03  0.10100000352E+00 0. -1.
</event>
<event>
 5   0  0.1004006E-04  0.1202101E+04  0.7818609E-02  0.9111020E-01
        2   -1    0    0  501    0  0.00000000000E+00  0.00000000000E+00  0.15453352981E+04  0.15453352981E+04  0.25500000920E-02 0.  1.
       -2   -1    0    0    0  501  0.00000000000E+00  0.00000000000E+00 -0.23377560263E+03  0.23377560264E+03  0.25500000920E-02 0. -1.
    10030    2    1    2    0    0  0.00000000000E+00  0.00000000000E+00  0.13115596955E+04  0.17791109008E+04  0.12021009784E+04 0.  0.
        5    1    3    3  502    0 -0.48954788740E+03  0.34675739783E+03  0.70999262920E+03  0.92952108665E+03  0.46999998093E+01 0. -1.
       -5    1    3    3    0  502  0.48954788740E+03 -0.34675739783E+03  0.60156706628E+03  0.84958981411E+03  0.46999998093E+01 0.  1.
</event>
<event>
 5   0  0.5732931E-05  0.1200324E+04  0.7818609E-02  0.9112573E-01
       -1   -1    0    0    0  501  0.00000000000E+00  0.00000000000E+00  0.32842443796E+03  0.32842443800E+03  0.50400001928E-02 0.  1.
        1   -1    0    0  501    0  0.00000000000E+00  0.00000000000E+00 -0.10967338066E+04  0.10967338066E+04  0.50400001928E-02 0. -1.
    10030    2    1    2    0    0  0.00000000000E+00  0.00000000000E+00 -0.76830936862E+03  0.14251582446E+04  0.12003235965E+04 0.  0.
        4    1    3    3  502    0 -0.32245415920E+03 -0.31222410910E+03  0.88884349744E+02  0.45756160199E+03  0.12699999809E+01 0.  1.
       -4    1    3    3    0  502  0.32245415920E+03  0.31222410910E+03 -0.85719371837E+03  0.96759664261E+03  0.12699999809E+01 0. -1.
</event>
<event>
 5   0  0.9941209E-05  0.1199606E+04  0.7818609E-02  0.9113202E-01
       -2   -1    0    0    0  501  0.00000000000E+00  0.00000000000E+00  0.27076694349E+03  0.27076694350E+03  0.25500000920E-02 0. -1.
        2   -1    0    0  501    0  0.00000000000E+00  0.00000000000E+00 -0.13286827094E+04  0.13286827094E+04  0.25500000920E-02 0.  1.
    10030    2    1    2    0    0  0.00000000000E+00  0.00000000000E+00 -0.10579157659E+04  0.15994496529E+04  0.11996055287E+04 0.  0.
        2    1    3    3  502    0 -0.49616867431E+03  0.38768464241E+02 -0.97532313753E+03  0.10949619034E+04  0.25500000920E-02 0.  1.
       -2    1    3    3    0  502  0.49616867431E+03 -0.38768464241E+02 -0.82592628396E+02  0.50448774956E+03  0.25500000920E-02 0. -1.
</event>
<event>
 5   0  0.5745487E-05  0.1199599E+04  0.7818609E-02  0.9113208E-01
        1   -1    0    0  501    0  0.00000000000E+00  0.00000000000E+00  0.22683915044E+04  0.22683915044E+04  0.50400001928E-02 0. -1.
       -1   -1    0    0    0  501  0.00000000000E+00  0.00000000000E+00 -0.15859667058E+03  0.15859667066E+03  0.50400001928E-02 0.  1.
    10030    2    1    2    0    0  0.00000000000E+00  0.00000000000E+00  0.21097948338E+04  0.24269881751E+04  0.11995988334E+04 0.  0.
        3    1    3    3  502    0  0.16419173130E+03 -0.20788187921E+03  0.21436270758E+04  0.21599330663E+04  0.10100000352E+00 0. -1.
       -3    1    3    3    0  502 -0.16419173130E+03  0.20788187921E+03 -0.33832242012E+02  0.26705510880E+03  0.10100000352E+00 0.  1.
</event>
<event>
 5   0  0.5625746E-05  0.1199601E+04  0.7818609E-02  0.9113206E-01
       -1   -1    0    0    0  501  0.00000000000E+00  0.00000000000E+00  0.31887063218E+03  0.31887063222E+03  0.50400001928E-02 0.  1.
        1   -1    0    0  501    0  0.00000000000E+00  0.00000000000E+00 -0.11282339116E+04  0.11282339116E+04  0.50400001928E-02 0. -1.
    10030    2    1    2    0    0  0.00000000000E+00  0.00000000000E+00 -0.80936327941E+03  0.14471045438E+04  0.11996010348E+04 0.  0.
        5    1    3    3  502    0  0.37497962505E+03 -0.10524158987E+03  0.14555578838E+03  0.41580534985E+03  0.46999998093E+01 0.  1.
       -5    1    3    3    0  502 -0.37497962505E+03  0.10524158987E+03 -0.95491906779E+03  0.10312991940E+04  0.46999998093E+01 0. -1.
</event>
<event>
 5   0  0.5447807E-05  0.1197372E+04  0.7818609E-02  0.9115160E-01
        1   -1    0    0  501    0  0.00000000000E+00  0.00000000000E+00  0.80854188024E+03  0.80854188025E+03  0.50400001928E-02 0. -1.
       -1   -1    0    0    0  501  0.00000000000E+00  0.00000000000E+00 -0.44329820874E+03  0.44329820877E+03  0.50400001928E-02 0.  1.
    10030    2    1    2    0    0  0.00000000000E+00  0.00000000000E+00  0.36524367150E+03  0.12518400890E+04  0.11973724019E+04 0.  0.
        2    1    3    3  502    0  0.47347969778E+01 -0.58674799895E+03  0.30689676961E+03  0.66217917498E+03  0.25500000920E-02 0.  1.
       -2    1    3    3    0  502 -0.47347969778E+01  0.58674799895E+03  0.58346901890E+02  0.58966091404E+03  0.25500000920E-02 0. -1.
</event>
<event>
 5   0  0.5625746E-05  0.1200112E+04  0.7818609E-02  0.9112759E-01
        1   -1    0    0  501    0  0.00000000000E+00  0.00000000000E+00  0.77981057636E+03  0.77981057638E+03  0.50400001928E-02 0. -1.
       -1   -1    0    0    0  501  0.00000000000E+00  0.00000000000E+00 -0.46173659775E+03  0.46173659778E+03  0.50400001928E-02 0.  1.
    10030    2    1    2    0    0  0.00000000000E+00  0.00000000000E+00  0.31807397861E+03  0.12415471742E+04  0.12001117989E+04 0.  0.
        5    1    3    3  502    0  0.50984849049E+03  0.15491407546E+03 -0.12635192349E+03  0.54765933992E+03  0.46999998093E+01 0.  1.
       -5    1    3    3    0  502 -0.50984849049E+03 -0.15491407546E+03  0.44442590211E+03  0.69388783423E+03  0.46999998093E+01 0. -1.
</event>
<event>
 5   0  0.9941209E-05  0.1200299E+04  0.7818609E-02  0.9112595E-01
       -2   -1    0    0    0  501  0.00000000000E+00  0.00000000000E+00  0.34536209259E+03  0.34536209260E+03  0.25500000920E-02 0. -1.
        2   -1    0    0  501    0  0.00000000000E+00  0.00000000000E+00 -0.10429044168E+04  0.10429044168E+04  0.25500000920E-02 0.  1.
    10030    2    1    2    0    0  0.00000000000E+00  0.00000000000E+00 -0.69754232423E+03  0.13882665094E+04  0.12002993823E+04 0.  0.
        2    1    3    3  502    0 -0.12245668312E+02  0.48722897436E+03  0.56266235935E+02  0.49061993352E+03  0.25500000920E-02 0. -1.
       -2    1    3    3    0  502  0.12245668312E+02 -0.48722897436E+03 -0.75380856017E+03  0.89764657591E+03  0.25500000920E-02 0.  1.
</event>
<event>
 5   0  0.9941209E-05  0.1199703E+04  0.7818609E-02  0.9113116E-01
        2   -1    0    0  501    0  0.00000000000E+00  0.00000000000E+00  0.38134835563E+03  0.38134835564E+03  0.25500000920E-02 0.  1.
       -2   -1    0    0    0  501  0.00000000000E+00  0.00000000000E+00 -0.94355197982E+03  0.94355197982E+03  0.25500000920E-02 0. -1.
    10030    2    1    2    0    0  0.00000000000E+00  0.00000000000E+00 -0.56220362418E+03  0.13249003355E+04  0.11997032899E+04 0.  0.
        2    1    3    3  502    0  0.27966912962E+03  0.21532142374E+03 -0.81673626921E+03  0.88973943996E+03  0.25500000920E-02 0. -1.
       -2    1    3    3    0  502 -0.27966912962E+03 -0.21532142374E+03  0.25453264502E+03  0.43516089550E+03  0.25500000920E-02 0.  1.
</event>
<event>
 5   0  0.5447807E-05  0.1199903E+04  0.7818609E-02  0.9112941E-01
        1   -1    0    0  501    0  0.00000000000E+00  0.00000000000E+00  0.75914660536E+03  0.75914660537E+03  0.50400001928E-02 0.  1.
       -1   -1    0    0    0  501  0.00000000000E+00  0.00000000000E+00 -0.47414002904E+03  0.47414002906E+03  0.50400001928E-02 0. -1.
    10030    2    1    2    0    0  0.00000000000E+00  0.00000000000E+00  0.28500657632E+03  0.12332866344E+04  0.11999029853E+04 0.  0.
        2    1    3    3  502    0 -0.38979951010E+03 -0.32898377016E+03 -0.18214500229E+03  0.54161866748E+03  0.25500000920E-02 0. -1.
       -2    1    3    3    0  502  0.38979951010E+03  0.32898377016E+03  0.46715157861E+03  0.69166796695E+03  0.25500000920E-02 0.  1.
</event>
<event>
 5   0  0.9838215E-05  0.1200102E+04  0.7818609E-02  0.9112767E-01
       -2   -1    0    0    0  501  0.00000000000E+00  0.00000000000E+00  0.91591286620E+03  0.91591286621E+03  0.25500000920E-02 0. -1.
        2   -1    0    0  501    0  0.00000000000E+00  0.00000000000E+00 -0.39311750389E+03  0.39311750390E+03  0.25500000920E-02 0.  1.
    10030    2    1    2    0    0  0.00000000000E+00  0.00000000000E+00  0.52279536232E+03  0.13090303701E+04  0.12001022952E+04 0.  0.
        4    1    3    3  502    0  0.53035891771E+03  0.21124578346E+03  0.59814259230E+02  0.57400759676E+03  0.12699999809E+01 0.  1.
       -4    1    3    3    0  502 -0.53035891771E+03 -0.21124578346E+03  0.46298110309E+03  0.73502277335E+03  0.12699999809E+01 0. -1.
</event>
<event>
 5   0  0.5625746E-05  0.1203257E+04  0.7818609E-02  0.9110011E-01
       -1   -1    0    0    0  501  0.00000000000E+00  0.00000000000E+00  0.20432377380E+03  0.20432377387E+03  0.50400001928E-02 0. -1.
        1   -1    0    0  501    0  0.00000000000E+00  0.00000000000E+00 -0.17714853127E+04  0.17714853127E+04  0.50400001928E-02 0.  1.
    10030    2    1    2    0    0  0.00000000000E+00  0.00000000000E+00 -0.15671615389E+04  0.19758090865E+04  0.12032565219E+04 0.  0.
        5    1    3    3  502    0  0.20266437454E+03 -0.52031474134E+03 -0.11512470314E+04  0.12795280756E+04  0.46999998093E+01 0.  1.
       -5    1    3    3    0  502 -0.20266437454E+03  0.52031474134E+03 -0.41591450741E+03  0.69628101097E+03  0.46999998093E+01 0. -1.
</event>
<event>
 5   0  0.5625746E-05  0.1200303E+04  0.7818609E-02  0.9112592E-01
       -1   -1    0    0    0  501  0.00000000000E+00  0.00000000000E+00  0.34214554455E+03  0.34214554459E+03  0.50400001928E-02 0. -1.
        1   -1    0    0  501    0  0.00000000000E+00  0.00000000000E+00 -0.10527146345E+04  0.10527146345E+04  0.50400001928E-02 0.  1.
    10030    2    1    2    0    0  0.00000000000E+00  0.00000000000E+00 -0.71056908996E+03  0.13948601791E+04  0.12003026650E+04 0.  0.
        5    1    3    3  502    0 -0.13029529145E+03 -0.48225939588E+03 -0.74177096930E+03  0.89431384244E+03  0.46999998093E+01 0.  1.
       -5    1    3    3    0  502  0.13029529145E+03  0.48225939588E+03  0.31201879338E+02  0.50054633667E+03  0.46999998093E+01 0. -1.
</event>
<event>
 5   0  0.5745487E-05  0.1200164E+04  0.7818609E-02  0.9112713E-01
        1   -1    0    0  501    0  0.00000000000E+00  0.00000000000E+00  0.11343506652E+04  0.11343506652E+04  0.50400001928E-02 0. -1.
       -1   -1    0    0    0  501  0.00000000000E+00  0.00000000000E+00 -0.31744884003E+03  0.31744884007E+03  0.50400001928E-02 0.  1.
    10030    2    1    2    0    0  0.00000000000E+00  0.00000000000E+00  0.81690182514E+03  0.14517995052E+04  0.12001638269E+04 0.  0.
        3    1    3    3  502    0  0.41470539615E+03 -0.24133369196E+03 -0.27492569918E+02  0.48060208913E+03  0.10100000352E+00 0.  1.
       -3    1    3    3    0  502 -0.41470539615E+03  0.24133369196E+03  0.84439439506E+03  0.97119741612E+03  0.10100000352E+00 0. -1.
</event>
<event>
 5   0  0.9941209E-05  0.1199185E+04  0.7818609E-02  0.9113570E-01
       -2   -1    0    0    0  501  0.00000000000E+00  0.00000000000E+00  0.55264271329E+03  0.55264271330E+03  0.25500000920E-02 0. -1.
        2   -1    0    0  501    0  0.00000000000E+00  0.00000000000E+00 -0.65053081966E+03  0.65053081966E+03  0.25500000920E-02 0.  1.
    10030    2    1    2    0    0  0.00000000000E+00  0.00000000000E+00 -0.97888106365E+02  0.12031735330E+04  0.11991849186E+04 0.  0.
        2    1    3    3  502    0  0.19198181727E+03 -0.56778669677E+03 -0.65502462219E+02  0.60293392984E+03  0.25500000920E-02 0. -1.
       -2    1    3    3    0  502 -0.19198181727E+03  0.56778669677E+03 -0.32385644146E+02  0.60023960311E+03  0.25500000920E-02 0.  1.
</event>
<event>
 5   0  0.5620246E-05  0.1200088E+04  0.7818609E-02  0.9112779E-01
        1   -1    0    0  501    0  0.00000000000E+00  0.00000000000E+00  0.42508139162E+03  0.42508139165E+03  0.50400001928E-02 0.  1.
       -1   -1    0    0    0  501  0.00000000000E+00  0.00000000000E+00 -0.84702104839E+03  0.84702104841E+03  0.50400001928E-02 0. -1.
    10030    2    1    2    0    0  0.00000000000E+00  0.00000000000E+00 -0.42193965678E+03  0.12721024401E+04  0.12000881401E+04 0.  0.
        1    1    3    3  502    0 -0.52905510142E+03 -0.23202954823E+03 -0.39013626412E+02  0.57901560831E+03  0.50400001928E-02 0.  1.
       -1    1    3    3    0  502  0.52905510142E+03  0.23202954823E+03 -0.38292603036E+03  0.69308683175E+03  0.50400001928E-02 0. -1.
</event>
<event>
 5   0  0.9941209E-05  0.1199327E+04  0.7818609E-02  0.9113446E-01
       -2   -1    0    0    0  501  0.00000000000E+00  0.00000000000E+00  0.38124552053E+03  0.38124552054E+03  0.25500000920E-02 0.  1.
        2   -1    0    0  501    0  0.00000000000E+00  0.00000000000E+00 -0.94321482813E+03  0.94321482813E+03  0.25500000920E-02 0. -1.
    10030    2    1    2    0    0  0.00000000000E+00  0.00000000000E+00 -0.56196930760E+03  0.13244603487E+04  0.11993271916E+04 0.  0.
        2    1    3    3  502    0  0.33321728679E+03 -0.41533927374E+03  0.23571861336E+02  0.53300666522E+03  0.25500000920E-02 0.  1.
       -2    1    3    3    0  502 -0.33321728679E+03  0.41533927374E+03 -0.58554116893E+03  0.79145368345E+03  0.25500000920E-02 0. -1.
</event>
<event>
 5   0  0.9941209E-05  0.1199618E+04  0.7818609E-02  0.9113191E-01
        2   -1    0    0  501    0  0.00000000000E+00  0.00000000000E+00  0.87784115227E+03  0.87784115228E+03  0.25500000920E-02 0.  1.
       -2   -1    0    0    0  501  0.00000000000E+00  0.00000000000E+00 -0.40983562575E+03  0.40983562576E+03  0.25500000920E-02 0. -1.
    10030    2    1    2    0    0  0.00000000000E+00  0.00000000000E+00  0.46800552652E+03  0.12876767780E+04  0.11996175690E+04 0.  0.
        2    1    3    3  502    0 -0.24854128954E+03 -0.74887502804E+02  0.81442635540E+03  0.85479307383E+03  0.25500000920E-02 0.  1.
       -2    1    3    3    0  502  0.24854128954E+03  0.74887502804E+02 -0.34642082888E+03  0.43288370421E+03  0.25500000920E-02 0. -1.
</event>
<event>
 5   0  0.5745487E-05  0.1199873E+04  0.7818609E-02  0.9112968E-01
        1   -1    0    0  501    0  0.00000000000E+00  0.00000000000E+00  0.11691136177E+04  0.11691136178E+04  0.50400001928E-02 0.  1.
       -1   -1    0    0    0  501  0.00000000000E+00  0.00000000000E+00 -0.30786028550E+03  0.30786028554E+03  0.50400001928E-02 0. -1.
    10030    2    1    2    0    0  0.00000000000E+00  0.00000000000E+00  0.86125333224E+03  0.14769739033E+04  0.11998727469E+04 0.  0.
        3    1    3    3  502    0  0.19522290509E+03 -0.11682766750E+03 -0.25269918020E+03  0.34002584084E+03  0.10100000352E+00 0. -1.
       -3    1    3    3    0  502 -0.19522290509E+03  0.11682766750E+03  0.11139525124E+04  0.11369480625E+04  0.10100000352E+00 0.  1.
</event>
<event>
 5   0  0.5620246E-05  0.1199896E+04  0.7818609E-02  0.9112948E-01
        1   -1    0    0  501    0  0.00000000000E+00  0.00000000000E+00  0.22017385433E+04  0.22017385433E+04  0.50400001928E-02 0.  1.
       -1   -1    0    0    0  501  0.00000000000E+00  0.00000000000E+00 -0.16347872316E+03  0.16347872324E+03  0.50400001928E-02 0. -1.
    10030    2    1    2    0    0  0.00000000000E+00  0.00000000000E+00  0.20382598201E+04  0.23652172665E+04  0.11998956719E+04 0.  0.
        1    1    3    3  502    0 -0.27937052801E+03 -0.45050855725E+03  0.46533000111E+03  0.70536363816E+03  0.50400001928E-02 0. -1.
       -1    1    3    3    0  502  0.27937052801E+03  0.45050855725E+03  0.15729298190E+04  0.16598536283E+04  0.50400001928E-02 0.  1.
</event>
<event>
 5   0  0.5745487E-05  0.1199759E+04  0.7818609E-02  0.9113067E-01
        1   -1    0    0  501    0  0.00000000000E+00  0.00000000000E+00  0.59365002393E+03  0.59365002395E+03  0.50400001928E-02 0.  1.
       -1   -1    0    0    0  501  0.00000000000E+00  0.00000000000E+00 -0.60617473782E+03  0.60617473785E+03  0.50400001928E-02 0. -1.
    10030    2    1    2    0    0  0.00000000000E+00  0.00000000000E+00 -0.12524713896E+02  0.11998247618E+04  0.11997593886E+04 0.  0.
        3    1    3    3  502    0  0.44018572019E+03  0.28268009314E+03  0.28732498351E+03  0.59684768549E+03  0.10100000352E+00 0.  1.
       -3    1    3    3    0  502 -0.44018572019E+03 -0.28268009314E+03 -0.29984969741E+03  0.60297707631E+03  0.10100000352E+00 0. -1.
</event>
<event>
 5   0  0.5625746E-05  0.1199809E+04  0.7818609E-02  0.9113023E-01
        1   -1    0    0  501    0  0.00000000000E+00  0.00000000000E+00  0.29619368592E+03  0.29619368596E+03  0.50400001928E-02 0. -1.
       -1   -1    0    0    0  501  0.00000000000E+00  0.00000000000E+00 -0.12150346032E+04  0.12150346032E+04  0.50400001928E-02 0.  1.
    10030    2    1    2    0    0  0.00000000000E+00  0.00000000000E+00 -0.91884091725E+03  0.15112282891E+04  0.11998092810E+04 0.  0.
        5    1    3    3  502    0  0.30720212606E+03  0.42184066841E+03 -0.83208930852E+03  0.98220028667E+03  0.46999998093E+01 0.  1.
       -5    1    3    3    0  502 -0.30720212606E+03 -0.42184066841E+03 -0.86751608732E+02  0.52902800247E+03  0.46999998093E+01 0. -1.
</event>
<event>
 5   0  0.5732931E-05  0.1199849E+04  0.7818609E-02  0.9112988E-01
       -1   -1    0    0    0  501  0.00000000000E+00  0.00000000000E+00  0.54074854965E+03  0.54074854967E+03  0.50400001928E-02 0.  1.
        1   -1    0    0  501    0  0.00000000000E+00  0.00000000000E+00 -0.66557668088E+03  0.66557668090E+03  0.50400001928E-02 0. -1.
    10030    2    1    2    0    0  0.00000000000E+00  0.00000000000E+00 -0.12482813124E+03  0.12063252306E+04  0.11998493654E+04 0.  0.
        4    1    3    3  502    0 -0.25172076751E+03 -0.35696597737E+03  0.35104747302E+03  0.56037843910E+03  0.12699999809E+01 0.  1.
       -4    1    3    3    0  502  0.25172076751E+03  0.35696597737E+03 -0.47587560425E+03  0.64594679148E+03  0.12699999809E+01 0. -1.
</event>
<event>
 5   0  0.5732931E-05  0.1199961E+04  0.7818609E-02  0.9112891E-01
       -1   -1    0    0    0  501  0.00000000000E+00  0.00000000000E+00  0.33850588202E+03  0.33850588205E+03  0.50400001928E-02 0. -1.
        1   -1    0    0  501    0  0.00000000000E+00  0.00000000000E+00 -0.10634278363E+04  0.10634278363E+04  0.50400001928E-02 0.  1.
    10030    2    1    2    0    0  0.00000000000E+00  0.00000000000E+00 -0.72492195428E+03  0.14019337184E+04  0.11999609622E+04 0.  0.
        4    1    3    3  502    0 -0.40488636052E+02  0.59627729111E+03 -0.42416120171E+03  0.73287125436E+03  0.12699999809E+01 0.  1.
       -4    1    3    3    0  502  0.40488636052E+02 -0.59627729111E+03 -0.30076075257E+03  0.66906246399E+03  0.12699999809E+01 0. -1.
</event>
<event>
 5   0  0.1012657E-04  0.1200403E+04  0.7818609E-02  0.9112504E-01
        2   -1    0    0  501    0  0.00000000000E+00  0.00000000000E+00  0.49542088569E+03  0.49542088570E+03  0.25500000920E-02 0. -1.
       -2   -1    0    0    0  501  0.00000000000E+00  0.00000000000E+00 -0.72714251836E+03  0.72714251837E+03  0.25500000920E-02 0.  1.
    10030    2    1    2    0    0  0.00000000000E+00  0.00000000000E+00 -0.23172163267E+03  0.12225634041E+04  0.12004025833E+04 0.  0.
        1    1    3    3  502    0 -0.39323989480E+02  0.46754990886E+03 -0.49705968087E+03  0.68353318851E+03  0.50400001928E-02 0.  1.
       -1    1    3    3    0  502  0.39323989480E+02 -0.46754990886E+03  0.26533804820E+03  0.53903021555E+03  0.50400001928E-02 0. -1.
</event>
<event>
 5   0  0.1023063E-04  0.1200443E+04  0.7818609E-02  0.9112469E-01
       -2   -1    0    0    0  501  0.00000000000E+00  0.00000000000E+00  0.29915790645E+03  0.29915790646E+03  0.25500000920E-02 0. -1.
        2   -1    0    0  501    0  0.00000000000E+00  0.00000000000E+00 -0.12042672123E+04  0.12042672123E+04  0.25500000920E-02 0.  1.
    10030    2    1    2    0    0  0.00000000000E+00  0.00000000000E+00 -0.90510930581E+03  0.15034251187E+04  0.12004433482E+04 0.  0.
        3    1    3    3  502    0 -0.91907098147E+02 -0.47089428994E+03 -0.86352673481E+00  0.47978026519E+03  0.10100000352E+00 0. -1.
       -3    1    3    3    0  502  0.91907098147E+02  0.47089428994E+03 -0.90424577908E+03  0.10236448535E+04  0.10100000352E+00 0.  1.
</event>
<event>
 5   0  0.5625746E-05  0.1199993E+04  0.7818609E-02  0.9112863E-01
       -1   -1    0    0    0  501  0.00000000000E+00  0.00000000000E+00  0.64375790731E+03  0.64375790733E+03  0.50400001928E-02 0. -1.
        1   -1    0    0  501    0  0.00000000000E+00  0.00000000000E+00 -0.55920982702E+03  0.55920982705E+03  0.50400001928E-02 0.  1.
    10030    2    1    2    0    0  0.00000000000E+00  0.00000000000E+00  0.84548080289E+02  0.12029677344E+04  0.11999929133E+04 0.  0.
        5    1    3    3  502    0 -0.34868623004E+03  0.13916571776E+03 -0.42688665458E+03  0.56850988547E+03  0.46999998093E+01 0.  1.
       -5    1    3    3    0  502  0.34868623004E+03 -0.13916571776E+03  0.51143473487E+03  0.63445784891E+03  0.46999998093E+01 0. -1.
</event>
<event>
 5   0  0.9941209E-05  0.1200165E+04  0.7818609E-02  0.9112712E-01
        2   -1    0    0  501    0  0.00000000000E+00  0.00000000000E+00  0.76092113891E+03  0.76092113891E+03  0.25500000920E-02 0.  1.
       -2   -1    0    0    0  501  0.00000000000E+00  0.00000000000E+00 -0.47324094157E+03  0.47324094158E+03  0.25500000920E-02 0. -1.
    10030    2    1    2    0    0  0.00000000000E+00  0.00000000000E+00  0.28768019733E+03  0.12341620805E+04  0.12001650491E+04 0.  0.
        2    1    3    3  502    0  0.35064849128E+03  0.47563611231E+03  0.36405959827E+02  0.59203840221E+03  0.25500000920E-02 0.  1.
       -2    1    3    3    0  502 -0.35064849128E+03 -0.47563611231E+03  0.25127423751E+03  0.64212367828E+03  0.25500000920E-02 0. -1.
</event>
<event>
 5   0  0.9838215E-05  0.1195311E+04  0.7818609E-02  0.9116971E-01
        2   -1    0    0  501    0  0.00000000000E+00  0.00000000000E+00  0.40693133998E+03  0.40693133999E+03  0.25500000920E-02 0. -1.
       -2   -1    0    0    0  501  0.00000000000E+00  0.00000000000E+00 -0.87777028884E+03  0.87777028884E+03  0.25500000920E-02 0.  1.
    10030    2    1    2    0    0  0.00000000000E+00  0.00000000000E+00 -0.47083894885E+03  0.12847016288E+04  0.11953112395E+04 0.  0.
        4    1    3    3  502    0  0.43007272298E+03 -0.12137712052E+03  0.19111642248E+03  0.48602680202E+03  0.12699999809E+01 0. -1.
       -4    1    3    3    0  502 -0.43007272298E+03  0.12137712052E+03 -0.66195537134E+03  0.79867482681E+03  0.12699999809E+01 0.  1.
</event>
<event>
 5   0  0.5732931E-05  0.1197395E+04  0.7818609E-02  0.9115140E-01
       -1   -1    0    0    0  501  0.00000000000E+00  0.00000000000E+00  0.36939468066E+03  0.36939468069E+03  0.50400001928E-02 0.  1.
        1   -1    0    0  501    0  0.00000000000E+00  0.00000000000E+00 -0.97034058528E+03  0.97034058529E+03  0.50400001928E-02 0. -1.
    10030    2    1    2    0    0  0.00000000000E+00  0.00000000000E+00 -0.60094590462E+03  0.13397352660E+04  0.11973949234E+04 0.  0.
        4    1    3    3  502    0  0.58894614511E+03 -0.75875961572E+02 -0.21509821063E+03  0.63157230505E+03  0.12699999809E+01 0.  1.
       -4    1    3    3    0  502 -0.58894614511E+03  0.75875961572E+02 -0.38584769399E+03  0.70816296094E+03  0.12699999809E+01 0. -1.
</event>
<event>
 5   0  0.1004006E-04  0.1197256E+04  0.7818609E-02  0.9115262E-01
       -2   -1    0    0    0  501  0.00000000000E+00  0.00000000000E+00  0.23957279460E+03  0.23957279461E+03  0.25500000920E-02 0.  1.
        2   -1    0    0  501    0  0.00000000000E+00  0.00000000000E+00 -0.14958092879E+04  0.14958092879E+04  0.25500000920E-02 0. -1.
    10030    2    1    2    0    0  0.00000000000E+00  0.00000000000E+00 -0.12562364933E+04  0.17353820825E+04  0.11972555472E+04 0.  0.
        5    1    3    3  502    0  0.31355850087E+03  0.20020112151E+02 -0.13666544499E+04  0.14023145916E+04  0.46999998093E+01 0. -1.
       -5    1    3    3    0  502 -0.31355850087E+03 -0.20020112151E+02  0.11041795661E+03  0.33306749091E+03  0.46999998093E+01 0.  1.
</event>
<event>
 5   0  0.1012657E-04  0.1199244E+04  0.7818609E-02  0.9113518E-01
        2   -1    0    0  501    0  0.00000000000E+00  0.00000000000E+00  0.55728882441E+03  0.55728882442E+03  0.25500000920E-02 0.  1.
       -2   -1    0    0    0  501  0.00000000000E+00  0.00000000000E+00 -0.64517123551E+03  0.64517123551E+03  0.25500000920E-02 0. -1.
    10030    2    1    2    0    0  0.00000000000E+00  0.00000000000E+00 -0.87882411098E+02  0.12024600599E+04  0.11992442944E+04 0.  0.
        1    1    3    3  502    0  0.45067990532E+02 -0.31545183982E+02 -0.64263568118E+03  0.64498592322E+03  0.50400001928E-02 0. -1.
       -1    1    3    3    0  502 -0.45067990532E+02  0.31545183982E+02  0.55475327008E+03  0.55747413671E+03  0.50400001928E-02 0.  1.
</event>
<event>
 5   0  0.5732931E-05  0.1200550E+04  0.7818609E-02  0.9112376E-01
       -1   -1    0    0    0  501  0.00000000000E+00  0.00000000000E+00  0.53316432872E+03  0.53316432874E+03  0.50400001928E-02 0.  1.
        1   -1    0    0  501    0  0.00000000000E+00  0.00000000000E+00 -0.67583252802E+03  0.67583252804E+03  0.50400001928E-02 0. -1.
    10030    2    1    2    0    0  0.00000000000E+00  0.00000000000E+00 -0.14266819930E+03  0.12089968568E+04  0.12005495344E+04 0.  0.
        4    1    3    3  502    0 -0.42954649847E+03 -0.12536645541E+02  0.35073401337E+03  0.55469209736E+03  0.12699999809E+01 0.  1.
       -4    1    3    3    0  502  0.42954649847E+03  0.12536645541E+02 -0.49340221267E+03  0.65430475942E+03  0.12699999809E+01 0. -1.
</event>
<event>
 5   0  0.3839750E-05  0.1200331E+04  0.7818609E-02  0.9112567E-01
        3   -1    0    0  501    0  0.00000000000E+00  0.00000000000E+00  0.14263741249E+04  0.14263741285E+04  0.10100000352E+00 0.  1.
       -3   -1    0    0    0  501  0.00000000000E+00  0.00000000000E+00 -0.25252724574E+03  0.25252726594E+03  0.10100000352E+00 0. -1.
    10030    2    1    2    0    0  0.00000000000E+00  0.00000000000E+00  0.11738468792E+04  0.16789013944E+04  0.12003305363E+04 0.  0.
        5    1    3    3  502    0 -0.20428553515E+03 -0.63761060253E+02  0.13711662593E+04  0.13877741363E+04  0.46999998093E+01 0.  1.
       -5    1    3    3    0  502  0.20428553515E+03  0.63761060253E+02 -0.19731938011E+03  0.29112725816E+03  0.46999998093E+01 0. -1.
</event>
<event>
 5   0  0.5620246E-05  0.1199114E+04  0.7818609E-02  0.9113632E-01
        1   -1    0    0  501    0  0.00000000000E+00  0.00000000000E+00  0.48348612511E+03  0.48348612513E+03  0.50400001928E-02 0. -1.
       -1   -1    0    0    0  501  0.00000000000E+00  0.00000000000E+00 -0.74349338268E+03  0.74349338270E+03  0.50400001928E-02 0.  1.
    10030    2    1    2    0    0  0.00000000000E+00  0.00000000000E+00 -0.26000725758E+03  0.12269795078E+04  0.11991142309E+04 0.  0.
        1    1    3    3  502    0 -0.57550319712E+03  0.63121152468E+02  0.29439492481E+02  0.57970241808E+03  0.50400001928E-02 0. -1.
       -1    1    3    3    0  502  0.57550319712E+03 -0.63121152468E+02 -0.28944675006E+03  0.64727708976E+03  0.50400001928E-02 0.  1.
</event>
<event>
 5   0  0.9838215E-05  0.1200573E+04  0.7818609E-02  0.9112355E-01
        2   -1    0    0  501    0  0.00000000000E+00  0.00000000000E+00  0.24692166699E+04  0.24692166699E+04  0.25500000920E-02 0.  1.
       -2   -1    0    0    0  501  0.00000000000E+00  0.00000000000E+00 -0.14593445471E+03  0.14593445473E+03  0.25500000920E-02 0. -1.
    10030    2    1    2    0    0  0.00000000000E+00  0.00000000000E+00  0.23232822152E+04  0.26151511246E+04  0.12005728438E+04 0.  0.
        4    1    3    3  502    0 -0.47219600912E+03 -0.16311840430E+03  0.18865952119E+04  0.19516197866E+04  0.12699999809E+01 0.  1.
       -4    1    3    3    0  502  0.47219600912E+03  0.16311840430E+03  0.43668700330E+03  0.66353133807E+03  0.12699999809E+01 0. -1.
</event>
<event>
 5   0  0.1023063E-04  0.1200044E+04  0.7818609E-02  0.9112818E-01
       -2   -1    0    0    0  501  0.00000000000E+00  0.00000000000E+00  0.31132436728E+03  0.31132436729E+03  0.25500000920E-02 0.  1.
        2   -1    0    0  501    0  0.00000000000E+00  0.00000000000E+00 -0.11564348170E+04  0.11564348170E+04  0.25500000920E-02 0. -1.
    10030    2    1    2    0    0  0.00000000000E+00  0.00000000000E+00 -0.84511044969E+03  0.14677591843E+04  0.12000438954E+04 0.  0.
        3    1    3    3  502    0 -0.29386662790E+03 -0.47567560794E+03 -0.68884438087E+03  0.88720430017E+03  0.10100000352E+00 0. -1.
       -3    1    3    3    0  502  0.29386662790E+03  0.47567560794E+03 -0.15626606882E+03  0.58055488409E+03  0.10100000352E+00 0.  1.
</event>
<event>
 5   0  0.9941209E-05  0.1200409E+04  0.7818609E-02  0.9112499E-01
        2   -1    0    0  501    0  0.00000000000E+00  0.00000000000E+00  0.44648063793E+03  0.44648063794E+03  0.25500000920E-02 0. -1.
       -2   -1    0    0    0  501  0.00000000000E+00  0.00000000000E+00 -0.80685553355E+03  0.80685553356E+03  0.25500000920E-02 0.  1.
    10030    2    1    2    0    0  0.00000000000E+00  0.00000000000E+00 -0.36037489562E+03  0.12533361715E+04  0.12004088859E+04 0.  0.
        2    1    3    3  502    0  0.44472660891E+03  0.28805849686E+03  0.11417572281E+03  0.54202910436E+03  0.25500000920E-02 0. -1.
       -2    1    3    3    0  502 -0.44472660891E+03 -0.28805849686E+03 -0.47455061843E+03  0.71130706713E+03  0.25500000920E-02 0.  1.
</event>
<event>
 5   0  0.9941209E-05  0.1199975E+04  0.7818609E-02  0.9112879E-01
        2   -1    0    0  501    0  0.00000000000E+00  0.00000000000E+00  0.15939258736E+04  0.15939258736E+04  0.25500000920E-02 0. -1.
       -2   -1    0    0    0  501  0.00000000000E+00  0.00000000000E+00 -0.22584784536E+03  0.22584784538E+03  0.25500000920E-02 0.  1.
    10030    2    1    2    0    0  0.00000000000E+00  0.00000000000E+00  0.13680780282E+04  0.18197737190E+04  0.11999745401E+04 0.  0.
        2    1    3    3  502    0 -0.27593681286E+03  0.38983286723E+03  0.12347513946E+04  0.13239039979E+04  0.25500000920E-02 0. -1.
       -2    1    3    3    0  502  0.27593681286E+03 -0.38983286723E+03  0.13332663359E+03  0.49586972109E+03  0.25500000920E-02 0.  1.
</event>
<event>
 5   0  0.9838215E-05  0.1199329E+04  0.7818609E-02  0.9113444E-01
        2   -1    0    0  501    0  0.00000000000E+00  0.00000000000E+00  0.10450022203E+04  0.10450022203E+04  0.25500000920E-02 0.  1.
       -2   -1    0    0    0  501  0.00000000000E+00  0.00000000000E+00 -0.34411152066E+03  0.34411152067E+03  0.25500000920E-02 0. -1.
    10030    2    1    2    0    0  0.00000000000E+00  0.00000000000E+00  0.70089069965E+03  0.13891137410E+04  0.11993286508E+04 0.  0.
        4    1    3    3  502    0  0.42833154861E+03 -0.12826895737E+03 -0.11238076521E+03  0.46103350231E+03  0.12699999809E+01 0. -1.
       -4    1    3    3    0  502 -0.42833154861E+03  0.12826895737E+03  0.81327146486E+03  0.92808023868E+03  0.12699999809E+01 0.  1.
</event>
<event>
 5   0  0.1004006E-04  0.1200233E+04  0.7818609E-02  0.9112653E-01
       -2   -1    0    0    0  501  0.00000000000E+00  0.00000000000E+00  0.23744578323E+03  0.23744578324E+03  0.25500000920E-02 0.  1.
        2   -1    0    0  501    0  0.00000000000E+00  0.00000000000E+00 -0.15167242231E+04  0.15167242231E+04  0.25500000920E-02 0. -1.
    10030    2    1    2    0    0  0.00000000000E+00  0.00000000000E+00 -0.12792784399E+04  0.17541700064E+04  0.12002329293E+04 0.  0.
        5    1    3    3  502    0  0.41802435871E+03 -0.85416115580E+01 -0.10503603830E+02  0.41826993592E+03  0.46999998093E+01 0.  1.
       -5    1    3    3    0  502 -0.41802435871E+03  0.85416115580E+01 -0.12687748361E+04  0.13359000705E+04  0.46999998093E+01 0. -1.
</event>
<event>
 5   0  0.1004006E-04  0.1200033E+04  0.7818609E-02  0.9112828E-01
       -2   -1    0    0    0  501  0.00000000000E+00  0.00000000000E+00  0.44144419531E+03  0.44144419532E+03  0.25500000920E-02 0.  1.
        2   -1    0    0  501    0  0.00000000000E+00  0.00000000000E+00 -0.81554978159E+03  0.81554978160E+03  0.25500000920E-02 0. -1.
    10030    2    1    2    0    0  0.00000000000E+00  0.00000000000E+00 -0.37410558628E+03  0.12569939769E+04  0.12000328613E+04 0.  0.
        5    1    3    3  502    0 -0.38742891516E+03 -0.25018061119E+03  0.21496979936E+03  0.50884733187E+03  0.46999998093E+01 0.  1.
       -5    1    3    3    0  502  0.38742891516E+03  0.25018061119E+03 -0.58907538564E+03  0.74814664504E+03  0.46999998093E+01 0. -1.
</event>
<event>
 5   0  0.1023063E-04  0.1200083E+04  0.7818609E-02  0.9112784E-01
       -2   -1    0    0    0  501  0.00000000000E+00  0.00000000000E+00  0.72195451666E+03  0.72195451666E+03  0.25500000920E-02 0.  1.
        2   -1    0    0  501    0  0.00000000000E+00  0.00000000000E+00 -0.49871558285E+03  0.49871558286E+03  0.25500000920E-02 0. -1.
    10030    2    1    2    0    0  0.00000000000E+00  0.00000000000E+00  0.22323893380E+03  0.12206700995E+04  0.12000832764E+04 0.  0.
        3    1    3    3  502    0  0.27920643203E+03  0.26190358842E+03  0.58160674531E+03  0.69628739591E+03  0.10100000352E+00 0.  1.
       -3    1    3    3    0  502 -0.27920643203E+03 -0.26190358842E+03 -0.35836781151E+03  0.52438270361E+03  0.10100000352E+00 0. -1.
</event>
<event>
 5   0  0.5620246E-05  0.1197052E+04  0.7818609E-02  0.9115441E-01
       -1   -1    0    0    0  501  0.00000000000E+00  0.00000000000E+00  0.37879941092E+03  0.37879941096E+03  0.50400001928E-02 0. -1.
        1   -1    0    0  501    0  0.00000000000E+00  0.00000000000E+00 -0.94570691792E+03  0.94570691794E+03  0.50400001928E-02 0.  1.
    10030    2    1    2    0    0  0.00000000000E+00  0.00000000000E+00 -0.56690750700E+03  0.13245063289E+04  0.11970517507E+04 0.  0.
        1    1    3    3  502    0 -0.57746640489E+02 -0.18960013384E+03  0.34143490892E+03  0.39479194811E+03  0.50400001928E-02 0. -1.
       -1    1    3    3    0  502  0.57746640489E+02  0.18960013384E+03 -0.90834241592E+03  0.92971438078E+03  0.50400001928E-02 0.  1.
</event>
<event>
 5   0  0.5620246E-05  0.1199529E+04  0.7818609E-02  0.9113269E-01
       -1   -1    0    0    0  501  0.00000000000E+00  0.00000000000E+00  0.55835244151E+03  0.55835244153E+03  0.50400001928E-02 0.  1.
        1   -1    0    0  501    0  0.00000000000E+00  0.00000000000E+00 -0.64424770502E+03  0.64424770504E+03  0.50400001928E-02 0. -1.
    10030    2    1    2    0    0  0.00000000000E+00  0.00000000000E+00 -0.85895263511E+02  0.12026001466E+04  0.11995287059E+04 0.  0.
        1    1    3    3  502    0 -0.14861252779E+02 -0.58113100462E+03  0.10502153350E+03  0.59073143127E+03  0.50400001928E-02 0.  1.
       -1    1    3    3    0  502  0.14861252779E+02  0.58113100462E+03 -0.19091679702E+03  0.61186871531E+03  0.50400001928E-02 0. -1.
</event>
<event>
 5   0  0.9941209E-05  0.1200666E+04  0.7818609E-02  0.9112274E-01
       -2   -1    0    0    0  501  0.00000000000E+00  0.00000000000E+00  0.48705624814E+03  0.48705624814E+03  0.25500000920E-02 0. -1.
        2   -1    0    0  501    0  0.00000000000E+00  0.00000000000E+00 -0.73995476940E+03  0.73995476940E+03  0.25500000920E-02 0.  1.
    10030    2    1    2    0    0  0.00000000000E+00  0.00000000000E+00 -0.25289852126E+03  0.12270110175E+04  0.12006658049E+04 0.  0.
        2    1    3    3  502    0 -0.14413554951E+03  0.57797088507E+03 -0.20274799379E+03  0.62923139592E+03  0.25500000920E-02 0.  1.
       -2    1    3    3    0  502  0.14413554951E+03 -0.57797088507E+03 -0.50150527467E+02  0.59777962162E+03  0.25500000920E-02 0. -1.
</event>
<event>
 5   0  0.9838215E-05  0.1198634E+04  0.7818609E-02  0.9114053E-01
        2   -1    0    0  501    0  0.00000000000E+00  0.00000000000E+00  0.98252909522E+03  0.98252909522E+03  0.25500000920E-02 0.  1.
       -2   -1    0    0    0  501  0.00000000000E+00  0.00000000000E+00 -0.36556763331E+03  0.36556763332E+03  0.25500000920E-02 0. -1.
    10030    2    1    2    0    0  0.00000000000E+00  0.00000000000E+00  0.61696146191E+03  0.13480967285E+04  0.11986339491E+04 0.  0.
        4    1    3    3  502    0 -0.31875681474E+03  0.13264821050E+03 -0.24247916235E+03  0.42189952805E+03  0.12699999809E+01 0. -1.
       -4    1    3    3    0  502  0.31875681474E+03 -0.13264821050E+03  0.85944062426E+03  0.92619720050E+03  0.12699999809E+01 0.  1.
</event>
<event>
 5   0  0.5625746E-05  0.1199482E+04  0.7818609E-02  0.9113310E-01
       -1   -1    0    0    0  501  0.00000000000E+00  0.00000000000E+00  0.58244391919E+03  0.58244391921E+03  0.50400001928E-02 0.  1.
        1   -1    0    0  501    0  0.00000000000E+00  0.00000000000E+00 -0.61755136084E+03  0.61755136086E+03  0.50400001928E-02 0. -1.
    10030    2    1    2    0    0  0.00000000000E+00  0.00000000000E+00 -0.35107441646E+02  0.11999952801E+04  0.11994816129E+04 0.  0.
        5    1    3    3  502    0 -0.40976926801E+02  0.36491901538E+02 -0.61501644979E+03  0.61747719870E+03  0.46999998093E+01 0. -1.
       -5    1    3    3    0  502  0.40976926801E+02 -0.36491901538E+02  0.57990900814E+03  0.58251808137E+03  0.46999998093E+01 0.  1.
</event>
<event>
 5   0  0.3839750E-05  0.1201255E+04  0.7818609E-02  0.9111759E-01
       -3   -1    0    0    0  501  0.00000000000E+00  0.00000000000E+00  0.42926270562E+03  0.42926271750E+03  0.10100000352E+00 0. -1.
        3   -1    0    0  501    0  0.00000000000E+00  0.00000000000E+00 -0.84040240962E+03  0.84040241568E+03  0.10100000352E+00 0.  1.
    10030    2    1    2    0    0  0.00000000000E+00  0.00000000000E+00 -0.41113970400E+03  0.12696651332E+04  0.12012550496E+04 0.  0.
        4    1    3    3  502    0  0.52137808165E+03  0.19089641119E+03  0.36550499044E+02  0.55642977608E+03  0.12699999809E+01 0. -1.
       -4    1    3    3    0  502 -0.52137808165E+03 -0.19089641119E+03 -0.44769020304E+03  0.71323535711E+03  0.12699999809E+01 0.  1.
</event>
<event>
 5   0  0.9838215E-05  0.1193626E+04  0.7818609E-02  0.9118454E-01
       -2   -1    0    0    0  501  0.00000000000E+00  0.00000000000E+00  0.56134428781E+03  0.56134428782E+03  0.25500000920E-02 0.  1.
        2   -1    0    0  501    0  0.00000000000E+00  0.00000000000E+00 -0.63452260615E+03  0.63452260616E+03  0.25500000920E-02 0. -1.
    10030    2    1    2    0    0  0.00000000000E+00  0.00000000000E+00 -0.73178318339E+02  0.11958668940E+04  0.11936258048E+04 0.  0.
        4    1    3    3  502    0 -0.26908554954E+01  0.85101847329E+02  0.55522666909E+03  0.56171864140E+03  0.12699999809E+01 0.  1.
       -4    1    3    3    0  502  0.26908554954E+01 -0.85101847329E+02 -0.62840498743E+03  0.63414825258E+03  0.12699999809E+01 0. -1.
</event>
<event>
 5   0  0.5625746E-05  0.1200157E+04  0.7818609E-02  0.9112719E-01
        1   -1    0    0  501    0  0.00000000000E+00  0.00000000000E+00  0.93372145630E+03  0.93372145632E+03  0.50400001928E-02 0.  1.
       -1   -1    0    0    0  501  0.00000000000E+00  0.00000000000E+00 -0.38565506852E+03  0.38565506856E+03  0.50400001928E-02 0. -1.
    10030    2    1    2    0    0  0.00000000000E+00  0.00000000000E+00  0.54806638778E+03  0.13193765249E+04  0.12001573434E+04 0.  0.
        5    1    3    3  502    0  0.14127087879E+03  0.38930235957E+03 -0.20333520083E+03  0.46139037946E+03  0.46999998093E+01 0. -1.
       -5    1    3    3    0  502 -0.14127087879E+03 -0.38930235957E+03  0.75140158861E+03  0.85798614541E+03  0.46999998093E+01 0.  1.
</event>
<event>
 5   0  0.5732931E-05  0.1200021E+04  0.7818609E-02  0.9112838E-01
        1   -1    0    0  501    0  0.00000000000E+00  0.00000000000E+00  0.71413996089E+03  0.71413996091E+03  0.50400001928E-02 0. -1.
       -1   -1    0    0    0  501  0.00000000000E+00  0.00000000000E+00 -0.50412017904E+03  0.50412017907E+03  0.50400001928E-02 0.  1.
    10030    2    1    2    0    0  0.00000000000E+00  0.00000000000E+00  0.21001978185E+03  0.12182601400E+04  0.12000206081E+04 0.  0.
        4    1    3    3  502    0  0.42519654753E+03 -0.42315665398E+03  0.92285662674E+02  0.60693649938E+03  0.12699999809E+01 0.  1.
       -4    1    3    3    0  502 -0.42519654753E+03  0.42315665398E+03  0.11773411918E+03  0.61132364060E+03  0.12699999809E+01 0. -1.
</event>
<event>
 5   0  0.5620246E-05  0.1199240E+04  0.7818609E-02  0.9113522E-01
        1   -1    0    0  501    0  0.00000000000E+00  0.00000000000E+00  0.27799878442E+03  0.27799878447E+03  0.50400001928E-02 0.  1.
       -1   -1    0    0    0  501  0.00000000000E+00  0.00000000000E+00 -0.12933302227E+04  0.12933302227E+04  0.50400001928E-02 0. -1.
    10030    2    1    2    0    0  0.00000000000E+00  0.00000000000E+00 -0.10153314383E+04  0.15713290072E+04  0.11992401424E+04 0.  0.
        1    1    3    3  502    0  0.27394415867E+03  0.29513737571E+03 -0.10898045604E+04  0.11618198882E+04  0.50400001928E-02 0. -1.
       -1    1    3    3    0  502 -0.27394415867E+03 -0.29513737571E+03  0.74473122125E+02  0.40950911902E+03  0.50400001928E-02 0.  1.
</event>
<event>
 5   0  0.5620246E-05  0.1199848E+04  0.7818609E-02  0.9112990E-01
        1   -1    0    0  501    0  0.00000000000E+00  0.00000000000E+00  0.20376054910E+03  0.20376054916E+03  0.50400001928E-02 0.  1.
       -1   -1    0    0    0  501  0.00000000000E+00  0.00000000000E+00 -0.17663313198E+04  0.17663313198E+04  0.50400001928E-02 0. -1.
    10030    2    1    2    0    0  0.00000000000E+00  0.00000000000E+00 -0.15625707707E+04  0.19700918690E+04  0.11998477232E+04 0.  0.
        1    1    3    3  502    0 -0.11803330650E+03 -0.34594309677E+03 -0.15623784284E+04  0.16045668703E+04  0.50400001928E-02 0. -1.
       -1    1    3    3    0  502  0.11803330650E+03  0.34594309677E+03 -0.19234230034E+00  0.36552499869E+03  0.50400001928E-02 0.  1.
</event>
<event>
 5   0  0.5620246E-05  0.1199884E+04  0.7818609E-02  0.9112958E-01
       -1   -1    0    0    0  501  0.00000000000E+00  0.00000000000E+00  0.27324820627E+03  0.27324820632E+03  0.50400001928E-02 0.  1.
        1   -1    0    0  501    0  0.00000000000E+00  0.00000000000E+00 -0.13172283163E+04  0.13172283163E+04  0.50400001928E-02 0. -1.
    10030    2    1    2    0    0  0.00000000000E+00  0.00000000000E+00 -0.10439801100E+04  0.15904765226E+04  0.11998837856E+04 0.  0.
        1    1    3    3  502    0 -0.53739668845E+03 -0.68117424734E+02 -0.86379856293E+03  0.10195995006E+04  0.50400001928E-02 0. -1.
       -1    1    3    3    0  502  0.53739668845E+03  0.68117424734E+02 -0.18018154709E+03  0.57087702200E+03  0.50400001928E-02 0.  1.
</event>
<event>
 5   0  0.3839750E-05  0.1199880E+04  0.7818609E-02  0.9112961E-01
       -4   -1    0    0    0  501  0.00000000000E+00  0.00000000000E+00  0.42990067540E+03  0.42990255130E+03  0.12699999809E+01 0.  1.
        4   -1    0    0  501    0  0.00000000000E+00  0.00000000000E+00 -0.83723121388E+03  0.83723217711E+03  0.12699999809E+01 0. -1.
    10030    2    1    2    0    0  0.00000000000E+00  0.00000000000E+00 -0.40733053847E+03  0.12671347284E+04  0.11998800992E+04 0.  0.
        5    1    3    3  502    0 -0.42320310039E+03 -0.26419968940E+03 -0.55551201615E+03  0.74667129993E+03  0.46999998093E+01 0. -1.
       -5    1    3    3    0  502  0.42320310039E+03  0.26419968940E+03  0.14818147767E+03  0.52046342848E+03  0.46999998093E+01 0.  1.
</event>
<event>
 5   0  0.5625746E-05  0.1200088E+04  0.7818609E-02  0.9112780E-01
       -1   -1    0    0    0  501  0.00000000000E+00  0.00000000000E+00  0.32696099998E+03  0.32696100002E+03  0.50400001928E-02 0.  1.
        1   -1    0    0  501    0  0.00000000000E+00  0.00000000000E+00 -0.11012094465E+04  0.11012094465E+04  0.50400001928E-02 0. -1.
    10030    2    1    2    0    0  0.00000000000E+00  0.00000000000E+00 -0.77424844651E+03  0.14281704465E+04  0.12000875666E+04 0.  0.
        5    1    3    3  502    0  0.22425900000E+03 -0.50798819806E+03 -0.11656956863E+03  0.56741048878E+03  0.46999998093E+01 0.  1.
       -5    1    3    3    0  502 -0.22425900000E+03  0.50798819806E+03 -0.65767887787E+03  0.86075995774E+03  0.46999998093E+01 0. -1.
</event>
<event>
 5   0  0.1023063E-04  0.1205673E+04  0.7818609E-02  0.9107905E-01
        2   -1    0    0  501    0  0.00000000000E+00  0.00000000000E+00  0.18288434460E+04  0.18288434460E+04  0.25500000920E-02 0. -1.
       -2   -1    0    0    0  501  0.00000000000E+00  0.00000000000E+00 -0.19871126670E+03  0.19871126671E+03  0.25500000920E-02 0.  1.
    10030    2    1    2    0    0  0.00000000000E+00  0.00000000000E+00  0.16301321793E+04  0.20275547127E+04  0.12056729204E+04 0.  0.
        3    1    3    3  502    0  0.34504474197E+03  0.49393509746E+03  0.78211062801E+03  0.98728151969E+03  0.10100000352E+00 0. -1.
       -3    1    3    3    0  502 -0.34504474197E+03 -0.49393509746E+03  0.84802155125E+03  0.10402731930E+04  0.10100000352E+00 0.  1.
</event>
<event>
 5   0  0.5745487E-05  0.1199912E+04  0.7818609E-02  0.9112934E-01
        1   -1    0    0  501    0  0.00000000000E+00  0.00000000000E+00  0.61785361470E+03  0.61785361472E+03  0.50400001928E-02 0. -1.
       -1   -1    0    0    0  501  0.00000000000E+00  0.00000000000E+00 -0.58257668567E+03  0.58257668569E+03  0.50400001928E-02 0.  1.
    10030    2    1    2    0    0  0.00000000000E+00  0.00000000000E+00  0.35276929035E+02  0.12004303004E+04  0.11999118486E+04 0.  0.
        3    1    3    3  502    0  0.15462522475E+03  0.60195666575E+02  0.59444167238E+03  0.61716561024E+03  0.10100000352E+00 0. -1.
       -3    1    3    3    0  502 -0.15462522475E+03 -0.60195666575E+02 -0.55916474334E+03  0.58326469017E+03  0.10100000352E+00 0.  1.
</event>
<event>
 5   0  0.5447807E-05  0.1200181E+04  0.7818609E-02  0.9112698E-01
       -1   -1    0    0    0  501  0.00000000000E+00  0.00000000000E+00  0.12476129986E+03  0.12476129996E+03  0.50400001928E-02 0.  1.
        1   -1    0    0  501    0  0.00000000000E+00  0.00000000000E+00 -0.28863790246E+04  0.28863790246E+04  0.50400001928E-02 0. -1.
    10030    2    1    2    0    0  0.00000000000E+00  0.00000000000E+00 -0.27616177247E+04  0.30111403245E+04  0.12001806517E+04 0.  0.
        2    1    3    3  502    0 -0.36133093315E+03  0.20127805556E+03 -0.28998140974E+03  0.50513574106E+03  0.25500000920E-02 0.  1.
       -2    1    3    3    0  502  0.36133093315E+03 -0.20127805556E+03 -0.24716363150E+04  0.25060045835E+04  0.25500000920E-02 0. -1.
</event>
<event>
 5   0  0.1004006E-04  0.1199917E+04  0.7818609E-02  0.9112929E-01
       -2   -1    0    0    0  501  0.00000000000E+00  0.00000000000E+00  0.56893399904E+03  0.56893399905E+03  0.25500000920E-02 0.  1.
        2   -1    0    0  501    0  0.00000000000E+00  0.00000000000E+00 -0.63267517549E+03  0.63267517549E+03  0.25500000920E-02 0. -1.
    10030    2    1    2    0    0  0.00000000000E+00  0.00000000000E+00 -0.63741176446E+02  0.12016091745E+04  0.11999173600E+04 0.  0.
        5    1    3    3  502    0 -0.36561411025E+03 -0.12265846081E+03  0.42835279083E+03  0.57639134191E+03  0.46999998093E+01 0.  1.
       -5    1    3    3    0  502  0.36561411025E+03  0.12265846081E+03 -0.49209396727E+03  0.62521783263E+03  0.46999998093E+01 0. -1.
</event>
<event>
 5   0  0.1023063E-04  0.1199799E+04  0.7818609E-02  0.9113032E-01
        2   -1    0    0  501    0  0.00000000000E+00  0.00000000000E+00  0.12460489144E+04  0.12460489144E+04  0.25500000920E-02 0. -1.
       -2   -1    0    0    0  501  0.00000000000E+00  0.00000000000E+00 -0.28881654380E+03  0.28881654381E+03  0.25500000920E-02 0.  1.
    10030    2    1    2    0    0  0.00000000000E+00  0.00000000000E+00  0.95723237061E+03  0.15348654582E+04  0.11997992180E+04 0.  0.
        3    1    3    3  502    0  0.14320968713E+03  0.31290175269E+03 -0.15000214745E+03  0.37538936554E+03  0.10100000352E+00 0.  1.
       -3    1    3    3    0  502 -0.14320968713E+03 -0.31290175269E+03  0.11072345181E+04  0.11594760927E+04  0.10100000352E+00 0. -1.
</event>
<event>
 5   0  0.5620246E-05  0.1199451E+04  0.7818609E-02  0.9113337E-01
        1   -1    0    0  501    0  0.00000000000E+00  0.00000000000E+00  0.52990562347E+03  0.52990562350E+03  0.50400001928E-02 0. -1.
       -1   -1    0    0    0  501  0.00000000000E+00  0.00000000000E+00 -0.67874476920E+03  0.67874476922E+03  0.50400001928E-02 0.  1.
    10030    2    1    2    0    0  0.00000000000E+00  0.00000000000E+00 -0.14883914573E+03  0.12086503927E+04  0.11994509913E+04 0.  0.
        1    1    3    3  502    0  0.14335069400E+03 -0.40648594990E+03 -0.49461954519E+03  0.65607068479E+03  0.50400001928E-02 0.  1.
       -1    1    3    3    0  502 -0.14335069400E+03  0.40648594990E+03  0.34578039946E+03  0.55257970793E+03  0.50400001928E-02 0. -1.
</event>
<event>
 5   0  0.9838215E-05  0.1200516E+04  0.7818609E-02  0.9112405E-01
       -2   -1    0    0    0  501  0.00000000000E+00  0.00000000000E+00  0.75255147174E+03  0.75255147174E+03  0.25500000920E-02 0.  1.
        2   -1    0    0  501    0  0.00000000000E+00  0.00000000000E+00 -0.47878377106E+03  0.47878377107E+03  0.25500000920E-02 0. -1.
    10030    2    1    2    0    0  0.00000000000E+00  0.00000000000E+00  0.27376770068E+03  0.12313352428E+04  0.12005156085E+04 0.  0.
        4    1    3    3  502    0 -0.15998100439E+02  0.19371290742E+02 -0.47824289558E+03  0.47890402608E+03  0.12699999809E+01 0. -1.
       -4    1    3    3    0  502  0.15998100439E+02 -0.19371290742E+02  0.75201059626E+03  0.75243121673E+03  0.12699999809E+01 0.  1.
</event>
<event>
 5   0  0.1012657E-04  0.1200093E+04  0.7818609E-02  0.9112775E-01
        2   -1    0    0  501    0  0.00000000000E+00  0.00000000000E+00  0.11217963598E+04  0.11217963598E+04  0.25500000920E-02 0. -1.
       -2   -1    0    0    0  501  0.00000000000E+00  0.00000000000E+00 -0.32096356239E+03  0.32096356240E+03  0.25500000920E-02 0.  1.
    10030    2    1    2    0    0  0.00000000000E+00  0.00000000000E+00  0.80083279743E+03  0.14427599222E+04  0.12000929230E+04 0.  0.
        1    1    3    3  502    0  0.53335826833E+03  0.17150288239E+03  0.14209161839E+03  0.57799161681E+03  0.50400001928E-02 0. -1.
       -1    1    3    3    0  502 -0.53335826833E+03 -0.17150288239E+03  0.65874117904E+03  0.86476830542E+03  0.50400001928E-02 0.  1.
</event>
<event>
 5   0  0.1023063E-04  0.1199927E+04  0.7818609E-02  0.9112921E-01
        2   -1    0    0  501    0  0.00000000000E+00  0.00000000000E+00  0.11161433656E+04  0.11161433656E+04  0.25500000920E-02 0. -1.
       -2   -1    0    0    0  501  0.00000000000E+00  0.00000000000E+00 -0.32249978005E+03  0.32249978006E+03  0.25500000920E-02 0.  1.
    10030    2    1    2    0    0  0.00000000000E+00  0.00000000000E+00  0.79364358554E+03  0.14386431457E+04  0.11999266476E+04 0.  0.
        3    1    3    3  502    0 -0.20026057139E+03 -0.35748726452E+03  0.92224671735E+03  0.10091781105E+04  0.10100000352E+00 0. -1.
       -3    1    3    3    0  502  0.20026057139E+03  0.35748726452E+03 -0.12860313181E+03  0.42946503521E+03  0.10100000352E+00 0.  1.
</event>
<event>
 5   0  0.5625746E-05  0.1200463E+04  0.7818609E-02  0.9112452E-01
        1   -1    0    0  501    0  0.00000000000E+00  0.00000000000E+00  0.12666714278E+04  0.12666714278E+04  0.50400001928E-02 0. -1.
       -1   -1    0    0    0  501  0.00000000000E+00  0.00000000000E+00 -0.28442860408E+03  0.28442860413E+03  0.50400001928E-02 0.  1.
    10030    2    1    2    0    0  0.00000000000E+00  0.00000000000E+00  0.98224282369E+03  0.15511000319E+04  0.12004625543E+04 0.  0.
        5    1    3    3  502    0 -0.52432017669E+03 -0.26335722098E+03  0.65449139571E+03  0.87900497757E+03  0.46999998093E+01 0.  1.
       -5    1    3    3    0  502  0.52432017669E+03  0.26335722098E+03  0.32775142798E+03  0.67209505435E+03  0.46999998093E+01 0. -1.
</event>
<event>
 5   0  0.5447807E-05  0.1199802E+04  0.7818609E-02  0.9113030E-01
       -1   -1    0    0    0  501  0.00000000000E+00  0.00000000000E+00  0.70657020622E+03  0.70657020623E+03  0.50400001928E-02 0. -1.
        1   -1    0    0  501    0  0.00000000000E+00  0.00000000000E+00 -0.50933546986E+03  0.50933546988E+03  0.50400001928E-02 0.  1.
    10030    2    1    2    0    0  0.00000000000E+00  0.00000000000E+00  0.19723473636E+03  0.12159056761E+04  0.11998020970E+04 0.  0.
        2    1    3    3  502    0 -0.13705728284E+03  0.26171792743E+02  0.68989635998E+03  0.70386550493E+03  0.25500000920E-02 0. -1.
       -2    1    3    3    0  502  0.13705728284E+03 -0.26171792743E+02 -0.49266162362E+03  0.51204017118E+03  0.25500000920E-02 0.  1.
</event>
<event>
 5   0  0.5620246E-05  0.1200084E+04  0.7818609E-02  0.9112783E-01
        1   -1    0    0  501    0  0.00000000000E+00  0.00000000000E+00  0.42774079688E+03  0.42774079691E+03  0.50400001928E-02 0. -1.
       -1   -1    0    0    0  501  0.00000000000E+00  0.00000000000E+00 -0.84174864023E+03  0.84174864024E+03  0.50400001928E-02 0.  1.
    10030    2    1    2    0    0  0.00000000000E+00  0.00000000000E+00 -0.41400784334E+03  0.12694894372E+04  0.12000837207E+04 0.  0.
        1    1    3    3  502    0 -0.12218175642E+01  0.93040643528E+02 -0.83407041207E+03  0.83924460469E+03  0.50400001928E-02 0.  1.
       -1    1    3    3    0  502  0.12218175642E+01 -0.93040643528E+02  0.42006256873E+03  0.43024483246E+03  0.50400001928E-02 0. -1.
</event>
<event>
 5   0  0.9941209E-05  0.1199829E+04  0.7818609E-02  0.9113006E-01
       -2   -1    0    0    0  501  0.00000000000E+00  0.00000000000E+00  0.38755848821E+03  0.38755848822E+03  0.25500000920E-02 0. -1.
        2   -1    0    0  501    0  0.00000000000E+00  0.00000000000E+00 -0.92862705318E+03  0.92862705318E+03  0.25500000920E-02 0.  1.
    10030    2    1    2    0    0  0.00000000000E+00  0.00000000000E+00 -0.54106856497E+03  0.13161855414E+04  0.11998288159E+04 0.  0.
        2    1    3    3  502    0  0.23350255016E+03 -0.39035128898E+03  0.15855054268E+03  0.48170099059E+03  0.25500000920E-02 0. -1.
       -2    1    3    3    0  502 -0.23350255016E+03  0.39035128898E+03 -0.69961910765E+03  0.83448455081E+03  0.25500000920E-02 0.  1.
</event>
<event>
 5   0  0.9838215E-05  0.1200381E+04  0.7818609E-02  0.9112523E-01
       -2   -1    0    0    0  501  0.00000000000E+00  0.00000000000E+00  0.65685250274E+03  0.65685250275E+03  0.25500000920E-02 0. -1.
        2   -1    0    0  501    0  0.00000000000E+00  0.00000000000E+00 -0.54841661135E+03  0.54841661135E+03  0.25500000920E-02 0.  1.
    10030    2    1    2    0    0  0.00000000000E+00  0.00000000000E+00  0.10843589139E+03  0.12052691141E+04  0.12003813123E+04 0.  0.
        4    1    3    3  502    0 -0.35115472007E+03  0.42682667162E+03 -0.18069317399E+03  0.58150002671E+03  0.12699999809E+01 0. -1.
       -4    1    3    3    0  502  0.35115472007E+03 -0.42682667162E+03  0.28912906539E+03  0.62376908739E+03  0.12699999809E+01 0.  1.
</event>
<event>
 5   0  0.5447807E-05  0.1204894E+04  0.7818609E-02  0.9108583E-01
        1   -1    0    0  501    0  0.00000000000E+00  0.00000000000E+00  0.76107199994E+03  0.76107199996E+03  0.50400001928E-02 0.  1.
       -1   -1    0    0    0  501  0.00000000000E+00  0.00000000000E+00 -0.47688337927E+03  0.47688337930E+03  0.50400001928E-02 0. -1.
    10030    2    1    2    0    0  0.00000000000E+00  0.00000000000E+00  0.28418862067E+03  0.12379553793E+04  0.12048943310E+04 0.  0.
        2    1    3    3  502    0 -0.56200975476E+02 -0.53663415386E+03 -0.13322831931E+03  0.55577382972E+03  0.25500000920E-02 0. -1.
       -2    1    3    3    0  502  0.56200975476E+02  0.53663415386E+03  0.41741693998E+03  0.68218154953E+03  0.25500000920E-02 0.  1.
</event>
<event>
 5   0  0.5625746E-05  0.1200401E+04  0.7818609E-02  0.9112506E-01
       -1   -1    0    0    0  501  0.00000000000E+00  0.00000000000E+00  0.24356839488E+03  0.24356839493E+03  0.50400001928E-02 0.  1.
        1   -1    0    0  501    0  0.00000000000E+00  0.00000000000E+00 -0.14790113144E+04  0.14790113144E+04  0.50400001928E-02 0. -1.
    10030    2    1    2    0    0  0.00000000000E+00  0.00000000000E+00 -0.12354429195E+04  0.17225797094E+04  0.12004006196E+04 0.  0.
        5    1    3    3  502    0 -0.15167399157E+03 -0.40643878826E+03 -0.12128950340E+04  0.12881513661E+04  0.46999998093E+01 0. -1.
       -5    1    3    3    0  502  0.15167399157E+03  0.40643878826E+03 -0.22547885519E+02  0.43442834330E+03  0.46999998093E+01 0.  1.
</event>
<event>
 5   0  0.5447807E-05  0.1200298E+04  0.7818609E-02  0.9112596E-01
        1   -1    0    0  501    0  0.00000000000E+00  0.00000000000E+00  0.19897384731E+04  0.19897384731E+04  0.50400001928E-02 0. -1.
       -1   -1    0    0    0  501  0.00000000000E+00  0.00000000000E+00 -0.18101814385E+03  0.18101814392E+03  0.50400001928E-02 0.  1.
    10030    2    1    2    0    0  0.00000000000E+00  0.00000000000E+00  0.18087203292E+04  0.21707566170E+04  0.12002979051E+04 0.  0.
        2    1    3    3  502    0 -0.56453521235E+03  0.81188102307E+01  0.12723955821E+04  0.13920332030E+04  0.25500000920E-02 0.  1.
       -2    1    3    3    0  502  0.56453521235E+03 -0.81188102307E+01  0.53632474717E+03  0.77872341399E+03  0.25500000920E-02 0. -1.
</event>
<event>
 5   0  0.3839750E-05  0.1199858E+04  0.7818609E-02  0.9112981E-01
       -3   -1    0    0    0  501  0.00000000000E+00  0.00000000000E+00  0.15875680087E+04  0.15875680119E+04  0.10100000352E+00 0. -1.
        3   -1    0    0  501    0  0.00000000000E+00  0.00000000000E+00 -0.22670809613E+03  0.22670811863E+03  0.10100000352E+00 0.  1.
    10030    2    1    2    0    0  0.00000000000E+00  0.00000000000E+00  0.13608599126E+04  0.18142761306E+04  0.11998575650E+04 0.  0.
        4    1    3    3  502    0  0.24529959356E+03 -0.53871677562E+03  0.53285506152E+03  0.79644446411E+03  0.12699999809E+01 0.  1.
       -4    1    3    3    0  502 -0.24529959356E+03  0.53871677562E+03  0.82800485106E+03  0.10178316664E+04  0.12699999809E+01 0. -1.
</event>
<event>
 5   0  0.9941209E-05  0.1200128E+04  0.7818609E-02  0.9112745E-01
        2   -1    0    0  501    0  0.00000000000E+00  0.00000000000E+00  0.10997048099E+04  0.10997048099E+04  0.25500000920E-02 0.  1.
       -2   -1    0    0    0  501  0.00000000000E+00  0.00000000000E+00 -0.32743020928E+03  0.32743020929E+03  0.25500000920E-02 0. -1.
    10030    2    1    2    0    0  0.00000000000E+00  0.00000000000E+00  0.77227460061E+03  0.14271350192E+04  0.12001276200E+04 0.  0.
        2    1    3    3  502    0 -0.37174999396E+03 -0.39229439009E+03  0.76081538855E+02  0.54578507407E+03  0.25500000920E-02 0. -1.
       -2    1    3    3    0  502  0.37174999396E+03  0.39229439009E+03  0.69619306176E+03  0.88134994511E+03  0.25500000920E-02 0.  1.
</event>
<event>
 5   0  0.1023063E-04  0.1199507E+04  0.7818609E-02  0.9113289E-01
       -2   -1    0    0    0  501  0.00000000000E+00  0.00000000000E+00  0.26542422746E+03  0.26542422747E+03  0.25500000920E-02 0.  1.
        2   -1    0    0  501    0  0.00000000000E+00  0.00000000000E+00 -0.13552040873E+04  0.13552040873E+04  0.25500000920E-02 0. -1.
    10030    2    1    2    0    0  0.00000000000E+00  0.00000000000E+00 -0.10897798599E+04  0.16206283148E+04  0.11995065618E+04 0.  0.
        3    1    3    3  502    0  0.20190775459E+03  0.53634952589E+03 -0.78379202566E+03  0.97096215424E+03  0.10100000352E+00 0. -1.
       -3    1    3    3    0  502 -0.20190775459E+03 -0.53634952589E+03 -0.30598783421E+03  0.64966616055E+03  0.10100000352E+00 0.  1.
</event>
<event>
 5   0  0.9941209E-05  0.1199491E+04  0.7818609E-02  0.9113303E-01
        2   -1    0    0  501    0  0.00000000000E+00  0.00000000000E+00  0.10211605021E+04  0.10211605021E+04  0.25500000920E-02 0. -1.
       -2   -1    0    0    0  501  0.00000000000E+00  0.00000000000E+00 -0.35224078679E+03  0.35224078680E+03  0.25500000920E-02 0.  1.
    10030    2    1    2    0    0  0.00000000000E+00  0.00000000000E+00  0.66891971531E+03  0.13734012889E+04  0.11994905230E+04 0.  0.
        2    1    3    3  502    0 -0.14580383062E+02  0.59945608251E+03  0.34772374600E+03  0.69316086587E+03  0.25500000920E-02 0. -1.
       -2    1    3    3    0  502  0.14580383062E+02 -0.59945608251E+03  0.32119596931E+03  0.68024042304E+03  0.25500000920E-02 0.  1.
</event>
<event>
 5   0  0.5745487E-05  0.1199674E+04  0.7818609E-02  0.9113142E-01
        1   -1    0    0  501    0  0.00000000000E+00  0.00000000000E+00  0.78264048857E+03  0.78264048859E+03  0.50400001928E-02 0. -1.
       -1   -1    0    0    0  501  0.00000000000E+00  0.00000000000E+00 -0.45973107181E+03  0.45973107184E+03  0.50400001928E-02 0.  1.
    10030    2    1    2    0    0  0.00000000000E+00  0.00000000000E+00  0.32290941676E+03  0.12423715604E+04  0.11996735401E+04 0.  0.
        3    1    3    3  502    0  0.22297182661E+03  0.26263091430E+03  0.66996350641E+03  0.75335419473E+03  0.10100000352E+00 0. -1.
       -3    1    3    3    0  502 -0.22297182661E+03 -0.26263091430E+03 -0.34705408964E+03  0.48901736569E+03  0.10100000352E+00 0.  1.
</event>
<event>
 5   0  0.5625746E-05  0.1199820E+04  0.7818609E-02  0.9113014E-01
        1   -1    0    0  501    0  0.00000000000E+00  0.00000000000E+00  0.71498417940E+03  0.71498417942E+03  0.50400001928E-02 0.  1.
       -1   -1    0    0    0  501  0.00000000000E+00  0.00000000000E+00 -0.50335698612E+03  0.50335698614E+03  0.50400001928E-02 0. -1.
    10030    2    1    2    0    0  0.00000000000E+00  0.00000000000E+00  0.21162719328E+03  0.12183411656E+04  0.11998204561E+04 0.  0.
        5    1    3    3  502    0 -0.59646213495E+03 -0.11214887070E+02  0.16985325291E+03  0.62029434113E+03  0.46999998093E+01 0.  1.
       -5    1    3    3    0  502  0.59646213495E+03  0.11214887070E+02  0.41773940369E+02  0.59804682443E+03  0.46999998093E+01 0. -1.
</event>
<event>
 5   0  0.1004006E-04  0.1199929E+04  0.7818609E-02  0.9112919E-01
       -2   -1    0    0    0  501  0.00000000000E+00  0.00000000000E+00  0.12922458013E+04  0.12922458013E+04  0.25500000920E-02 0. -1.
        2   -1    0    0  501    0  0.00000000000E+00  0.00000000000E+00 -0.27855169212E+03  0.27855169214E+03  0.25500000920E-02 0.  1.
    10030    2    1    2    0    0  0.00000000000E+00  0.00000000000E+00  0.10136941092E+04  0.15707974935E+04  0.11999287556E+04 0.  0.
        5    1    3    3  502    0 -0.35271334385E+03  0.39365512667E+03  0.87841267742E+03  0.10251838779E+04  0.46999998093E+01 0. -1.
       -5    1    3    3    0  502  0.35271334385E+03 -0.39365512667E+03  0.13528143177E+03  0.54561361554E+03  0.46999998093E+01 0.  1.
</event>
<event>
 5   0  0.5625746E-05  0.1200240E+04  0.7818609E-02  0.9112647E-01
        1   -1    0    0  501    0  0.00000000000E+00  0.00000000000E+00  0.37495019928E+03  0.37495019931E+03  0.50400001928E-02 0.  1.
       -1   -1    0    0    0  501  0.00000000000E+00  0.00000000000E+00 -0.96051125234E+03  0.96051125235E+03  0.50400001928E-02 0. -1.
    10030    2    1    2    0    0  0.00000000000E+00  0.00000000000E+00 -0.58556105306E+03  0.13354614517E+04  0.12002397852E+04 0.  0.
        5    1    3    3  502    0 -0.12587534462E+03 -0.38057894990E+03  0.20411609921E+03  0.44985598968E+03  0.46999998093E+01 0.  1.
       -5    1    3    3    0  502  0.12587534462E+03  0.38057894990E+03 -0.78967715227E+03  0.88560546199E+03  0.46999998093E+01 0. -1.
</event>
<event>
 5   0  0.5447807E-05  0.1199405E+04  0.7818609E-02  0.9113377E-01
        1   -1    0    0  501    0  0.00000000000E+00  0.00000000000E+00  0.99961759077E+03  0.99961759078E+03  0.50400001928E-02 0.  1.
       -1   -1    0    0    0  501  0.00000000000E+00  0.00000000000E+00 -0.35978096590E+03  0.35978096594E+03  0.50400001928E-02 0. -1.
    10030    2    1    2    0    0  0.00000000000E+00  0.00000000000E+00  0.63983662486E+03  0.13593985567E+04  0.11994054900E+04 0.  0.
        2    1    3    3  502    0  0.12832536474E+03  0.28358312791E+03 -0.26105687249E+03  0.40624805274E+03  0.25500000920E-02 0. -1.
       -2    1    3    3    0  502 -0.12832536474E+03 -0.28358312791E+03  0.90089349735E+03  0.95315050399E+03  0.25500000920E-02 0.  1.
</event>
<event>
 5   0  0.1004006E-04  0.1199680E+04  0.7818609E-02  0.9113136E-01
        2   -1    0    0  501    0  0.00000000000E+00  0.00000000000E+00  0.95051797900E+03  0.95051797900E+03  0.25500000920E-02 0.  1.
       -2   -1    0    0    0  501  0.00000000000E+00  0.00000000000E+00 -0.37853914903E+03  0.37853914904E+03  0.25500000920E-02 0. -1.
    10030    2    1    2    0    0  0.00000000000E+00  0.00000000000E+00  0.57197882996E+03  0.13290571280E+04  0.11996804023E+04 0.  0.
        5    1    3    3  502    0 -0.32696937854E+03  0.21364403390E+03 -0.21833267518E+03  0.44748630680E+03  0.46999998093E+01 0. -1.
       -5    1    3    3    0  502  0.32696937854E+03 -0.21364403390E+03  0.79031150514E+03  0.88157082125E+03  0.46999998093E+01 0.  1.
</event>
<event>
 5   0  0.5620246E-05  0.1199970E+04  0.7818609E-02  0.9112883E-01
        1   -1    0    0  501    0  0.00000000000E+00  0.00000000000E+00  0.52826936239E+03  0.52826936241E+03  0.50400001928E-02 0. -1.
       -1   -1    0    0    0  501  0.00000000000E+00  0.00000000000E+00 -0.68143599353E+03  0.68143599355E+03  0.50400001928E-02 0.  1.
    10030    2    1    2    0    0  0.00000000000E+00  0.00000000000E+00 -0.15316663115E+03  0.12097053560E+04  0.11999695960E+04 0.  0.
        1    1    3    3  502    0  0.16579130013E+03 -0.44740791523E+03  0.29012774648E+03  0.55842162128E+03  0.50400001928E-02 0. -1.
       -1    1    3    3    0  502 -0.16579130013E+03  0.44740791523E+03 -0.44329437763E+03  0.65128373469E+03  0.50400001928E-02 0.  1.
</event>
<event>
 5   0  0.1023063E-04  0.1200141E+04  0.7818609E-02  0.9112733E-01
        2   -1    0    0  501    0  0.00000000000E+00  0.00000000000E+00  0.49402972150E+03  0.49402972150E+03  0.25500000920E-02 0.  1.
       -2   -1    0    0    0  501  0.00000000000E+00  0.00000000000E+00 -0.72887262887E+03  0.72887262887E+03  0.25500000920E-02 0. -1.
    10030    2    1    2    0    0  0.00000000000E+00  0.00000000000E+00 -0.23484290737E+03  0.12229023504E+04  0.12001412281E+04 0.  0.
        3    1    3    3  502    0 -0.74418475045E+02  0.54660768299E+03 -0.35804978192E+03  0.65766079788E+03  0.10100000352E+00 0. -1.
       -3    1    3    3    0  502  0.74418475045E+02 -0.54660768299E+03  0.12320687455E+03  0.56524155250E+03  0.10100000352E+00 0.  1.
</event>
<event>
 5   0  0.1012657E-04  0.1200039E+04  0.7818609E-02  0.9112822E-01
       -2   -1    0    0    0  501  0.00000000000E+00  0.00000000000E+00  0.74644366702E+03  0.74644366702E+03  0.25500000920E-02 0.  1.
        2   -1    0    0  501    0  0.00000000000E+00  0.00000000000E+00 -0.48231852596E+03  0.48231852597E+03  0.25500000920E-02 0. -1.
    10030    2    1    2    0    0  0.00000000000E+00  0.00000000000E+00  0.26412514106E+03  0.12287621930E+04  0.12000393480E+04 0.  0.
        1    1    3    3  502    0 -0.40446981282E+03 -0.35985586168E+03  0.39696610809E+03  0.67132269563E+03  0.50400001928E-02 0.  1.
       -1    1    3    3    0  502  0.40446981282E+03  0.35985586168E+03 -0.13284096703E+03  0.55743949736E+03  0.50400001928E-02 0. -1.
</event>
<event>
 5   0  0.1023063E-04  0.1199695E+04  0.7818609E-02  0.9113123E-01
       -2   -1    0    0    0  501  0.00000000000E+00  0.00000000000E+00  0.45774865301E+03  0.45774865301E+03  0.25500000920E-02 0.  1.
        2   -1    0    0  501    0  0.00000000000E+00  0.00000000000E+00 -0.78605817724E+03  0.78605817724E+03  0.25500000920E-02 0. -1.
    10030    2    1    2    0    0  0.00000000000E+00  0.00000000000E+00 -0.32830952423E+03  0.12438068303E+04  0.11996950810E+04 0.  0.
        3    1    3    3  502    0  0.38003694853E+03  0.29449167274E+03 -0.53604087930E+03  0.72006476240E+03  0.10100000352E+00 0. -1.
       -3    1    3    3    0  502 -0.38003694853E+03 -0.29449167274E+03  0.20773135507E+03  0.52374206786E+03  0.10100000352E+00 0.  1.
</event>
<event>
 5   0  0.3839750E-05  0.1200118E+04  0.7818609E-02  0.9112753E-01
       -4   -1    0    0    0  501  0.00000000000E+00  0.00000000000E+00  0.11812967871E+04  0.11812974698E+04  0.12699999809E+01 0. -1.
        4   -1    0    0  501    0  0.00000000000E+00  0.00000000000E+00 -0.30480777223E+03  0.30481041799E+03  0.12699999809E+01 0.  1.
    10030    2    1    2    0    0  0.00000000000E+00  0.00000000000E+00  0.87648901484E+03  0.14861078877E+04  0.12001181862E+04 0.  0.
        5    1    3    3  502    0 -0.17959872795E+03  0.48438337923E+03  0.81621224440E+03  0.96597488532E+03  0.46999998093E+01 0.  1.
       -5    1    3    3    0  502  0.17959872795E+03 -0.48438337923E+03  0.60276770446E+02  0.52013300242E+03  0.46999998093E+01 0. -1.
</event>
<event>
 5   0  0.9838215E-05  0.1200943E+04  0.7818609E-02  0.9112031E-01
        2   -1    0    0  501    0  0.00000000000E+00  0.00000000000E+00  0.80257216814E+03  0.80257216814E+03  0.25500000920E-02 0.  1.
       -2   -1    0    0    0  501  0.00000000000E+00  0.00000000000E+00 -0.44926312722E+03  0.44926312723E+03  0.25500000920E-02 0. -1.
    10030    2    1    2    0    0  0.00000000000E+00  0.00000000000E+00  0.35330904092E+03  0.12518352954E+04  0.12009430995E+04 0.  0.
        4    1    3    3  502    0 -0.52723989451E+03 -0.84721298351E+02 -0.10958160391E+03  0.54513241104E+03  0.12699999809E+01 0.  1.
       -4    1    3    3    0  502  0.52723989451E+03  0.84721298351E+02  0.46289064482E+03  0.70670288433E+03  0.12699999809E+01 0. -1.
</event>
<event>
 5   0  0.5625746E-05  0.1199604E+04  0.7818609E-02  0.9113203E-01
        1   -1    0    0  501    0  0.00000000000E+00  0.00000000000E+00  0.91143981515E+03  0.91143981516E+03  0.50400001928E-02 0.  1.
       -1   -1    0    0    0  501  0.00000000000E+00  0.00000000000E+00 -0.39471877669E+03  0.39471877672E+03  0.50400001928E-02 0. -1.
    10030    2    1    2    0    0  0.00000000000E+00  0.00000000000E+00  0.51672103846E+03  0.13061585919E+04  0.11996039495E+04 0.  0.
        5    1    3    3  502    0 -0.49331423386E+03 -0.30538511268E+03  0.42392391407E+03  0.71857677063E+03  0.46999998093E+01 0.  1.
       -5    1    3    3    0  502  0.49331423386E+03  0.30538511268E+03  0.92797124389E+02  0.58758182125E+03  0.46999998093E+01 0. -1.
</event>
<event>
 5   0  0.3839750E-05  0.1199931E+04  0.7818609E-02  0.9112917E-01
       -4   -1    0    0    0  501  0.00000000000E+00  0.00000000000E+00  0.17302345999E+03  0.17302812086E+03  0.12699999809E+01 0.  1.
        4   -1    0    0  501    0  0.00000000000E+00  0.00000000000E+00 -0.20803722042E+04  0.20803725918E+04  0.12699999809E+01 0. -1.
    10030    2    1    2    0    0  0.00000000000E+00  0.00000000000E+00 -0.19073487442E+04  0.22534007127E+04  0.11999314730E+04 0.  0.
        1    1    3    3  502    0 -0.45126173712E+03 -0.39188396105E+03 -0.85521775373E+03  0.10433635994E+04  0.50400001928E-02 0.  1.
       -1    1    3    3    0  502  0.45126173712E+03  0.39188396105E+03 -0.10521309904E+04  0.12100371132E+04  0.50400001928E-02 0. -1.
</event>
<event>
 5   0  0.3839750E-05  0.1199951E+04  0.7818609E-02  0.9112900E-01
        3   -1    0    0  501    0  0.00000000000E+00  0.00000000000E+00  0.33968634196E+03  0.33968635698E+03  0.10100000352E+00 0.  1.
       -3   -1    0    0    0  501  0.00000000000E+00  0.00000000000E+00 -0.10597137754E+04  0.10597137802E+04  0.10100000352E+00 0. -1.
    10030    2    1    2    0    0  0.00000000000E+00  0.00000000000E+00 -0.72002743347E+03  0.13994001372E+04  0.11999505153E+04 0.  0.
        3    1    3    3  502    0 -0.59745466888E+03  0.41687435686E+01 -0.29612855775E+03  0.66682950798E+03  0.10100000352E+00 0.  1.
       -3    1    3    3    0  502  0.59745466888E+03 -0.41687435686E+01 -0.42389887572E+03  0.73257062924E+03  0.10100000352E+00 0. -1.
</event>
<event>
 5   0  0.3839750E-05  0.1199646E+04  0.7818609E-02  0.9113166E-01
       -3   -1    0    0    0  501  0.00000000000E+00  0.00000000000E+00  0.13534448100E+04  0.13534448138E+04  0.10100000352E+00 0.  1.
        3   -1    0    0  501    0  0.00000000000E+00  0.00000000000E+00 -0.26583119968E+03  0.26583121887E+03  0.10100000352E+00 0. -1.
    10030    2    1    2    0    0  0.00000000000E+00  0.00000000000E+00  0.10876136103E+04  0.16192760326E+04  0.11996464081E+04 0.  0.
        5    1    3    3  502    0  0.38187744585E+02 -0.14256630854E+03  0.13285266354E+04  0.13367081084E+04  0.46999998093E+01 0.  1.
       -5    1    3    3    0  502 -0.38187744585E+02  0.14256630854E+03 -0.24091302506E+03  0.28256792423E+03  0.46999998093E+01 0. -1.
</event>
<event>
 5   0  0.3839750E-05  0.1199811E+04  0.7818609E-02  0.9113022E-01
       -3   -1    0    0    0  501  0.00000000000E+00  0.00000000000E+00  0.37732275990E+03  0.37732277341E+03  0.10100000352E+00 0. -1.
        3   -1    0    0  501    0  0.00000000000E+00  0.00000000000E+00 -0.95379032459E+03  0.95379032994E+03  0.10100000352E+00 0.  1.
    10030    2    1    2    0    0  0.00000000000E+00  0.00000000000E+00 -0.57646756469E+03  0.13311131034E+04  0.11998113355E+04 0.  0.
        2    1    3    3  502    0 -0.34783700085E+03  0.48874149492E+03 -0.29410249277E+03  0.66809812474E+03  0.25500000920E-02 0. -1.
       -2    1    3    3    0  502  0.34783700085E+03 -0.48874149492E+03 -0.28236507192E+03  0.66301497861E+03  0.25500000920E-02 0.  1.
</event>
<event>
 5   0  0.5447807E-05  0.1200407E+04  0.7818609E-02  0.9112501E-01
       -1   -1    0    0    0  501  0.00000000000E+00  0.00000000000E+00  0.48618697916E+03  0.48618697918E+03  0.50400001928E-02 0.  1.
        1   -1    0    0  501    0  0.00000000000E+00  0.00000000000E+00 -0.74095795374E+03  0.74095795375E+03  0.50400001928E-02 0. -1.
    10030    2    1    2    0    0  0.00000000000E+00  0.00000000000E+00 -0.25477097458E+03  0.12271449329E+04  0.12004067798E+04 0.  0.
        2    1    3    3  502    0 -0.29560649204E+02 -0.39287495312E+03 -0.59026190495E+03  0.70967152769E+03  0.25500000920E-02 0. -1.
       -2    1    3    3    0  502  0.29560649204E+02  0.39287495312E+03  0.33549093037E+03  0.51747340525E+03  0.25500000920E-02 0.  1.
</event>
<event>
 5   0  0.5745487E-05  0.1200022E+04  0.7818609E-02  0.9112837E-01
        1   -1    0    0  501    0  0.00000000000E+00  0.00000000000E+00  0.72871044370E+03  0.72871044372E+03  0.50400001928E-02 0. -1.
       -1   -1    0    0    0  501  0.00000000000E+00  0.00000000000E+00 -0.49404184689E+03  0.49404184691E+03  0.50400001928E-02 0.  1.
    10030    2    1    2    0    0  0.00000000000E+00  0.00000000000E+00  0.23466859681E+03  0.12227522906E+04  0.12000224223E+04 0.  0.
        3    1    3    3  502    0 -0.16822730490E+02  0.28681311630E+03 -0.41939599102E+03  0.50836775608E+03  0.10100000352E+00 0.  1.
       -3    1    3    3    0  502  0.16822730490E+02 -0.28681311630E+03  0.65406458783E+03  0.71438453454E+03  0.10100000352E+00 0. -1.
</event>
<event>
 5   0  0.5625746E-05  0.1199507E+04  0.7818609E-02  0.9113288E-01
        1   -1    0    0  501    0  0.00000000000E+00  0.00000000000E+00  0.58752703290E+03  0.58752703292E+03  0.50400001928E-02 0. -1.
       -1   -1    0    0    0  501  0.00000000000E+00  0.00000000000E+00 -0.61223473496E+03  0.61223473498E+03  0.50400001928E-02 0.  1.
    10030    2    1    2    0    0  0.00000000000E+00  0.00000000000E+00 -0.24707702057E+02  0.11997617679E+04  0.11995073277E+04 0.  0.
        5    1    3    3  502    0 -0.38792912128E+03  0.20117432699E+03 -0.42319912706E+03  0.60834176589E+03  0.46999998093E+01 0.  1.
       -5    1    3    3    0  502  0.38792912128E+03 -0.20117432699E+03  0.39849142501E+03  0.59142000201E+03  0.46999998093E+01 0. -1.
</event>
<event>
 5   0  0.1004006E-04  0.1199233E+04  0.7818609E-02  0.9113528E-01
        2   -1    0    0  501    0  0.00000000000E+00  0.00000000000E+00  0.68584754922E+03  0.68584754923E+03  0.25500000920E-02 0. -1.
       -2   -1    0    0    0  501  0.00000000000E+00  0.00000000000E+00 -0.52422755598E+03  0.52422755599E+03  0.25500000920E-02 0.  1.
    10030    2    1    2    0    0  0.00000000000E+00  0.00000000000E+00  0.16161999324E+03  0.12100751052E+04  0.11992333960E+04 0.  0.
        5    1    3    3  502    0 -0.56571249418E+03 -0.77557090354E+02  0.26541855000E+03  0.62969423137E+03  0.46999998093E+01 0.  1.
       -5    1    3    3    0  502  0.56571249418E+03  0.77557090354E+02 -0.10379855676E+03  0.58038087384E+03  0.46999998093E+01 0. -1.
</event>
<event>
 5   0  0.5620246E-05  0.1204791E+04  0.7818609E-02  0.9108674E-01
       -1   -1    0    0    0  501  0.00000000000E+00  0.00000000000E+00  0.33060244541E+03  0.33060244545E+03  0.50400001928E-02 0. -1.
        1   -1    0    0  501    0  0.00000000000E+00  0.00000000000E+00 -0.10976330216E+04  0.10976330216E+04  0.50400001928E-02 0.  1.
    10030    2    1    2    0    0  0.00000000000E+00  0.00000000000E+00 -0.76703057617E+03  0.14282354670E+04  0.12047907057E+04 0.  0.
        1    1    3    3  502    0 -0.40010779881E+01 -0.50445344440E+03 -0.77380271975E+03  0.92372070200E+03  0.50400001928E-02 0.  1.
       -1    1    3    3    0  502  0.40010779881E+01  0.50445344440E+03  0.67721435790E+01  0.50451476504E+03  0.50400001928E-02 0. -1.
</event>
<event>
 5   0  0.5625746E-05  0.1199942E+04  0.7818609E-02  0.9112908E-01
       -1   -1    0    0    0  501  0.00000000000E+00  0.00000000000E+00  0.37397616204E+03  0.37397616208E+03  0.50400001928E-02 0.  1.
        1   -1    0    0  501    0  0.00000000000E+00  0.00000000000E+00 -0.96253467958E+03  0.96253467959E+03  0.50400001928E-02 0. -1.
    10030    2    1    2    0    0  0.00000000000E+00  0.00000000000E+00 -0.58855851754E+03  0.13365108417E+04  0.11999417075E+04 0.  0.
        5    1    3    3  502    0  0.54734786631E+03 -0.54882535916E+02 -0.27565414738E+02  0.55080279737E+03  0.46999998093E+01 0.  1.
       -5    1    3    3    0  502 -0.54734786631E+03  0.54882535916E+02 -0.56099310280E+03  0.78570804430E+03  0.46999998093E+01 0. -1.
</event>
<event>
 5   0  0.5732931E-05  0.1207932E+04  0.7818609E-02  0.9105942E-01
        1   -1    0    0  501    0  0.00000000000E+00  0.00000000000E+00  0.11664003894E+04  0.11664003894E+04  0.50400001928E-02 0.  1.
       -1   -1    0    0    0  501  0.00000000000E+00  0.00000000000E+00 -0.31273542076E+03  0.31273542080E+03  0.50400001928E-02 0. -1.
    10030    2    1    2    0    0  0.00000000000E+00  0.00000000000E+00  0.85366496861E+03  0.14791358102E+04  0.12079316480E+04 0.  0.
        4    1    3    3  502    0 -0.23469473138E+03  0.49971899937E+03  0.12695667265E+03  0.56649828323E+03  0.12699999809E+01 0. -1.
       -4    1    3    3    0  502  0.23469473138E+03 -0.49971899937E+03  0.72670829596E+03  0.91263752695E+03  0.12699999809E+01 0.  1.
</event>
<event>
 5   0  0.5447807E-05  0.1200313E+04  0.7818609E-02  0.9112582E-01
        1   -1    0    0  501    0  0.00000000000E+00  0.00000000000E+00  0.13392177295E+04  0.13392177295E+04  0.50400001928E-02 0.  1.
       -1   -1    0    0    0  501  0.00000000000E+00  0.00000000000E+00 -0.26895396376E+03  0.26895396381E+03  0.50400001928E-02 0. -1.
    10030    2    1    2    0    0  0.00000000000E+00  0.00000000000E+00  0.10702637657E+04  0.16081716933E+04  0.12003131537E+04 0.  0.
        2    1    3    3  502    0 -0.11558971935E+03 -0.45053835001E+03  0.26994789709E+02  0.46591255266E+03  0.25500000920E-02 0. -1.
       -2    1    3    3    0  502  0.11558971935E+03  0.45053835001E+03  0.10432689760E+04  0.11422591406E+04  0.25500000920E-02 0.  1.
</event>
<event>
 5   0  0.9941209E-05  0.1199645E+04  0.7818609E-02  0.9113167E-01
        2   -1    0    0  501    0  0.00000000000E+00  0.00000000000E+00  0.84082584870E+03  0.84082584870E+03  0.25500000920E-02 0.  1.
       -2   -1    0    0    0  501  0.00000000000E+00  0.00000000000E+00 -0.42789724227E+03  0.42789724228E+03  0.25500000920E-02 0. -1.
    10030    2    1    2    0    0  0.00000000000E+00  0.00000000000E+00  0.41292860643E+03  0.12687230910E+04  0.11996450507E+04 0.  0.
        2    1    3    3  502    0  0.71995940616E+01 -0.40101421433E+03 -0.26522539314E+03  0.48084170308E+03  0.25500000920E-02 0. -1.
       -2    1    3    3    0  502 -0.71995940616E+01  0.40101421433E+03  0.67815399957E+03  0.78788138789E+03  0.25500000920E-02 0.  1.
</event>
<event>
 5   0  0.1023063E-04  0.1200367E+04  0.7818609E-02  0.9112535E-01
        2   -1    0    0  501    0  0.00000000000E+00  0.00000000000E+00  0.14509334715E+04  0.14509334715E+04  0.25500000920E-02 0.  1.
       -2   -1    0    0    0  501  0.00000000000E+00  0.00000000000E+00 -0.24826808427E+03  0.24826808429E+03  0.25500000920E-02 0. -1.
    10030    2    1    2    0    0  0.00000000000E+00  0.00000000000E+00  0.12026653872E+04  0.16992015557E+04  0.12003673994E+04 0.  0.
        3    1    3    3  502    0  0.40354467226E+03 -0.30450267643E+03  0.10592645998E+04  0.11737170379E+04  0.10100000352E+00 0.  1.
       -3    1    3    3    0  502 -0.40354467226E+03  0.30450267643E+03  0.14340078736E+03  0.52548451783E+03  0.10100000352E+00 0. -1.
</event>
<event>
 5   0  0.9838215E-05  0.1198530E+04  0.7818609E-02  0.9114145E-01
       -2   -1    0    0    0  501  0.00000000000E+00  0.00000000000E+00  0.27782368038E+03  0.27782368039E+03  0.25500000920E-02 0.  1.
        2   -1    0    0  501    0  0.00000000000E+00  0.00000000000E+00 -0.12926121097E+04  0.12926121097E+04  0.25500000920E-02 0. -1.
    10030    2    1    2    0    0  0.00000000000E+00  0.00000000000E+00 -0.10147884294E+04  0.15704357901E+04  0.11985295218E+04 0.  0.
        4    1    3    3  502    0 -0.40172644552E+03  0.18809946725E+03  0.20563400254E+02  0.44406082122E+03  0.12699999809E+01 0.  1.
       -4    1    3    3    0  502  0.40172644552E+03 -0.18809946725E+03 -0.10353518296E+04  0.11263749689E+04  0.12699999809E+01 0. -1.
</event>
<event>
 5   0  0.5625746E-05  0.1199691E+04  0.7818609E-02  0.9113127E-01
       -1   -1    0    0    0  501  0.00000000000E+00  0.00000000000E+00  0.84657116368E+03  0.84657116370E+03  0.50400001928E-02 0.  1.
        1   -1    0    0  501    0  0.00000000000E+00  0.00000000000E+00 -0.42502584780E+03  0.42502584783E+03  0.50400001928E-02 0. -1.
    10030    2    1    2    0    0  0.00000000000E+00  0.00000000000E+00  0.42154531588E+03  0.12715970115E+04  0.11996910045E+04 0.  0.
        5    1    3    3  502    0 -0.39322448516E+03 -0.40570363274E+03  0.42426936506E+03  0.70657449535E+03  0.46999998093E+01 0.  1.
       -5    1    3    3    0  502  0.39322448516E+03  0.40570363274E+03 -0.27240491840E+01  0.56502251618E+03  0.46999998093E+01 0. -1.
</event>
<event>
 5   0  0.1012657E-04  0.1200051E+04  0.7818609E-02  0.9112812E-01
        2   -1    0    0  501    0  0.00000000000E+00  0.00000000000E+00  0.81275448079E+03  0.81275448079E+03  0.25500000920E-02 0.  1.
       -2   -1    0    0    0  501  0.00000000000E+00  0.00000000000E+00 -0.44297575615E+03  0.44297575615E+03  0.25500000920E-02 0. -1.
    10030    2    1    2    0    0  0.00000000000E+00  0.00000000000E+00  0.36977872464E+03  0.12557302369E+04  0.12000508834E+04 0.  0.
        1    1    3    3  502    0 -0.38807365602E+02  0.53278987134E+03  0.47080581574E+03  0.71205981124E+03  0.50400001928E-02 0.  1.
       -1    1    3    3    0  502  0.38807365602E+02 -0.53278987134E+03 -0.10102709110E+03  0.54367042570E+03  0.50400001928E-02 0. -1.
</event>
<event>
 5   0  0.1004006E-04  0.1199461E+04  0.7818609E-02  0.9113328E-01
        2   -1    0    0  501    0  0.00000000000E+00  0.00000000000E+00  0.33075359843E+03  0.33075359844E+03  0.25500000920E-02 0.  1.
       -2   -1    0    0    0  501  0.00000000000E+00  0.00000000000E+00 -0.10874467206E+04  0.10874467206E+04  0.25500000920E-02 0. -1.
    10030    2    1    2    0    0  0.00000000000E+00  0.00000000000E+00 -0.75669312214E+03  0.14182003190E+04  0.11994614057E+04 0.  0.
        5    1    3    3  502    0 -0.33322492792E+03  0.41147517609E+03 -0.45381039202E+02  0.53144350767E+03  0.46999998093E+01 0.  1.
       -5    1    3    3    0  502  0.33322492792E+03 -0.41147517609E+03 -0.71131208294E+03  0.88675681134E+03  0.46999998093E+01 0. -1.
</event>
<event>
 5   0  0.5732931E-05  0.1200735E+04  0.7818609E-02  0.9112213E-01
        1   -1    0    0  501    0  0.00000000000E+00  0.00000000000E+00  0.16974886109E+04  0.16974886109E+04  0.50400001928E-02 0. -1.
       -1   -1    0    0    0  501  0.00000000000E+00  0.00000000000E+00 -0.21233794936E+03  0.21233794942E+03  0.50400001928E-02 0.  1.
    10030    2    1    2    0    0  0.00000000000E+00  0.00000000000E+00  0.14851506616E+04  0.19098265603E+04  0.12007351927E+04 0.  0.
        4    1    3    3  502    0 -0.35511781394E+03  0.18362490320E+03  0.30171762974E+02  0.40092233042E+03  0.12699999809E+01 0.  1.
       -4    1    3    3    0  502  0.35511781394E+03 -0.18362490320E+03  0.14549788986E+04  0.15089042299E+04  0.12699999809E+01 0. -1.
</event>
<event>
 5   0  0.5447807E-05  0.1200179E+04  0.7818609E-02  0.9112699E-01
        1   -1    0    0  501    0  0.00000000000E+00  0.00000000000E+00  0.10003240066E+04  0.10003240066E+04  0.50400001928E-02 0. -1.
       -1   -1    0    0    0  501  0.00000000000E+00  0.00000000000E+00 -0.35999103679E+03  0.35999103683E+03  0.50400001928E-02 0.  1.
    10030    2    1    2    0    0  0.00000000000E+00  0.00000000000E+00  0.64033296978E+03  0.13603150434E+04  0.12001794471E+04 0.  0.
        2    1    3    3  502    0  0.19160451276E+03 -0.56409784454E+03  0.23852037120E+03  0.64172473461E+03  0.25500000920E-02 0. -1.
       -2    1    3    3    0  502 -0.19160451276E+03  0.56409784454E+03  0.40181259858E+03  0.71859030881E+03  0.25500000920E-02 0.  1.
</event>
<event>
 5   0  0.5447807E-05  0.1201752E+04  0.7818609E-02  0.9111325E-01
        1   -1    0    0  501    0  0.00000000000E+00  0.00000000000E+00  0.25928853928E+03  0.25928853933E+03  0.50400001928E-02 0. -1.
       -1   -1    0    0    0  501  0.00000000000E+00  0.00000000000E+00 -0.13924710926E+04  0.13924710926E+04  0.50400001928E-02 0.  1.
    10030    2    1    2    0    0  0.00000000000E+00  0.00000000000E+00 -0.11331825533E+04  0.16517596319E+04  0.12017517142E+04 0.  0.
        2    1    3    3  502    0 -0.26232580344E+03 -0.44556403277E+03 -0.98734142860E+03  0.11145336384E+04  0.25500000920E-02 0.  1.
       -2    1    3    3    0  502  0.26232580344E+03  0.44556403277E+03 -0.14584112468E+03  0.53722599351E+03  0.25500000920E-02 0. -1.
</event>
<event>
 5   0  0.5745487E-05  0.1196867E+04  0.7818609E-02  0.9115604E-01
       -1   -1    0    0    0  501  0.00000000000E+00  0.00000000000E+00  0.33923168888E+03  0.33923168891E+03  0.50400001928E-02 0. -1.
        1   -1    0    0  501    0  0.00000000000E+00  0.00000000000E+00 -0.10556868161E+04  0.10556868161E+04  0.50400001928E-02 0.  1.
    10030    2    1    2    0    0  0.00000000000E+00  0.00000000000E+00 -0.71645512718E+03  0.13949185050E+04  0.11968666117E+04 0.  0.
        3    1    3    3  502    0  0.11403463430E+03  0.56079389576E+03 -0.15425699440E+03  0.59269631504E+03  0.10100000352E+00 0. -1.
       -3    1    3    3    0  502 -0.11403463430E+03 -0.56079389576E+03 -0.56219813278E+03  0.80222218995E+03  0.10100000352E+00 0.  1.
</event>
<event>
 5   0  0.5447807E-05  0.1196376E+04  0.7818609E-02  0.9116034E-01
        1   -1    0    0  501    0  0.00000000000E+00  0.00000000000E+00  0.36627328812E+03  0.36627328815E+03  0.50400001928E-02 0. -1.
       -1   -1    0    0    0  501  0.00000000000E+00  0.00000000000E+00 -0.97694547597E+03  0.97694547598E+03  0.50400001928E-02 0.  1.
    10030    2    1    2    0    0  0.00000000000E+00  0.00000000000E+00 -0.61067218785E+03  0.13432187641E+04  0.11963762482E+04 0.  0.
        2    1    3    3  502    0 -0.37774515160E+03 -0.26193597406E+03 -0.73510803719E+03  0.86699808559E+03  0.25500000920E-02 0.  1.
       -2    1    3    3    0  502  0.37774515160E+03  0.26193597406E+03  0.12443584935E+03  0.47622067854E+03  0.25500000920E-02 0. -1.
</event>
<event>
 5   0  0.9941209E-05  0.1200017E+04  0.7818609E-02  0.9112842E-01
       -2   -1    0    0    0  501  0.00000000000E+00  0.00000000000E+00  0.24518806082E+03  0.24518806084E+03  0.25500000920E-02 0.  1.
        2   -1    0    0  501    0  0.00000000000E+00  0.00000000000E+00 -0.14683023757E+04  0.14683023758E+04  0.25500000920E-02 0. -1.
    10030    2    1    2    0    0  0.00000000000E+00  0.00000000000E+00 -0.12231143149E+04  0.17134904366E+04  0.12000170203E+04 0.  0.
        2    1    3    3  502    0 -0.27765509129E+02  0.30175278326E+03  0.12789682723E+03  0.32891224380E+03  0.25500000920E-02 0.  1.
       -2    1    3    3    0  502  0.27765509129E+02 -0.30175278326E+03 -0.13510111422E+04  0.13845781928E+04  0.25500000920E-02 0. -1.
</event>
<event>
 5   0  0.9941209E-05  0.1200384E+04  0.7818609E-02  0.9112520E-01
        2   -1    0    0  501    0  0.00000000000E+00  0.00000000000E+00  0.21656028573E+04  0.21656028573E+04  0.25500000920E-02 0.  1.
       -2   -1    0    0    0  501  0.00000000000E+00  0.00000000000E+00 -0.16634190756E+03  0.16634190758E+03  0.25500000920E-02 0. -1.
    10030    2    1    2    0    0  0.00000000000E+00  0.00000000000E+00  0.19992609497E+04  0.23319447649E+04  0.12003841224E+04 0.  0.
        2    1    3    3  502    0  0.30878952502E+03  0.51075454950E+03  0.87662232028E+03  0.10605130235E+04  0.25500000920E-02 0. -1.
       -2    1    3    3    0  502 -0.30878952502E+03 -0.51075454950E+03  0.11226386294E+04  0.12714317414E+04  0.25500000920E-02 0.  1.
</event>
<event>
 5   0  0.1023063E-04  0.1200094E+04  0.7818609E-02  0.9112774E-01
       -2   -1    0    0    0  501  0.00000000000E+00  0.00000000000E+00  0.59201499559E+03  0.59201499560E+03  0.25500000920E-02 0.  1.
        2   -1    0    0  501    0  0.00000000000E+00  0.00000000000E+00 -0.60818773745E+03  0.60818773746E+03  0.25500000920E-02 0. -1.
    10030    2    1    2    0    0  0.00000000000E+00  0.00000000000E+00 -0.16172741859E+02  0.12002027331E+04  0.12000937642E+04 0.  0.
        3    1    3    3  502    0 -0.87337705901E+02  0.50777888487E+03 -0.31566751130E+03  0.60424602496E+03  0.10100000352E+00 0. -1.
       -3    1    3    3    0  502  0.87337705901E+02 -0.50777888487E+03  0.29949476945E+03  0.59595670809E+03  0.10100000352E+00 0.  1.
</event>
<event>
 5   0  0.3839750E-05  0.1201553E+04  0.7818609E-02  0.9111498E-01
        3   -1    0    0  501    0  0.00000000000E+00  0.00000000000E+00  0.24174640807E+03  0.24174642917E+03  0.10100000352E+00 0.  1.
       -3   -1    0    0    0  501  0.00000000000E+00  0.00000000000E+00 -0.14930209392E+04  0.14930209426E+04  0.10100000352E+00 0. -1.
    10030    2    1    2    0    0  0.00000000000E+00  0.00000000000E+00 -0.12512745311E+04  0.17347673718E+04  0.12015531124E+04 0.  0.
        5    1    3    3  502    0  0.71813299950E+02  0.26945460753E+03  0.14261632009E+03  0.31324820881E+03  0.46999998093E+01 0.  1.
       -5    1    3    3    0  502 -0.71813299950E+02 -0.26945460753E+03 -0.13938908512E+04  0.14215191629E+04  0.46999998093E+01 0. -1.
</event>
<event>
 5   0  0.5620246E-05  0.1199702E+04  0.7818609E-02  0.9113118E-01
       -1   -1    0    0    0  501  0.00000000000E+00  0.00000000000E+00  0.42321194926E+03  0.42321194929E+03  0.50400001928E-02 0. -1.
        1   -1    0    0  501    0  0.00000000000E+00  0.00000000000E+00 -0.85021469635E+03  0.85021469637E+03  0.50400001928E-02 0.  1.
    10030    2    1    2    0    0  0.00000000000E+00  0.00000000000E+00 -0.42700274709E+03  0.12734266457E+04  0.11997016612E+04 0.  0.
        1    1    3    3  502    0  0.30950134901E+03  0.91657677856E+02 -0.75016920858E+03  0.81666765362E+03  0.50400001928E-02 0.  1.
       -1    1    3    3    0  502 -0.30950134901E+03 -0.91657677856E+02  0.32316646149E+03  0.45675899204E+03  0.50400001928E-02 0. -1.
</event>
<event>
 5   0  0.5447807E-05  0.1199752E+04  0.7818609E-02  0.9113074E-01
       -1   -1    0    0    0  501  0.00000000000E+00  0.00000000000E+00  0.17702985462E+03  0.17702985470E+03  0.50400001928E-02 0.  1.
        1   -1    0    0  501    0  0.00000000000E+00  0.00000000000E+00 -0.20327131770E+04  0.20327131770E+04  0.50400001928E-02 0. -1.
    10030    2    1    2    0    0  0.00000000000E+00  0.00000000000E+00 -0.18556833224E+04  0.22097430317E+04  0.11997515048E+04 0.  0.
        2    1    3    3  502    0  0.51163724000E+03 -0.27669973087E+03 -0.11980049355E+04  0.13317474355E+04  0.25500000920E-02 0. -1.
       -2    1    3    3    0  502 -0.51163724000E+03  0.27669973087E+03 -0.65767838689E+03  0.87799559623E+03  0.25500000920E-02 0.  1.
</event>
<event>
 5   0  0.5447807E-05  0.1199361E+04  0.7818609E-02  0.9113416E-01
        1   -1    0    0  501    0  0.00000000000E+00  0.00000000000E+00  0.48643174719E+03  0.48643174721E+03  0.50400001928E-02 0.  1.
       -1   -1    0    0    0  501  0.00000000000E+00  0.00000000000E+00 -0.73929497166E+03  0.73929497167E+03  0.50400001928E-02 0. -1.
    10030    2    1    2    0    0  0.00000000000E+00  0.00000000000E+00 -0.25286322447E+03  0.12257267189E+04  0.11993607377E+04 0.  0.
        2    1    3    3  502    0 -0.35027509288E+03  0.96174096022E+02  0.36121023863E+03  0.51226451559E+03  0.25500000920E-02 0.  1.
       -2    1    3    3    0  502  0.35027509288E+03 -0.96174096022E+02 -0.61407346310E+03  0.71346220329E+03  0.25500000920E-02 0. -1.
</event>
<event>
 5   0  0.1023063E-04  0.1200240E+04  0.7818609E-02  0.9112647E-01
        2   -1    0    0  501    0  0.00000000000E+00  0.00000000000E+00  0.68154822050E+03  0.68154822050E+03  0.25500000920E-02 0. -1.
       -2   -1    0    0    0  501  0.00000000000E+00  0.00000000000E+00 -0.52842027749E+03  0.52842027750E+03  0.25500000920E-02 0.  1.
    10030    2    1    2    0    0  0.00000000000E+00  0.00000000000E+00  0.15312794300E+03  0.12099684980E+04  0.12002398090E+04 0.  0.
        3    1    3    3  502    0 -0.88070300181E+02  0.36771392407E+03 -0.39323269771E+03  0.54552898409E+03  0.10100000352E+00 0.  1.
       -3    1    3    3    0  502  0.88070300181E+02 -0.36771392407E+03  0.54636064071E+03  0.66443951391E+03  0.10100000352E+00 0. -1.
</event>
<event>
 5   0  0.9941209E-05  0.1194277E+04  0.7818609E-02  0.9117880E-01
       -2   -1    0    0    0  501  0.00000000000E+00  0.00000000000E+00  0.36653807854E+03  0.36653807855E+03  0.25500000920E-02 0.  1.
        2   -1    0    0  501    0  0.00000000000E+00  0.00000000000E+00 -0.97281711834E+03  0.97281711834E+03  0.25500000920E-02 0. -1.
    10030    2    1    2    0    0  0.00000000000E+00  0.00000000000E+00 -0.60627903980E+03  0.13393551969E+04  0.11942772163E+04 0.  0.
        2    1    3    3  502    0 -0.25282962608E+03 -0.31549713185E+03  0.18968994435E+03  0.44659101539E+03  0.25500000920E-02 0.  1.
       -2    1    3    3    0  502  0.25282962608E+03  0.31549713185E+03 -0.79596898416E+03  0.89276418150E+03  0.25500000920E-02 0. -1.
</event>
<event>
 5   0  0.9941209E-05  0.1200041E+04  0.7818609E-02  0.9112821E-01
        2   -1    0    0  501    0  0.00000000000E+00  0.00000000000E+00  0.53531494566E+03  0.53531494566E+03  0.25500000920E-02 0.  1.
       -2   -1    0    0    0  501  0.00000000000E+00  0.00000000000E+00 -0.67254729649E+03  0.67254729649E+03  0.25500000920E-02 0. -1.
    10030    2    1    2    0    0  0.00000000000E+00  0.00000000000E+00 -0.13723235083E+03  0.12078622422E+04  0.12000410318E+04 0.  0.
        2    1    3    3  502    0 -0.29908331680E+03  0.42936936336E+03 -0.36415503083E+03  0.63750903293E+03  0.25500000920E-02 0. -1.
       -2    1    3    3    0  502  0.29908331680E+03 -0.42936936336E+03  0.22692268000E+03  0.57035320923E+03  0.25500000920E-02 0.  1.
</event>
<event>
 5   0  0.5732931E-05  0.1199852E+04  0.7818609E-02  0.9112986E-01
       -1   -1    0    0    0  501  0.00000000000E+00  0.00000000000E+00  0.49161919948E+03  0.49161919951E+03  0.50400001928E-02 0. -1.
        1   -1    0    0  501    0  0.00000000000E+00  0.00000000000E+00 -0.73209403494E+03  0.73209403495E+03  0.50400001928E-02 0.  1.
    10030    2    1    2    0    0  0.00000000000E+00  0.00000000000E+00 -0.24047483546E+03  0.12237132345E+04  0.11998524633E+04 0.  0.
        4    1    3    3  502    0  0.32916941710E+02 -0.59789888586E+03 -0.15761688483E+03  0.61920214635E+03  0.12699999809E+01 0.  1.
       -4    1    3    3    0  502 -0.32916941710E+02  0.59789888586E+03 -0.82857950623E+02  0.60451108811E+03  0.12699999809E+01 0. -1.
</event>
<event>
 5   0  0.5625746E-05  0.1201168E+04  0.7818609E-02  0.9111835E-01
        1   -1    0    0  501    0  0.00000000000E+00  0.00000000000E+00  0.48436965481E+03  0.48436965484E+03  0.50400001928E-02 0. -1.
       -1   -1    0    0    0  501  0.00000000000E+00  0.00000000000E+00 -0.74468107117E+03  0.74468107119E+03  0.50400001928E-02 0.  1.
    10030    2    1    2    0    0  0.00000000000E+00  0.00000000000E+00 -0.26031141636E+03  0.12290507260E+04  0.12011676210E+04 0.  0.
        5    1    3    3  502    0 -0.35739123862E+03 -0.19991995907E+03  0.31933940079E+03  0.51932285755E+03  0.46999998093E+01 0. -1.
       -5    1    3    3    0  502  0.35739123862E+03  0.19991995907E+03 -0.57965081715E+03  0.70972786848E+03  0.46999998093E+01 0.  1.
</event>
<event>
 5   0  0.1012657E-04  0.1199592E+04  0.7818609E-02  0.9113213E-01
       -2   -1    0    0    0  501  0.00000000000E+00  0.00000000000E+00  0.11680665721E+04  0.11680665721E+04  0.25500000920E-02 0.  1.
        2   -1    0    0  501    0  0.00000000000E+00  0.00000000000E+00 -0.30799232277E+03  0.30799232278E+03  0.25500000920E-02 0. -1.
    10030    2    1    2    0    0  0.00000000000E+00  0.00000000000E+00  0.86007424933E+03  0.14760588949E+04  0.11995924920E+04 0.  0.
        1    1    3    3  502    0 -0.36897667795E+03 -0.30615086444E+03  0.87348927483E+03  0.99642142386E+03  0.50400001928E-02 0.  1.
       -1    1    3    3    0  502  0.36897667795E+03  0.30615086444E+03 -0.13415025505E+02  0.47963747101E+03  0.50400001928E-02 0. -1.
</event>
<event>
 5   0  0.1023063E-04  0.1202095E+04  0.7818609E-02  0.9111025E-01
        2   -1    0    0  501    0  0.00000000000E+00  0.00000000000E+00  0.69488076003E+03  0.69488076003E+03  0.25500000920E-02 0. -1.
       -2   -1    0    0    0  501  0.00000000000E+00  0.00000000000E+00 -0.51988513889E+03  0.51988513890E+03  0.25500000920E-02 0.  1.
    10030    2    1    2    0    0  0.00000000000E+00  0.00000000000E+00  0.17499562114E+03  0.12147658989E+04  0.12020951384E+04 0.  0.
        3    1    3    3  502    0  0.48322631355E+03  0.24065075529E+03 -0.17955598755E+03  0.56891196068E+03  0.10100000352E+00 0.  1.
       -3    1    3    3    0  502 -0.48322631355E+03 -0.24065075529E+03  0.35455160869E+03  0.64585393826E+03  0.10100000352E+00 0. -1.
</event>
<event>
 5   0  0.3839750E-05  0.1199003E+04  0.7818609E-02  0.9113730E-01
       -4   -1    0    0    0  501  0.00000000000E+00  0.00000000000E+00  0.38294912182E+03  0.38295122771E+03  0.12699999809E+01 0.  1.
        4   -1    0    0  501    0  0.00000000000E+00  0.00000000000E+00 -0.93850547296E+03  0.93850633226E+03  0.12699999809E+01 0. -1.
    10030    2    1    2    0    0  0.00000000000E+00  0.00000000000E+00 -0.55555635114E+03  0.13214575600E+04  0.11990025953E+04 0.  0.
        5    1    3    3  502    0  0.54739982657E+03  0.22911306794E+03 -0.37155873356E+03  0.70015523315E+03  0.46999998093E+01 0.  1.
       -5    1    3    3    0  502 -0.54739982657E+03 -0.22911306794E+03 -0.18399761758E+03  0.62130232681E+03  0.46999998093E+01 0. -1.
</event>
<event>
 5   0  0.1023063E-04  0.1199401E+04  0.7818609E-02  0.9113381E-01
        2   -1    0    0  501    0  0.00000000000E+00  0.00000000000E+00  0.38599637017E+03  0.38599637018E+03  0.25500000920E-02 0.  1.
       -2   -1    0    0    0  501  0.00000000000E+00  0.00000000000E+00 -0.93171967490E+03  0.93171967490E+03  0.25500000920E-02 0. -1.
    10030    2    1    2    0    0  0.00000000000E+00  0.00000000000E+00 -0.54572330473E+03  0.13177160451E+04  0.11994005378E+04 0.  0.
        3    1    3    3  502    0  0.29736064132E+03 -0.52072170963E+03 -0.26393943045E+03  0.65516294389E+03  0.10100000352E+00 0.  1.
       -3    1    3    3    0  502 -0.29736064132E+03  0.52072170963E+03 -0.28178387428E+03  0.66255310119E+03  0.10100000352E+00 0. -1.
</event>
<event>
 5   0  0.9941209E-05  0.1199327E+04  0.7818609E-02  0.9113446E-01
       -2   -1    0    0    0  501  0.00000000000E+00  0.00000000000E+00  0.32506901044E+03  0.32506901045E+03  0.25500000920E-02 0. -1.
        2   -1    0    0  501    0  0.00000000000E+00  0.00000000000E+00 -0.11062144402E+04  0.11062144402E+04  0.25500000920E-02 0.  1.
    10030    2    1    2    0    0  0.00000000000E+00  0.00000000000E+00 -0.78114542979E+03  0.14312834507E+04  0.11993265334E+04 0.  0.
        2    1    3    3  502    0 -0.22147617168E+03 -0.36635277537E+03  0.11055830968E+03  0.44214159552E+03  0.25500000920E-02 0. -1.
       -2    1    3    3    0  502  0.22147617168E+03  0.36635277537E+03 -0.89170373947E+03  0.98914185516E+03  0.25500000920E-02 0.  1.
</event>
<event>
 5   0  0.1004006E-04  0.1199458E+04  0.7818609E-02  0.9113331E-01
       -2   -1    0    0    0  501  0.00000000000E+00  0.00000000000E+00  0.29828391734E+03  0.29828391735E+03  0.25500000920E-02 0.  1.
        2   -1    0    0  501    0  0.00000000000E+00  0.00000000000E+00 -0.12058129071E+04  0.12058129071E+04  0.25500000920E-02 0. -1.
    10030    2    1    2    0    0  0.00000000000E+00  0.00000000000E+00 -0.90752898974E+03  0.15040968244E+04  0.11994575399E+04 0.  0.
        5    1    3    3  502    0  0.25710541563E+03  0.24054084317E+03  0.15501631669E+03  0.38472748851E+03  0.46999998093E+01 0.  1.
       -5    1    3    3    0  502 -0.25710541563E+03 -0.24054084317E+03 -0.10625453064E+04  0.11193693359E+04  0.46999998093E+01 0. -1.
</event>
<event>
 5   0  0.5745487E-05  0.1199474E+04  0.7818609E-02  0.9113317E-01
        1   -1    0    0  501    0  0.00000000000E+00  0.00000000000E+00  0.91338485411E+03  0.91338485413E+03  0.50400001928E-02 0. -1.
       -1   -1    0    0    0  501  0.00000000000E+00  0.00000000000E+00 -0.39379281797E+03  0.39379281800E+03  0.50400001928E-02 0.  1.
    10030    2    1    2    0    0  0.00000000000E+00  0.00000000000E+00  0.51959203614E+03  0.13071776721E+04  0.11994738774E+04 0.  0.
        3    1    3    3  502    0 -0.17193908363E+03 -0.36564218525E+03  0.74279316097E+03  0.84557610320E+03  0.10100000352E+00 0. -1.
       -3    1    3    3    0  502  0.17193908363E+03  0.36564218525E+03 -0.22320112483E+03  0.46160156893E+03  0.10100000352E+00 0.  1.
</event>
<event>
 5   0  0.5625746E-05  0.1200735E+04  0.7818609E-02  0.9112214E-01
        1   -1    0    0  501    0  0.00000000000E+00  0.00000000000E+00  0.18602843666E+04  0.18602843666E+04  0.50400001928E-02 0. -1.
       -1   -1    0    0    0  501  0.00000000000E+00  0.00000000000E+00 -0.19375577341E+03  0.19375577348E+03  0.50400001928E-02 0.  1.
    10030    2    1    2    0    0  0.00000000000E+00  0.00000000000E+00  0.16665285932E+04  0.20540401401E+04  0.12007345024E+04 0.  0.
        5    1    3    3  502    0 -0.39031685996E+03 -0.36523986819E+03  0.36581028538E+03  0.64775509831E+03  0.46999998093E+01 0.  1.
       -5    1    3    3    0  502  0.39031685996E+03  0.36523986819E+03  0.13007183078E+04  0.14062850418E+04  0.46999998093E+01 0. -1.
</event>
<event>
 5   0  0.1012657E-04  0.1200167E+04  0.7818609E-02  0.9112710E-01
        2   -1    0    0  501    0  0.00000000000E+00  0.00000000000E+00  0.10531593849E+04  0.10531593849E+04  0.25500000920E-02 0.  1.
       -2   -1    0    0    0  501  0.00000000000E+00  0.00000000000E+00 -0.34192383505E+03  0.34192383506E+03  0.25500000920E-02 0. -1.
    10030    2    1    2    0    0  0.00000000000E+00  0.00000000000E+00  0.71123554980E+03  0.13950832199E+04  0.12001671480E+04 0.  0.
        1    1    3    3  502    0 -0.13687920953E+03 -0.16972971785E+03  0.10054817158E+04  0.10288525531E+04  0.50400001928E-02 0.  1.
       -1    1    3    3    0  502  0.13687920953E+03  0.16972971785E+03 -0.29424616598E+03  0.36623066686E+03  0.50400001928E-02 0. -1.
</event>
<event>
 5   0  0.5447807E-05  0.1200407E+04  0.7818609E-02  0.9112501E-01
       -1   -1    0    0    0  501  0.00000000000E+00  0.00000000000E+00  0.64124724585E+03  0.64124724587E+03  0.50400001928E-02 0.  1.
        1   -1    0    0  501    0  0.00000000000E+00  0.00000000000E+00 -0.56178637557E+03  0.56178637559E+03  0.50400001928E-02 0. -1.
    10030    2    1    2    0    0  0.00000000000E+00  0.00000000000E+00  0.79460870281E+02  0.12030336215E+04  0.12004065413E+04 0.  0.
        2    1    3    3  502    0  0.17460242166E+03  0.53525640841E+03 -0.16871161157E+03  0.58774912699E+03  0.25500000920E-02 0. -1.
       -2    1    3    3    0  502 -0.17460242166E+03 -0.53525640841E+03  0.24817248185E+03  0.61528449448E+03  0.25500000920E-02 0.  1.
</event>
<event>
 5   0  0.9941209E-05  0.1199206E+04  0.7818609E-02  0.9113552E-01
        2   -1    0    0  501    0  0.00000000000E+00  0.00000000000E+00  0.71268314912E+03  0.71268314913E+03  0.25500000920E-02 0. -1.
       -2   -1    0    0    0  501  0.00000000000E+00  0.00000000000E+00 -0.50446534897E+03  0.50446534898E+03  0.25500000920E-02 0.  1.
    10030    2    1    2    0    0  0.00000000000E+00  0.00000000000E+00  0.20821780016E+03  0.12171484981E+04  0.11992063268E+04 0.  0.
        2    1    3    3  502    0 -0.32987585842E+03 -0.32053495702E+03  0.49452393403E+03  0.67536261518E+03  0.25500000920E-02 0. -1.
       -2    1    3    3    0  502  0.32987585842E+03  0.32053495702E+03 -0.28630613388E+03  0.54178588293E+03  0.25500000920E-02 0.  1.
</event>
<event>
 5   0  0.5620246E-05  0.1200383E+04  0.7818609E-02  0.9112522E-01
       -1   -1    0    0    0  501  0.00000000000E+00  0.00000000000E+00  0.31005628675E+03  0.31005628679E+03  0.50400001928E-02 0.  1.
        1   -1    0    0  501    0  0.00000000000E+00  0.00000000000E+00 -0.11618202033E+04  0.11618202033E+04  0.50400001928E-02 0. -1.
    10030    2    1    2    0    0  0.00000000000E+00  0.00000000000E+00 -0.85176391653E+03  0.14718764901E+04  0.12003827025E+04 0.  0.
        1    1    3    3  502    0  0.21626267825E+03  0.26354982100E+03  0.17980466245E+03  0.38543192761E+03  0.50400001928E-02 0.  1.
       -1    1    3    3    0  502 -0.21626267825E+03 -0.26354982100E+03 -0.10315685790E+04  0.10864445625E+04  0.50400001928E-02 0. -1.
</event>
<event>
 5   0  0.9838215E-05  0.1200119E+04  0.7818609E-02  0.9112752E-01
       -2   -1    0    0    0  501  0.00000000000E+00  0.00000000000E+00  0.34958255066E+03  0.34958255067E+03  0.25500000920E-02 0.  1.
        2   -1    0    0  501    0  0.00000000000E+00  0.00000000000E+00 -0.10300039766E+04  0.10300039766E+04  0.25500000920E-02 0. -1.
    10030    2    1    2    0    0  0.00000000000E+00  0.00000000000E+00 -0.68042142593E+03  0.13795865273E+04  0.12001190230E+04 0.  0.
        4    1    3    3  502    0 -0.47734836250E+03 -0.52598997545E+01 -0.75814558863E+03  0.89592157703E+03  0.12699999809E+01 0. -1.
       -4    1    3    3    0  502  0.47734836250E+03  0.52598997545E+01  0.77724162693E+02  0.48366495025E+03  0.12699999809E+01 0.  1.
</event>
<event>
 5   0  0.5732931E-05  0.1192366E+04  0.7818609E-02  0.9119565E-01
       -1   -1    0    0    0  501  0.00000000000E+00  0.00000000000E+00  0.24069363972E+03  0.24069363977E+03  0.50400001928E-02 0. -1.
        1   -1    0    0  501    0  0.00000000000E+00  0.00000000000E+00 -0.14767072374E+04  0.14767072374E+04  0.50400001928E-02 0.  1.
    10030    2    1    2    0    0  0.00000000000E+00  0.00000000000E+00 -0.12360135977E+04  0.17174008772E+04  0.11923657825E+04 0.  0.
        4    1    3    3  502    0  0.44821887535E+03  0.77846245240E+02 -0.11729963285E+04  0.12581264633E+04  0.12699999809E+01 0.  1.
       -4    1    3    3    0  502 -0.44821887535E+03 -0.77846245240E+02 -0.63017269184E+02  0.45927441387E+03  0.12699999809E+01 0. -1.
</event>
<event>
 5   0  0.1004006E-04  0.1200005E+04  0.7818609E-02  0.9112852E-01
        2   -1    0    0  501    0  0.00000000000E+00  0.00000000000E+00  0.56262097058E+03  0.56262097058E+03  0.25500000920E-02 0. -1.
       -2   -1    0    0    0  501  0.00000000000E+00  0.00000000000E+00 -0.63986744755E+03  0.63986744756E+03  0.25500000920E-02 0.  1.
    10030    2    1    2    0    0  0.00000000000E+00  0.00000000000E+00 -0.77246476976E+02  0.12024884181E+04  0.12000047406E+04 0.  0.
        5    1    3    3  502    0 -0.65804378770E+01  0.12645291319E+03  0.54906063649E+03  0.56349207090E+03  0.46999998093E+01 0. -1.
       -5    1    3    3    0  502  0.65804378770E+01 -0.12645291319E+03 -0.62630711347E+03  0.63899634725E+03  0.46999998093E+01 0.  1.
</event>
<event>
 5   0  0.5447807E-05  0.1200505E+04  0.7818609E-02  0.9112415E-01
        1   -1    0    0  501    0  0.00000000000E+00  0.00000000000E+00  0.88019382822E+03  0.88019382824E+03  0.50400001928E-02 0. -1.
       -1   -1    0    0    0  501  0.00000000000E+00  0.00000000000E+00 -0.40934490291E+03  0.40934490294E+03  0.50400001928E-02 0.  1.
    10030    2    1    2    0    0  0.00000000000E+00  0.00000000000E+00  0.47084892531E+03  0.12895387312E+04  0.12005046559E+04 0.  0.
        2    1    3    3  502    0 -0.11310374037E+03 -0.53903623513E+03 -0.20916904454E+02  0.55117151211E+03  0.25500000920E-02 0.  1.
       -2    1    3    3    0  502  0.11310374037E+03  0.53903623513E+03  0.49176582976E+03  0.73836721907E+03  0.25500000920E-02 0. -1.
</event>
<event>
 5   0  0.5745487E-05  0.1199565E+04  0.7818609E-02  0.9113238E-01
       -1   -1    0    0    0  501  0.00000000000E+00  0.00000000000E+00  0.28498565982E+03  0.28498565986E+03  0.50400001928E-02 0. -1.
        1   -1    0    0  501    0  0.00000000000E+00  0.00000000000E+00 -0.12623050770E+04  0.12623050770E+04  0.50400001928E-02 0.  1.
    10030    2    1    2    0    0  0.00000000000E+00  0.00000000000E+00 -0.97731941715E+03  0.15472907368E+04  0.11995646632E+04 0.  0.
        3    1    3    3  502    0  0.34222933371E+03 -0.43726824238E+03 -0.78113599382E+03  0.95838295252E+03  0.10100000352E+00 0.  1.
       -3    1    3    3    0  502 -0.34222933371E+03  0.43726824238E+03 -0.19618342333E+03  0.58890778432E+03  0.10100000352E+00 0. -1.
</event>
<event>
 5   0  0.1012657E-04  0.1200196E+04  0.7818609E-02  0.9112685E-01
       -2   -1    0    0    0  501  0.00000000000E+00  0.00000000000E+00  0.30216845600E+03  0.30216845602E+03  0.25500000920E-02 0.  1.
        2   -1    0    0  501    0  0.00000000000E+00  0.00000000000E+00 -0.11917783820E+04  0.11917783820E+04  0.25500000920E-02 0. -1.
    10030    2    1    2    0    0  0.00000000000E+00  0.00000000000E+00 -0.88960992595E+03  0.14939468380E+04  0.12001963732E+04 0.  0.
        1    1    3    3  502    0  0.23412039501E+03  0.44441364273E+02 -0.11303576390E+04  0.11552037856E+04  0.50400001928E-02 0. -1.
       -1    1    3    3    0  502 -0.23412039501E+03 -0.44441364273E+02  0.24074771300E+03  0.33874305241E+03  0.50400001928E-02 0.  1.
</event>
<event>
 5   0  0.5745487E-05  0.1199260E+04  0.7818609E-02  0.9113504E-01
        1   -1    0    0  501    0  0.00000000000E+00  0.00000000000E+00  0.97617008366E+03  0.97617008367E+03  0.50400001928E-02 0. -1.
       -1   -1    0    0    0  501  0.00000000000E+00  0.00000000000E+00 -0.36833369723E+03  0.36833369727E+03  0.50400001928E-02 0.  1.
    10030    2    1    2    0    0  0.00000000000E+00  0.00000000000E+00  0.60783638643E+03  0.13445037809E+04  0.11992603322E+04 0.  0.
        3    1    3    3  502    0  0.31329357213E+03  0.24904086850E+03 -0.19668273692E+03  0.44593533805E+03  0.10100000352E+00 0.  1.
       -3    1    3    3    0  502 -0.31329357213E+03 -0.24904086850E+03  0.80451912335E+03  0.89856844289E+03  0.10100000352E+00 0. -1.
</event>
<event>
 5   0  0.1012657E-04  0.1200456E+04  0.7818609E-02  0.9112457E-01
       -2   -1    0    0    0  501  0.00000000000E+00  0.00000000000E+00  0.63931315864E+03  0.63931315865E+03  0.25500000920E-02 0. -1.
        2   -1    0    0  501    0  0.00000000000E+00  0.00000000000E+00 -0.56353238531E+03  0.56353238531E+03  0.25500000920E-02 0.  1.
    10030    2    1    2    0    0  0.00000000000E+00  0.00000000000E+00  0.75780773337E+02  0.12028455440E+04  0.12004560288E+04 0.  0.
        1    1    3    3  502    0 -0.35643332439E+03  0.33146192883E+02  0.52064841888E+03  0.63183713166E+03  0.50400001928E-02 0. -1.
       -1    1    3    3    0  502  0.35643332439E+03 -0.33146192883E+02 -0.44486764555E+03  0.57100841230E+03  0.50400001928E-02 0.  1.
</event>
<event>
 5   0  0.5745487E-05  0.1200663E+04  0.7818609E-02  0.9112277E-01
       -1   -1    0    0    0  501  0.00000000000E+00  0.00000000000E+00  0.18217127250E+03  0.18217127257E+03  0.50400001928E-02 0.  1.
        1   -1    0    0  501    0  0.00000000000E+00  0.00000000000E+00 -0.19783459684E+04  0.19783459685E+04  0.50400001928E-02 0. -1.
    10030    2    1    2    0    0  0.00000000000E+00  0.00000000000E+00 -0.17961746959E+04  0.21605172410E+04  0.12006628213E+04 0.  0.
        3    1    3    3  502    0  0.23912639283E+03 -0.52136841777E+03 -0.12169044109E+04  0.13453114191E+04  0.10100000352E+00 0. -1.
       -3    1    3    3    0  502 -0.23912639283E+03  0.52136841777E+03 -0.57927028500E+03  0.81520582191E+03  0.10100000352E+00 0.  1.
</event>
<event>
 5   0  0.5625746E-05  0.1200392E+04  0.7818609E-02  0.9112513E-01
        1   -1    0    0  501    0  0.00000000000E+00  0.00000000000E+00  0.23725525097E+04  0.23725525097E+04  0.50400001928E-02 0.  1.
       -1   -1    0    0    0  501  0.00000000000E+00  0.00000000000E+00 -0.15183451240E+03  0.15183451248E+03  0.50400001928E-02 0. -1.
    10030    2    1    2    0    0  0.00000000000E+00  0.00000000000E+00  0.22207179973E+04  0.25243870222E+04  0.12003921918E+04 0.  0.
        5    1    3    3  502    0  0.32686724929E+03  0.41996244983E+03  0.16939189610E+04  0.17755546160E+04  0.46999998093E+01 0.  1.
       -5    1    3    3    0  502 -0.32686724929E+03 -0.41996244983E+03  0.52679903631E+03  0.74883240621E+03  0.46999998093E+01 0. -1.
</event>
<event>
 5   0  0.9838215E-05  0.1199664E+04  0.7818609E-02  0.9113151E-01
       -2   -1    0    0    0  501  0.00000000000E+00  0.00000000000E+00  0.74432430121E+03  0.74432430122E+03  0.25500000920E-02 0. -1.
        2   -1    0    0  501    0  0.00000000000E+00  0.00000000000E+00 -0.48338949160E+03  0.48338949161E+03  0.25500000920E-02 0.  1.
    10030    2    1    2    0    0  0.00000000000E+00  0.00000000000E+00  0.26093480961E+03  0.12277137928E+04  0.11996641956E+04 0.  0.
        4    1    3    3  502    0  0.79996424498E+02  0.95750383843E+02  0.73089604233E+03  0.74147029714E+03  0.12699999809E+01 0. -1.
       -4    1    3    3    0  502 -0.79996424498E+02 -0.95750383843E+02 -0.46996123272E+03  0.48624349569E+03  0.12699999809E+01 0.  1.
</event>
<event>
 5   0  0.9941209E-05  0.1199832E+04  0.7818609E-02  0.9113003E-01
       -2   -1    0    0    0  501  0.00000000000E+00  0.00000000000E+00  0.40827720358E+03  0.40827720358E+03  0.25500000920E-02 0.  1.
        2   -1    0    0  501    0  0.00000000000E+00  0.00000000000E+00 -0.88150769346E+03  0.88150769347E+03  0.25500000920E-02 0. -1.
    10030    2    1    2    0    0  0.00000000000E+00  0.00000000000E+00 -0.47323048989E+03  0.12897848970E+04  0.11998324817E+04 0.  0.
        2    1    3    3  502    0 -0.39427281407E+03  0.48458959735E+02 -0.71987431658E+03  0.82220335342E+03  0.25500000920E-02 0. -1.
       -2    1    3    3    0  502  0.39427281407E+03 -0.48458959735E+02  0.24664382669E+03  0.46758154363E+03  0.25500000920E-02 0.  1.
</event>
<event>
 5   0  0.5732931E-05  0.1200853E+04  0.7818609E-02  0.9112110E-01
       -1   -1    0    0    0  501  0.00000000000E+00  0.00000000000E+00  0.32398150366E+03  0.32398150370E+03  0.50400001928E-02 0.  1.
        1   -1    0    0  501    0  0.00000000000E+00  0.00000000000E+00 -0.11127544838E+04  0.11127544838E+04  0.50400001928E-02 0. -1.
    10030    2    1    2    0    0  0.00000000000E+00  0.00000000000E+00 -0.78877298016E+03  0.14367359875E+04  0.12008528151E+04 0.  0.
        4    1    3    3  502    0 -0.24200603473E+03 -0.50884377778E+03 -0.14622796941E+03  0.58212811560E+03  0.12699999809E+01 0. -1.
       -4    1    3    3    0  502  0.24200603473E+03  0.50884377778E+03 -0.64254501075E+03  0.85460787193E+03  0.12699999809E+01 0.  1.
</event>
<event>
 5   0  0.3839750E-05  0.1199464E+04  0.7818609E-02  0.9113326E-01
        3   -1    0    0  501    0  0.00000000000E+00  0.00000000000E+00  0.20566881114E+04  0.20566881138E+04  0.10100000352E+00 0.  1.
       -3   -1    0    0    0  501  0.00000000000E+00  0.00000000000E+00 -0.17488243578E+03  0.17488246494E+03  0.10100000352E+00 0. -1.
    10030    2    1    2    0    0  0.00000000000E+00  0.00000000000E+00  0.18818056756E+04  0.22315705788E+04  0.11994643169E+04 0.  0.
        3    1    3    3  502    0 -0.38818870631E+03 -0.24394174269E+03  0.22159346464E+03  0.50921677045E+03  0.10100000352E+00 0. -1.
       -3    1    3    3    0  502  0.38818870631E+03  0.24394174269E+03  0.16602122109E+04  0.17223538083E+04  0.10100000352E+00 0.  1.
</event>
<event>
 5   0  0.1004006E-04  0.1200075E+04  0.7818609E-02  0.9112791E-01
       -2   -1    0    0    0  501  0.00000000000E+00  0.00000000000E+00  0.27227723649E+03  0.27227723650E+03  0.25500000920E-02 0.  1.
        2   -1    0    0  501    0  0.00000000000E+00  0.00000000000E+00 -0.13223467700E+04  0.13223467700E+04  0.25500000920E-02 0. -1.
    10030    2    1    2    0    0  0.00000000000E+00  0.00000000000E+00 -0.10500695335E+04  0.15946240065E+04  0.12000748714E+04 0.  0.
        5    1    3    3  502    0  0.42057048569E+03 -0.38020944593E+03 -0.26402664618E+03  0.62543658040E+03  0.46999998093E+01 0.  1.
       -5    1    3    3    0  502 -0.42057048569E+03  0.38020944593E+03 -0.78604288736E+03  0.96918742613E+03  0.46999998093E+01 0. -1.
</event>
<event>
 5   0  0.5620246E-05  0.1196394E+04  0.7818609E-02  0.9116018E-01
       -1   -1    0    0    0  501  0.00000000000E+00  0.00000000000E+00  0.36028177454E+03  0.36028177458E+03  0.50400001928E-02 0.  1.
        1   -1    0    0  501    0  0.00000000000E+00  0.00000000000E+00 -0.99322220365E+03  0.99322220367E+03  0.50400001928E-02 0. -1.
    10030    2    1    2    0    0  0.00000000000E+00  0.00000000000E+00 -0.63294042911E+03  0.13535039782E+04  0.11963943465E+04 0.  0.
        1    1    3    3  502    0 -0.58753204322E+03  0.85685481971E+02 -0.39886222041E+03  0.71528104583E+03  0.50400001928E-02 0. -1.
       -1    1    3    3    0  502  0.58753204322E+03 -0.85685481971E+02 -0.23407820870E+03  0.63822293241E+03  0.50400001928E-02 0.  1.
</event>
<event>
 5   0  0.9838215E-05  0.1200118E+04  0.7818609E-02  0.9112754E-01
        2   -1    0    0  501    0  0.00000000000E+00  0.00000000000E+00  0.10246178241E+04  0.10246178241E+04  0.25500000920E-02 0.  1.
       -2   -1    0    0    0  501  0.00000000000E+00  0.00000000000E+00 -0.35141944574E+03  0.35141944575E+03  0.25500000920E-02 0. -1.
    10030    2    1    2    0    0  0.00000000000E+00  0.00000000000E+00  0.67319837831E+03  0.13760372698E+04  0.12001177073E+04 0.  0.
        4    1    3    3  502    0 -0.73539784743E+02 -0.37693688798E+03  0.86524773419E+03  0.94664923381E+03  0.12699999809E+01 0.  1.
       -4    1    3    3    0  502  0.73539784743E+02  0.37693688798E+03 -0.19204935588E+03  0.42938803599E+03  0.12699999809E+01 0. -1.
</event>
<event>
 5   0  0.5447807E-05  0.1200948E+04  0.7818609E-02  0.9112027E-01
        1   -1    0    0  501    0  0.00000000000E+00  0.00000000000E+00  0.40809817717E+03  0.40809817720E+03  0.50400001928E-02 0. -1.
       -1   -1    0    0    0  501  0.00000000000E+00  0.00000000000E+00 -0.88353496371E+03  0.88353496373E+03  0.50400001928E-02 0.  1.
    10030    2    1    2    0    0  0.00000000000E+00  0.00000000000E+00 -0.47543678655E+03  0.12916331409E+04  0.12009479725E+04 0.  0.
        2    1    3    3  502    0 -0.31560027939E+03  0.28989058545E+03  0.21467306886E+03  0.47929595698E+03  0.25500000920E-02 0. -1.
       -2    1    3    3    0  502  0.31560027939E+03 -0.28989058545E+03 -0.69010985541E+03  0.81233718394E+03  0.25500000920E-02 0.  1.
</event>
<event>
 5   0  0.5447807E-05  0.1200250E+04  0.7818609E-02  0.9112637E-01
       -1   -1    0    0    0  501  0.00000000000E+00  0.00000000000E+00  0.26770353142E+03  0.26770353147E+03  0.50400001928E-02 0. -1.
        1   -1    0    0  501    0  0.00000000000E+00  0.00000000000E+00 -0.13453322459E+04  0.13453322459E+04  0.50400001928E-02 0.  1.
    10030    2    1    2    0    0  0.00000000000E+00  0.00000000000E+00 -0.10776287145E+04  0.16130357774E+04  0.12002502959E+04 0.  0.
        2    1    3    3  502    0  0.39131525991E+03  0.26235694394E+03 -0.10384031396E+04  0.11402806141E+04  0.25500000920E-02 0.  1.
       -2    1    3    3    0  502 -0.39131525991E+03 -0.26235694394E+03 -0.39225574926E+02  0.47275516327E+03  0.25500000920E-02 0. -1.
</event>
<event>
 5   0  0.9941209E-05  0.1200195E+04  0.7818609E-02  0.9112686E-01
        2   -1    0    0  501    0  0.00000000000E+00  0.00000000000E+00  0.79695004574E+03  0.79695004574E+03  0.25500000920E-02 0. -1.
       -2   -1    0    0    0  501  0.00000000000E+00  0.00000000000E+00 -0.45186905354E+03  0.45186905354E+03  0.25500000920E-02 0.  1.
    10030    2    1    2    0    0  0.00000000000E+00  0.00000000000E+00  0.34508099220E+03  0.12488190993E+04  0.12001950890E+04 0.  0.
        2    1    3    3  502    0 -0.59220519157E+03 -0.52813386057E+02  0.87875560145E+02  0.60101443972E+03  0.25500000920E-02 0.  1.
       -2    1    3    3    0  502  0.59220519157E+03  0.52813386057E+02  0.25720543206E+03  0.64780465957E+03  0.25500000920E-02 0. -1.
</event>
<event>
 5   0  0.5625746E-05  0.1201912E+04  0.7818609E-02  0.9111185E-01
        1   -1    0    0  501    0  0.00000000000E+00  0.00000000000E+00  0.12280882910E+04  0.12280882910E+04  0.50400001928E-02 0.  1.
       -1   -1    0    0    0  501  0.00000000000E+00  0.00000000000E+00 -0.29407325714E+03  0.29407325718E+03  0.50400001928E-02 0. -1.
    10030    2    1    2    0    0  0.00000000000E+00  0.00000000000E+00  0.93401503383E+03  0.15221615482E+04  0.12019116836E+04 0.  0.
        5    1    3    3  502    0  0.17099666609E+03 -0.18151519636E+03 -0.22542730973E+03  0.33619516400E+03  0.46999998093E+01 0. -1.
       -5    1    3    3    0  502 -0.17099666609E+03  0.18151519636E+03  0.11594423436E+04  0.11859663842E+04  0.46999998093E+01 0.  1.
</event>
<event>
 5   0  0.5732931E-05  0.1199069E+04  0.7818609E-02  0.9113672E-01
        1   -1    0    0  501    0  0.00000000000E+00  0.00000000000E+00  0.17654457142E+04  0.17654457142E+04  0.50400001928E-02 0.  1.
       -1   -1    0    0    0  501  0.00000000000E+00  0.00000000000E+00 -0.20359819588E+03  0.20359819594E+03  0.50400001928E-02 0. -1.
    10030    2    1    2    0    0  0.00000000000E+00  0.00000000000E+00  0.15618475183E+04  0.19690439101E+04  0.11990689094E+04 0.  0.
        4    1    3    3  502    0 -0.62513415001E+02 -0.16598655690E+03  0.17213727849E+04  0.17304870244E+04  0.12699999809E+01 0.  1.
       -4    1    3    3    0  502  0.62513415001E+02  0.16598655690E+03 -0.15952526662E+03  0.23855688571E+03  0.12699999809E+01 0. -1.
</event>
<event>
 5   0  0.5625746E-05  0.1198231E+04  0.7818609E-02  0.9114406E-01
        1   -1    0    0  501    0  0.00000000000E+00  0.00000000000E+00  0.49943836202E+03  0.49943836205E+03  0.50400001928E-02 0.  1.
       -1   -1    0    0    0  501  0.00000000000E+00  0.00000000000E+00 -0.71868626802E+03  0.71868626804E+03  0.50400001928E-02 0. -1.
    10030    2    1    2    0    0  0.00000000000E+00  0.00000000000E+00 -0.21924790600E+03  0.12181246301E+04  0.11982311839E+04 0.  0.
        5    1    3    3  502    0 -0.30349884398E+03  0.48642486525E+03 -0.28628096592E+03  0.64085847055E+03  0.46999998093E+01 0. -1.
       -5    1    3    3    0  502  0.30349884398E+03 -0.48642486525E+03  0.67033059925E+02  0.57726615954E+03  0.46999998093E+01 0.  1.
</event>
<event>
 5   0  0.9941209E-05  0.1199975E+04  0.7818609E-02  0.9112878E-01
       -2   -1    0    0    0  501  0.00000000000E+00  0.00000000000E+00  0.10222111564E+04  0.10222111564E+04  0.25500000920E-02 0.  1.
        2   -1    0    0  501    0  0.00000000000E+00  0.00000000000E+00 -0.35216323596E+03  0.35216323597E+03  0.25500000920E-02 0. -1.
    10030    2    1    2    0    0  0.00000000000E+00  0.00000000000E+00  0.67004792039E+03  0.13743743923E+04  0.11999753142E+04 0.  0.
        2    1    3    3  502    0 -0.20906280253E+03 -0.20363858703E+03 -0.26538674009E+03  0.39446932878E+03  0.25500000920E-02 0. -1.
       -2    1    3    3    0  502  0.20906280253E+03  0.20363858703E+03  0.93543466048E+03  0.97990506354E+03  0.25500000920E-02 0.  1.
</event>
<event>
 5   0  0.9941209E-05  0.1199855E+04  0.7818609E-02  0.9112984E-01
       -2   -1    0    0    0  501  0.00000000000E+00  0.00000000000E+00  0.26597400335E+03  0.26597400336E+03  0.25500000920E-02 0.  1.
        2   -1    0    0  501    0  0.00000000000E+00  0.00000000000E+00 -0.13531881260E+04  0.13531881260E+04  0.25500000920E-02 0. -1.
    10030    2    1    2    0    0  0.00000000000E+00  0.00000000000E+00 -0.10872141227E+04  0.16191621294E+04  0.11998547632E+04 0.  0.
        2    1    3    3  502    0 -0.28751422858E+03 -0.34975630765E+03 -0.10747530911E+04  0.11662281566E+04  0.25500000920E-02 0. -1.
       -2    1    3    3    0  502  0.28751422858E+03  0.34975630765E+03 -0.12461031543E+02  0.45293397277E+03  0.25500000920E-02 0.  1.
</event>
<event>
 5   0  0.5620246E-05  0.1199891E+04  0.7818609E-02  0.9112952E-01
       -1   -1    0    0    0  501  0.00000000000E+00  0.00000000000E+00  0.55799219654E+03  0.55799219656E+03  0.50400001928E-02 0. -1.
        1   -1    0    0  501    0  0.00000000000E+00  0.00000000000E+00 -0.64505332040E+03  0.64505332042E+03  0.50400001928E-02 0.  1.
    10030    2    1    2    0    0  0.00000000000E+00  0.00000000000E+00 -0.87061123862E+02  0.12030455170E+04  0.11998911937E+04 0.  0.
        1    1    3    3  502    0  0.16644228056E+03 -0.49438656834E+03 -0.34064318424E+03  0.62302398887E+03  0.50400001928E-02 0.  1.
       -1    1    3    3    0  502 -0.16644228056E+03  0.49438656834E+03  0.25358206037E+03  0.58002152812E+03  0.50400001928E-02 0. -1.
</event>
<event>
 5   0  0.1023063E-04  0.1200351E+04  0.7818609E-02  0.9112549E-01
       -2   -1    0    0    0  501  0.00000000000E+00  0.00000000000E+00  0.21916322165E+03  0.21916322167E+03  0.25500000920E-02 0.  1.
        2   -1    0    0  501    0  0.00000000000E+00  0.00000000000E+00 -0.16435736399E+04  0.16435736399E+04  0.25500000920E-02 0. -1.
    10030    2    1    2    0    0  0.00000000000E+00  0.00000000000E+00 -0.14244104183E+04  0.18627368616E+04  0.12003514385E+04 0.  0.
        3    1    3    3  502    0 -0.57306634813E+03 -0.14319238680E+03 -0.54723079011E+03  0.80521465886E+03  0.10100000352E+00 0.  1.
       -3    1    3    3    0  502  0.57306634813E+03  0.14319238680E+03 -0.87717962816E+03  0.10575222027E+04  0.10100000352E+00 0. -1.
</event>
<event>
 5   0  0.1023063E-04  0.1200249E+04  0.7818609E-02  0.9112638E-01
       -2   -1    0    0    0  501  0.00000000000E+00  0.00000000000E+00  0.61950794749E+03  0.61950794750E+03  0.25500000920E-02 0.  1.
        2   -1    0    0  501    0  0.00000000000E+00  0.00000000000E+00 -0.58134800956E+03  0.58134800957E+03  0.25500000920E-02 0. -1.
    10030    2    1    2    0    0  0.00000000000E+00  0.00000000000E+00  0.38159937933E+02  0.12008559571E+04  0.12002494944E+04 0.  0.
        3    1    3    3  502    0 -0.33598503501E+03  0.42958916231E+03  0.26963995208E+03  0.60839009368E+03  0.10100000352E+00 0.  1.
       -3    1    3    3    0  502  0.33598503501E+03 -0.42958916231E+03 -0.23148001415E+03  0.59246586339E+03  0.10100000352E+00 0. -1.
</event>
<event>
 5   0  0.9838215E-05  0.1200079E+04  0.7818609E-02  0.9112787E-01
       -2   -1    0    0    0  501  0.00000000000E+00  0.00000000000E+00  0.76622810277E+03  0.76622810277E+03  0.25500000920E-02 0. -1.
        2   -1    0    0  501    0  0.00000000000E+00  0.00000000000E+00 -0.46989616842E+03  0.46989616843E+03  0.25500000920E-02 0.  1.
    10030    2    1    2    0    0  0.00000000000E+00  0.00000000000E+00  0.29633193435E+03  0.12361242712E+04  0.12000794134E+04 0.  0.
        4    1    3    3  502    0 -0.36472913791E+03  0.43969473142E+03 -0.40887582743E+02  0.57274096082E+03  0.12699999809E+01 0.  1.
       -4    1    3    3    0  502  0.36472913791E+03 -0.43969473142E+03  0.33721951709E+03  0.66338331038E+03  0.12699999809E+01 0. -1.
</event>
<event>
 5   0  0.5732931E-05  0.1198941E+04  0.7818609E-02  0.9113784E-01
        1   -1    0    0  501    0  0.00000000000E+00  0.00000000000E+00  0.95588964307E+03  0.95588964309E+03  0.50400001928E-02 0. -1.
       -1   -1    0    0    0  501  0.00000000000E+00  0.00000000000E+00 -0.37594779769E+03  0.37594779772E+03  0.50400001928E-02 0.  1.
    10030    2    1    2    0    0  0.00000000000E+00  0.00000000000E+00  0.57994184539E+03  0.13318374408E+04  0.11989405426E+04 0.  0.
        4    1    3    3  502    0 -0.41178262623E+02  0.58389277392E+03  0.43368087174E+03  0.72849648740E+03  0.12699999809E+01 0. -1.
       -4    1    3    3    0  502  0.41178262623E+02 -0.58389277392E+03  0.14626097364E+03  0.60334095340E+03  0.12699999809E+01 0.  1.
</event>
<event>
 5   0  0.5732931E-05  0.1199977E+04  0.7818609E-02  0.9112877E-01
        1   -1    0    0  501    0  0.00000000000E+00  0.00000000000E+00  0.57742878813E+03  0.57742878816E+03  0.50400001928E-02 0.  1.
       -1   -1    0    0    0  501  0.00000000000E+00  0.00000000000E+00 -0.62342921867E+03  0.62342921869E+03  0.50400001928E-02 0. -1.
    10030    2    1    2    0    0  0.00000000000E+00  0.00000000000E+00 -0.46000430536E+02  0.12008580068E+04  0.11999766302E+04 0.  0.
        4    1    3    3  502    0  0.17044354389E+03 -0.56991691504E+03  0.55339296045E+02  0.59742810637E+03  0.12699999809E+01 0.  1.
       -4    1    3    3    0  502 -0.17044354389E+03  0.56991691504E+03 -0.10133972658E+03  0.60342990047E+03  0.12699999809E+01 0. -1.
</event>
<event>
 5   0  0.1004006E-04  0.1199981E+04  0.7818609E-02  0.9112873E-01
        2   -1    0    0  501    0  0.00000000000E+00  0.00000000000E+00  0.90796127288E+03  0.90796127288E+03  0.25500000920E-02 0. -1.
       -2   -1    0    0    0  501  0.00000000000E+00  0.00000000000E+00 -0.39647999491E+03  0.39647999492E+03  0.25500000920E-02 0.  1.
    10030    2    1    2    0    0  0.00000000000E+00  0.00000000000E+00  0.51148127797E+03  0.13044412678E+04  0.11999808013E+04 0.  0.
        5    1    3    3  502    0 -0.29599922881E+03  0.39660718766E+03 -0.11298243177E+03  0.50764153164E+03  0.46999998093E+01 0. -1.
       -5    1    3    3    0  502  0.29599922881E+03 -0.39660718766E+03  0.62446370974E+03  0.79679973616E+03  0.46999998093E+01 0.  1.
</event>
<event>
 5   0  0.5732931E-05  0.1200781E+04  0.7818609E-02  0.9112173E-01
        1   -1    0    0  501    0  0.00000000000E+00  0.00000000000E+00  0.59690707732E+03  0.59690707734E+03  0.50400001928E-02 0. -1.
       -1   -1    0    0    0  501  0.00000000000E+00  0.00000000000E+00 -0.60389424914E+03  0.60389424916E+03  0.50400001928E-02 0.  1.
    10030    2    1    2    0    0  0.00000000000E+00  0.00000000000E+00 -0.69871718254E+01  0.12008013265E+04  0.12007809980E+04 0.  0.
        4    1    3    3  502    0 -0.13109523419E+03  0.30221061976E+03 -0.50544821540E+03  0.60332141556E+03  0.12699999809E+01 0.  1.
       -4    1    3    3    0  502  0.13109523419E+03 -0.30221061976E+03  0.49846104357E+03  0.59747991094E+03  0.12699999809E+01 0. -1.
</event>
<event>
 5   0  0.1023063E-04  0.1200939E+04  0.7818609E-02  0.9112035E-01
       -2   -1    0    0    0  501  0.00000000000E+00  0.00000000000E+00  0.34472756098E+03  0.34472756099E+03  0.25500000920E-02 0.  1.
        2   -1    0    0  501    0  0.00000000000E+00  0.00000000000E+00 -0.10459375431E+04  0.10459375431E+04  0.25500000920E-02 0. -1.
    10030    2    1    2    0    0  0.00000000000E+00  0.00000000000E+00 -0.70120998208E+03  0.13906651041E+04  0.12009387964E+04 0.  0.
        3    1    3    3  502    0 -0.50328692248E+03 -0.10296446392E+03  0.94213235281E+01  0.51379779944E+03  0.10100000352E+00 0. -1.
       -3    1    3    3    0  502  0.50328692248E+03  0.10296446392E+03 -0.71063130561E+03  0.87686730461E+03  0.10100000352E+00 0.  1.
</event>
<event>
 5   0  0.1023063E-04  0.1199870E+04  0.7818609E-02  0.9112970E-01
       -2   -1    0    0    0  501  0.00000000000E+00  0.00000000000E+00  0.39831648971E+03  0.39831648972E+03  0.25500000920E-02 0.  1.
        2   -1    0    0  501    0  0.00000000000E+00  0.00000000000E+00 -0.90360838207E+03  0.90360838207E+03  0.25500000920E-02 0. -1.
    10030    2    1    2    0    0  0.00000000000E+00  0.00000000000E+00 -0.50529189235E+03  0.13019248718E+04  0.11998701910E+04 0.  0.
        3    1    3    3  502    0 -0.35925127665E+02 -0.69486179125E+01 -0.90239646561E+03  0.90313802347E+03  0.10100000352E+00 0. -1.
       -3    1    3    3    0  502  0.35925127665E+02  0.69486179125E+01  0.39710457326E+03  0.39878684832E+03  0.10100000352E+00 0.  1.
</event>
<event>
 5   0  0.5732931E-05  0.1201021E+04  0.7818609E-02  0.9111963E-01
       -1   -1    0    0    0  501  0.00000000000E+00  0.00000000000E+00  0.22446562607E+03  0.22446562613E+03  0.50400001928E-02 0.  1.
        1   -1    0    0  501    0  0.00000000000E+00  0.00000000000E+00 -0.16065392735E+04  0.16065392735E+04  0.50400001928E-02 0. -1.
    10030    2    1    2    0    0  0.00000000000E+00  0.00000000000E+00 -0.13820736474E+04  0.18310048996E+04  0.12010209722E+04 0.  0.
        4    1    3    3  502    0 -0.23584494056E+03  0.35291160919E+03 -0.43435869465E+02  0.42668223252E+03  0.12699999809E+01 0.  1.
       -4    1    3    3    0  502  0.23584494056E+03 -0.35291160919E+03 -0.13386377780E+04  0.14043226671E+04  0.12699999809E+01 0. -1.
</event>
<event>
 5   0  0.5745487E-05  0.1200513E+04  0.7818609E-02  0.9112408E-01
       -1   -1    0    0    0  501  0.00000000000E+00  0.00000000000E+00  0.76702623963E+03  0.76702623965E+03  0.50400001928E-02 0.  1.
        1   -1    0    0  501    0  0.00000000000E+00  0.00000000000E+00 -0.46974631208E+03  0.46974631211E+03  0.50400001928E-02 0. -1.
    10030    2    1    2    0    0  0.00000000000E+00  0.00000000000E+00  0.29727992754E+03  0.12367725518E+04  0.12005128027E+04 0.  0.
        3    1    3    3  502    0 -0.45606422556E+03  0.35311340290E+03 -0.22584961545E+02  0.57722936848E+03  0.10100000352E+00 0. -1.
       -3    1    3    3    0  502  0.45606422556E+03 -0.35311340290E+03  0.31986488909E+03  0.65954318328E+03  0.10100000352E+00 0.  1.
</event>
<event>
 5   0  0.5732931E-05  0.1199754E+04  0.7818609E-02  0.9113072E-01
       -1   -1    0    0    0  501  0.00000000000E+00  0.00000000000E+00  0.41133267787E+03  0.41133267790E+03  0.50400001928E-02 0. -1.
        1   -1    0    0  501    0  0.00000000000E+00  0.00000000000E+00 -0.87484571327E+03  0.87484571328E+03  0.50400001928E-02 0.  1.
    10030    2    1    2    0    0  0.00000000000E+00  0.00000000000E+00 -0.46351303540E+03  0.12861783912E+04  0.11997543582E+04 0.  0.
        4    1    3    3  502    0 -0.38416752925E+03  0.14277587481E+03  0.23784045102E+03  0.47385581562E+03  0.12699999809E+01 0. -1.
       -4    1    3    3    0  502  0.38416752925E+03 -0.14277587481E+03 -0.70135348642E+03  0.81232257556E+03  0.12699999809E+01 0.  1.
</event>
<event>
 5   0  0.1004006E-04  0.1199679E+04  0.7818609E-02  0.9113138E-01
        2   -1    0    0  501    0  0.00000000000E+00  0.00000000000E+00  0.14066448727E+04  0.14066448727E+04  0.25500000920E-02 0.  1.
       -2   -1    0    0    0  501  0.00000000000E+00  0.00000000000E+00 -0.25579102970E+03  0.25579102972E+03  0.25500000920E-02 0. -1.
    10030    2    1    2    0    0  0.00000000000E+00  0.00000000000E+00  0.11508538430E+04  0.16624359024E+04  0.11996785243E+04 0.  0.
        5    1    3    3  502    0 -0.53179093152E+03 -0.21358869378E+03  0.33001758718E+03  0.66132852865E+03  0.46999998093E+01 0. -1.
       -5    1    3    3    0  502  0.53179093152E+03  0.21358869378E+03  0.82083625584E+03  0.10011073738E+04  0.46999998093E+01 0.  1.
</event>
<event>
 5   0  0.5732931E-05  0.1199194E+04  0.7818609E-02  0.9113563E-01
        1   -1    0    0  501    0  0.00000000000E+00  0.00000000000E+00  0.55470553384E+03  0.55470553386E+03  0.50400001928E-02 0.  1.
       -1   -1    0    0    0  501  0.00000000000E+00  0.00000000000E+00 -0.64812118365E+03  0.64812118367E+03  0.50400001928E-02 0. -1.
    10030    2    1    2    0    0  0.00000000000E+00  0.00000000000E+00 -0.93415649814E+02  0.12028267175E+04  0.11991937411E+04 0.  0.
        4    1    3    3  502    0 -0.45022590725E+03 -0.27830401944E+03  0.23585165962E+03  0.57946881973E+03  0.12699999809E+01 0.  1.
       -4    1    3    3    0  502  0.45022590725E+03  0.27830401944E+03 -0.32926730944E+03  0.62335789780E+03  0.12699999809E+01 0. -1.
</event>
<event>
 5   0  0.3839750E-05  0.1200275E+04  0.7818609E-02  0.9112616E-01
        3   -1    0    0  501    0  0.00000000000E+00  0.00000000000E+00  0.37934185851E+03  0.37934187196E+03  0.10100000352E+00 0. -1.
       -3   -1    0    0    0  501  0.00000000000E+00  0.00000000000E+00 -0.94944638074E+03  0.94944638611E+03  0.10100000352E+00 0.  1.
    10030    2    1    2    0    0  0.00000000000E+00  0.00000000000E+00 -0.57010452222E+03  0.13287882581E+04  0.12002745805E+04 0.  0.
        4    1    3    3  502    0 -0.41151237904E+03 -0.39515501961E+03 -0.78907500099E+02  0.57594959337E+03  0.12699999809E+01 0. -1.
       -4    1    3    3    0  502  0.41151237904E+03  0.39515501961E+03 -0.49119702213E+03  0.75283866470E+03  0.12699999809E+01 0.  1.
</event>
<event>
 5   0  0.5447807E-05  0.1199742E+04  0.7818609E-02  0.9113082E-01
        1   -1    0    0  501    0  0.00000000000E+00  0.00000000000E+00  0.92529487413E+03  0.92529487414E+03  0.50400001928E-02 0.  1.
       -1   -1    0    0    0  501  0.00000000000E+00  0.00000000000E+00 -0.38889780745E+03  0.38889780748E+03  0.50400001928E-02 0. -1.
    10030    2    1    2    0    0  0.00000000000E+00  0.00000000000E+00  0.53639706668E+03  0.13141926816E+04  0.11997418853E+04 0.  0.
        2    1    3    3  502    0 -0.29319047601E+03 -0.12502382478E+03 -0.28846703735E+03  0.42988933882E+03  0.25500000920E-02 0. -1.
       -2    1    3    3    0  502  0.29319047601E+03  0.12502382478E+03  0.82486410403E+03  0.88430334281E+03  0.25500000920E-02 0.  1.
</event>
<event>
 5   0  0.5625746E-05  0.1200985E+04  0.7818609E-02  0.9111994E-01
       -1   -1    0    0    0  501  0.00000000000E+00  0.00000000000E+00  0.16491260034E+03  0.16491260042E+03  0.50400001928E-02 0. -1.
        1   -1    0    0  501    0  0.00000000000E+00  0.00000000000E+00 -0.21865611968E+04  0.21865611968E+04  0.50400001928E-02 0.  1.
    10030    2    1    2    0    0  0.00000000000E+00  0.00000000000E+00 -0.20216485965E+04  0.23514737973E+04  0.12009854169E+04 0.  0.
        5    1    3    3  502    0 -0.49812717648E+02  0.11514285223E+03 -0.21605786688E+04  0.21642230609E+04  0.46999998093E+01 0.  1.
       -5    1    3    3    0  502  0.49812717648E+02 -0.11514285223E+03  0.13893007234E+03  0.18725073633E+03  0.46999998093E+01 0. -1.
</event>
<event>
 5   0  0.9941209E-05  0.1203252E+04  0.7818609E-02  0.9110014E-01
        2   -1    0    0  501    0  0.00000000000E+00  0.00000000000E+00  0.18545145697E+04  0.18545145697E+04  0.25500000920E-02 0. -1.
       -2   -1    0    0    0  501  0.00000000000E+00  0.00000000000E+00 -0.19517459025E+03  0.19517459027E+03  0.25500000920E-02 0.  1.
    10030    2    1    2    0    0  0.00000000000E+00  0.00000000000E+00  0.16593399794E+04  0.20496891600E+04  0.12032524611E+04 0.  0.
        2    1    3    3  502    0  0.38458576071E+03 -0.24764601301E+03  0.14953695991E+04  0.15637662847E+04  0.25500000920E-02 0. -1.
       -2    1    3    3    0  502 -0.38458576071E+03  0.24764601301E+03  0.16397038032E+03  0.48592287529E+03  0.25500000920E-02 0.  1.
</event>
<event>
 5   0  0.9838215E-05  0.1199936E+04  0.7818609E-02  0.9112913E-01
       -2   -1    0    0    0  501  0.00000000000E+00  0.00000000000E+00  0.57144222448E+03  0.57144222448E+03  0.25500000920E-02 0. -1.
        2   -1    0    0  501    0  0.00000000000E+00  0.00000000000E+00 -0.62991772991E+03  0.62991772991E+03  0.25500000920E-02 0.  1.
    10030    2    1    2    0    0  0.00000000000E+00  0.00000000000E+00 -0.58475505427E+02  0.12013599544E+04  0.11999359797E+04 0.  0.
        4    1    3    3  502    0 -0.40359536516E+03 -0.44943870383E+01 -0.47366830797E+03  0.62231237909E+03  0.12699999809E+01 0.  1.
       -4    1    3    3    0  502  0.40359536516E+03  0.44943870383E+01  0.41519280254E+03  0.57904757531E+03  0.12699999809E+01 0. -1.
</event>
<event>
 5   0  0.1023063E-04  0.1199860E+04  0.7818609E-02  0.9112980E-01
        2   -1    0    0  501    0  0.00000000000E+00  0.00000000000E+00  0.59564159880E+03  0.59564159880E+03  0.25500000920E-02 0.  1.
       -2   -1    0    0    0  501  0.00000000000E+00  0.00000000000E+00 -0.60424878929E+03  0.60424878929E+03  0.25500000920E-02 0. -1.
    10030    2    1    2    0    0  0.00000000000E+00  0.00000000000E+00 -0.86071904890E+01  0.11998903881E+04  0.11998595167E+04 0.  0.
        3    1    3    3  502    0  0.53764001011E+03 -0.25407469991E+03 -0.83709486491E+02  0.60051479744E+03  0.10100000352E+00 0.  1.
       -3    1    3    3    0  502 -0.53764001011E+03  0.25407469991E+03  0.75102296002E+02  0.59937559066E+03  0.10100000352E+00 0. -1.
</event>
<event>
 5   0  0.5732931E-05  0.1200062E+04  0.7818609E-02  0.9112803E-01
       -1   -1    0    0    0  501  0.00000000000E+00  0.00000000000E+00  0.54254591386E+03  0.54254591388E+03  0.50400001928E-02 0.  1.
        1   -1    0    0  501    0  0.00000000000E+00  0.00000000000E+00 -0.66360633939E+03  0.66360633941E+03  0.50400001928E-02 0. -1.
    10030    2    1    2    0    0  0.00000000000E+00  0.00000000000E+00 -0.12106042553E+03  0.12061522533E+04  0.12000615115E+04 0.  0.
        4    1    3    3  502    0 -0.39585548694E+03 -0.20187598344E+03 -0.46578853187E+03  0.64375154256E+03  0.12699999809E+01 0. -1.
       -4    1    3    3    0  502  0.39585548694E+03  0.20187598344E+03  0.34472810634E+03  0.56240071073E+03  0.12699999809E+01 0.  1.
</event>
<event>
 5   0  0.5745487E-05  0.1200304E+04  0.7818609E-02  0.9112591E-01
        1   -1    0    0  501    0  0.00000000000E+00  0.00000000000E+00  0.82072726521E+03  0.82072726523E+03  0.50400001928E-02 0.  1.
       -1   -1    0    0    0  501  0.00000000000E+00  0.00000000000E+00 -0.43885752058E+03  0.43885752061E+03  0.50400001928E-02 0. -1.
    10030    2    1    2    0    0  0.00000000000E+00  0.00000000000E+00  0.38186974462E+03  0.12595847858E+04  0.12003038494E+04 0.  0.
        3    1    3    3  502    0  0.50302998758E+03  0.21069050490E+03  0.45381169407E+03  0.70948905639E+03  0.10100000352E+00 0. -1.
       -3    1    3    3    0  502 -0.50302998758E+03 -0.21069050490E+03 -0.71941949448E+02  0.55009572945E+03  0.10100000352E+00 0.  1.
</event>
<event>
 5   0  0.5625746E-05  0.1200052E+04  0.7818609E-02  0.9112811E-01
       -1   -1    0    0    0  501  0.00000000000E+00  0.00000000000E+00  0.82697351662E+03  0.82697351664E+03  0.50400001928E-02 0. -1.
        1   -1    0    0  501    0  0.00000000000E+00  0.00000000000E+00 -0.43536031358E+03  0.43536031361E+03  0.50400001928E-02 0.  1.
    10030    2    1    2    0    0  0.00000000000E+00  0.00000000000E+00  0.39161320304E+03  0.12623338302E+04  0.12000524148E+04 0.  0.
        5    1    3    3  502    0 -0.15517858199E+03  0.51622699352E+02  0.80305761641E+03  0.81955409868E+03  0.46999998093E+01 0. -1.
       -5    1    3    3    0  502  0.15517858199E+03 -0.51622699352E+02 -0.41144441337E+03  0.44277973156E+03  0.46999998093E+01 0.  1.
</event>
<event>
 5   0  0.5625746E-05  0.1200408E+04  0.7818609E-02  0.9112500E-01
       -1   -1    0    0    0  501  0.00000000000E+00  0.00000000000E+00  0.54152605744E+03  0.54152605746E+03  0.50400001928E-02 0. -1.
        1   -1    0    0  501    0  0.00000000000E+00  0.00000000000E+00 -0.66523976390E+03  0.66523976391E+03  0.50400001928E-02 0.  1.
    10030    2    1    2    0    0  0.00000000000E+00  0.00000000000E+00 -0.12371370646E+03  0.12067658214E+04  0.12004077084E+04 0.  0.
        5    1    3    3  502    0 -0.15167689356E+03  0.53936610637E+03 -0.27817300170E+03  0.62555893856E+03  0.46999998093E+01 0.  1.
       -5    1    3    3    0  502  0.15167689356E+03 -0.53936610637E+03  0.15445929525E+03  0.58120688281E+03  0.46999998093E+01 0. -1.
</event>
<event>
 5   0  0.9941209E-05  0.1198885E+04  0.7818609E-02  0.9113833E-01
       -2   -1    0    0    0  501  0.00000000000E+00  0.00000000000E+00  0.51559611321E+03  0.51559611322E+03  0.25500000920E-02 0. -1.
        2   -1    0    0  501    0  0.00000000000E+00  0.00000000000E+00 -0.69692344681E+03  0.69692344682E+03  0.25500000920E-02 0.  1.
    10030    2    1    2    0    0  0.00000000000E+00  0.00000000000E+00 -0.18132733360E+03  0.12125195600E+04  0.11988845155E+04 0.  0.
        2    1    3    3  502    0  0.58352659333E+03  0.13182447016E+03 -0.12917619613E+03  0.61201917103E+03  0.25500000920E-02 0. -1.
       -2    1    3    3    0  502 -0.58352659333E+03 -0.13182447016E+03 -0.52151137463E+02  0.60050038901E+03  0.25500000920E-02 0.  1.
</event>
<event>
 5   0  0.9941209E-05  0.1197260E+04  0.7818609E-02  0.9115259E-01
       -2   -1    0    0    0  501  0.00000000000E+00  0.00000000000E+00  0.30072479919E+03  0.30072479920E+03  0.25500000920E-02 0. -1.
        2   -1    0    0  501    0  0.00000000000E+00  0.00000000000E+00 -0.11916465141E+04  0.11916465141E+04  0.25500000920E-02 0.  1.
    10030    2    1    2    0    0  0.00000000000E+00  0.00000000000E+00 -0.89092171494E+03  0.14923713133E+04  0.11972596355E+04 0.  0.
        2    1    3    3  502    0  0.53611524031E+03  0.51874334723E+02 -0.77109568447E+03  0.94058442051E+03  0.25500000920E-02 0.  1.
       -2    1    3    3    0  502 -0.53611524031E+03 -0.51874334723E+02 -0.11982603047E+03  0.55178689281E+03  0.25500000920E-02 0. -1.
</event>
<event>
 5   0  0.5745487E-05  0.1200206E+04  0.7818609E-02  0.9112677E-01
       -1   -1    0    0    0  501  0.00000000000E+00  0.00000000000E+00  0.59704761779E+03  0.59704761781E+03  0.50400001928E-02 0. -1.
        1   -1    0    0  501    0  0.00000000000E+00  0.00000000000E+00 -0.60317352617E+03  0.60317352619E+03  0.50400001928E-02 0.  1.
    10030    2    1    2    0    0  0.00000000000E+00  0.00000000000E+00 -0.61259083768E+01  0.12002211440E+04  0.12002055106E+04 0.  0.
        3    1    3    3  502    0  0.45979323824E+03  0.23153350041E+03 -0.31145912898E+03  0.60168462085E+03  0.10100000352E+00 0.  1.
       -3    1    3    3    0  502 -0.45979323824E+03 -0.23153350041E+03  0.30533322060E+03  0.59853652315E+03  0.10100000352E+00 0. -1.
</event>
<event>
 5   0  0.5620246E-05  0.1200105E+04  0.7818609E-02  0.9112765E-01
        1   -1    0    0  501    0  0.00000000000E+00  0.00000000000E+00  0.50195886497E+03  0.50195886499E+03  0.50400001928E-02 0.  1.
       -1   -1    0    0    0  501  0.00000000000E+00  0.00000000000E+00 -0.71731580244E+03  0.71731580246E+03  0.50400001928E-02 0. -1.
    10030    2    1    2    0    0  0.00000000000E+00  0.00000000000E+00 -0.21535693747E+03  0.12192746675E+04  0.12001050388E+04 0.  0.
        1    1    3    3  502    0  0.37800995228E+03  0.17934349835E+03 -0.54467385824E+03  0.68682255809E+03  0.50400001928E-02 0. -1.
       -1    1    3    3    0  502 -0.37800995228E+03 -0.17934349835E+03  0.32931692077E+03  0.53245210936E+03  0.50400001928E-02 0.  1.
</event>
<event>
 5   0  0.1012657E-04  0.1200165E+04  0.7818609E-02  0.9112712E-01
        2   -1    0    0  501    0  0.00000000000E+00  0.00000000000E+00  0.32596583256E+03  0.32596583257E+03  0.25500000920E-02 0.  1.
       -2   -1    0    0    0  501  0.00000000000E+00  0.00000000000E+00 -0.11047137063E+04  0.11047137063E+04  0.25500000920E-02 0. -1.
    10030    2    1    2    0    0  0.00000000000E+00  0.00000000000E+00 -0.77874787373E+03  0.14306795389E+04  0.12001648604E+04 0.  0.
        1    1    3    3  502    0  0.45187458565E+03  0.35826393021E+03 -0.58725468499E+03  0.82305027180E+03  0.50400001928E-02 0. -1.
       -1    1    3    3    0  502 -0.45187458565E+03 -0.35826393021E+03 -0.19149318874E+03  0.60762926707E+03  0.50400001928E-02 0.  1.
</event>
<event>
 5   0  0.1004006E-04  0.1200233E+04  0.7818609E-02  0.9112653E-01
       -2   -1    0    0    0  501  0.00000000000E+00  0.00000000000E+00  0.24102953795E+03  0.24102953797E+03  0.25500000920E-02 0. -1.
        2   -1    0    0  501    0  0.00000000000E+00  0.00000000000E+00 -0.14941732404E+04  0.14941732404E+04  0.25500000920E-02 0.  1.
    10030    2    1    2    0    0  0.00000000000E+00  0.00000000000E+00 -0.12531437025E+04  0.17352027784E+04  0.12002331203E+04 0.  0.
        5    1    3    3  502    0 -0.45192171125E+02  0.14611356289E+03 -0.14654968584E+04  0.14734634836E+04  0.46999998093E+01 0.  1.
       -5    1    3    3    0  502  0.45192171125E+02 -0.14611356289E+03  0.21235315593E+03  0.26173929477E+03  0.46999998093E+01 0. -1.
</event>
<event>
 5   0  0.5447807E-05  0.1196996E+04  0.7818609E-02  0.9115490E-01
       -1   -1    0    0    0  501  0.00000000000E+00  0.00000000000E+00  0.38322192706E+03  0.38322192710E+03  0.50400001928E-02 0. -1.
        1   -1    0    0  501    0  0.00000000000E+00  0.00000000000E+00 -0.93470537173E+03  0.93470537174E+03  0.50400001928E-02 0.  1.
    10030    2    1    2    0    0  0.00000000000E+00  0.00000000000E+00 -0.55148344467E+03  0.13179272988E+04  0.11969955619E+04 0.  0.
        2    1    3    3  502    0  0.81599867141E+01  0.47582725096E+03 -0.67534325145E+03  0.82617592886E+03  0.25500000920E-02 0.  1.
       -2    1    3    3    0  502 -0.81599867141E+01 -0.47582725096E+03  0.12385980678E+03  0.49175136999E+03  0.25500000920E-02 0. -1.
</event>
<event>
 5   0  0.5447807E-05  0.1200009E+04  0.7818609E-02  0.9112849E-01
       -1   -1    0    0    0  501  0.00000000000E+00  0.00000000000E+00  0.73819264072E+03  0.73819264074E+03  0.50400001928E-02 0. -1.
        1   -1    0    0  501    0  0.00000000000E+00  0.00000000000E+00 -0.48768501609E+03  0.48768501611E+03  0.50400001928E-02 0.  1.
    10030    2    1    2    0    0  0.00000000000E+00  0.00000000000E+00  0.25050762463E+03  0.12258776569E+04  0.12000091498E+04 0.  0.
        2    1    3    3  502    0 -0.36592044144E+03 -0.23101056319E+03  0.54983558201E+03  0.69970194870E+03  0.25500000920E-02 0. -1.
       -2    1    3    3    0  502  0.36592044144E+03  0.23101056319E+03 -0.29932795737E+03  0.52617570815E+03  0.25500000920E-02 0.  1.
</event>
<event>
 5   0  0.5745487E-05  0.1199862E+04  0.7818609E-02  0.9112977E-01
        1   -1    0    0  501    0  0.00000000000E+00  0.00000000000E+00  0.25641089811E+03  0.25641089816E+03  0.50400001928E-02 0. -1.
       -1   -1    0    0    0  501  0.00000000000E+00  0.00000000000E+00 -0.14036739143E+04  0.14036739143E+04  0.50400001928E-02 0.  1.
    10030    2    1    2    0    0  0.00000000000E+00  0.00000000000E+00 -0.11472630162E+04  0.16600848125E+04  0.11998621405E+04 0.  0.
        3    1    3    3  502    0  0.29353434889E+03 -0.42599466926E+03 -0.99393281003E+03  0.11205071679E+04  0.10100000352E+00 0.  1.
       -3    1    3    3    0  502 -0.29353434889E+03  0.42599466926E+03 -0.15333020616E+03  0.53957764459E+03  0.10100000352E+00 0. -1.
</event>
<event>
 5   0  0.1023063E-04  0.1201831E+04  0.7818609E-02  0.9111255E-01
        2   -1    0    0  501    0  0.00000000000E+00  0.00000000000E+00  0.97816615666E+03  0.97816615666E+03  0.25500000920E-02 0.  1.
       -2   -1    0    0    0  501  0.00000000000E+00  0.00000000000E+00 -0.36915978502E+03  0.36915978503E+03  0.25500000920E-02 0. -1.
    10030    2    1    2    0    0  0.00000000000E+00  0.00000000000E+00  0.60900637164E+03  0.13473259417E+04  0.12018312829E+04 0.  0.
        3    1    3    3  502    0 -0.11848611791E+03 -0.33056761234E+02  0.96390033171E+03  0.97171784448E+03  0.10100000352E+00 0.  1.
       -3    1    3    3    0  502  0.11848611791E+03  0.33056761234E+02 -0.35489396007E+03  0.37560809722E+03  0.10100000352E+00 0. -1.
</event>
<event>
 5   0  0.5625746E-05  0.1199407E+04  0.7818609E-02  0.9113376E-01
        1   -1    0    0  501    0  0.00000000000E+00  0.00000000000E+00  0.85633564341E+03  0.85633564342E+03  0.50400001928E-02 0. -1.
       -1   -1    0    0    0  501  0.00000000000E+00  0.00000000000E+00 -0.41998024726E+03  0.41998024729E+03  0.50400001928E-02 0.  1.
    10030    2    1    2    0    0  0.00000000000E+00  0.00000000000E+00  0.43635539614E+03  0.12763158907E+04  0.11994066121E+04 0.  0.
        5    1    3    3  502    0 -0.31210821511E+03  0.34889321896E+03 -0.18066816453E+03  0.50179785955E+03  0.46999998093E+01 0.  1.
       -5    1    3    3    0  502  0.31210821511E+03 -0.34889321896E+03  0.61702356067E+03  0.77451803116E+03  0.46999998093E+01 0. -1.
</event>
<event>
 5   0  0.5447807E-05  0.1200037E+04  0.7818609E-02  0.9112824E-01
       -1   -1    0    0    0  501  0.00000000000E+00  0.00000000000E+00  0.19221534775E+03  0.19221534782E+03  0.50400001928E-02 0. -1.
        1   -1    0    0  501    0  0.00000000000E+00  0.00000000000E+00 -0.18730136555E+04  0.18730136555E+04  0.50400001928E-02 0.  1.
    10030    2    1    2    0    0  0.00000000000E+00  0.00000000000E+00 -0.16807983078E+04  0.20652290034E+04  0.12000366181E+04 0.  0.
        2    1    3    3  502    0 -0.57549423616E+02 -0.51135171474E+03 -0.13714784554E+04  0.14648363956E+04  0.25500000920E-02 0.  1.
       -2    1    3    3    0  502  0.57549423616E+02  0.51135171474E+03 -0.30931985237E+03  0.60039260772E+03  0.25500000920E-02 0. -1.
</event>
<event>
 5   0  0.1023063E-04  0.1199969E+04  0.7818609E-02  0.9112884E-01
        2   -1    0    0  501    0  0.00000000000E+00  0.00000000000E+00  0.17760146301E+04  0.17760146301E+04  0.25500000920E-02 0. -1.
       -2   -1    0    0    0  501  0.00000000000E+00  0.00000000000E+00 -0.20269042679E+03  0.20269042681E+03  0.25500000920E-02 0.  1.
    10030    2    1    2    0    0  0.00000000000E+00  0.00000000000E+00  0.15733242033E+04  0.19787050569E+04  0.11999686052E+04 0.  0.
        3    1    3    3  502    0  0.10420554276E+03 -0.33834827197E+03 -0.12095125514E+02  0.35423812690E+03  0.10100000352E+00 0.  1.
       -3    1    3    3    0  502 -0.10420554276E+03  0.33834827197E+03  0.15854193289E+04  0.16244669300E+04  0.10100000352E+00 0. -1.
</event>
<event>
 5   0  0.1004006E-04  0.1199921E+04  0.7818609E-02  0.9112926E-01
        2   -1    0    0  501    0  0.00000000000E+00  0.00000000000E+00  0.15833089861E+04  0.15833089861E+04  0.25500000920E-02 0. -1.
       -2   -1    0    0    0  501  0.00000000000E+00  0.00000000000E+00 -0.22734185456E+03  0.22734185457E+03  0.25500000920E-02 0.  1.
    10030    2    1    2    0    0  0.00000000000E+00  0.00000000000E+00  0.13559671316E+04  0.18106508407E+04  0.11999206661E+04 0.  0.
        5    1    3    3  502    0  0.38877572434E+03 -0.41404086231E+03  0.38634146247E+03  0.68691936581E+03  0.46999998093E+01 0. -1.
       -5    1    3    3    0  502 -0.38877572434E+03  0.41404086231E+03  0.96962566910E+03  0.11237314749E+04  0.46999998093E+01 0.  1.
</event>
<event>
 5   0  0.1004006E-04  0.1199718E+04  0.7818609E-02  0.9113104E-01
        2   -1    0    0  501    0  0.00000000000E+00  0.00000000000E+00  0.11778131539E+04  0.11778131539E+04  0.25500000920E-02 0. -1.
       -2   -1    0    0    0  501  0.00000000000E+00  0.00000000000E+00 -0.30550740567E+03  0.30550740568E+03  0.25500000920E-02 0.  1.
    10030    2    1    2    0    0  0.00000000000E+00  0.00000000000E+00  0.87230574822E+03  0.14833205596E+04  0.11997177018E+04 0.  0.
        5    1    3    3  502    0  0.23179159536E+03  0.99687541752E+02  0.11089856297E+04  0.11373373144E+04  0.46999998093E+01 0. -1.
       -5    1    3    3    0  502 -0.23179159536E+03 -0.99687541752E+02 -0.23667988152E+03  0.34598324522E+03  0.46999998093E+01 0.  1.
</event>
<event>
 5   0  0.1004006E-04  0.1199919E+04  0.7818609E-02  0.9112928E-01
       -2   -1    0    0    0  501  0.00000000000E+00  0.00000000000E+00  0.20847276295E+03  0.20847276296E+03  0.25500000920E-02 0.  1.
        2   -1    0    0  501    0  0.00000000000E+00  0.00000000000E+00 -0.17266100320E+04  0.17266100320E+04  0.25500000920E-02 0. -1.
    10030    2    1    2    0    0  0.00000000000E+00  0.00000000000E+00 -0.15181372691E+04  0.19350827950E+04  0.11999186038E+04 0.  0.
        5    1    3    3  502    0  0.23510094648E+03 -0.41599819895E+03 -0.13441000708E+04  0.14265181551E+04  0.46999998093E+01 0. -1.
       -5    1    3    3    0  502 -0.23510094648E+03  0.41599819895E+03 -0.17403719830E+03  0.50856463990E+03  0.46999998093E+01 0.  1.
</event>
<event>
 5   0  0.9941209E-05  0.1200725E+04  0.7818609E-02  0.9112222E-01
        2   -1    0    0  501    0  0.00000000000E+00  0.00000000000E+00  0.10977163116E+04  0.10977163116E+04  0.25500000920E-02 0. -1.
       -2   -1    0    0    0  501  0.00000000000E+00  0.00000000000E+00 -0.32834985410E+03  0.32834985411E+03  0.25500000920E-02 0.  1.
    10030    2    1    2    0    0  0.00000000000E+00  0.00000000000E+00  0.76936645753E+03  0.14260661658E+04  0.12007247658E+04 0.  0.
        2    1    3    3  502    0 -0.37048894198E+03 -0.69635949323E+02  0.93962410814E+03  0.10124251509E+04  0.25500000920E-02 0. -1.
       -2    1    3    3    0  502  0.37048894198E+03  0.69635949323E+02 -0.17025765061E+03  0.41364101485E+03  0.25500000920E-02 0.  1.
</event>
<event>
 5   0  0.9838215E-05  0.1200467E+04  0.7818609E-02  0.9112448E-01
       -2   -1    0    0    0  501  0.00000000000E+00  0.00000000000E+00  0.22965019321E+03  0.22965019322E+03  0.25500000920E-02 0.  1.
        2   -1    0    0  501    0  0.00000000000E+00  0.00000000000E+00 -0.15688218344E+04  0.15688218344E+04  0.25500000920E-02 0. -1.
    10030    2    1    2    0    0  0.00000000000E+00  0.00000000000E+00 -0.13391716412E+04  0.17984720276E+04  0.12004669715E+04 0.  0.
        4    1    3    3  502    0 -0.25374395066E+03 -0.49144753840E+03 -0.10189198731E+04  0.11593558540E+04  0.12699999809E+01 0. -1.
       -4    1    3    3    0  502  0.25374395066E+03  0.49144753840E+03 -0.32025176804E+03  0.63911617358E+03  0.12699999809E+01 0.  1.
</event>
<event>
 5   0  0.1023063E-04  0.1199134E+04  0.7818609E-02  0.9113615E-01
       -2   -1    0    0    0  501  0.00000000000E+00  0.00000000000E+00  0.70696161506E+03  0.70696161507E+03  0.25500000920E-02 0. -1.
        2   -1    0    0  501    0  0.00000000000E+00  0.00000000000E+00 -0.50848685511E+03  0.50848685511E+03  0.25500000920E-02 0.  1.
    10030    2    1    2    0    0  0.00000000000E+00  0.00000000000E+00  0.19847475996E+03  0.12154484702E+04  0.11991341682E+04 0.  0.
        3    1    3    3  502    0 -0.12047417847E+03 -0.18292836455E+03  0.66495602484E+03  0.70010237780E+03  0.10100000352E+00 0. -1.
       -3    1    3    3    0  502  0.12047417847E+03  0.18292836455E+03 -0.46648126489E+03  0.51534609237E+03  0.10100000352E+00 0.  1.
</event>
<event>
 5   0  0.1004006E-04  0.1200141E+04  0.7818609E-02  0.9112733E-01
       -2   -1    0    0    0  501  0.00000000000E+00  0.00000000000E+00  0.29308411008E+03  0.29308411009E+03  0.25500000920E-02 0.  1.
        2   -1    0    0  501    0  0.00000000000E+00  0.00000000000E+00 -0.12286052683E+04  0.12286052683E+04  0.25500000920E-02 0. -1.
    10030    2    1    2    0    0  0.00000000000E+00  0.00000000000E+00 -0.93552115817E+03  0.15216893783E+04  0.12001411279E+04 0.  0.
        5    1    3    3  502    0 -0.27061981678E+03  0.50588629395E+03 -0.24485596751E+03  0.62380490737E+03  0.46999998093E+01 0. -1.
       -5    1    3    3    0  502  0.27061981678E+03 -0.50588629395E+03 -0.69066519066E+03  0.89788447098E+03  0.46999998093E+01 0.  1.
</event>
<event>
 5   0  0.9838215E-05  0.1199887E+04  0.7818609E-02  0.9112956E-01
        2   -1    0    0  501    0  0.00000000000E+00  0.00000000000E+00  0.65731007501E+03  0.65731007501E+03  0.25500000920E-02 0. -1.
       -2   -1    0    0    0  501  0.00000000000E+00  0.00000000000E+00 -0.54758332677E+03  0.54758332678E+03  0.25500000920E-02 0.  1.
    10030    2    1    2    0    0  0.00000000000E+00  0.00000000000E+00  0.10972674824E+03  0.12048934018E+04  0.11998867240E+04 0.  0.
        4    1    3    3  502    0 -0.16087997461E+03  0.15948752037E+03 -0.50298302523E+03  0.55164496912E+03  0.12699999809E+01 0.  1.
       -4    1    3    3    0  502  0.16087997461E+03 -0.15948752037E+03  0.61270977347E+03  0.65324843267E+03  0.12699999809E+01 0. -1.
</event>
<event>
 5   0  0.3839750E-05  0.1199071E+04  0.7818609E-02  0.9113670E-01
       -3   -1    0    0    0  501  0.00000000000E+00  0.00000000000E+00  0.77532301287E+03  0.77532301945E+03  0.10100000352E+00 0.  1.
        3   -1    0    0  501    0  0.00000000000E+00  0.00000000000E+00 -0.46360424899E+03  0.46360425999E+03  0.10100000352E+00 0. -1.
    10030    2    1    2    0    0  0.00000000000E+00  0.00000000000E+00  0.31171876387E+03  0.12389272794E+04  0.11990713974E+04 0.  0.
        2    1    3    3  502    0 -0.59257405698E+03  0.74988845178E+02  0.10241271523E+03  0.60601625733E+03  0.25500000920E-02 0. -1.
       -2    1    3    3    0  502  0.59257405698E+03 -0.74988845178E+02  0.20930604864E+03  0.63291102211E+03  0.25500000920E-02 0.  1.
</event>
<event>
 5   0  0.1012657E-04  0.1200164E+04  0.7818609E-02  0.9112713E-01
       -2   -1    0    0    0  501  0.00000000000E+00  0.00000000000E+00  0.17286598002E+03  0.17286598004E+03  0.25500000920E-02 0.  1.
        2   -1    0    0  501    0  0.00000000000E+00  0.00000000000E+00 -0.20831074208E+04  0.20831074208E+04  0.25500000920E-02 0. -1.
    10030    2    1    2    0    0  0.00000000000E+00  0.00000000000E+00 -0.19102414408E+04  0.22559734009E+04  0.12001639985E+04 0.  0.
        1    1    3    3  502    0 -0.14351298808E+03 -0.54643940204E+03 -0.57494090781E+03  0.80607012434E+03  0.50400001928E-02 0.  1.
       -1    1    3    3    0  502  0.14351298808E+03  0.54643940204E+03 -0.13353005330E+04  0.14499032765E+04  0.50400001928E-02 0. -1.
</event>
<event>
 5   0  0.5447807E-05  0.1198689E+04  0.7818609E-02  0.9114005E-01
        1   -1    0    0  501    0  0.00000000000E+00  0.00000000000E+00  0.11642425914E+04  0.11642425914E+04  0.50400001928E-02 0.  1.
       -1   -1    0    0    0  501  0.00000000000E+00  0.00000000000E+00 -0.30853850948E+03  0.30853850952E+03  0.50400001928E-02 0. -1.
    10030    2    1    2    0    0  0.00000000000E+00  0.00000000000E+00  0.85570408193E+03  0.14727811009E+04  0.11986887400E+04 0.  0.
        2    1    3    3  502    0 -0.34758518064E+03 -0.48824643835E+03  0.43238836033E+03  0.73902620827E+03  0.25500000920E-02 0. -1.
       -2    1    3    3    0  502  0.34758518064E+03  0.48824643835E+03  0.42331572160E+03  0.73375489267E+03  0.25500000920E-02 0.  1.
</event>
<event>
 5   0  0.1023063E-04  0.1199909E+04  0.7818609E-02  0.9112936E-01
       -2   -1    0    0    0  501  0.00000000000E+00  0.00000000000E+00  0.18870833038E+03  0.18870833040E+03  0.25500000920E-02 0.  1.
        2   -1    0    0  501    0  0.00000000000E+00  0.00000000000E+00 -0.19074155893E+04  0.19074155893E+04  0.25500000920E-02 0. -1.
    10030    2    1    2    0    0  0.00000000000E+00  0.00000000000E+00 -0.17187072589E+04  0.20961239197E+04  0.11999086819E+04 0.  0.
        3    1    3    3  502    0 -0.35615746977E+03  0.13163836535E+03 -0.47901924100E+02  0.38271583066E+03  0.10100000352E+00 0.  1.
       -3    1    3    3    0  502  0.35615746977E+03 -0.13163836535E+03 -0.16708053348E+04  0.17134080890E+04  0.10100000352E+00 0. -1.
</event>
<event>
 5   0  0.5732931E-05  0.1200310E+04  0.7818609E-02  0.9112585E-01
       -1   -1    0    0    0  501  0.00000000000E+00  0.00000000000E+00  0.48009899437E+03  0.48009899439E+03  0.50400001928E-02 0. -1.
        1   -1    0    0  501    0  0.00000000000E+00  0.00000000000E+00 -0.75023273852E+03  0.75023273853E+03  0.50400001928E-02 0.  1.
    10030    2    1    2    0    0  0.00000000000E+00  0.00000000000E+00 -0.27013374415E+03  0.12303317329E+04  0.12003099322E+04 0.  0.
        4    1    3    3  502    0 -0.59734212325E+03  0.14285840843E+02 -0.19271111888E+03  0.62782233610E+03  0.12699999809E+01 0. -1.
       -4    1    3    3    0  502  0.59734212325E+03 -0.14285840843E+02 -0.77422625268E+02  0.60250939683E+03  0.12699999809E+01 0.  1.
</event>
<event>
 5   0  0.5620246E-05  0.1194007E+04  0.7818609E-02  0.9118119E-01
       -1   -1    0    0    0  501  0.00000000000E+00  0.00000000000E+00  0.41122584421E+03  0.41122584424E+03  0.50400001928E-02 0. -1.
        1   -1    0    0  501    0  0.00000000000E+00  0.00000000000E+00 -0.86670885188E+03  0.86670885189E+03  0.50400001928E-02 0.  1.
    10030    2    1    2    0    0  0.00000000000E+00  0.00000000000E+00 -0.45548300766E+03  0.12779346961E+04  0.11940068330E+04 0.  0.
        1    1    3    3  502    0 -0.17766964071E+03 -0.97384878211E+01 -0.83766812974E+03  0.85635812309E+03  0.50400001928E-02 0.  1.
       -1    1    3    3    0  502  0.17766964071E+03  0.97384878211E+01  0.38218512208E+03  0.42157657304E+03  0.50400001928E-02 0. -1.
</event>
<event>
 5   0  0.5625746E-05  0.1199706E+04  0.7818609E-02  0.9113114E-01
        1   -1    0    0  501    0  0.00000000000E+00  0.00000000000E+00  0.44679714000E+03  0.44679714003E+03  0.50400001928E-02 0. -1.
       -1   -1    0    0    0  501  0.00000000000E+00  0.00000000000E+00 -0.80534031017E+03  0.80534031019E+03  0.50400001928E-02 0.  1.
    10030    2    1    2    0    0  0.00000000000E+00  0.00000000000E+00 -0.35854317017E+03  0.12521374502E+04  0.11997062096E+04 0.  0.
        5    1    3    3  502    0  0.43730816920E+03  0.72851196117E+01  0.24916853297E+03  0.50338708330E+03  0.46999998093E+01 0. -1.
       -5    1    3    3    0  502 -0.43730816920E+03 -0.72851196117E+01 -0.60771170314E+03  0.74875036691E+03  0.46999998093E+01 0.  1.
</event>
<event>
 5   0  0.9838215E-05  0.1200112E+04  0.7818609E-02  0.9112759E-01
        2   -1    0    0  501    0  0.00000000000E+00  0.00000000000E+00  0.18113188691E+04  0.18113188691E+04  0.25500000920E-02 0.  1.
       -2   -1    0    0    0  501  0.00000000000E+00  0.00000000000E+00 -0.19878730560E+03  0.19878730562E+03  0.25500000920E-02 0. -1.
    10030    2    1    2    0    0  0.00000000000E+00  0.00000000000E+00  0.16125315635E+04  0.20101061747E+04  0.12001119907E+04 0.  0.
        4    1    3    3  502    0 -0.11028526552E+03 -0.53403050179E+03  0.12257156433E+04  0.13415408558E+04  0.12699999809E+01 0.  1.
       -4    1    3    3    0  502  0.11028526552E+03  0.53403050179E+03  0.38681592019E+03  0.66856531891E+03  0.12699999809E+01 0. -1.
</event>
<event>
 5   0  0.5447807E-05  0.1199916E+04  0.7818609E-02  0.9112930E-01
        1   -1    0    0  501    0  0.00000000000E+00  0.00000000000E+00  0.20916276293E+04  0.20916276293E+04  0.50400001928E-02 0. -1.
       -1   -1    0    0    0  501  0.00000000000E+00  0.00000000000E+00 -0.17209081092E+03  0.17209081099E+03  0.50400001928E-02 0.  1.
    10030    2    1    2    0    0  0.00000000000E+00  0.00000000000E+00  0.19195368184E+04  0.22637184403E+04  0.11999164887E+04 0.  0.
        2    1    3    3  502    0 -0.65057152703E+02  0.37238439650E+03  0.18386869061E+04  0.18771446696E+04  0.25500000920E-02 0. -1.
       -2    1    3    3    0  502  0.65057152703E+02 -0.37238439650E+03  0.80849912280E+02  0.38657377071E+03  0.25500000920E-02 0.  1.
</event>
<event>
 5   0  0.9941209E-05  0.1200187E+04  0.7818609E-02  0.9112693E-01
       -2   -1    0    0    0  501  0.00000000000E+00  0.00000000000E+00  0.81902166861E+03  0.81902166862E+03  0.25500000920E-02 0.  1.
        2   -1    0    0  501    0  0.00000000000E+00  0.00000000000E+00 -0.43968567526E+03  0.43968567526E+03  0.25500000920E-02 0. -1.
    10030    2    1    2    0    0  0.00000000000E+00  0.00000000000E+00  0.37933599336E+03  0.12587073439E+04  0.12001868112E+04 0.  0.
        2    1    3    3  502    0  0.22968464203E+03 -0.55378920993E+03  0.21690692021E+03  0.63756265250E+03  0.25500000920E-02 0. -1.
       -2    1    3    3    0  502 -0.22968464203E+03  0.55378920993E+03  0.16242907315E+03  0.62114469138E+03  0.25500000920E-02 0.  1.
</event>
<event>
 5   0  0.1012657E-04  0.1198554E+04  0.7818609E-02  0.9114123E-01
       -2   -1    0    0    0  501  0.00000000000E+00  0.00000000000E+00  0.29351338538E+03  0.29351338539E+03  0.25500000920E-02 0. -1.
        2   -1    0    0  501    0  0.00000000000E+00  0.00000000000E+00 -0.12235652617E+04  0.12235652617E+04  0.25500000920E-02 0.  1.
    10030    2    1    2    0    0  0.00000000000E+00  0.00000000000E+00 -0.93005187630E+03  0.15170786471E+04  0.11985537655E+04 0.  0.
        1    1    3    3  502    0  0.48014706459E+03 -0.69519397725E+02 -0.19740672324E+02  0.48555519198E+03  0.50400001928E-02 0. -1.
       -1    1    3    3    0  502 -0.48014706459E+03  0.69519397725E+02 -0.91031120397E+03  0.10315234551E+04  0.50400001928E-02 0.  1.
</event>
<event>
 5   0  0.1004006E-04  0.1196940E+04  0.7818609E-02  0.9115539E-01
       -2   -1    0    0    0  501  0.00000000000E+00  0.00000000000E+00  0.54172463941E+03  0.54172463942E+03  0.25500000920E-02 0.  1.
        2   -1    0    0  501    0  0.00000000000E+00  0.00000000000E+00 -0.66115964232E+03  0.66115964233E+03  0.25500000920E-02 0. -1.
    10030    2    1    2    0    0  0.00000000000E+00  0.00000000000E+00 -0.11943500291E+03  0.12028842817E+04  0.11969402138E+04 0.  0.
        5    1    3    3  502    0 -0.61600078823E+02  0.40404477615E+03  0.37960054108E+03  0.55782202505E+03  0.46999998093E+01 0.  1.
       -5    1    3    3    0  502  0.61600078823E+02 -0.40404477615E+03 -0.49903554399E+03  0.64506225669E+03  0.46999998093E+01 0. -1.
</event>
<event>
 5   0  0.5447807E-05  0.1199937E+04  0.7818609E-02  0.9112911E-01
        1   -1    0    0  501    0  0.00000000000E+00  0.00000000000E+00  0.16122691099E+04  0.16122691099E+04  0.50400001928E-02 0. -1.
       -1   -1    0    0    0  501  0.00000000000E+00  0.00000000000E+00 -0.22326444258E+03  0.22326444264E+03  0.50400001928E-02 0.  1.
    10030    2    1    2    0    0  0.00000000000E+00  0.00000000000E+00  0.13890046673E+04  0.18355335525E+04  0.11999372720E+04 0.  0.
        2    1    3    3  502    0 -0.44355985416E+03 -0.75940555146E+02  0.13014834617E+04  0.13770880557E+04  0.25500000920E-02 0. -1.
       -2    1    3    3    0  502  0.44355985416E+03  0.75940555146E+02  0.87521205653E+02  0.45844549685E+03  0.25500000920E-02 0.  1.
</event>
<event>
 5   0  0.5732931E-05  0.1199725E+04  0.7818609E-02  0.9113097E-01
        1   -1    0    0  501    0  0.00000000000E+00  0.00000000000E+00  0.49396457009E+03  0.49396457012E+03  0.50400001928E-02 0.  1.
       -1   -1    0    0    0  501  0.00000000000E+00  0.00000000000E+00 -0.72846308078E+03  0.72846308080E+03  0.50400001928E-02 0. -1.
    10030    2    1    2    0    0  0.00000000000E+00  0.00000000000E+00 -0.23449851069E+03  0.12224276509E+04  0.11997248894E+04 0.  0.
        4    1    3    3  502    0 -0.50567021162E+02  0.57105721705E+03 -0.29714036236E+03  0.64572236807E+03  0.12699999809E+01 0. -1.
       -4    1    3    3    0  502  0.50567021162E+02 -0.57105721705E+03  0.62641851675E+02  0.57670528284E+03  0.12699999809E+01 0.  1.
</event>
<event>
 5   0  0.9838215E-05  0.1200477E+04  0.7818609E-02  0.9112439E-01
        2   -1    0    0  501    0  0.00000000000E+00  0.00000000000E+00  0.89177360486E+03  0.89177360487E+03  0.25500000920E-02 0. -1.
       -2   -1    0    0    0  501  0.00000000000E+00  0.00000000000E+00 -0.40401090295E+03  0.40401090296E+03  0.25500000920E-02 0.  1.
    10030    2    1    2    0    0  0.00000000000E+00  0.00000000000E+00  0.48776270191E+03  0.12957845078E+04  0.12004770041E+04 0.  0.
        4    1    3    3  502    0 -0.54193455351E+03  0.20762714176E+03  0.78475212502E+02  0.58562962883E+03  0.12699999809E+01 0. -1.
       -4    1    3    3    0  502  0.54193455351E+03 -0.20762714176E+03  0.40928748941E+03  0.71015487900E+03  0.12699999809E+01 0.  1.
</event>
<event>
 5   0  0.1023063E-04  0.1199672E+04  0.7818609E-02  0.9113144E-01
       -2   -1    0    0    0  501  0.00000000000E+00  0.00000000000E+00  0.43461627544E+03  0.43461627545E+03  0.25500000920E-02 0. -1.
        2   -1    0    0  501    0  0.00000000000E+00  0.00000000000E+00 -0.82786357685E+03  0.82786357686E+03  0.25500000920E-02 0.  1.
    10030    2    1    2    0    0  0.00000000000E+00  0.00000000000E+00 -0.39324730141E+03  0.12624798523E+04  0.11996715956E+04 0.  0.
        3    1    3    3  502    0  0.41608895378E+03  0.26339850543E+03 -0.55703654403E+03  0.74350421095E+03  0.10100000352E+00 0.  1.
       -3    1    3    3    0  502 -0.41608895378E+03 -0.26339850543E+03  0.16378924261E+03  0.51897564135E+03  0.10100000352E+00 0. -1.
</event>
<event>
 5   0  0.5620246E-05  0.1200364E+04  0.7818609E-02  0.9112538E-01
        1   -1    0    0  501    0  0.00000000000E+00  0.00000000000E+00  0.73599861263E+03  0.73599861264E+03  0.50400001928E-02 0. -1.
       -1   -1    0    0    0  501  0.00000000000E+00  0.00000000000E+00 -0.48942853928E+03  0.48942853931E+03  0.50400001928E-02 0.  1.
    10030    2    1    2    0    0  0.00000000000E+00  0.00000000000E+00  0.24657007334E+03  0.12254271520E+04  0.12003644878E+04 0.  0.
        1    1    3    3  502    0  0.40355889906E+03 -0.36543709181E+03 -0.13460504144E+03  0.56082311854E+03  0.50400001928E-02 0. -1.
       -1    1    3    3    0  502 -0.40355889906E+03  0.36543709181E+03  0.38117511478E+03  0.66460403342E+03  0.50400001928E-02 0.  1.
</event>
<event>
 5   0  0.5620246E-05  0.1200416E+04  0.7818609E-02  0.9112493E-01
       -1   -1    0    0    0  501  0.00000000000E+00  0.00000000000E+00  0.31009253037E+03  0.31009253042E+03  0.50400001928E-02 0.  1.
        1   -1    0    0  501    0  0.00000000000E+00  0.00000000000E+00 -0.11617484830E+04  0.11617484830E+04  0.50400001928E-02 0. -1.
    10030    2    1    2    0    0  0.00000000000E+00  0.00000000000E+00 -0.85165595258E+03  0.14718410134E+04  0.12004158059E+04 0.  0.
        1    1    3    3  502    0 -0.12137704589E+03  0.56193710641E+03 -0.21436826967E+03  0.61356291763E+03  0.50400001928E-02 0. -1.
       -1    1    3    3    0  502  0.12137704589E+03 -0.56193710641E+03 -0.63728768292E+03  0.85827809575E+03  0.50400001928E-02 0.  1.
</event>
<event>
 5   0  0.5447807E-05  0.1200380E+04  0.7818609E-02  0.9112524E-01
       -1   -1    0    0    0  501  0.00000000000E+00  0.00000000000E+00  0.50211358676E+03  0.50211358678E+03  0.50400001928E-02 0. -1.
        1   -1    0    0  501    0  0.00000000000E+00  0.00000000000E+00 -0.71742363631E+03  0.71742363633E+03  0.50400001928E-02 0.  1.
    10030    2    1    2    0    0  0.00000000000E+00  0.00000000000E+00 -0.21531004955E+03  0.12195372231E+04  0.12003801986E+04 0.  0.
        2    1    3    3  502    0 -0.50714258182E+03  0.49339136934E+02 -0.42989222389E+03  0.66665978797E+03  0.25500000920E-02 0.  1.
       -2    1    3    3    0  502  0.50714258182E+03 -0.49339136934E+02  0.21458217434E+03  0.55287743513E+03  0.25500000920E-02 0. -1.
</event>
<event>
 5   0  0.5447807E-05  0.1200034E+04  0.7818609E-02  0.9112826E-01
        1   -1    0    0  501    0  0.00000000000E+00  0.00000000000E+00  0.10025919035E+04  0.10025919035E+04  0.50400001928E-02 0.  1.
       -1   -1    0    0    0  501  0.00000000000E+00  0.00000000000E+00 -0.35908991392E+03  0.35908991395E+03  0.50400001928E-02 0. -1.
    10030    2    1    2    0    0  0.00000000000E+00  0.00000000000E+00  0.64350198961E+03  0.13616818175E+04  0.12000344001E+04 0.  0.
        2    1    3    3  502    0  0.32527683931E+03  0.26009725547E+03 -0.16836296282E+03  0.44922343188E+03  0.25500000920E-02 0. -1.
       -2    1    3    3    0  502 -0.32527683931E+03 -0.26009725547E+03  0.81186495242E+03  0.91245838561E+03  0.25500000920E-02 0.  1.
</event>
<event>
 5   0  0.1004006E-04  0.1199204E+04  0.7818609E-02  0.9113553E-01
       -2   -1    0    0    0  501  0.00000000000E+00  0.00000000000E+00  0.11432756548E+04  0.11432756548E+04  0.25500000920E-02 0.  1.
        2   -1    0    0  501    0  0.00000000000E+00  0.00000000000E+00 -0.31446727449E+03  0.31446727450E+03  0.25500000920E-02 0. -1.
    10030    2    1    2    0    0  0.00000000000E+00  0.00000000000E+00  0.82880838028E+03  0.14577429293E+04  0.11992043682E+04 0.  0.
        5    1    3    3  502    0  0.49384835527E+03  0.15340612089E+03  0.45534576481E+02  0.51914846006E+03  0.46999998093E+01 0. -1.
       -5    1    3    3    0  502 -0.49384835527E+03 -0.15340612089E+03  0.78327380380E+03  0.93859446922E+03  0.46999998093E+01 0.  1.
</event>
<event>
 5   0  0.5625746E-05  0.1200181E+04  0.7818609E-02  0.9112698E-01
        1   -1    0    0  501    0  0.00000000000E+00  0.00000000000E+00  0.55354872389E+03  0.55354872391E+03  0.50400001928E-02 0. -1.
       -1   -1    0    0    0  501  0.00000000000E+00  0.00000000000E+00 -0.65054549777E+03  0.65054549779E+03  0.50400001928E-02 0.  1.
    10030    2    1    2    0    0  0.00000000000E+00  0.00000000000E+00 -0.96996773877E+02  0.12040942217E+04  0.12001810366E+04 0.  0.
        5    1    3    3  502    0  0.44488786625E+03  0.14752657933E+02  0.35523598201E+03  0.56952396558E+03  0.46999998093E+01 0. -1.
       -5    1    3    3    0  502 -0.44488786625E+03 -0.14752657933E+02 -0.45223275589E+03  0.63457025612E+03  0.46999998093E+01 0.  1.
</event>
<event>
 5   0  0.5745487E-05  0.1199639E+04  0.7818609E-02  0.9113172E-01
       -1   -1    0    0    0  501  0.00000000000E+00  0.00000000000E+00  0.57102485063E+03  0.57102485065E+03  0.50400001928E-02 0. -1.
        1   -1    0    0  501    0  0.00000000000E+00  0.00000000000E+00 -0.63006662945E+03  0.63006662947E+03  0.50400001928E-02 0.  1.
    10030    2    1    2    0    0  0.00000000000E+00  0.00000000000E+00 -0.59041778822E+02  0.12010914801E+04  0.11996394508E+04 0.  0.
        3    1    3    3  502    0 -0.52123908489E+03 -0.26879359754E+03 -0.15554425194E+03  0.60674064163E+03  0.10100000352E+00 0.  1.
       -3    1    3    3    0  502  0.52123908489E+03  0.26879359754E+03  0.96502473122E+02  0.59435083849E+03  0.10100000352E+00 0. -1.
</event>
<event>
 5   0  0.5625746E-05  0.1199962E+04  0.7818609E-02  0.9112890E-01
       -1   -1    0    0    0  501  0.00000000000E+00  0.00000000000E+00  0.60116968084E+03  0.60116968086E+03  0.50400001928E-02 0. -1.
        1   -1    0    0  501    0  0.00000000000E+00  0.00000000000E+00 -0.59879425279E+03  0.59879425281E+03  0.50400001928E-02 0.  1.
    10030    2    1    2    0    0  0.00000000000E+00  0.00000000000E+00  0.23754280512E+01  0.11999639337E+04  0.11999615825E+04 0.  0.
        5    1    3    3  502    0 -0.10383395864E+02 -0.15515350902E+02 -0.59848530359E+03  0.59879486440E+03  0.46999998093E+01 0.  1.
       -5    1    3    3    0  502  0.10383395864E+02  0.15515350902E+02  0.60086073164E+03  0.60116906927E+03  0.46999998093E+01 0. -1.
</event>
<event>
 5   0  0.5732931E-05  0.1199315E+04  0.7818609E-02  0.9113456E-01
       -1   -1    0    0    0  501  0.00000000000E+00  0.00000000000E+00  0.17120263397E+03  0.17120263404E+03  0.50400001928E-02 0. -1.
        1   -1    0    0  501    0  0.00000000000E+00  0.00000000000E+00 -0.21003715889E+04  0.21003715889E+04  0.50400001928E-02 0.  1.
    10030    2    1    2    0    0  0.00000000000E+00  0.00000000000E+00 -0.19291689549E+04  0.22715742229E+04  0.11993150519E+04 0.  0.
        4    1    3    3  502    0  0.29758022535E+03 -0.32753122925E+03 -0.17310513176E+04  0.17867207319E+04  0.12699999809E+01 0.  1.
       -4    1    3    3    0  502 -0.29758022535E+03  0.32753122925E+03 -0.19811763729E+03  0.48485349102E+03  0.12699999809E+01 0. -1.
</event>
<event>
 5   0  0.9941209E-05  0.1199763E+04  0.7818609E-02  0.9113064E-01
       -2   -1    0    0    0  501  0.00000000000E+00  0.00000000000E+00  0.96475127047E+03  0.96475127048E+03  0.25500000920E-02 0.  1.
        2   -1    0    0  501    0  0.00000000000E+00  0.00000000000E+00 -0.37300576377E+03  0.37300576378E+03  0.25500000920E-02 0. -1.
    10030    2    1    2    0    0  0.00000000000E+00  0.00000000000E+00  0.59174550670E+03  0.13377570343E+04  0.11997629508E+04 0.  0.
        2    1    3    3  502    0 -0.48236839541E+03  0.19106599253E+03 -0.39879640540E+02  0.52036128615E+03  0.25500000920E-02 0. -1.
       -2    1    3    3    0  502  0.48236839541E+03 -0.19106599253E+03  0.63162514724E+03  0.81739574811E+03  0.25500000920E-02 0.  1.
</event>
<event>
 5   0  0.1012657E-04  0.1199121E+04  0.7818609E-02  0.9113626E-01
        2   -1    0    0  501    0  0.00000000000E+00  0.00000000000E+00  0.18422460458E+04  0.18422460458E+04  0.25500000920E-02 0.  1.
       -2   -1    0    0    0  501  0.00000000000E+00  0.00000000000E+00 -0.19512743636E+03  0.19512743638E+03  0.25500000920E-02 0. -1.
    10030    2    1    2    0    0  0.00000000000E+00  0.00000000000E+00  0.16471186094E+04  0.20373734822E+04  0.11991209248E+04 0.  0.
        1    1    3    3  502    0 -0.15442203555E+03 -0.56173093789E+03  0.58276683661E+03  0.82401759540E+03  0.50400001928E-02 0.  1.
       -1    1    3    3    0  502  0.15442203555E+03  0.56173093789E+03  0.10643517728E+04  0.12133558868E+04  0.50400001928E-02 0. -1.
</event>
<event>
 5   0  0.5625746E-05  0.1199872E+04  0.7818609E-02  0.9112969E-01
       -1   -1    0    0    0  501  0.00000000000E+00  0.00000000000E+00  0.80369028606E+03  0.80369028607E+03  0.50400001928E-02 0. -1.
        1   -1    0    0  501    0  0.00000000000E+00  0.00000000000E+00 -0.44783812913E+03  0.44783812916E+03  0.50400001928E-02 0.  1.
    10030    2    1    2    0    0  0.00000000000E+00  0.00000000000E+00  0.35585215692E+03  0.12515284152E+04  0.11998719167E+04 0.  0.
        5    1    3    3  502    0  0.39290784743E+03  0.39002574127E+03 -0.63116842371E+02  0.55722749503E+03  0.46999998093E+01 0.  1.
       -5    1    3    3    0  502 -0.39290784743E+03 -0.39002574127E+03  0.41896899930E+03  0.69430092020E+03  0.46999998093E+01 0. -1.
</event>
<event>
 5   0  0.5447807E-05  0.1200067E+04  0.7818609E-02  0.9112798E-01
       -1   -1    0    0    0  501  0.00000000000E+00  0.00000000000E+00  0.82934643482E+03  0.82934643483E+03  0.50400001928E-02 0.  1.
        1   -1    0    0  501    0  0.00000000000E+00  0.00000000000E+00 -0.43412541008E+03  0.43412541011E+03  0.50400001928E-02 0. -1.
    10030    2    1    2    0    0  0.00000000000E+00  0.00000000000E+00  0.39522102473E+03  0.12634718449E+04  0.12000672667E+04 0.  0.
        2    1    3    3  502    0  0.68275558074E+02 -0.15644806686E+03  0.80324445524E+03  0.82118159036E+03  0.25500000920E-02 0.  1.
       -2    1    3    3    0  502 -0.68275558074E+02  0.15644806686E+03 -0.40802343051E+03  0.44229025459E+03  0.25500000920E-02 0. -1.
</event>
<event>
 5   0  0.5745487E-05  0.1200382E+04  0.7818609E-02  0.9112522E-01
       -1   -1    0    0    0  501  0.00000000000E+00  0.00000000000E+00  0.59249499291E+03  0.59249499293E+03  0.50400001928E-02 0.  1.
        1   -1    0    0  501    0  0.00000000000E+00  0.00000000000E+00 -0.60798711423E+03  0.60798711425E+03  0.50400001928E-02 0. -1.
    10030    2    1    2    0    0  0.00000000000E+00  0.00000000000E+00 -0.15492121316E+02  0.12004821072E+04  0.12003821408E+04 0.  0.
        3    1    3    3  502    0 -0.15760541419E+03  0.54288056808E+03 -0.20943222095E+03  0.60284379664E+03  0.10100000352E+00 0. -1.
       -3    1    3    3    0  502  0.15760541419E+03 -0.54288056808E+03  0.19394009963E+03  0.59763831054E+03  0.10100000352E+00 0.  1.
</event>
<event>
 5   0  0.9941209E-05  0.1200446E+04  0.7818609E-02  0.9112467E-01
       -2   -1    0    0    0  501  0.00000000000E+00  0.00000000000E+00  0.17164186249E+03  0.17164186251E+03  0.25500000920E-02 0.  1.
        2   -1    0    0  501    0  0.00000000000E+00  0.00000000000E+00 -0.20989480441E+04  0.20989480441E+04  0.25500000920E-02 0. -1.
    10030    2    1    2    0    0  0.00000000000E+00  0.00000000000E+00 -0.19273061816E+04  0.22705899066E+04  0.12004455033E+04 0.  0.
        2    1    3    3  502    0  0.35808823626E+03  0.28666627604E+03 -0.16958753109E+04  0.17568146768E+04  0.25500000920E-02 0. -1.
       -2    1    3    3    0  502 -0.35808823626E+03 -0.28666627604E+03 -0.23143087072E+03  0.51377522974E+03  0.25500000920E-02 0.  1.
</event>
<event>
 5   0  0.1012657E-04  0.1200266E+04  0.7818609E-02  0.9112623E-01
        2   -1    0    0  501    0  0.00000000000E+00  0.00000000000E+00  0.87208735402E+03  0.87208735402E+03  0.25500000920E-02 0. -1.
       -2   -1    0    0    0  501  0.00000000000E+00  0.00000000000E+00 -0.41298598560E+03  0.41298598561E+03  0.25500000920E-02 0.  1.
    10030    2    1    2    0    0  0.00000000000E+00  0.00000000000E+00  0.45910136842E+03  0.12850733396E+04  0.12002663962E+04 0.  0.
        1    1    3    3  502    0 -0.55020191928E+03  0.51781758385E+02 -0.20983806761E+02  0.55303148432E+03  0.50400001928E-02 0.  1.
       -1    1    3    3    0  502  0.55020191928E+03 -0.51781758385E+02  0.48008517518E+03  0.73204185531E+03  0.50400001928E-02 0. -1.
</event>
<event>
 5   0  0.5620246E-05  0.1198424E+04  0.7818609E-02  0.9114237E-01
        1   -1    0    0  501    0  0.00000000000E+00  0.00000000000E+00  0.87260584847E+03  0.87260584848E+03  0.50400001928E-02 0.  1.
       -1   -1    0    0    0  501  0.00000000000E+00  0.00000000000E+00 -0.41147447303E+03  0.41147447306E+03  0.50400001928E-02 0. -1.
    10030    2    1    2    0    0  0.00000000000E+00  0.00000000000E+00  0.46113137544E+03  0.12840803215E+04  0.11984240179E+04 0.  0.
        1    1    3    3  502    0  0.21493793408E+03  0.51508346684E+02  0.82733311092E+03  0.85634776915E+03  0.50400001928E-02 0.  1.
       -1    1    3    3    0  502 -0.21493793408E+03 -0.51508346684E+02 -0.36620173548E+03  0.42773255240E+03  0.50400001928E-02 0. -1.
</event>
<event>
 5   0  0.9941209E-05  0.1201393E+04  0.7818609E-02  0.9111638E-01
       -2   -1    0    0    0  501  0.00000000000E+00  0.00000000000E+00  0.20759457491E+03  0.20759457493E+03  0.25500000920E-02 0.  1.
        2   -1    0    0  501    0  0.00000000000E+00  0.00000000000E+00 -0.17381787408E+04  0.17381787408E+04  0.25500000920E-02 0. -1.
    10030    2    1    2    0    0  0.00000000000E+00  0.00000000000E+00 -0.15305841659E+04  0.19457733157E+04  0.12013933192E+04 0.  0.
        2    1    3    3  502    0  0.20319611411E+02 -0.59776714115E+03 -0.85543885987E+03  0.10437979137E+04  0.25500000920E-02 0. -1.
       -2    1    3    3    0  502 -0.20319611411E+02  0.59776714115E+03 -0.67514530601E+03  0.90197540204E+03  0.25500000920E-02 0.  1.
</event>
<event>
 5   0  0.5732931E-05  0.1199997E+04  0.7818609E-02  0.9112859E-01
       -1   -1    0    0    0  501  0.00000000000E+00  0.00000000000E+00  0.29979650518E+03  0.29979650523E+03  0.50400001928E-02 0.  1.
        1   -1    0    0  501    0  0.00000000000E+00  0.00000000000E+00 -0.12008083147E+04  0.12008083147E+04  0.50400001928E-02 0. -1.
    10030    2    1    2    0    0  0.00000000000E+00  0.00000000000E+00 -0.90101180947E+03  0.15006048199E+04  0.11999968936E+04 0.  0.
        4    1    3    3  502    0  0.53829505612E+03  0.12615290618E+02 -0.78153813444E+03  0.94906489846E+03  0.12699999809E+01 0.  1.
       -4    1    3    3    0  502 -0.53829505612E+03 -0.12615290618E+02 -0.11947367503E+03  0.55153992143E+03  0.12699999809E+01 0. -1.
</event>
<event>
 5   0  0.3839750E-05  0.1200070E+04  0.7818609E-02  0.9112795E-01
       -3   -1    0    0    0  501  0.00000000000E+00  0.00000000000E+00  0.84466586535E+03  0.84466587139E+03  0.10100000352E+00 0. -1.
        3   -1    0    0  501    0  0.00000000000E+00  0.00000000000E+00 -0.42625400168E+03  0.42625401365E+03  0.10100000352E+00 0.  1.
    10030    2    1    2    0    0  0.00000000000E+00  0.00000000000E+00  0.41841186367E+03  0.12709198850E+04  0.12000703590E+04 0.  0.
        1    1    3    3  502    0  0.54907391173E+03  0.23106910670E+02 -0.45901585826E+02  0.55147352201E+03  0.50400001928E-02 0.  1.
       -1    1    3    3    0  502 -0.54907391173E+03 -0.23106910670E+02  0.46431344949E+03  0.71944636303E+03  0.50400001928E-02 0. -1.
</event>
<event>
 5   0  0.5745487E-05  0.1199980E+04  0.7818609E-02  0.9112874E-01
        1   -1    0    0  501    0  0.00000000000E+00  0.00000000000E+00  0.15162867081E+04  0.15162867082E+04  0.50400001928E-02 0. -1.
       -1   -1    0    0    0  501  0.00000000000E+00  0.00000000000E+00 -0.23741410620E+03  0.23741410625E+03  0.50400001928E-02 0.  1.
    10030    2    1    2    0    0  0.00000000000E+00  0.00000000000E+00  0.12788726020E+04  0.17537008144E+04  0.11999797558E+04 0.  0.
        3    1    3    3  502    0  0.50986959915E+02  0.13374022180E+03 -0.21209884542E+03  0.25587506216E+03  0.10100000352E+00 0.  1.
       -3    1    3    3    0  502 -0.50986959915E+02 -0.13374022180E+03  0.14909714474E+04  0.14978257522E+04  0.10100000352E+00 0. -1.
</event>
<event>
 5   0  0.1004006E-04  0.1200093E+04  0.7818609E-02  0.9112775E-01
        2   -1    0    0  501    0  0.00000000000E+00  0.00000000000E+00  0.43544862999E+03  0.43544862999E+03  0.25500000920E-02 0.  1.
       -2   -1    0    0    0  501  0.00000000000E+00  0.00000000000E+00 -0.82686135553E+03  0.82686135553E+03  0.25500000920E-02 0. -1.
    10030    2    1    2    0    0  0.00000000000E+00  0.00000000000E+00 -0.39141272554E+03  0.12623099855E+04  0.12000927372E+04 0.  0.
        5    1    3    3  502    0  0.34122542615E+03 -0.11840395136E+03  0.30827855856E+03  0.47488108702E+03  0.46999998093E+01 0.  1.
       -5    1    3    3    0  502 -0.34122542615E+03  0.11840395136E+03 -0.69969128410E+03  0.78742889850E+03  0.46999998093E+01 0. -1.
</event>
<event>
 5   0  0.9941209E-05  0.1200534E+04  0.7818609E-02  0.9112389E-01
       -2   -1    0    0    0  501  0.00000000000E+00  0.00000000000E+00  0.92120533034E+03  0.92120533035E+03  0.25500000920E-02 0. -1.
        2   -1    0    0  501    0  0.00000000000E+00  0.00000000000E+00 -0.39114035992E+03  0.39114035993E+03  0.25500000920E-02 0.  1.
    10030    2    1    2    0    0  0.00000000000E+00  0.00000000000E+00  0.53006497043E+03  0.13123456903E+04  0.12005341886E+04 0.  0.
        2    1    3    3  502    0 -0.10330459406E+03 -0.51788297374E+03  0.57699938655E+03  0.78217830815E+03  0.25500000920E-02 0. -1.
       -2    1    3    3    0  502  0.10330459406E+03  0.51788297374E+03 -0.46934416129E+02  0.53016738213E+03  0.25500000920E-02 0.  1.
</event>
<event>
 5   0  0.5625746E-05  0.1201016E+04  0.7818609E-02  0.9111968E-01
       -1   -1    0    0    0  501  0.00000000000E+00  0.00000000000E+00  0.28946968776E+03  0.28946968780E+03  0.50400001928E-02 0. -1.
        1   -1    0    0  501    0  0.00000000000E+00  0.00000000000E+00 -0.12457607556E+04  0.12457607556E+04  0.50400001928E-02 0.  1.
    10030    2    1    2    0    0  0.00000000000E+00  0.00000000000E+00 -0.95629106786E+03  0.15352304434E+04  0.12010161980E+04 0.  0.
        5    1    3    3  502    0  0.42061939349E+03  0.30288359038E+03 -0.90575339251E+02  0.52619875103E+03  0.46999998093E+01 0. -1.
       -5    1    3    3    0  502 -0.42061939349E+03 -0.30288359038E+03 -0.86571572861E+03  0.10090316924E+04  0.46999998093E+01 0.  1.
</event>
<event>
 5   0  0.5625746E-05  0.1199747E+04  0.7818609E-02  0.9113078E-01
       -1   -1    0    0    0  501  0.00000000000E+00  0.00000000000E+00  0.45408817208E+03  0.45408817211E+03  0.50400001928E-02 0. -1.
        1   -1    0    0  501    0  0.00000000000E+00  0.00000000000E+00 -0.79246284651E+03  0.79246284653E+03  0.50400001928E-02 0.  1.
    10030    2    1    2    0    0  0.00000000000E+00  0.00000000000E+00 -0.33837467443E+03  0.12465510186E+04  0.11997466490E+04 0.  0.
        5    1    3    3  502    0  0.15894739657E+03 -0.56629258520E+03 -0.29157194829E+03  0.65649665495E+03  0.46999998093E+01 0. -1.
       -5    1    3    3    0  502 -0.15894739657E+03  0.56629258520E+03 -0.46802726138E+02  0.59005436368E+03  0.46999998093E+01 0.  1.
</event>
<event>
 5   0  0.5447807E-05  0.1200020E+04  0.7818609E-02  0.9112839E-01
        1   -1    0    0  501    0  0.00000000000E+00  0.00000000000E+00  0.23925753901E+04  0.23925753901E+04  0.50400001928E-02 0.  1.
       -1   -1    0    0    0  501  0.00000000000E+00  0.00000000000E+00 -0.15047041921E+03  0.15047041929E+03  0.50400001928E-02 0. -1.
    10030    2    1    2    0    0  0.00000000000E+00  0.00000000000E+00  0.22421049709E+04  0.25430458094E+04  0.12000197033E+04 0.  0.
        2    1    3    3  502    0 -0.13325229927E+03  0.56619048634E+03  0.80899449659E+03  0.99639346525E+03  0.25500000920E-02 0. -1.
       -2    1    3    3    0  502  0.13325229927E+03 -0.56619048634E+03  0.14331104743E+04  0.15466523441E+04  0.25500000920E-02 0.  1.
</event>
<event>
 5   0  0.5620246E-05  0.1200177E+04  0.7818609E-02  0.9112702E-01
        1   -1    0    0  501    0  0.00000000000E+00  0.00000000000E+00  0.20992645454E+04  0.20992645454E+04  0.50400001928E-02 0. -1.
       -1   -1    0    0    0  501  0.00000000000E+00  0.00000000000E+00 -0.17153908355E+03  0.17153908362E+03  0.50400001928E-02 0.  1.
    10030    2    1    2    0    0  0.00000000000E+00  0.00000000000E+00  0.19277254618E+04  0.22708036290E+04  0.12001765142E+04 0.  0.
        1    1    3    3  502    0 -0.33339857952E+03 -0.49846520774E+03  0.10054768325E+04  0.11707287631E+04  0.50400001928E-02 0.  1.
       -1    1    3    3    0  502  0.33339857952E+03  0.49846520774E+03  0.92224862934E+03  0.11000748659E+04  0.50400001928E-02 0. -1.
</event>
<event>
 5   0  0.9941209E-05  0.1200451E+04  0.7818609E-02  0.9112462E-01
       -2   -1    0    0    0  501  0.00000000000E+00  0.00000000000E+00  0.10557162095E+04  0.10557162095E+04  0.25500000920E-02 0.  1.
        2   -1    0    0  501    0  0.00000000000E+00  0.00000000000E+00 -0.34125699519E+03  0.34125699520E+03  0.25500000920E-02 0. -1.
    10030    2    1    2    0    0  0.00000000000E+00  0.00000000000E+00  0.71445921431E+03  0.13969732047E+04  0.12004508177E+04 0.  0.
        2    1    3    3  502    0  0.37686343717E+03 -0.45353173302E+03  0.22684527817E+03  0.63180365888E+03  0.25500000920E-02 0.  1.
       -2    1    3    3    0  502 -0.37686343717E+03  0.45353173302E+03  0.48761393614E+03  0.76516954583E+03  0.25500000920E-02 0. -1.
</event>
<event>
 5   0  0.5620246E-05  0.1199969E+04  0.7818609E-02  0.9112884E-01
       -1   -1    0    0    0  501  0.00000000000E+00  0.00000000000E+00  0.24025563095E+03  0.24025563100E+03  0.50400001928E-02 0. -1.
        1   -1    0    0  501    0  0.00000000000E+00  0.00000000000E+00 -0.14983265483E+04  0.14983265483E+04  0.50400001928E-02 0.  1.
    10030    2    1    2    0    0  0.00000000000E+00  0.00000000000E+00 -0.12580709173E+04  0.17385821793E+04  0.11999689834E+04 0.  0.
        1    1    3    3  502    0 -0.43007977468E+03  0.41593656339E+03 -0.69398482578E+03  0.91628967898E+03  0.50400001928E-02 0.  1.
       -1    1    3    3    0  502  0.43007977468E+03 -0.41593656339E+03 -0.56408609155E+03  0.82229250031E+03  0.50400001928E-02 0. -1.
</event>
<event>
 5   0  0.1004006E-04  0.1200405E+04  0.7818609E-02  0.9112502E-01
        2   -1    0    0  501    0  0.00000000000E+00  0.00000000000E+00  0.19500490190E+03  0.19500490192E+03  0.25500000920E-02 0. -1.
       -2   -1    0    0    0  501  0.00000000000E+00  0.00000000000E+00 -0.18473535533E+04  0.18473535533E+04  0.25500000920E-02 0.  1.
    10030    2    1    2    0    0  0.00000000000E+00  0.00000000000E+00 -0.16523486514E+04  0.20423584552E+04  0.12004049291E+04 0.  0.
        5    1    3    3  502    0  0.62443569939E+02 -0.52545969175E+03 -0.34430553307E+03  0.63132834340E+03  0.46999998093E+01 0. -1.
       -5    1    3    3    0  502 -0.62443569939E+02  0.52545969175E+03 -0.13080431183E+04  0.14110301118E+04  0.46999998093E+01 0.  1.
</event>
<event>
 5   0  0.5745487E-05  0.1199948E+04  0.7818609E-02  0.9112902E-01
        1   -1    0    0  501    0  0.00000000000E+00  0.00000000000E+00  0.71568295681E+03  0.71568295683E+03  0.50400001928E-02 0. -1.
       -1   -1    0    0    0  501  0.00000000000E+00  0.00000000000E+00 -0.50297230347E+03  0.50297230350E+03  0.50400001928E-02 0.  1.
    10030    2    1    2    0    0  0.00000000000E+00  0.00000000000E+00  0.21271065334E+03  0.12186552603E+04  0.11999478411E+04 0.  0.
        3    1    3    3  502    0 -0.33492076081E+03 -0.12456417443E+03  0.59582401790E+03  0.69476213202E+03  0.10100000352E+00 0. -1.
       -3    1    3    3    0  502  0.33492076081E+03  0.12456417443E+03 -0.38311336457E+03  0.52389312831E+03  0.10100000352E+00 0.  1.
</event>
<event>
 5   0  0.5625746E-05  0.1199886E+04  0.7818609E-02  0.9112956E-01
       -1   -1    0    0    0  501  0.00000000000E+00  0.00000000000E+00  0.51196801933E+03  0.51196801935E+03  0.50400001928E-02 0.  1.
        1   -1    0    0  501    0  0.00000000000E+00  0.00000000000E+00 -0.70303514852E+03  0.70303514853E+03  0.50400001928E-02 0. -1.
    10030    2    1    2    0    0  0.00000000000E+00  0.00000000000E+00 -0.19106712919E+03  0.12150031679E+04  0.11998858488E+04 0.  0.
        5    1    3    3  502    0  0.35981624696E+02 -0.59530924062E+03 -0.29740705719E+02  0.59715523012E+03  0.46999998093E+01 0. -1.
       -5    1    3    3    0  502 -0.35981624696E+02  0.59530924062E+03 -0.16132642347E+03  0.61784793776E+03  0.46999998093E+01 0.  1.
</event>
<event>
 5   0  0.5625746E-05  0.1199867E+04  0.7818609E-02  0.9112973E-01
        1   -1    0    0  501    0  0.00000000000E+00  0.00000000000E+00  0.48001813094E+03  0.48001813096E+03  0.50400001928E-02 0. -1.
       -1   -1    0    0    0  501  0.00000000000E+00  0.00000000000E+00 -0.74980564368E+03  0.74980564370E+03  0.50400001928E-02 0.  1.
    10030    2    1    2    0    0  0.00000000000E+00  0.00000000000E+00 -0.26978751275E+03  0.12298237747E+04  0.11998671654E+04 0.  0.
        5    1    3    3  502    0  0.23840110556E+02  0.36833372068E+03  0.34984082631E+03  0.50857523968E+03  0.46999998093E+01 0. -1.
       -5    1    3    3    0  502 -0.23840110556E+02 -0.36833372068E+03 -0.61962833905E+03  0.72124853498E+03  0.46999998093E+01 0.  1.
</event>
<event>
 5   0  0.9941209E-05  0.1200238E+04  0.7818609E-02  0.9112648E-01
        2   -1    0    0  501    0  0.00000000000E+00  0.00000000000E+00  0.76401780508E+03  0.76401780508E+03  0.25500000920E-02 0. -1.
       -2   -1    0    0    0  501  0.00000000000E+00  0.00000000000E+00 -0.47138039771E+03  0.47138039772E+03  0.25500000920E-02 0.  1.
    10030    2    1    2    0    0  0.00000000000E+00  0.00000000000E+00  0.29263740737E+03  0.12353982028E+04  0.12002383377E+04 0.  0.
        2    1    3    3  502    0  0.41413910556E+03  0.33352008635E+03  0.43267003431E+03  0.68552914260E+03  0.25500000920E-02 0. -1.
       -2    1    3    3    0  502 -0.41413910556E+03 -0.33352008635E+03 -0.14003262694E+03  0.54986906020E+03  0.25500000920E-02 0.  1.
</event>
<event>
 5   0  0.5625746E-05  0.1199892E+04  0.7818609E-02  0.9112951E-01
       -1   -1    0    0    0  501  0.00000000000E+00  0.00000000000E+00  0.66527055339E+03  0.66527055341E+03  0.50400001928E-02 0. -1.
        1   -1    0    0  501    0  0.00000000000E+00  0.00000000000E+00 -0.54103573365E+03  0.54103573367E+03  0.50400001928E-02 0.  1.
    10030    2    1    2    0    0  0.00000000000E+00  0.00000000000E+00  0.12423481974E+03  0.12063062871E+04  0.11998918984E+04 0.  0.
        5    1    3    3  502    0 -0.36286138257E+03  0.43501720270E+03 -0.13643444762E+03  0.58270472634E+03  0.46999998093E+01 0.  1.
       -5    1    3    3    0  502  0.36286138257E+03 -0.43501720270E+03  0.26066926736E+03  0.62360156073E+03  0.46999998093E+01 0. -1.
</event>
<event>
 5   0  0.5620246E-05  0.1200496E+04  0.7818609E-02  0.9112422E-01
        1   -1    0    0  501    0  0.00000000000E+00  0.00000000000E+00  0.10196665778E+04  0.10196665779E+04  0.50400001928E-02 0.  1.
       -1   -1    0    0    0  501  0.00000000000E+00  0.00000000000E+00 -0.35334870820E+03  0.35334870824E+03  0.50400001928E-02 0. -1.
    10030    2    1    2    0    0  0.00000000000E+00  0.00000000000E+00  0.66631786964E+03  0.13730152861E+04  0.12004963442E+04 0.  0.
        1    1    3    3  502    0 -0.56667290620E+03 -0.11363540979E+03  0.51851940173E+03  0.77646220705E+03  0.50400001928E-02 0.  1.
       -1    1    3    3    0  502  0.56667290620E+03  0.11363540979E+03  0.14779846791E+03  0.59655307904E+03  0.50400001928E-02 0. -1.
</event>
<event>
 5   0  0.9941209E-05  0.1200722E+04  0.7818609E-02  0.9112225E-01
       -2   -1    0    0    0  501  0.00000000000E+00  0.00000000000E+00  0.77189754981E+03  0.77189754982E+03  0.25500000920E-02 0. -1.
        2   -1    0    0  501    0  0.00000000000E+00  0.00000000000E+00 -0.46694456319E+03  0.46694456320E+03  0.25500000920E-02 0.  1.
    10030    2    1    2    0    0  0.00000000000E+00  0.00000000000E+00  0.30495298662E+03  0.12388421130E+04  0.12007220565E+04 0.  0.
        2    1    3    3  502    0 -0.12064410872E+03  0.56550953382E+03  0.31908801728E+03  0.66043409708E+03  0.25500000920E-02 0.  1.
       -2    1    3    3    0  502  0.12064410872E+03 -0.56550953382E+03 -0.14135030653E+02  0.57840801594E+03  0.25500000920E-02 0. -1.
</event>
<event>
 5   0  0.5447807E-05  0.1202173E+04  0.7818609E-02  0.9110957E-01
        1   -1    0    0  501    0  0.00000000000E+00  0.00000000000E+00  0.29149268763E+03  0.29149268767E+03  0.50400001928E-02 0. -1.
       -1   -1    0    0    0  501  0.00000000000E+00  0.00000000000E+00 -0.12394995520E+04  0.12394995520E+04  0.50400001928E-02 0.  1.
    10030    2    1    2    0    0  0.00000000000E+00  0.00000000000E+00 -0.94800686437E+03  0.15309922397E+04  0.12021731252E+04 0.  0.
        2    1    3    3  502    0  0.31538155714E+03  0.50391458814E+03 -0.58726529564E+03  0.83562908410E+03  0.25500000920E-02 0.  1.
       -2    1    3    3    0  502 -0.31538155714E+03 -0.50391458814E+03 -0.36074156873E+03  0.69536315558E+03  0.25500000920E-02 0. -1.
</event>
<event>
 5   0  0.5447807E-05  0.1200606E+04  0.7818609E-02  0.9112327E-01
        1   -1    0    0  501    0  0.00000000000E+00  0.00000000000E+00  0.75411620933E+03  0.75411620935E+03  0.50400001928E-02 0.  1.
       -1   -1    0    0    0  501  0.00000000000E+00  0.00000000000E+00 -0.47786192631E+03  0.47786192633E+03  0.50400001928E-02 0. -1.
    10030    2    1    2    0    0  0.00000000000E+00  0.00000000000E+00  0.27625428302E+03  0.12319781357E+04  0.12006055547E+04 0.  0.
        2    1    3    3  502    0  0.13553660971E+03 -0.53114457849E+03  0.38922256213E+03  0.67229378899E+03  0.25500000920E-02 0.  1.
       -2    1    3    3    0  502 -0.13553660971E+03  0.53114457849E+03 -0.11296827911E+03  0.55968434669E+03  0.25500000920E-02 0. -1.
</event>
<event>
 5   0  0.5732931E-05  0.1199966E+04  0.7818609E-02  0.9112886E-01
        1   -1    0    0  501    0  0.00000000000E+00  0.00000000000E+00  0.19118158349E+04  0.19118158349E+04  0.50400001928E-02 0.  1.
       -1   -1    0    0    0  501  0.00000000000E+00  0.00000000000E+00 -0.18829206364E+03  0.18829206371E+03  0.50400001928E-02 0. -1.
    10030    2    1    2    0    0  0.00000000000E+00  0.00000000000E+00  0.17235237713E+04  0.21001078986E+04  0.11999662478E+04 0.  0.
        4    1    3    3  502    0 -0.16737556991E+03 -0.20639412503E+03 -0.79684500545E+02  0.27742449203E+03  0.12699999809E+01 0. -1.
       -4    1    3    3    0  502  0.16737556991E+03  0.20639412503E+03  0.18032082718E+04  0.18226834066E+04  0.12699999809E+01 0.  1.
</event>
<event>
 5   0  0.5732931E-05  0.1199686E+04  0.7818609E-02  0.9113132E-01
        1   -1    0    0  501    0  0.00000000000E+00  0.00000000000E+00  0.51630048681E+03  0.51630048683E+03  0.50400001928E-02 0.  1.
       -1   -1    0    0    0  501  0.00000000000E+00  0.00000000000E+00 -0.69690330816E+03  0.69690330818E+03  0.50400001928E-02 0. -1.
    10030    2    1    2    0    0  0.00000000000E+00  0.00000000000E+00 -0.18060282135E+03  0.12132037950E+04  0.11996858210E+04 0.  0.
        4    1    3    3  502    0  0.25546918749E+03 -0.16624971511E+03  0.43214981584E+03  0.52882752364E+03  0.12699999809E+01 0.  1.
       -4    1    3    3    0  502 -0.25546918749E+03  0.16624971511E+03 -0.61275263719E+03  0.68437627137E+03  0.12699999809E+01 0. -1.
</event>
<event>
 5   0  0.5625746E-05  0.1201010E+04  0.7818609E-02  0.9111973E-01
       -1   -1    0    0    0  501  0.00000000000E+00  0.00000000000E+00  0.41412602870E+03  0.41412602873E+03  0.50400001928E-02 0. -1.
        1   -1    0    0  501    0  0.00000000000E+00  0.00000000000E+00 -0.87076509378E+03  0.87076509380E+03  0.50400001928E-02 0.  1.
    10030    2    1    2    0    0  0.00000000000E+00  0.00000000000E+00 -0.45663906508E+03  0.12848911225E+04  0.12010103917E+04 0.  0.
        5    1    3    3  502    0 -0.18795679315E+03  0.38844690370E+03  0.21841551609E+03  0.48367983290E+03  0.46999998093E+01 0. -1.
       -5    1    3    3    0  502  0.18795679315E+03 -0.38844690370E+03 -0.67505458117E+03  0.80121128963E+03  0.46999998093E+01 0.  1.
</event>
<event>
 5   0  0.5745487E-05  0.1204093E+04  0.7818609E-02  0.9109281E-01
       -1   -1    0    0    0  501  0.00000000000E+00  0.00000000000E+00  0.19427720010E+03  0.19427720017E+03  0.50400001928E-02 0.  1.
        1   -1    0    0  501    0  0.00000000000E+00  0.00000000000E+00 -0.18656853793E+04  0.18656853793E+04  0.50400001928E-02 0. -1.
    10030    2    1    2    0    0  0.00000000000E+00  0.00000000000E+00 -0.16714081792E+04  0.20599625795E+04  0.12040932386E+04 0.  0.
        3    1    3    3  502    0 -0.43135453910E+03  0.35178632825E+02 -0.15517016346E+04  0.16109258977E+04  0.10100000352E+00 0. -1.
       -3    1    3    3    0  502  0.43135453910E+03 -0.35178632825E+02 -0.11970654458E+03  0.44903668183E+03  0.10100000352E+00 0.  1.
</event>
<event>
 5   0  0.1004006E-04  0.1200081E+04  0.7818609E-02  0.9112786E-01
       -2   -1    0    0    0  501  0.00000000000E+00  0.00000000000E+00  0.19981574504E+03  0.19981574505E+03  0.25500000920E-02 0.  1.
        2   -1    0    0  501    0  0.00000000000E+00  0.00000000000E+00 -0.18019028021E+04  0.18019028021E+04  0.25500000920E-02 0. -1.
    10030    2    1    2    0    0  0.00000000000E+00  0.00000000000E+00 -0.16020870571E+04  0.20017185472E+04  0.12000809154E+04 0.  0.
        5    1    3    3  502    0 -0.46378328151E+03 -0.96890969756E+02 -0.14151336370E+04  0.14923498560E+04  0.46999998093E+01 0. -1.
       -5    1    3    3    0  502  0.46378328151E+03  0.96890969756E+02 -0.18695342006E+03  0.50936869112E+03  0.46999998093E+01 0.  1.
</event>
<event>
 5   0  0.5625746E-05  0.1199961E+04  0.7818609E-02  0.9112891E-01
        1   -1    0    0  501    0  0.00000000000E+00  0.00000000000E+00  0.78513011768E+03  0.78513011770E+03  0.50400001928E-02 0.  1.
       -1   -1    0    0    0  501  0.00000000000E+00  0.00000000000E+00 -0.45849289435E+03  0.45849289438E+03  0.50400001928E-02 0. -1.
    10030    2    1    2    0    0  0.00000000000E+00  0.00000000000E+00  0.32663722334E+03  0.12436230121E+04  0.11999609662E+04 0.  0.
        5    1    3    3  502    0  0.54199588884E+03  0.17262231079E+03  0.36103895184E+03  0.67374269602E+03  0.46999998093E+01 0.  1.
       -5    1    3    3    0  502 -0.54199588884E+03 -0.17262231079E+03 -0.34401728502E+02  0.56988031605E+03  0.46999998093E+01 0. -1.
</event>
<event>
 5   0  0.1012657E-04  0.1200304E+04  0.7818609E-02  0.9112591E-01
        2   -1    0    0  501    0  0.00000000000E+00  0.00000000000E+00  0.81457261956E+03  0.81457261956E+03  0.25500000920E-02 0. -1.
       -2   -1    0    0    0  501  0.00000000000E+00  0.00000000000E+00 -0.44217344211E+03  0.44217344212E+03  0.25500000920E-02 0.  1.
    10030    2    1    2    0    0  0.00000000000E+00  0.00000000000E+00  0.37239917745E+03  0.12567460617E+04  0.12003039266E+04 0.  0.
        1    1    3    3  502    0  0.66789243765E+02  0.41136456037E+03  0.63836425896E+03  0.76235853229E+03  0.50400001928E-02 0. -1.
       -1    1    3    3    0  502 -0.66789243765E+02 -0.41136456037E+03 -0.26596508151E+03  0.49438752939E+03  0.50400001928E-02 0.  1.
</event>
<event>
 5   0  0.5745487E-05  0.1199795E+04  0.7818609E-02  0.9113036E-01
       -1   -1    0    0    0  501  0.00000000000E+00  0.00000000000E+00  0.69175562196E+03  0.69175562198E+03  0.50400001928E-02 0. -1.
        1   -1    0    0  501    0  0.00000000000E+00  0.00000000000E+00 -0.52023709484E+03  0.52023709487E+03  0.50400001928E-02 0.  1.
    10030    2    1    2    0    0  0.00000000000E+00  0.00000000000E+00  0.17151852712E+03  0.12119927168E+04  0.11997948744E+04 0.  0.
        3    1    3    3  502    0 -0.49239494320E+03  0.12839792005E+03  0.40669687155E+03  0.65141473846E+03  0.10100000352E+00 0. -1.
       -3    1    3    3    0  502  0.49239494320E+03 -0.12839792005E+03 -0.23517834443E+03  0.56057797838E+03  0.10100000352E+00 0.  1.
</event>
<event>
 5   0  0.5447807E-05  0.1199813E+04  0.7818609E-02  0.9113020E-01
        1   -1    0    0  501    0  0.00000000000E+00  0.00000000000E+00  0.10092792840E+04  0.10092792840E+04  0.50400001928E-02 0. -1.
       -1   -1    0    0    0  501  0.00000000000E+00  0.00000000000E+00 -0.35657890222E+03  0.35657890225E+03  0.50400001928E-02 0.  1.
    10030    2    1    2    0    0  0.00000000000E+00  0.00000000000E+00  0.65270038178E+03  0.13658581863E+04  0.11998128173E+04 0.  0.
        2    1    3    3  502    0  0.19731073405E+03  0.44704751908E+03 -0.69811605511E+02  0.49361591380E+03  0.25500000920E-02 0.  1.
       -2    1    3    3    0  502 -0.19731073405E+03 -0.44704751908E+03  0.72251198729E+03  0.87224227247E+03  0.25500000920E-02 0. -1.
</event>
<event>
 5   0  0.3839750E-05  0.1199884E+04  0.7818609E-02  0.9112958E-01
        3   -1    0    0  501    0  0.00000000000E+00  0.00000000000E+00  0.24509934006E+03  0.24509936087E+03  0.10100000352E+00 0. -1.
       -3   -1    0    0    0  501  0.00000000000E+00  0.00000000000E+00 -0.14685078132E+04  0.14685078167E+04  0.10100000352E+00 0.  1.
    10030    2    1    2    0    0  0.00000000000E+00  0.00000000000E+00 -0.12234084732E+04  0.17136071776E+04  0.11998838556E+04 0.  0.
        1    1    3    3  502    0 -0.11457256865E+02 -0.59445405842E+03 -0.72616463013E+03  0.93852115926E+03  0.50400001928E-02 0.  1.
       -1    1    3    3    0  502  0.11457256865E+02  0.59445405842E+03 -0.49724384303E+03  0.77508601830E+03  0.50400001928E-02 0. -1.
</event>
<event>
 5   0  0.1012657E-04  0.1199463E+04  0.7818609E-02  0.9113327E-01
        2   -1    0    0  501    0  0.00000000000E+00  0.00000000000E+00  0.22936089191E+03  0.22936089192E+03  0.25500000920E-02 0. -1.
       -2   -1    0    0    0  501  0.00000000000E+00  0.00000000000E+00 -0.15681744352E+04  0.15681744352E+04  0.25500000920E-02 0.  1.
    10030    2    1    2    0    0  0.00000000000E+00  0.00000000000E+00 -0.13388135433E+04  0.17975353271E+04  0.11994630251E+04 0.  0.
        1    1    3    3  502    0  0.35987697245E+03 -0.15081281828E+03 -0.13519307622E+04  0.14071150370E+04  0.50400001928E-02 0.  1.
       -1    1    3    3    0  502 -0.35987697245E+03  0.15081281828E+03  0.13117218969E+02  0.39042029009E+03  0.50400001928E-02 0. -1.
</event>
<event>
 5   0  0.1023063E-04  0.1199886E+04  0.7818609E-02  0.9112957E-01
       -2   -1    0    0    0  501  0.00000000000E+00  0.00000000000E+00  0.12684676801E+03  0.12684676804E+03  0.25500000920E-02 0. -1.
        2   -1    0    0  501    0  0.00000000000E+00  0.00000000000E+00 -0.28375284576E+04  0.28375284576E+04  0.25500000920E-02 0.  1.
    10030    2    1    2    0    0  0.00000000000E+00  0.00000000000E+00 -0.27106816896E+04  0.29643752256E+04  0.11998855179E+04 0.  0.
        3    1    3    3  502    0  0.52103216951E+03  0.19195892325E+03 -0.19165880723E+04  0.19954028663E+04  0.10100000352E+00 0.  1.
       -3    1    3    3    0  502 -0.52103216951E+03 -0.19195892325E+03 -0.79409361730E+03  0.96897235931E+03  0.10100000352E+00 0. -1.
</event>
<event>
 5   0  0.1012657E-04  0.1199992E+04  0.7818609E-02  0.9112864E-01
       -2   -1    0    0    0  501  0.00000000000E+00  0.00000000000E+00  0.19204442008E+03  0.19204442010E+03  0.25500000920E-02 0. -1.
        2   -1    0    0  501    0  0.00000000000E+00  0.00000000000E+00 -0.18745398508E+04  0.18745398508E+04  0.25500000920E-02 0.  1.
    10030    2    1    2    0    0  0.00000000000E+00  0.00000000000E+00 -0.16824954307E+04  0.20665842709E+04  0.11999915310E+04 0.  0.
        1    1    3    3  502    0 -0.53284737052E+03 -0.63647016471E+02 -0.13034099223E+04  0.14095583310E+04  0.50400001928E-02 0.  1.
       -1    1    3    3    0  502  0.53284737052E+03  0.63647016471E+02 -0.37908550845E+03  0.65702593991E+03  0.50400001928E-02 0. -1.
</event>
<event>
 5   0  0.1023063E-04  0.1200695E+04  0.7818609E-02  0.9112249E-01
        2   -1    0    0  501    0  0.00000000000E+00  0.00000000000E+00  0.13000373358E+04  0.13000373358E+04  0.25500000920E-02 0. -1.
       -2   -1    0    0    0  501  0.00000000000E+00  0.00000000000E+00 -0.27723585963E+03  0.27723585964E+03  0.25500000920E-02 0.  1.
    10030    2    1    2    0    0  0.00000000000E+00  0.00000000000E+00  0.10228014762E+04  0.15772731955E+04  0.12006947461E+04 0.  0.
        3    1    3    3  502    0  0.27401987188E+03 -0.45251901422E+03  0.88424280151E+03  0.10304104477E+04  0.10100000352E+00 0. -1.
       -3    1    3    3    0  502 -0.27401987188E+03  0.45251901422E+03  0.13855867469E+03  0.54686274781E+03  0.10100000352E+00 0.  1.
</event>
<event>
 5   0  0.9941209E-05  0.1200069E+04  0.7818609E-02  0.9112797E-01
        2   -1    0    0  501    0  0.00000000000E+00  0.00000000000E+00  0.12721935227E+04  0.12721935227E+04  0.25500000920E-02 0.  1.
       -2   -1    0    0    0  501  0.00000000000E+00  0.00000000000E+00 -0.28300815254E+03  0.28300815255E+03  0.25500000920E-02 0. -1.
    10030    2    1    2    0    0  0.00000000000E+00  0.00000000000E+00  0.98918537015E+03  0.15552016752E+04  0.12000685623E+04 0.  0.
        2    1    3    3  502    0  0.59019375798E+03  0.91657023020E+02  0.42001821136E+03  0.73016777504E+03  0.25500000920E-02 0. -1.
       -2    1    3    3    0  502 -0.59019375798E+03 -0.91657023020E+02  0.56916715879E+03  0.82503390020E+03  0.25500000920E-02 0.  1.
</event>
<event>
 5   0  0.1012657E-04  0.1200504E+04  0.7818609E-02  0.9112415E-01
       -2   -1    0    0    0  501  0.00000000000E+00  0.00000000000E+00  0.32405154214E+03  0.32405154215E+03  0.25500000920E-02 0.  1.
        2   -1    0    0  501    0  0.00000000000E+00  0.00000000000E+00 -0.11118685923E+04  0.11118685923E+04  0.25500000920E-02 0. -1.
    10030    2    1    2    0    0  0.00000000000E+00  0.00000000000E+00 -0.78781705015E+03  0.14359201344E+04  0.12005044473E+04 0.  0.
        1    1    3    3  502    0 -0.12174266792E+03 -0.71573338082E+02 -0.10917149242E+04  0.11008112898E+04  0.50400001928E-02 0. -1.
       -1    1    3    3    0  502  0.12174266792E+03  0.71573338082E+02  0.30389787404E+03  0.33510884469E+03  0.50400001928E-02 0.  1.
</event>
<event>
 5   0  0.5625746E-05  0.1200262E+04  0.7818609E-02  0.9112627E-01
       -1   -1    0    0    0  501  0.00000000000E+00  0.00000000000E+00  0.66773047225E+03  0.66773047227E+03  0.50400001928E-02 0. -1.
        1   -1    0    0  501    0  0.00000000000E+00  0.00000000000E+00 -0.53937542645E+03  0.53937542647E+03  0.50400001928E-02 0.  1.
    10030    2    1    2    0    0  0.00000000000E+00  0.00000000000E+00  0.12835504581E+03  0.12071058987E+04  0.12002623184E+04 0.  0.
        5    1    3    3  502    0 -0.11980887853E+03 -0.58675262325E+03  0.10316075860E+03  0.60769814907E+03  0.46999998093E+01 0. -1.
       -5    1    3    3    0  502  0.11980887853E+03  0.58675262325E+03  0.25194287200E+02  0.59940774968E+03  0.46999998093E+01 0.  1.
</event>
<event>
 5   0  0.5625746E-05  0.1199746E+04  0.7818609E-02  0.9113079E-01
        1   -1    0    0  501    0  0.00000000000E+00  0.00000000000E+00  0.86730007182E+03  0.86730007183E+03  0.50400001928E-02 0. -1.
       -1   -1    0    0    0  501  0.00000000000E+00  0.00000000000E+00 -0.41490553084E+03  0.41490553087E+03  0.50400001928E-02 0.  1.
    10030    2    1    2    0    0  0.00000000000E+00  0.00000000000E+00  0.45239454098E+03  0.12822056027E+04  0.11997459676E+04 0.  0.
        5    1    3    3  502    0  0.27222602069E+03  0.78078845249E+02 -0.33894031401E+03  0.44170797919E+03  0.46999998093E+01 0.  1.
       -5    1    3    3    0  502 -0.27222602069E+03 -0.78078845249E+02  0.79133485499E+03  0.84049762352E+03  0.46999998093E+01 0. -1.
</event>
<event>
 5   0  0.9941209E-05  0.1200526E+04  0.7818609E-02  0.9112396E-01
        2   -1    0    0  501    0  0.00000000000E+00  0.00000000000E+00  0.73442101274E+03  0.73442101275E+03  0.25500000920E-02 0.  1.
       -2   -1    0    0    0  501  0.00000000000E+00  0.00000000000E+00 -0.49061221743E+03  0.49061221744E+03  0.25500000920E-02 0. -1.
    10030    2    1    2    0    0  0.00000000000E+00  0.00000000000E+00  0.24380879531E+03  0.12250332302E+04  0.12005264205E+04 0.  0.
        2    1    3    3  502    0 -0.37141696703E+03 -0.16067119660E+03 -0.33048540741E+03  0.52248100572E+03  0.25500000920E-02 0. -1.
       -2    1    3    3    0  502  0.37141696703E+03  0.16067119660E+03  0.57429420272E+03  0.70255222447E+03  0.25500000920E-02 0.  1.
</event>
<event>
 5   0  0.5745487E-05  0.1199415E+04  0.7818609E-02  0.9113369E-01
        1   -1    0    0  501    0  0.00000000000E+00  0.00000000000E+00  0.99802784864E+03  0.99802784866E+03  0.50400001928E-02 0. -1.
       -1   -1    0    0    0  501  0.00000000000E+00  0.00000000000E+00 -0.36035954537E+03  0.36035954541E+03  0.50400001928E-02 0.  1.
    10030    2    1    2    0    0  0.00000000000E+00  0.00000000000E+00  0.63766830327E+03  0.13583873941E+04  0.11994146270E+04 0.  0.
        3    1    3    3  502    0 -0.46317933209E+02 -0.53358346348E+03  0.62439428387E+03  0.82263290438E+03  0.10100000352E+00 0.  1.
       -3    1    3    3    0  502  0.46317933209E+02  0.53358346348E+03  0.13274019402E+02  0.53575448969E+03  0.10100000352E+00 0. -1.
</event>
<event>
 5   0  0.5625746E-05  0.1200103E+04  0.7818609E-02  0.9112767E-01
        1   -1    0    0  501    0  0.00000000000E+00  0.00000000000E+00  0.16695818379E+04  0.16695818379E+04  0.50400001928E-02 0.  1.
       -1   -1    0    0    0  501  0.00000000000E+00  0.00000000000E+00 -0.21565979168E+03  0.21565979174E+03  0.50400001928E-02 0. -1.
    10030    2    1    2    0    0  0.00000000000E+00  0.00000000000E+00  0.14539220462E+04  0.18852416296E+04  0.12001027813E+04 0.  0.
        5    1    3    3  502    0 -0.54893876909E+03 -0.20287806022E+03  0.93504631182E+03  0.11030988055E+04  0.46999998093E+01 0.  1.
       -5    1    3    3    0  502  0.54893876909E+03  0.20287806022E+03  0.51887573436E+03  0.78214282406E+03  0.46999998093E+01 0. -1.
</event>
<event>
 5   0  0.1004006E-04  0.1200435E+04  0.7818609E-02  0.9112476E-01
       -2   -1    0    0    0  501  0.00000000000E+00  0.00000000000E+00  0.42783478478E+03  0.42783478479E+03  0.25500000920E-02 0.  1.
        2   -1    0    0  501    0  0.00000000000E+00  0.00000000000E+00 -0.84205596273E+03  0.84205596273E+03  0.25500000920E-02 0. -1.
    10030    2    1    2    0    0  0.00000000000E+00  0.00000000000E+00 -0.41422117795E+03  0.12698907475E+04  0.12004346406E+04 0.  0.
        5    1    3    3  502    0 -0.46437745933E+03 -0.27583785639E+03 -0.48399052843E+03  0.72525986333E+03  0.46999998093E+01 0.  1.
       -5    1    3    3    0  502  0.46437745933E+03  0.27583785639E+03  0.69769350482E+02  0.54463088419E+03  0.46999998093E+01 0. -1.
</event>
<event>
 5   0  0.1023063E-04  0.1202672E+04  0.7818609E-02  0.9110521E-01
       -2   -1    0    0    0  501  0.00000000000E+00  0.00000000000E+00  0.21174529325E+03  0.21174529327E+03  0.25500000920E-02 0.  1.
        2   -1    0    0  501    0  0.00000000000E+00  0.00000000000E+00 -0.17077361505E+04  0.17077361505E+04  0.25500000920E-02 0. -1.
    10030    2    1    2    0    0  0.00000000000E+00  0.00000000000E+00 -0.14959908573E+04  0.19194814438E+04  0.12026721781E+04 0.  0.
        3    1    3    3  502    0 -0.28849710387E+02 -0.12026810173E+03 -0.16872171789E+04  0.16917442304E+04  0.10100000352E+00 0. -1.
       -3    1    3    3    0  502  0.28849710387E+02  0.12026810173E+03  0.19122632163E+03  0.22773721340E+03  0.10100000352E+00 0.  1.
</event>
<event>
 5   0  0.5625746E-05  0.1201386E+04  0.7818609E-02  0.9111644E-01
       -1   -1    0    0    0  501  0.00000000000E+00  0.00000000000E+00  0.29075383122E+03  0.29075383126E+03  0.50400001928E-02 0.  1.
        1   -1    0    0  501    0  0.00000000000E+00  0.00000000000E+00 -0.12410223045E+04  0.12410223045E+04  0.50400001928E-02 0. -1.
    10030    2    1    2    0    0  0.00000000000E+00  0.00000000000E+00 -0.95026847325E+03  0.15317761357E+04  0.12013858493E+04 0.  0.
        5    1    3    3  502    0 -0.58508099163E+03 -0.11779853497E+03 -0.38853091510E+03  0.71216193636E+03  0.46999998093E+01 0.  1.
       -5    1    3    3    0  502  0.58508099163E+03  0.11779853497E+03 -0.56173755815E+03  0.81961419939E+03  0.46999998093E+01 0. -1.
</event>
<event>
 5   0  0.9941209E-05  0.1200316E+04  0.7818609E-02  0.9112580E-01
       -2   -1    0    0    0  501  0.00000000000E+00  0.00000000000E+00  0.11024967575E+04  0.11024967575E+04  0.25500000920E-02 0. -1.
        2   -1    0    0  501    0  0.00000000000E+00  0.00000000000E+00 -0.32670331852E+03  0.32670331853E+03  0.25500000920E-02 0.  1.
    10030    2    1    2    0    0  0.00000000000E+00  0.00000000000E+00  0.77579343901E+03  0.14292000761E+04  0.12003155408E+04 0.  0.
        2    1    3    3  502    0 -0.25489000760E+03  0.27792795355E+03 -0.16801064197E+03  0.41284432800E+03  0.25500000920E-02 0.  1.
       -2    1    3    3    0  502  0.25489000760E+03 -0.27792795355E+03  0.94380408098E+03  0.10163557481E+04  0.25500000920E-02 0. -1.
</event>
<event>
 5   0  0.5620246E-05  0.1200021E+04  0.7818609E-02  0.9112839E-01
        1   -1    0    0  501    0  0.00000000000E+00  0.00000000000E+00  0.12832112145E+03  0.12832112155E+03  0.50400001928E-02 0. -1.
       -1   -1    0    0    0  501  0.00000000000E+00  0.00000000000E+00 -0.28055578217E+04  0.28055578217E+04  0.50400001928E-02 0.  1.
    10030    2    1    2    0    0  0.00000000000E+00  0.00000000000E+00 -0.26772367002E+04  0.29338789432E+04  0.12000205434E+04 0.  0.
        1    1    3    3  502    0  0.43660024284E+03 -0.12582474301E+03 -0.38055652855E+03  0.59268449402E+03  0.50400001928E-02 0. -1.
       -1    1    3    3    0  502 -0.43660024284E+03  0.12582474301E+03 -0.22966801717E+04  0.23411944492E+04  0.50400001928E-02 0.  1.
</event>
<event>
 5   0  0.3839750E-05  0.1199103E+04  0.7818609E-02  0.9113642E-01
        3   -1    0    0  501    0  0.00000000000E+00  0.00000000000E+00  0.44196974135E+03  0.44196975289E+03  0.10100000352E+00 0.  1.
       -3   -1    0    0    0  501  0.00000000000E+00  0.00000000000E+00 -0.81331867626E+03  0.81331868253E+03  0.10100000352E+00 0. -1.
    10030    2    1    2    0    0  0.00000000000E+00  0.00000000000E+00 -0.37134893491E+03  0.12552884354E+04  0.11991034253E+04 0.  0.
        4    1    3    3  502    0 -0.47403542598E+03 -0.33172573638E+03 -0.35023106346E+03  0.67632459661E+03  0.12699999809E+01 0. -1.
       -4    1    3    3    0  502  0.47403542598E+03  0.33172573638E+03 -0.21117871450E+02  0.57896383882E+03  0.12699999809E+01 0.  1.
</event>
<event>
 5   0  0.1012657E-04  0.1199204E+04  0.7818609E-02  0.9113553E-01
        2   -1    0    0  501    0  0.00000000000E+00  0.00000000000E+00  0.82244984957E+03  0.82244984958E+03  0.25500000920E-02 0.  1.
       -2   -1    0    0    0  501  0.00000000000E+00  0.00000000000E+00 -0.43713636911E+03  0.43713636912E+03  0.25500000920E-02 0. -1.
    10030    2    1    2    0    0  0.00000000000E+00  0.00000000000E+00  0.38531348046E+03  0.12595862187E+04  0.11992043046E+04 0.  0.
        1    1    3    3  502    0  0.54633788091E+03 -0.22600434094E+03  0.87833441404E+02  0.59772715824E+03  0.50400001928E-02 0.  1.
       -1    1    3    3    0  502 -0.54633788091E+03  0.22600434094E+03  0.29748003906E+03  0.66185906046E+03  0.50400001928E-02 0. -1.
</event>
<event>
 5   0  0.5447807E-05  0.1199662E+04  0.7818609E-02  0.9113153E-01
       -1   -1    0    0    0  501  0.00000000000E+00  0.00000000000E+00  0.10050389526E+04  0.10050389526E+04  0.50400001928E-02 0.  1.
        1   -1    0    0  501    0  0.00000000000E+00  0.00000000000E+00 -0.35799317809E+03  0.35799317813E+03  0.50400001928E-02 0. -1.
    10030    2    1    2    0    0  0.00000000000E+00  0.00000000000E+00  0.64704577446E+03  0.13630321307E+04  0.11996617669E+04 0.  0.
        2    1    3    3  502    0 -0.31865463840E+03 -0.26743482542E+03  0.81449864649E+03  0.91458745320E+03  0.25500000920E-02 0.  1.
       -2    1    3    3    0  502  0.31865463840E+03  0.26743482542E+03 -0.16745287202E+03  0.44844467750E+03  0.25500000920E-02 0. -1.
</event>
<event>
 5   0  0.5745487E-05  0.1199506E+04  0.7818609E-02  0.9113289E-01
       -1   -1    0    0    0  501  0.00000000000E+00  0.00000000000E+00  0.16260645709E+04  0.16260645709E+04  0.50400001928E-02 0.  1.
        1   -1    0    0  501    0  0.00000000000E+00  0.00000000000E+00 -0.22121121190E+03  0.22121121196E+03  0.50400001928E-02 0. -1.
    10030    2    1    2    0    0  0.00000000000E+00  0.00000000000E+00  0.14048533590E+04  0.18472757829E+04  0.11995060891E+04 0.  0.
        3    1    3    3  502    0 -0.16112597848E+03 -0.23314946633E+03 -0.11158309078E+03  0.30458340556E+03  0.10100000352E+00 0. -1.
       -3    1    3    3    0  502  0.16112597848E+03  0.23314946633E+03  0.15164364498E+04  0.15426923773E+04  0.10100000352E+00 0.  1.
</event>
<event>
 5   0  0.5625746E-05  0.1199638E+04  0.7818609E-02  0.9113173E-01
        1   -1    0    0  501    0  0.00000000000E+00  0.00000000000E+00  0.16913251620E+04  0.16913251620E+04  0.50400001928E-02 0.  1.
       -1   -1    0    0    0  501  0.00000000000E+00  0.00000000000E+00 -0.21272246868E+03  0.21272246874E+03  0.50400001928E-02 0. -1.
    10030    2    1    2    0    0  0.00000000000E+00  0.00000000000E+00  0.14786026933E+04  0.19040476308E+04  0.11996380519E+04 0.  0.
        5    1    3    3  502    0  0.35792479814E+03  0.22143499384E+03  0.61037976945E+02  0.42531322839E+03  0.46999998093E+01 0. -1.
       -5    1    3    3    0  502 -0.35792479814E+03 -0.22143499384E+03  0.14175647164E+04  0.14787344024E+04  0.46999998093E+01 0.  1.
</event>
<event>
 5   0  0.5447807E-05  0.1199846E+04  0.7818609E-02  0.9112991E-01
       -1   -1    0    0    0  501  0.00000000000E+00  0.00000000000E+00  0.80241884944E+03  0.80241884945E+03  0.50400001928E-02 0. -1.
        1   -1    0    0  501    0  0.00000000000E+00  0.00000000000E+00 -0.44852865204E+03  0.44852865207E+03  0.50400001928E-02 0.  1.
    10030    2    1    2    0    0  0.00000000000E+00  0.00000000000E+00  0.35389019739E+03  0.12509475015E+04  0.11998463984E+04 0.  0.
        2    1    3    3  502    0  0.83880140514E+02 -0.45761645448E+03  0.57183638873E+03  0.73718759679E+03  0.25500000920E-02 0. -1.
       -2    1    3    3    0  502 -0.83880140514E+02  0.45761645448E+03 -0.21794619134E+03  0.51375990473E+03  0.25500000920E-02 0.  1.
</event>
<event>
 5   0  0.9838215E-05  0.1202071E+04  0.7818609E-02  0.9111046E-01
       -2   -1    0    0    0  501  0.00000000000E+00  0.00000000000E+00  0.45983163488E+03  0.45983163489E+03  0.25500000920E-02 0.  1.
        2   -1    0    0  501    0  0.00000000000E+00  0.00000000000E+00 -0.78559984587E+03  0.78559984587E+03  0.25500000920E-02 0. -1.
    10030    2    1    2    0    0  0.00000000000E+00  0.00000000000E+00 -0.32576821099E+03  0.12454314808E+04  0.12020709821E+04 0.  0.
        4    1    3    3  502    0  0.63160608410E+02 -0.37408443913E+03  0.32010039884E+03  0.49638121267E+03  0.12699999809E+01 0.  1.
       -4    1    3    3    0  502 -0.63160608410E+02  0.37408443913E+03 -0.64586860983E+03  0.74905026809E+03  0.12699999809E+01 0. -1.
</event>
<event>
 5   0  0.5732931E-05  0.1200090E+04  0.7818609E-02  0.9112778E-01
        1   -1    0    0  501    0  0.00000000000E+00  0.00000000000E+00  0.75872595050E+03  0.75872595052E+03  0.50400001928E-02 0. -1.
       -1   -1    0    0    0  501  0.00000000000E+00  0.00000000000E+00 -0.47455060876E+03  0.47455060879E+03  0.50400001928E-02 0.  1.
    10030    2    1    2    0    0  0.00000000000E+00  0.00000000000E+00  0.28417534174E+03  0.12332765593E+04  0.12000897662E+04 0.  0.
        4    1    3    3  502    0  0.53913620101E+03  0.18560412311E+03  0.33416686279E+03  0.66089775218E+03  0.12699999809E+01 0. -1.
       -4    1    3    3    0  502 -0.53913620101E+03 -0.18560412311E+03 -0.49991521046E+02  0.57237880712E+03  0.12699999809E+01 0.  1.
</event>
<event>
 5   0  0.5745487E-05  0.1199875E+04  0.7818609E-02  0.9112966E-01
       -1   -1    0    0    0  501  0.00000000000E+00  0.00000000000E+00  0.35223240651E+03  0.35223240655E+03  0.50400001928E-02 0. -1.
        1   -1    0    0  501    0  0.00000000000E+00  0.00000000000E+00 -0.10218388444E+04  0.10218388444E+04  0.50400001928E-02 0.  1.
    10030    2    1    2    0    0  0.00000000000E+00  0.00000000000E+00 -0.66960643787E+03  0.13740712509E+04  0.11998745855E+04 0.  0.
        3    1    3    3  502    0 -0.47559914946E+03  0.15320361803E+03 -0.71506275929E+03  0.87234205416E+03  0.10100000352E+00 0.  1.
       -3    1    3    3    0  502  0.47559914946E+03 -0.15320361803E+03  0.45456321418E+02  0.50172919678E+03  0.10100000352E+00 0. -1.
</event>
<event>
 5   0  0.3839750E-05  0.1200100E+04  0.7818609E-02  0.9112769E-01
       -4   -1    0    0    0  501  0.00000000000E+00  0.00000000000E+00  0.66223938482E+03  0.66224060258E+03  0.12699999809E+01 0.  1.
        4   -1    0    0  501    0  0.00000000000E+00  0.00000000000E+00 -0.54369817092E+03  0.54369965419E+03  0.12699999809E+01 0. -1.
    10030    2    1    2    0    0  0.00000000000E+00  0.00000000000E+00  0.11854121389E+03  0.12059402568E+04  0.12000999473E+04 0.  0.
        1    1    3    3  502    0 -0.52607593707E+03 -0.17140752248E+03  0.29261511083E+03  0.62590736809E+03  0.50400001928E-02 0.  1.
       -1    1    3    3    0  502  0.52607593707E+03  0.17140752248E+03 -0.17407389693E+03  0.58003288867E+03  0.50400001928E-02 0. -1.
</event>
<event>
 5   0  0.1012657E-04  0.1200362E+04  0.7818609E-02  0.9112540E-01
        2   -1    0    0  501    0  0.00000000000E+00  0.00000000000E+00  0.14520852766E+04  0.14520852766E+04  0.25500000920E-02 0.  1.
       -2   -1    0    0    0  501  0.00000000000E+00  0.00000000000E+00 -0.24806892731E+03  0.24806892732E+03  0.25500000920E-02 0. -1.
    10030    2    1    2    0    0  0.00000000000E+00  0.00000000000E+00  0.12040163493E+04  0.17001542039E+04  0.12003620070E+04 0.  0.
        1    1    3    3  502    0  0.42436131527E+00  0.23389948660E+03  0.13848741676E+04  0.14044876681E+04  0.50400001928E-02 0.  1.
       -1    1    3    3    0  502 -0.42436131527E+00 -0.23389948660E+03 -0.18085781829E+03  0.29566653578E+03  0.50400001928E-02 0. -1.
</event>
<event>
 5   0  0.1023063E-04  0.1200430E+04  0.7818609E-02  0.9112480E-01
       -2   -1    0    0    0  501  0.00000000000E+00  0.00000000000E+00  0.93786326559E+03  0.93786326559E+03  0.25500000920E-02 0.  1.
        2   -1    0    0  501    0  0.00000000000E+00  0.00000000000E+00 -0.38412660199E+03  0.38412660200E+03  0.25500000920E-02 0. -1.
    10030    2    1    2    0    0  0.00000000000E+00  0.00000000000E+00  0.55373666360E+03  0.13219898676E+04  0.12004303051E+04 0.  0.
        3    1    3    3  502    0  0.25320641758E+03 -0.50059612814E+03  0.41836327978E+02  0.56254800858E+03  0.10100000352E+00 0. -1.
       -3    1    3    3    0  502 -0.25320641758E+03  0.50059612814E+03  0.51190033562E+03  0.75944185901E+03  0.10100000352E+00 0.  1.
</event>
<event>
 5   0  0.1023063E-04  0.1201041E+04  0.7818609E-02  0.9111946E-01
        2   -1    0    0  501    0  0.00000000000E+00  0.00000000000E+00  0.11557583838E+04  0.11557583838E+04  0.25500000920E-02 0.  1.
       -2   -1    0    0    0  501  0.00000000000E+00  0.00000000000E+00 -0.31202463200E+03  0.31202463201E+03  0.25500000920E-02 0. -1.
    10030    2    1    2    0    0  0.00000000000E+00  0.00000000000E+00  0.84373375177E+03  0.14677830158E+04  0.12010413555E+04 0.  0.
        3    1    3    3  502    0  0.13877382335E+02 -0.22707855763E+03  0.11010552268E+04  0.11243130684E+04  0.10100000352E+00 0.  1.
       -3    1    3    3    0  502 -0.13877382335E+02  0.22707855763E+03 -0.25732147501E+03  0.34346994742E+03  0.10100000352E+00 0. -1.
</event>
<event>
 5   0  0.5732931E-05  0.1200584E+04  0.7818609E-02  0.9112345E-01
        1   -1    0    0  501    0  0.00000000000E+00  0.00000000000E+00  0.82962202489E+03  0.82962202491E+03  0.50400001928E-02 0.  1.
       -1   -1    0    0    0  501  0.00000000000E+00  0.00000000000E+00 -0.43435513731E+03  0.43435513734E+03  0.50400001928E-02 0. -1.
    10030    2    1    2    0    0  0.00000000000E+00  0.00000000000E+00  0.39526688758E+03  0.12639771623E+04  0.12005841721E+04 0.  0.
        4    1    3    3  502    0 -0.49520220676E+02 -0.58337660467E+03  0.33717818266E+03  0.67562656467E+03  0.12699999809E+01 0. -1.
       -4    1    3    3    0  502  0.49520220676E+02  0.58337660467E+03  0.58088704919E+02  0.58835059758E+03  0.12699999809E+01 0.  1.
</event>
<event>
 5   0  0.1012657E-04  0.1199803E+04  0.7818609E-02  0.9113029E-01
        2   -1    0    0  501    0  0.00000000000E+00  0.00000000000E+00  0.17998512443E+04  0.17998512443E+04  0.25500000920E-02 0. -1.
       -2   -1    0    0    0  501  0.00000000000E+00  0.00000000000E+00 -0.19995087156E+03  0.19995087158E+03  0.25500000920E-02 0.  1.
    10030    2    1    2    0    0  0.00000000000E+00  0.00000000000E+00  0.15999003727E+04  0.19998021159E+04  0.11998030255E+04 0.  0.
        1    1    3    3  502    0  0.10993194754E+03 -0.44772075429E+02  0.17800824842E+04  0.17840356561E+04  0.50400001928E-02 0. -1.
       -1    1    3    3    0  502 -0.10993194754E+03  0.44772075429E+02 -0.18018211146E+03  0.21576645973E+03  0.50400001928E-02 0.  1.
</event>
<event>
 5   0  0.5447807E-05  0.1199125E+04  0.7818609E-02  0.9113623E-01
       -1   -1    0    0    0  501  0.00000000000E+00  0.00000000000E+00  0.49023659002E+03  0.49023659004E+03  0.50400001928E-02 0.  1.
        1   -1    0    0  501    0  0.00000000000E+00  0.00000000000E+00 -0.73326886691E+03  0.73326886693E+03  0.50400001928E-02 0. -1.
    10030    2    1    2    0    0  0.00000000000E+00  0.00000000000E+00 -0.24303227690E+03  0.12235054570E+04  0.11991250625E+04 0.  0.
        2    1    3    3  502    0 -0.11630562567E+03  0.48723681977E+03 -0.45768181400E+03  0.67852734651E+03  0.25500000920E-02 0. -1.
       -2    1    3    3    0  502  0.11630562567E+03 -0.48723681977E+03  0.21464953710E+03  0.54497811046E+03  0.25500000920E-02 0.  1.
</event>
<event>
 5   0  0.5620246E-05  0.1200212E+04  0.7818609E-02  0.9112671E-01
       -1   -1    0    0    0  501  0.00000000000E+00  0.00000000000E+00  0.41686976725E+03  0.41686976728E+03  0.50400001928E-02 0. -1.
        1   -1    0    0  501    0  0.00000000000E+00  0.00000000000E+00 -0.86388382872E+03  0.86388382873E+03  0.50400001928E-02 0.  1.
    10030    2    1    2    0    0  0.00000000000E+00  0.00000000000E+00 -0.44701406147E+03  0.12807535960E+04  0.12002117324E+04 0.  0.
        1    1    3    3  502    0  0.13002061872E+03  0.66669001839E+02  0.39759740729E+03  0.42359628824E+03  0.50400001928E-02 0. -1.
       -1    1    3    3    0  502 -0.13002061872E+03 -0.66669001839E+02 -0.84461146876E+03  0.85715730778E+03  0.50400001928E-02 0.  1.
</event>
<event>
 5   0  0.5625746E-05  0.1200012E+04  0.7818609E-02  0.9112846E-01
       -1   -1    0    0    0  501  0.00000000000E+00  0.00000000000E+00  0.28457420601E+03  0.28457420605E+03  0.50400001928E-02 0. -1.
        1   -1    0    0  501    0  0.00000000000E+00  0.00000000000E+00 -0.12650732120E+04  0.12650732121E+04  0.50400001928E-02 0.  1.
    10030    2    1    2    0    0  0.00000000000E+00  0.00000000000E+00 -0.98049900604E+03  0.15496474181E+04  0.12000120081E+04 0.  0.
        5    1    3    3  502    0  0.42690426817E+02 -0.56664155687E+03 -0.73891589892E+03  0.93216088857E+03  0.46999998093E+01 0.  1.
       -5    1    3    3    0  502 -0.42690426817E+02  0.56664155687E+03 -0.24158310712E+03  0.61748652953E+03  0.46999998093E+01 0. -1.
</event>
<event>
 5   0  0.9941209E-05  0.1199659E+04  0.7818609E-02  0.9113155E-01
        2   -1    0    0  501    0  0.00000000000E+00  0.00000000000E+00  0.33391110589E+03  0.33391110590E+03  0.25500000920E-02 0. -1.
       -2   -1    0    0    0  501  0.00000000000E+00  0.00000000000E+00 -0.10775186780E+04  0.10775186780E+04  0.25500000920E-02 0.  1.
    10030    2    1    2    0    0  0.00000000000E+00  0.00000000000E+00 -0.74360757207E+03  0.14114297839E+04  0.11996590405E+04 0.  0.
        2    1    3    3  502    0 -0.38153403135E+03 -0.43918088004E+03 -0.19990458908E+03  0.61515031270E+03  0.25500000920E-02 0. -1.
       -2    1    3    3    0  502  0.38153403135E+03  0.43918088004E+03 -0.54370298299E+03  0.79627947116E+03  0.25500000920E-02 0.  1.
</event>
<event>
 5   0  0.1012657E-04  0.1200048E+04  0.7818609E-02  0.9112815E-01
        2   -1    0    0  501    0  0.00000000000E+00  0.00000000000E+00  0.17420214110E+04  0.17420214110E+04  0.25500000920E-02 0.  1.
       -2   -1    0    0    0  501  0.00000000000E+00  0.00000000000E+00 -0.20667292345E+03  0.20667292347E+03  0.25500000920E-02 0. -1.
    10030    2    1    2    0    0  0.00000000000E+00  0.00000000000E+00  0.15353484875E+04  0.19486943344E+04  0.12000477620E+04 0.  0.
        1    1    3    3  502    0 -0.13430746786E+03 -0.24837697106E+03 -0.92043713142E+02  0.29698764424E+03  0.50400001928E-02 0. -1.
       -1    1    3    3    0  502  0.13430746786E+03  0.24837697106E+03  0.16273922007E+04  0.16517066902E+04  0.50400001928E-02 0.  1.
</event>
<event>
 5   0  0.1004006E-04  0.1200103E+04  0.7818609E-02  0.9112766E-01
        2   -1    0    0  501    0  0.00000000000E+00  0.00000000000E+00  0.29056704029E+03  0.29056704030E+03  0.25500000920E-02 0. -1.
       -2   -1    0    0    0  501  0.00000000000E+00  0.00000000000E+00 -0.12391695749E+04  0.12391695749E+04  0.25500000920E-02 0.  1.
    10030    2    1    2    0    0  0.00000000000E+00  0.00000000000E+00 -0.94860253465E+03  0.15297366152E+04  0.12001030553E+04 0.  0.
        5    1    3    3  502    0 -0.55129450048E+03 -0.28597410886E+02 -0.77404229151E+03  0.95074023646E+03  0.46999998093E+01 0.  1.
       -5    1    3    3    0  502  0.55129450048E+03  0.28597410886E+02 -0.17456024313E+03  0.57899637879E+03  0.46999998093E+01 0. -1.
</event>
<event>
 5   0  0.3839750E-05  0.1200280E+04  0.7818609E-02  0.9112612E-01
       -3   -1    0    0    0  501  0.00000000000E+00  0.00000000000E+00  0.39390960020E+03  0.39390961315E+03  0.10100000352E+00 0.  1.
        3   -1    0    0  501    0  0.00000000000E+00  0.00000000000E+00 -0.91434111273E+03  0.91434111831E+03  0.10100000352E+00 0. -1.
    10030    2    1    2    0    0  0.00000000000E+00  0.00000000000E+00 -0.52043151253E+03  0.13082507315E+04  0.12002795579E+04 0.  0.
        2    1    3    3  502    0 -0.45695126038E+03 -0.13798904650E+03  0.13626775863E+03  0.49640138332E+03  0.25500000920E-02 0.  1.
       -2    1    3    3    0  502  0.45695126038E+03  0.13798904650E+03 -0.65669927116E+03  0.81184934814E+03  0.25500000920E-02 0. -1.
</event>
<event>
 5   0  0.3839750E-05  0.1199662E+04  0.7818609E-02  0.9113152E-01
       -4   -1    0    0    0  501  0.00000000000E+00  0.00000000000E+00  0.14110826046E+04  0.14110831762E+04  0.12699999809E+01 0.  1.
        4   -1    0    0  501    0  0.00000000000E+00  0.00000000000E+00 -0.25497748050E+03  0.25498064331E+03  0.12699999809E+01 0. -1.
    10030    2    1    2    0    0  0.00000000000E+00  0.00000000000E+00  0.11561051241E+04  0.16660638195E+04  0.11996622827E+04 0.  0.
        4    1    3    3  502    0  0.27396995684E+03 -0.10604409059E+03 -0.14822740911E+03  0.32905601971E+03  0.12699999809E+01 0. -1.
       -4    1    3    3    0  502 -0.27396995684E+03  0.10604409059E+03  0.13043325333E+04  0.13370077997E+04  0.12699999809E+01 0.  1.
</event>
<event>
 5   0  0.9838215E-05  0.1199768E+04  0.7818609E-02  0.9113060E-01
        2   -1    0    0  501    0  0.00000000000E+00  0.00000000000E+00  0.18362952271E+04  0.18362952271E+04  0.25500000920E-02 0.  1.
       -2   -1    0    0    0  501  0.00000000000E+00  0.00000000000E+00 -0.19597113622E+03  0.19597113623E+03  0.25500000920E-02 0. -1.
    10030    2    1    2    0    0  0.00000000000E+00  0.00000000000E+00  0.16403240909E+04  0.20322663633E+04  0.11997680811E+04 0.  0.
        4    1    3    3  502    0  0.35985432907E+03  0.23545495005E+03  0.15286123037E+04  0.15879519387E+04  0.12699999809E+01 0.  1.
       -4    1    3    3    0  502 -0.35985432907E+03 -0.23545495005E+03  0.11171178718E+03  0.44431442465E+03  0.12699999809E+01 0. -1.
</event>
<event>
 5   0  0.1012657E-04  0.1200060E+04  0.7818609E-02  0.9112804E-01
       -2   -1    0    0    0  501  0.00000000000E+00  0.00000000000E+00  0.71914235711E+03  0.71914235712E+03  0.25500000920E-02 0.  1.
        2   -1    0    0  501    0  0.00000000000E+00  0.00000000000E+00 -0.50064608397E+03  0.50064608398E+03  0.25500000920E-02 0. -1.
    10030    2    1    2    0    0  0.00000000000E+00  0.00000000000E+00  0.21849627314E+03  0.12197884411E+04  0.12000596734E+04 0.  0.
        1    1    3    3  502    0  0.44681375438E+03 -0.39218285592E+03  0.26760545431E+02  0.59511851795E+03  0.50400001928E-02 0.  1.
       -1    1    3    3    0  502 -0.44681375438E+03  0.39218285592E+03  0.19173572771E+03  0.62466992315E+03  0.50400001928E-02 0. -1.
</event>
<event>
 5   0  0.5732931E-05  0.1201646E+04  0.7818609E-02  0.9111417E-01
       -1   -1    0    0    0  501  0.00000000000E+00  0.00000000000E+00  0.39467590302E+03  0.39467590305E+03  0.50400001928E-02 0. -1.
        1   -1    0    0  501    0  0.00000000000E+00  0.00000000000E+00 -0.91464450859E+03  0.91464450861E+03  0.50400001928E-02 0.  1.
    10030    2    1    2    0    0  0.00000000000E+00  0.00000000000E+00 -0.51996860557E+03  0.13093204117E+04  0.12016457838E+04 0.  0.
        4    1    3    3  502    0 -0.35903230219E+03  0.41807420367E-01  0.26493255151E+03  0.44620070093E+03  0.12699999809E+01 0. -1.
       -4    1    3    3    0  502  0.35903230219E+03 -0.41807420367E-01 -0.78490115708E+03  0.86311971073E+03  0.12699999809E+01 0.  1.
</event>
<event>
 5   0  0.5625746E-05  0.1199900E+04  0.7818609E-02  0.9112944E-01
       -1   -1    0    0    0  501  0.00000000000E+00  0.00000000000E+00  0.10169105298E+04  0.10169105298E+04  0.50400001928E-02 0. -1.
        1   -1    0    0  501    0  0.00000000000E+00  0.00000000000E+00 -0.35395439504E+03  0.35395439508E+03  0.50400001928E-02 0.  1.
    10030    2    1    2    0    0  0.00000000000E+00  0.00000000000E+00  0.66295613477E+03  0.13708649249E+04  0.11998999149E+04 0.  0.
        5    1    3    3  502    0  0.48797530443E+03  0.23257232242E+03  0.34195196190E+02  0.54166519579E+03  0.46999998093E+01 0.  1.
       -5    1    3    3    0  502 -0.48797530443E+03 -0.23257232242E+03  0.62876093858E+03  0.82919972912E+03  0.46999998093E+01 0. -1.
</event>
<event>
 5   0  0.1004006E-04  0.1200108E+04  0.7818609E-02  0.9112762E-01
        2   -1    0    0  501    0  0.00000000000E+00  0.00000000000E+00  0.89429625109E+03  0.89429625110E+03  0.25500000920E-02 0.  1.
       -2   -1    0    0    0  501  0.00000000000E+00  0.00000000000E+00 -0.40262348108E+03  0.40262348109E+03  0.25500000920E-02 0. -1.
    10030    2    1    2    0    0  0.00000000000E+00  0.00000000000E+00  0.49167277001E+03  0.12969197322E+04  0.12001077781E+04 0.  0.
        5    1    3    3  502    0 -0.64100030214E+02 -0.11488256209E+03 -0.38682679379E+03  0.40861213312E+03  0.46999998093E+01 0. -1.
       -5    1    3    3    0  502  0.64100030214E+02  0.11488256209E+03  0.87849956380E+03  0.88830759906E+03  0.46999998093E+01 0.  1.
</event>
<event>
 5   0  0.1004006E-04  0.1199931E+04  0.7818609E-02  0.9112917E-01
       -2   -1    0    0    0  501  0.00000000000E+00  0.00000000000E+00  0.85357548888E+03  0.85357548889E+03  0.25500000920E-02 0. -1.
        2   -1    0    0  501    0  0.00000000000E+00  0.00000000000E+00 -0.42170683659E+03  0.42170683660E+03  0.25500000920E-02 0.  1.
    10030    2    1    2    0    0  0.00000000000E+00  0.00000000000E+00  0.43186865229E+03  0.12752823255E+04  0.11999310300E+04 0.  0.
        5    1    3    3  502    0 -0.45548732674E+03  0.16532691746E+03  0.59189218597E+03  0.76495760946E+03  0.46999998093E+01 0. -1.
       -5    1    3    3    0  502  0.45548732674E+03 -0.16532691746E+03 -0.16002353368E+03  0.51032471602E+03  0.46999998093E+01 0.  1.
</event>
<event>
 5   0  0.1004006E-04  0.1200382E+04  0.7818609E-02  0.9112522E-01
       -2   -1    0    0    0  501  0.00000000000E+00  0.00000000000E+00  0.58796788478E+03  0.58796788478E+03  0.25500000920E-02 0. -1.
        2   -1    0    0  501    0  0.00000000000E+00  0.00000000000E+00 -0.61266791453E+03  0.61266791453E+03  0.25500000920E-02 0.  1.
    10030    2    1    2    0    0  0.00000000000E+00  0.00000000000E+00 -0.24700029753E+02  0.12006357993E+04  0.12003817023E+04 0.  0.
        5    1    3    3  502    0  0.82579765329E+02 -0.38030816451E+03  0.44464192966E+03  0.59091645200E+03  0.46999998093E+01 0. -1.
       -5    1    3    3    0  502 -0.82579765329E+02  0.38030816451E+03 -0.46934195941E+03  0.60971934732E+03  0.46999998093E+01 0.  1.
</event>
<event>
 5   0  0.9838215E-05  0.1200937E+04  0.7818609E-02  0.9112037E-01
       -2   -1    0    0    0  501  0.00000000000E+00  0.00000000000E+00  0.21378608580E+03  0.21378608582E+03  0.25500000920E-02 0.  1.
        2   -1    0    0  501    0  0.00000000000E+00  0.00000000000E+00 -0.16865556679E+04  0.16865556679E+04  0.25500000920E-02 0. -1.
    10030    2    1    2    0    0  0.00000000000E+00  0.00000000000E+00 -0.14727695821E+04  0.19003417537E+04  0.12009365258E+04 0.  0.
        4    1    3    3  502    0  0.40020799754E+03  0.92970292261E+02 -0.43469686240E+02  0.41315994852E+03  0.12699999809E+01 0.  1.
       -4    1    3    3    0  502 -0.40020799754E+03 -0.92970292261E+02 -0.14292998959E+04  0.14871818052E+04  0.12699999809E+01 0. -1.
</event>
<event>
 5   0  0.9838215E-05  0.1199172E+04  0.7818609E-02  0.9113582E-01
        2   -1    0    0  501    0  0.00000000000E+00  0.00000000000E+00  0.37204815891E+03  0.37204815892E+03  0.25500000920E-02 0.  1.
       -2   -1    0    0    0  501  0.00000000000E+00  0.00000000000E+00 -0.96628153099E+03  0.96628153100E+03  0.25500000920E-02 0. -1.
    10030    2    1    2    0    0  0.00000000000E+00  0.00000000000E+00 -0.59423337208E+03  0.13383296899E+04  0.11991718219E+04 0.  0.
        4    1    3    3  502    0 -0.59322561588E+03 -0.76127976270E+02 -0.34432883958E+03  0.69012756992E+03  0.12699999809E+01 0.  1.
       -4    1    3    3    0  502  0.59322561588E+03  0.76127976270E+02 -0.24990453250E+03  0.64820212000E+03  0.12699999809E+01 0. -1.
</event>
<event>
 5   0  0.5625746E-05  0.1199707E+04  0.7818609E-02  0.9113113E-01
        1   -1    0    0  501    0  0.00000000000E+00  0.00000000000E+00  0.13262322871E+04  0.13262322871E+04  0.50400001928E-02 0.  1.
       -1   -1    0    0    0  501  0.00000000000E+00  0.00000000000E+00 -0.27131298382E+03  0.27131298387E+03  0.50400001928E-02 0. -1.
    10030    2    1    2    0    0  0.00000000000E+00  0.00000000000E+00  0.10549193033E+04  0.15975452710E+04  0.11997066960E+04 0.  0.
        5    1    3    3  502    0  0.17452993753E+02  0.15553364297E+03  0.12985391573E+04  0.13079454707E+04  0.46999998093E+01 0.  1.
       -5    1    3    3    0  502 -0.17452993753E+02 -0.15553364297E+03 -0.24361985402E+03  0.28959980035E+03  0.46999998093E+01 0. -1.
</event>
<event>
 5   0  0.1023063E-04  0.1200468E+04  0.7818609E-02  0.9112447E-01
       -2   -1    0    0    0  501  0.00000000000E+00  0.00000000000E+00  0.56451590503E+03  0.56451590504E+03  0.25500000920E-02 0. -1.
        2   -1    0    0  501    0  0.00000000000E+00  0.00000000000E+00 -0.63821234845E+03  0.63821234846E+03  0.25500000920E-02 0.  1.
    10030    2    1    2    0    0  0.00000000000E+00  0.00000000000E+00 -0.73696443424E+02  0.12027282535E+04  0.12004682778E+04 0.  0.
        3    1    3    3  502    0  0.49285323111E+03  0.30931883276E+03  0.11073341327E+03  0.59232115168E+03  0.10100000352E+00 0. -1.
       -3    1    3    3    0  502 -0.49285323111E+03 -0.30931883276E+03 -0.18442985669E+03  0.61040710182E+03  0.10100000352E+00 0.  1.
</event>
<event>
 5   0  0.9941209E-05  0.1205639E+04  0.7818609E-02  0.9107935E-01
        2   -1    0    0  501    0  0.00000000000E+00  0.00000000000E+00  0.10866069315E+04  0.10866069315E+04  0.25500000920E-02 0. -1.
       -2   -1    0    0    0  501  0.00000000000E+00  0.00000000000E+00 -0.33442746379E+03  0.33442746380E+03  0.25500000920E-02 0.  1.
    10030    2    1    2    0    0  0.00000000000E+00  0.00000000000E+00  0.75217946769E+03  0.14210343953E+04  0.12056387523E+04 0.  0.
        2    1    3    3  502    0  0.24484591703E+03 -0.40747645465E+03  0.81299577772E+03  0.94177954893E+03  0.25500000920E-02 0. -1.
       -2    1    3    3    0  502 -0.24484591703E+03  0.40747645465E+03 -0.60816310032E+02  0.47925484635E+03  0.25500000920E-02 0.  1.
</event>
<event>
 5   0  0.5620246E-05  0.1202379E+04  0.7818609E-02  0.9110777E-01
        1   -1    0    0  501    0  0.00000000000E+00  0.00000000000E+00  0.19784986624E+04  0.19784986624E+04  0.50400001928E-02 0. -1.
       -1   -1    0    0    0  501  0.00000000000E+00  0.00000000000E+00 -0.18267823235E+03  0.18267823242E+03  0.50400001928E-02 0.  1.
    10030    2    1    2    0    0  0.00000000000E+00  0.00000000000E+00  0.17958204300E+04  0.21611768948E+04  0.12023787064E+04 0.  0.
        1    1    3    3  502    0  0.28868409602E+03  0.60070356126E+02  0.18395953690E+04  0.18630775820E+04  0.50400001928E-02 0. -1.
       -1    1    3    3    0  502 -0.28868409602E+03 -0.60070356126E+02 -0.43774938953E+02  0.29809931279E+03  0.50400001928E-02 0.  1.
</event>
<event>
 5   0  0.1004006E-04  0.1199961E+04  0.7818609E-02  0.9112891E-01
       -2   -1    0    0    0  501  0.00000000000E+00  0.00000000000E+00  0.43908645547E+03  0.43908645548E+03  0.25500000920E-02 0.  1.
        2   -1    0    0  501    0  0.00000000000E+00  0.00000000000E+00 -0.81983102020E+03  0.81983102020E+03  0.25500000920E-02 0. -1.
    10030    2    1    2    0    0  0.00000000000E+00  0.00000000000E+00 -0.38074456473E+03  0.12589174757E+04  0.11999611606E+04 0.  0.
        5    1    3    3  502    0  0.34079448489E+02 -0.52351606382E+02  0.43564611592E+03  0.44012694512E+03  0.46999998093E+01 0.  1.
       -5    1    3    3    0  502 -0.34079448489E+02  0.52351606382E+02 -0.81639068065E+03  0.81879053057E+03  0.46999998093E+01 0. -1.
</event>
<event>
 5   0  0.9941209E-05  0.1199730E+04  0.7818609E-02  0.9113093E-01
       -2   -1    0    0    0  501  0.00000000000E+00  0.00000000000E+00  0.77859027700E+03  0.77859027701E+03  0.25500000920E-02 0.  1.
        2   -1    0    0  501    0  0.00000000000E+00  0.00000000000E+00 -0.46216622060E+03  0.46216622061E+03  0.25500000920E-02 0. -1.
    10030    2    1    2    0    0  0.00000000000E+00  0.00000000000E+00  0.31642405640E+03  0.12407564976E+04  0.11997301792E+04 0.  0.
        2    1    3    3  502    0  0.10867874475E+03  0.81228390343E+02 -0.44608878767E+03  0.46626636963E+03  0.25500000920E-02 0. -1.
       -2    1    3    3    0  502 -0.10867874475E+03 -0.81228390343E+02  0.76251284408E+03  0.77449012798E+03  0.25500000920E-02 0.  1.
</event>
<event>
 5   0  0.5620246E-05  0.1199605E+04  0.7818609E-02  0.9113202E-01
        1   -1    0    0  501    0  0.00000000000E+00  0.00000000000E+00  0.92153295633E+03  0.92153295635E+03  0.50400001928E-02 0. -1.
       -1   -1    0    0    0  501  0.00000000000E+00  0.00000000000E+00 -0.39039628570E+03  0.39039628573E+03  0.50400001928E-02 0.  1.
    10030    2    1    2    0    0  0.00000000000E+00  0.00000000000E+00  0.53113667063E+03  0.13119292421E+04  0.11996050072E+04 0.  0.
        1    1    3    3  502    0 -0.35261998254E+03 -0.65897349508E+02 -0.26014993301E+03  0.44312673179E+03  0.50400001928E-02 0.  1.
       -1    1    3    3    0  502  0.35261998254E+03  0.65897349508E+02  0.79128660364E+03  0.86880251029E+03  0.50400001928E-02 0. -1.
</event>
<event>
 5   0  0.1004006E-04  0.1200340E+04  0.7818609E-02  0.9112559E-01
        2   -1    0    0  501    0  0.00000000000E+00  0.00000000000E+00  0.11616932410E+04  0.11616932410E+04  0.25500000920E-02 0. -1.
       -2   -1    0    0    0  501  0.00000000000E+00  0.00000000000E+00 -0.31006824986E+03  0.31006824987E+03  0.25500000920E-02 0.  1.
    10030    2    1    2    0    0  0.00000000000E+00  0.00000000000E+00  0.85162499109E+03  0.14717614908E+04  0.12003402686E+04 0.  0.
        5    1    3    3  502    0  0.50648058452E+03 -0.27979379579E+03  0.62112751997E+03  0.84889848434E+03  0.46999998093E+01 0. -1.
       -5    1    3    3    0  502 -0.50648058452E+03  0.27979379579E+03  0.23049747112E+03  0.62286300648E+03  0.46999998093E+01 0.  1.
</event>
<event>
 5   0  0.1004006E-04  0.1201193E+04  0.7818609E-02  0.9111813E-01
       -2   -1    0    0    0  501  0.00000000000E+00  0.00000000000E+00  0.23141185583E+03  0.23141185585E+03  0.25500000920E-02 0.  1.
        2   -1    0    0  501    0  0.00000000000E+00  0.00000000000E+00 -0.15587637563E+04  0.15587637563E+04  0.25500000920E-02 0. -1.
    10030    2    1    2    0    0  0.00000000000E+00  0.00000000000E+00 -0.13273519005E+04  0.17901756122E+04  0.12011934293E+04 0.  0.
        5    1    3    3  502    0  0.26471108971E+03 -0.34192559208E+03 -0.42529276727E+02  0.43452951673E+03  0.46999998093E+01 0.  1.
       -5    1    3    3    0  502 -0.26471108971E+03  0.34192559208E+03 -0.12848226238E+04  0.13556460954E+04  0.46999998093E+01 0. -1.
</event>
<event>
 5   0  0.1023063E-04  0.1200537E+04  0.7818609E-02  0.9112387E-01
        2   -1    0    0  501    0  0.00000000000E+00  0.00000000000E+00  0.21114275749E+04  0.21114275749E+04  0.25500000920E-02 0. -1.
       -2   -1    0    0    0  501  0.00000000000E+00  0.00000000000E+00 -0.17065327529E+03  0.17065327531E+03  0.25500000920E-02 0.  1.
    10030    2    1    2    0    0  0.00000000000E+00  0.00000000000E+00  0.19407742996E+04  0.22820808502E+04  0.12005365987E+04 0.  0.
        3    1    3    3  502    0 -0.35580431257E+03 -0.16328083601E+02  0.18888480218E+04  0.19221368772E+04  0.10100000352E+00 0. -1.
       -3    1    3    3    0  502  0.35580431257E+03  0.16328083601E+02  0.51926277810E+02  0.35994397298E+03  0.10100000352E+00 0.  1.
</event>
<event>
 5   0  0.5447807E-05  0.1199995E+04  0.7818609E-02  0.9112861E-01
       -1   -1    0    0    0  501  0.00000000000E+00  0.00000000000E+00  0.72196344616E+03  0.72196344618E+03  0.50400001928E-02 0. -1.
        1   -1    0    0  501    0  0.00000000000E+00  0.00000000000E+00 -0.49863604252E+03  0.49863604255E+03  0.50400001928E-02 0.  1.
    10030    2    1    2    0    0  0.00000000000E+00  0.00000000000E+00  0.22332740364E+03  0.12205994887E+04  0.11999949928E+04 0.  0.
        2    1    3    3  502    0  0.10905938327E+03  0.51341459047E+03 -0.18403128319E+03  0.55619781012E+03  0.25500000920E-02 0.  1.
       -2    1    3    3    0  502 -0.10905938327E+03 -0.51341459047E+03  0.40735868683E+03  0.66440167860E+03  0.25500000920E-02 0. -1.
</event>
<event>
 5   0  0.5625746E-05  0.1199749E+04  0.7818609E-02  0.9113076E-01
        1   -1    0    0  501    0  0.00000000000E+00  0.00000000000E+00  0.89122568027E+03  0.89122568029E+03  0.50400001928E-02 0.  1.
       -1   -1    0    0    0  501  0.00000000000E+00  0.00000000000E+00 -0.40376929204E+03  0.40376929207E+03  0.50400001928E-02 0. -1.
    10030    2    1    2    0    0  0.00000000000E+00  0.00000000000E+00  0.48745638823E+03  0.12949949724E+04  0.11997492438E+04 0.  0.
        5    1    3    3  502    0 -0.29544172065E+03 -0.26015454270E+03 -0.24482013666E+03  0.46360024342E+03  0.46999998093E+01 0. -1.
       -5    1    3    3    0  502  0.29544172065E+03  0.26015454270E+03  0.73227652490E+03  0.83139472894E+03  0.46999998093E+01 0.  1.
</event>
<event>
 5   0  0.9941209E-05  0.1200255E+04  0.7818609E-02  0.9112633E-01
        2   -1    0    0  501    0  0.00000000000E+00  0.00000000000E+00  0.17002129318E+04  0.17002129318E+04  0.25500000920E-02 0. -1.
       -2   -1    0    0    0  501  0.00000000000E+00  0.00000000000E+00 -0.21182830103E+03  0.21182830104E+03  0.25500000920E-02 0.  1.
    10030    2    1    2    0    0  0.00000000000E+00  0.00000000000E+00  0.14883846308E+04  0.19120412329E+04  0.12002553341E+04 0.  0.
        2    1    3    3  502    0  0.25568723007E+03 -0.30753225426E+02  0.16077130738E+04  0.16282085395E+04  0.25500000920E-02 0. -1.
       -2    1    3    3    0  502 -0.25568723007E+03  0.30753225426E+02 -0.11932844301E+03  0.28383269334E+03  0.25500000920E-02 0.  1.
</event>
<event>
 5   0  0.1012657E-04  0.1199447E+04  0.7818609E-02  0.9113341E-01
       -2   -1    0    0    0  501  0.00000000000E+00  0.00000000000E+00  0.45071251595E+03  0.45071251596E+03  0.25500000920E-02 0.  1.
        2   -1    0    0  501    0  0.00000000000E+00  0.00000000000E+00 -0.79799891266E+03  0.79799891266E+03  0.25500000920E-02 0. -1.
    10030    2    1    2    0    0  0.00000000000E+00  0.00000000000E+00 -0.34728639671E+03  0.12487114286E+04  0.11994467019E+04 0.  0.
        1    1    3    3  502    0  0.57598307027E+03  0.11640715610E+02 -0.34715008604E+03  0.67261072379E+03  0.50400001928E-02 0.  1.
       -1    1    3    3    0  502 -0.57598307027E+03 -0.11640715610E+02 -0.13631066792E+00  0.57610070483E+03  0.50400001928E-02 0. -1.
</event>
<event>
 5   0  0.5447807E-05  0.1199889E+04  0.7818609E-02  0.9112954E-01
        1   -1    0    0  501    0  0.00000000000E+00  0.00000000000E+00  0.16054806902E+04  0.16054806902E+04  0.50400001928E-02 0.  1.
       -1   -1    0    0    0  501  0.00000000000E+00  0.00000000000E+00 -0.22419041831E+03  0.22419041837E+03  0.50400001928E-02 0. -1.
    10030    2    1    2    0    0  0.00000000000E+00  0.00000000000E+00  0.13812902719E+04  0.18296711086E+04  0.11998889742E+04 0.  0.
        2    1    3    3  502    0 -0.57448952886E+03 -0.11836670763E+03  0.88282975355E+03  0.10599232378E+04  0.25500000920E-02 0.  1.
       -2    1    3    3    0  502  0.57448952886E+03  0.11836670763E+03  0.49846051834E+03  0.76974787079E+03  0.25500000920E-02 0. -1.
</event>
<event>
 5   0  0.5745487E-05  0.1200256E+04  0.7818609E-02  0.9112632E-01
        1   -1    0    0  501    0  0.00000000000E+00  0.00000000000E+00  0.15033224235E+04  0.15033224235E+04  0.50400001928E-02 0.  1.
       -1   -1    0    0    0  501  0.00000000000E+00  0.00000000000E+00 -0.23957185964E+03  0.23957185969E+03  0.50400001928E-02 0. -1.
    10030    2    1    2    0    0  0.00000000000E+00  0.00000000000E+00  0.12637505639E+04  0.17428942832E+04  0.12002562205E+04 0.  0.
        3    1    3    3  502    0  0.55181818351E+03 -0.22194544653E+03  0.51579202545E+03  0.78727664300E+03  0.10100000352E+00 0.  1.
       -3    1    3    3    0  502 -0.55181818351E+03  0.22194544653E+03  0.74795853841E+03  0.95561764020E+03  0.10100000352E+00 0. -1.
</event>
<event>
 5   0  0.9941209E-05  0.1199918E+04  0.7818609E-02  0.9112929E-01
       -2   -1    0    0    0  501  0.00000000000E+00  0.00000000000E+00  0.25670466125E+03  0.25670466126E+03  0.25500000920E-02 0. -1.
        2   -1    0    0  501    0  0.00000000000E+00  0.00000000000E+00 -0.14021974608E+04  0.14021974608E+04  0.25500000920E-02 0.  1.
    10030    2    1    2    0    0  0.00000000000E+00  0.00000000000E+00 -0.11454927996E+04  0.16589021221E+04  0.11999177042E+04 0.  0.
        2    1    3    3  502    0 -0.42595135210E+02 -0.43806666263E+03 -0.90710157252E+01  0.44022611212E+03  0.25500000920E-02 0. -1.
       -2    1    3    3    0  502  0.42595135210E+02  0.43806666263E+03 -0.11364217839E+04  0.12186760100E+04  0.25500000920E-02 0.  1.
</event>
<event>
 5   0  0.5620246E-05  0.1199653E+04  0.7818609E-02  0.9113161E-01
       -1   -1    0    0    0  501  0.00000000000E+00  0.00000000000E+00  0.39933005481E+03  0.39933005484E+03  0.50400001928E-02 0. -1.
        1   -1    0    0  501    0  0.00000000000E+00  0.00000000000E+00 -0.90098791267E+03  0.90098791269E+03  0.50400001928E-02 0.  1.
    10030    2    1    2    0    0  0.00000000000E+00  0.00000000000E+00 -0.50165785786E+03  0.13003179675E+04  0.11996525373E+04 0.  0.
        1    1    3    3  502    0  0.14156418485E+03  0.32562627486E+03 -0.77484038715E+03  0.85232066436E+03  0.50400001928E-02 0.  1.
       -1    1    3    3    0  502 -0.14156418485E+03 -0.32562627486E+03  0.27318252929E+03  0.44799730317E+03  0.50400001928E-02 0. -1.
</event>
<event>
 5   0  0.5620246E-05  0.1199425E+04  0.7818609E-02  0.9113360E-01
        1   -1    0    0  501    0  0.00000000000E+00  0.00000000000E+00  0.38490229398E+03  0.38490229401E+03  0.50400001928E-02 0. -1.
       -1   -1    0    0    0  501  0.00000000000E+00  0.00000000000E+00 -0.93440636582E+03  0.93440636583E+03  0.50400001928E-02 0.  1.
    10030    2    1    2    0    0  0.00000000000E+00  0.00000000000E+00 -0.54950407184E+03  0.13193086598E+04  0.11994251185E+04 0.  0.
        1    1    3    3  502    0 -0.17011620233E+03  0.52989601116E+02 -0.90461939535E+03  0.92199982136E+03  0.50400001928E-02 0.  1.
       -1    1    3    3    0  502  0.17011620233E+03 -0.52989601116E+02  0.35511532351E+03  0.39730883849E+03  0.50400001928E-02 0. -1.
</event>
<event>
 5   0  0.5447807E-05  0.1199122E+04  0.7818609E-02  0.9113626E-01
       -1   -1    0    0    0  501  0.00000000000E+00  0.00000000000E+00  0.18189640980E+03  0.18189640987E+03  0.50400001928E-02 0.  1.
        1   -1    0    0  501    0  0.00000000000E+00  0.00000000000E+00 -0.19762521889E+04  0.19762521889E+04  0.50400001928E-02 0. -1.
    10030    2    1    2    0    0  0.00000000000E+00  0.00000000000E+00 -0.17943557791E+04  0.21581485988E+04  0.11991216420E+04 0.  0.
        2    1    3    3  502    0 -0.10217207430E+03  0.10803346527E+02  0.16593497974E+03  0.19516726818E+03  0.25500000920E-02 0.  1.
       -2    1    3    3    0  502  0.10217207430E+03 -0.10803346527E+02 -0.19602907589E+04  0.19629813306E+04  0.25500000920E-02 0. -1.
</event>
<event>
 5   0  0.9838215E-05  0.1193656E+04  0.7818609E-02  0.9118427E-01
       -2   -1    0    0    0  501  0.00000000000E+00  0.00000000000E+00  0.46533153438E+03  0.46533153439E+03  0.25500000920E-02 0. -1.
        2   -1    0    0  501    0  0.00000000000E+00  0.00000000000E+00 -0.76548415069E+03  0.76548415069E+03  0.25500000920E-02 0.  1.
    10030    2    1    2    0    0  0.00000000000E+00  0.00000000000E+00 -0.30015261631E+03  0.12308156851E+04  0.11936564236E+04 0.  0.
        4    1    3    3  502    0 -0.27674030436E+03  0.39402667946E+03 -0.51370168241E+03  0.70408327036E+03  0.12699999809E+01 0.  1.
       -4    1    3    3    0  502  0.27674030436E+03 -0.39402667946E+03  0.21354906610E+03  0.52673241472E+03  0.12699999809E+01 0. -1.
</event>
<event>
 5   0  0.3839750E-05  0.1200131E+04  0.7818609E-02  0.9112742E-01
       -4   -1    0    0    0  501  0.00000000000E+00  0.00000000000E+00  0.74462337561E+03  0.74462445864E+03  0.12699999809E+01 0.  1.
        4   -1    0    0  501    0  0.00000000000E+00  0.00000000000E+00 -0.48356902775E+03  0.48357069545E+03  0.12699999809E+01 0. -1.
    10030    2    1    2    0    0  0.00000000000E+00  0.00000000000E+00  0.26105434785E+03  0.12281951541E+04  0.12001308112E+04 0.  0.
        2    1    3    3  502    0 -0.44065887254E+03  0.61206305294E+02  0.54262469170E+03  0.70168939696E+03  0.25500000920E-02 0.  1.
       -2    1    3    3    0  502  0.44065887254E+03 -0.61206305294E+02 -0.28157034384E+03  0.52650575713E+03  0.25500000920E-02 0. -1.
</event>
<event>
 5   0  0.9838215E-05  0.1207033E+04  0.7818609E-02  0.9106723E-01
       -2   -1    0    0    0  501  0.00000000000E+00  0.00000000000E+00  0.41591588988E+03  0.41591588989E+03  0.25500000920E-02 0. -1.
        2   -1    0    0  501    0  0.00000000000E+00  0.00000000000E+00 -0.87573496778E+03  0.87573496778E+03  0.25500000920E-02 0.  1.
    10030    2    1    2    0    0  0.00000000000E+00  0.00000000000E+00 -0.45981907790E+03  0.12916508577E+04  0.12070328719E+04 0.  0.
        4    1    3    3  502    0  0.14463145395E+03  0.24875002047E+03 -0.79760522001E+03  0.84792129944E+03  0.12699999809E+01 0.  1.
       -4    1    3    3    0  502 -0.14463145395E+03 -0.24875002047E+03  0.33778614211E+03  0.44372955824E+03  0.12699999809E+01 0. -1.
</event>
<event>
 5   0  0.1012657E-04  0.1199947E+04  0.7818609E-02  0.9112903E-01
        2   -1    0    0  501    0  0.00000000000E+00  0.00000000000E+00  0.42607263491E+03  0.42607263492E+03  0.25500000920E-02 0. -1.
       -2   -1    0    0    0  501  0.00000000000E+00  0.00000000000E+00 -0.84485177260E+03  0.84485177260E+03  0.25500000920E-02 0.  1.
    10030    2    1    2    0    0  0.00000000000E+00  0.00000000000E+00 -0.41877913769E+03  0.12709244075E+04  0.11999470336E+04 0.  0.
        1    1    3    3  502    0  0.13732600630E+03 -0.56412154295E+03 -0.49192678401E+02  0.58267612518E+03  0.50400001928E-02 0. -1.
       -1    1    3    3    0  502 -0.13732600630E+03  0.56412154295E+03 -0.36958645928E+03  0.68824828234E+03  0.50400001928E-02 0.  1.
</event>
<event>
 5   0  0.1004006E-04  0.1199588E+04  0.7818609E-02  0.9113217E-01
       -2   -1    0    0    0  501  0.00000000000E+00  0.00000000000E+00  0.18803233508E+03  0.18803233510E+03  0.25500000920E-02 0. -1.
        2   -1    0    0  501    0  0.00000000000E+00  0.00000000000E+00 -0.19132508092E+04  0.19132508092E+04  0.25500000920E-02 0.  1.
    10030    2    1    2    0    0  0.00000000000E+00  0.00000000000E+00 -0.17252184741E+04  0.21012831443E+04  0.11995882915E+04 0.  0.
        5    1    3    3  502    0 -0.18978015312E+03  0.44155006068E+03 -0.14911342196E+04  0.15666800291E+04  0.46999998093E+01 0.  1.
       -5    1    3    3    0  502  0.18978015312E+03 -0.44155006068E+03 -0.23408425451E+03  0.53460311523E+03  0.46999998093E+01 0. -1.
</event>
<event>
 5   0  0.1023063E-04  0.1200099E+04  0.7818609E-02  0.9112770E-01
        2   -1    0    0  501    0  0.00000000000E+00  0.00000000000E+00  0.10451595286E+04  0.10451595286E+04  0.25500000920E-02 0. -1.
       -2   -1    0    0    0  501  0.00000000000E+00  0.00000000000E+00 -0.34450201268E+03  0.34450201269E+03  0.25500000920E-02 0.  1.
    10030    2    1    2    0    0  0.00000000000E+00  0.00000000000E+00  0.70065751592E+03  0.13896615413E+04  0.12000992645E+04 0.  0.
        3    1    3    3  502    0 -0.56289921983E+03  0.46613302128E+02  0.11577138936E+03  0.57656860512E+03  0.10100000352E+00 0.  1.
       -3    1    3    3    0  502  0.56289921983E+03 -0.46613302128E+02  0.58488612656E+03  0.81309293618E+03  0.10100000352E+00 0. -1.
</event>
<event>
 5   0  0.9838215E-05  0.1200404E+04  0.7818609E-02  0.9112503E-01
       -2   -1    0    0    0  501  0.00000000000E+00  0.00000000000E+00  0.52991186499E+03  0.52991186500E+03  0.25500000920E-02 0.  1.
        2   -1    0    0  501    0  0.00000000000E+00  0.00000000000E+00 -0.67981624357E+03  0.67981624357E+03  0.25500000920E-02 0. -1.
    10030    2    1    2    0    0  0.00000000000E+00  0.00000000000E+00 -0.14990437858E+03  0.12097281086E+04  0.12004044210E+04 0.  0.
        4    1    3    3  502    0  0.52590401060E+03  0.94510484431E+02 -0.35045039711E+03  0.63900262422E+03  0.12699999809E+01 0. -1.
       -4    1    3    3    0  502 -0.52590401060E+03 -0.94510484431E+02  0.20054601853E+03  0.57072548435E+03  0.12699999809E+01 0.  1.
</event>
<event>
 5   0  0.5745487E-05  0.1199667E+04  0.7818609E-02  0.9113148E-01
       -1   -1    0    0    0  501  0.00000000000E+00  0.00000000000E+00  0.38573000452E+03  0.38573000455E+03  0.50400001928E-02 0. -1.
        1   -1    0    0  501    0  0.00000000000E+00  0.00000000000E+00 -0.93277799716E+03  0.93277799717E+03  0.50400001928E-02 0.  1.
    10030    2    1    2    0    0  0.00000000000E+00  0.00000000000E+00 -0.54704799264E+03  0.13185080017E+04  0.11996673890E+04 0.  0.
        3    1    3    3  502    0 -0.57893409973E+03  0.11557778562E+03 -0.15680837156E+03  0.61082877465E+03  0.10100000352E+00 0.  1.
       -3    1    3    3    0  502  0.57893409973E+03 -0.11557778562E+03 -0.39023962108E+03  0.70767922706E+03  0.10100000352E+00 0. -1.
</event>
<event>
 5   0  0.5447807E-05  0.1200342E+04  0.7818609E-02  0.9112557E-01
       -1   -1    0    0    0  501  0.00000000000E+00  0.00000000000E+00  0.32238869475E+03  0.32238869479E+03  0.50400001928E-02 0.  1.
        1   -1    0    0  501    0  0.00000000000E+00  0.00000000000E+00 -0.11173017735E+04  0.11173017736E+04  0.50400001928E-02 0. -1.
    10030    2    1    2    0    0  0.00000000000E+00  0.00000000000E+00 -0.79491307879E+03  0.14396904683E+04  0.12003423852E+04 0.  0.
        2    1    3    3  502    0  0.35860350455E+03 -0.57736937606E+02 -0.97050793594E+03  0.10362507810E+04  0.25500000920E-02 0. -1.
       -2    1    3    3    0  502 -0.35860350455E+03  0.57736937606E+02  0.17559485715E+03  0.40343968732E+03  0.25500000920E-02 0.  1.
</event>
<event>
 5   0  0.5745487E-05  0.1199837E+04  0.7818609E-02  0.9112999E-01
        1   -1    0    0  501    0  0.00000000000E+00  0.00000000000E+00  0.39919706535E+03  0.39919706538E+03  0.50400001928E-02 0. -1.
       -1   -1    0    0    0  501  0.00000000000E+00  0.00000000000E+00 -0.90156501518E+03  0.90156501520E+03  0.50400001928E-02 0.  1.
    10030    2    1    2    0    0  0.00000000000E+00  0.00000000000E+00 -0.50236794984E+03  0.13007620806E+04  0.11998368361E+04 0.  0.
        3    1    3    3  502    0  0.51991851352E+03  0.17515452459E+03 -0.51430879759E+03  0.75200260482E+03  0.10100000352E+00 0.  1.
       -3    1    3    3    0  502 -0.51991851352E+03 -0.17515452459E+03  0.11940847754E+02  0.54875947575E+03  0.10100000352E+00 0. -1.
</event>
<event>
 5   0  0.9838215E-05  0.1199301E+04  0.7818609E-02  0.9113469E-01
       -2   -1    0    0    0  501  0.00000000000E+00  0.00000000000E+00  0.38517987265E+03  0.38517987266E+03  0.25500000920E-02 0.  1.
        2   -1    0    0  501    0  0.00000000000E+00  0.00000000000E+00 -0.93353990099E+03  0.93353990100E+03  0.25500000920E-02 0. -1.
    10030    2    1    2    0    0  0.00000000000E+00  0.00000000000E+00 -0.54836002835E+03  0.13187197737E+04  0.11993010968E+04 0.  0.
        4    1    3    3  502    0  0.31002197989E+03 -0.41879379722E+03 -0.60050946552E+03  0.79505666697E+03  0.12699999809E+01 0. -1.
       -4    1    3    3    0  502 -0.31002197989E+03  0.41879379722E+03  0.52149437175E+02  0.52366310669E+03  0.12699999809E+01 0.  1.
</event>
<event>
 5   0  0.5620246E-05  0.1199921E+04  0.7818609E-02  0.9112926E-01
        1   -1    0    0  501    0  0.00000000000E+00  0.00000000000E+00  0.54955948318E+03  0.54955948320E+03  0.50400001928E-02 0. -1.
       -1   -1    0    0    0  501  0.00000000000E+00  0.00000000000E+00 -0.65498375321E+03  0.65498375323E+03  0.50400001928E-02 0.  1.
    10030    2    1    2    0    0  0.00000000000E+00  0.00000000000E+00 -0.10542427003E+03  0.12045432364E+04  0.11999208856E+04 0.  0.
        1    1    3    3  502    0  0.81248474061E+02 -0.98279627635E+02 -0.64122329509E+03  0.65377940771E+03  0.50400001928E-02 0.  1.
       -1    1    3    3    0  502 -0.81248474061E+02  0.98279627635E+02  0.53579902506E+03  0.55076382872E+03  0.50400001928E-02 0. -1.
</event>
<event>
 5   0  0.5625746E-05  0.1199878E+04  0.7818609E-02  0.9112963E-01
        1   -1    0    0  501    0  0.00000000000E+00  0.00000000000E+00  0.49893569794E+03  0.49893569796E+03  0.50400001928E-02 0.  1.
       -1   -1    0    0    0  501  0.00000000000E+00  0.00000000000E+00 -0.72138936742E+03  0.72138936744E+03  0.50400001928E-02 0. -1.
    10030    2    1    2    0    0  0.00000000000E+00  0.00000000000E+00 -0.22245366948E+03  0.12203250654E+04  0.11998781731E+04 0.  0.
        5    1    3    3  502    0 -0.59092386420E+03 -0.87512293622E+02 -0.16744447474E+03  0.62041047455E+03  0.46999998093E+01 0. -1.
       -5    1    3    3    0  502  0.59092386420E+03  0.87512293622E+02 -0.55009194742E+02  0.59991459085E+03  0.46999998093E+01 0.  1.
</event>
<event>
 5   0  0.5620246E-05  0.1200225E+04  0.7818609E-02  0.9112660E-01
        1   -1    0    0  501    0  0.00000000000E+00  0.00000000000E+00  0.97154295414E+03  0.97154295415E+03  0.50400001928E-02 0.  1.
       -1   -1    0    0    0  501  0.00000000000E+00  0.00000000000E+00 -0.37068348057E+03  0.37068348061E+03  0.50400001928E-02 0. -1.
    10030    2    1    2    0    0  0.00000000000E+00  0.00000000000E+00  0.60085947357E+03  0.13422264348E+04  0.12002248519E+04 0.  0.
        1    1    3    3  502    0 -0.57285131864E+03  0.17799011972E+03  0.31966366423E+03  0.67972345424E+03  0.50400001928E-02 0.  1.
       -1    1    3    3    0  502  0.57285131864E+03 -0.17799011972E+03  0.28119580934E+03  0.66250298052E+03  0.50400001928E-02 0. -1.
</event>
<event>
 5   0  0.5447807E-05  0.1201983E+04  0.7818609E-02  0.9111123E-01
       -1   -1    0    0    0  501  0.00000000000E+00  0.00000000000E+00  0.29131656105E+03  0.29131656110E+03  0.50400001928E-02 0.  1.
        1   -1    0    0  501    0  0.00000000000E+00  0.00000000000E+00 -0.12398558900E+04  0.12398558901E+04  0.50400001928E-02 0. -1.
    10030    2    1    2    0    0  0.00000000000E+00  0.00000000000E+00 -0.94853932899E+03  0.15311724512E+04  0.12019826191E+04 0.  0.
        2    1    3    3  502    0 -0.31879532646E+03  0.76849445691E+02 -0.11158440200E+04  0.11630323187E+04  0.25500000920E-02 0. -1.
       -2    1    3    3    0  502  0.31879532646E+03 -0.76849445691E+02  0.16730469098E+03  0.36814013243E+03  0.25500000920E-02 0.  1.
</event>
<event>
 5   0  0.1004006E-04  0.1198473E+04  0.7818609E-02  0.9114194E-01
       -2   -1    0    0    0  501  0.00000000000E+00  0.00000000000E+00  0.30669512287E+03  0.30669512288E+03  0.25500000920E-02 0.  1.
        2   -1    0    0  501    0  0.00000000000E+00  0.00000000000E+00 -0.11708191534E+04  0.11708191535E+04  0.25500000920E-02 0. -1.
    10030    2    1    2    0    0  0.00000000000E+00  0.00000000000E+00 -0.86412403058E+03  0.14775142763E+04  0.11984732356E+04 0.  0.
        5    1    3    3  502    0 -0.34174528248E+02 -0.41356135857E+03 -0.96498359450E+03  0.10504362538E+04  0.46999998093E+01 0. -1.
       -5    1    3    3    0  502  0.34174528248E+02  0.41356135857E+03  0.10085956393E+03  0.42707802251E+03  0.46999998093E+01 0.  1.
</event>
<event>
 5   0  0.9838215E-05  0.1198168E+04  0.7818609E-02  0.9114462E-01
        2   -1    0    0  501    0  0.00000000000E+00  0.00000000000E+00  0.14720930649E+04  0.14720930649E+04  0.25500000920E-02 0. -1.
       -2   -1    0    0    0  501  0.00000000000E+00  0.00000000000E+00 -0.24380354171E+03  0.24380354172E+03  0.25500000920E-02 0.  1.
    10030    2    1    2    0    0  0.00000000000E+00  0.00000000000E+00  0.12282895232E+04  0.17158966066E+04  0.11981677728E+04 0.  0.
        4    1    3    3  502    0  0.39449122408E+03 -0.38423925049E+03  0.27634883617E+03  0.61614399262E+03  0.12699999809E+01 0.  1.
       -4    1    3    3    0  502 -0.39449122408E+03  0.38423925049E+03  0.95194068700E+03  0.10997526140E+04  0.12699999809E+01 0. -1.
</event>
<event>
 5   0  0.5745487E-05  0.1200072E+04  0.7818609E-02  0.9112794E-01
       -1   -1    0    0    0  501  0.00000000000E+00  0.00000000000E+00  0.20967450925E+03  0.20967450931E+03  0.50400001928E-02 0. -1.
        1   -1    0    0  501    0  0.00000000000E+00  0.00000000000E+00 -0.17171527245E+04  0.17171527245E+04  0.50400001928E-02 0.  1.
    10030    2    1    2    0    0  0.00000000000E+00  0.00000000000E+00 -0.15074782153E+04  0.19268272339E+04  0.12000719227E+04 0.  0.
        3    1    3    3  502    0 -0.17357428432E+03 -0.22958111341E+03 -0.15990920858E+04  0.16247864564E+04  0.10100000352E+00 0.  1.
       -3    1    3    3    0  502  0.17357428432E+03  0.22958111341E+03  0.91613870468E+02  0.30204077750E+03  0.10100000352E+00 0. -1.
</event>
<event>
 5   0  0.5447807E-05  0.1199893E+04  0.7818609E-02  0.9112950E-01
        1   -1    0    0  501    0  0.00000000000E+00  0.00000000000E+00  0.10017635971E+04  0.10017635971E+04  0.50400001928E-02 0. -1.
       -1   -1    0    0    0  501  0.00000000000E+00  0.00000000000E+00 -0.35930193511E+03  0.35930193515E+03  0.50400001928E-02 0.  1.
    10030    2    1    2    0    0  0.00000000000E+00  0.00000000000E+00  0.64246166198E+03  0.13610655323E+04  0.11998926602E+04 0.  0.
        2    1    3    3  502    0  0.23959639924E+03  0.46760643535E+03 -0.72792698013E+01  0.52546665040E+03  0.25500000920E-02 0.  1.
       -2    1    3    3    0  502 -0.23959639924E+03 -0.46760643535E+03  0.64974093178E+03  0.83559888185E+03  0.25500000920E-02 0. -1.
</event>
<event>
 5   0  0.9838215E-05  0.1199779E+04  0.7818609E-02  0.9113050E-01
       -2   -1    0    0    0  501  0.00000000000E+00  0.00000000000E+00  0.67916632420E+03  0.67916632421E+03  0.25500000920E-02 0. -1.
        2   -1    0    0  501    0  0.00000000000E+00  0.00000000000E+00 -0.52986606534E+03  0.52986606534E+03  0.25500000920E-02 0.  1.
    10030    2    1    2    0    0  0.00000000000E+00  0.00000000000E+00  0.14930025886E+03  0.12090323895E+04  0.11997786261E+04 0.  0.
        4    1    3    3  502    0  0.42842790403E+03  0.41710245322E+03  0.25896717320E+02  0.59849576297E+03  0.12699999809E+01 0.  1.
       -4    1    3    3    0  502 -0.42842790403E+03 -0.41710245322E+03  0.12340354154E+03  0.61053662658E+03  0.12699999809E+01 0. -1.
</event>
<event>
 5   0  0.5620246E-05  0.1200569E+04  0.7818609E-02  0.9112359E-01
        1   -1    0    0  501    0  0.00000000000E+00  0.00000000000E+00  0.58462859542E+03  0.58462859544E+03  0.50400001928E-02 0. -1.
       -1   -1    0    0    0  501  0.00000000000E+00  0.00000000000E+00 -0.61635965770E+03  0.61635965772E+03  0.50400001928E-02 0.  1.
    10030    2    1    2    0    0  0.00000000000E+00  0.00000000000E+00 -0.31731062278E+02  0.12009882532E+04  0.12005690001E+04 0.  0.
        1    1    3    3  502    0  0.28468635828E+03  0.50127581899E+02 -0.54215036762E+03  0.61439898941E+03  0.50400001928E-02 0.  1.
       -1    1    3    3    0  502 -0.28468635828E+03 -0.50127581899E+02  0.51041930534E+03  0.58658926375E+03  0.50400001928E-02 0. -1.
</event>
<event>
 5   0  0.1012657E-04  0.1200043E+04  0.7818609E-02  0.9112819E-01
       -2   -1    0    0    0  501  0.00000000000E+00  0.00000000000E+00  0.65488297070E+03  0.65488297070E+03  0.25500000920E-02 0.  1.
        2   -1    0    0  501    0  0.00000000000E+00  0.00000000000E+00 -0.54975603544E+03  0.54975603545E+03  0.25500000920E-02 0. -1.
    10030    2    1    2    0    0  0.00000000000E+00  0.00000000000E+00  0.10512693526E+03  0.12046390062E+04  0.12000431087E+04 0.  0.
        1    1    3    3  502    0  0.45879539779E+03 -0.32958362671E+03 -0.15046661173E+03  0.58460139010E+03  0.50400001928E-02 0.  1.
       -1    1    3    3    0  502 -0.45879539779E+03  0.32958362671E+03  0.25559354699E+03  0.62003761605E+03  0.50400001928E-02 0. -1.
</event>
<event>
 5   0  0.5732931E-05  0.1200444E+04  0.7818609E-02  0.9112468E-01
        1   -1    0    0  501    0  0.00000000000E+00  0.00000000000E+00  0.17307125947E+04  0.17307125948E+04  0.50400001928E-02 0. -1.
       -1   -1    0    0    0  501  0.00000000000E+00  0.00000000000E+00 -0.20816072501E+03  0.20816072507E+03  0.50400001928E-02 0.  1.
    10030    2    1    2    0    0  0.00000000000E+00  0.00000000000E+00  0.15225518697E+04  0.19388733198E+04  0.12004438988E+04 0.  0.
        4    1    3    3  502    0 -0.24224573886E+03 -0.37798783770E+03  0.11783961909E+03  0.46416117047E+03  0.12699999809E+01 0.  1.
       -4    1    3    3    0  502  0.24224573886E+03  0.37798783770E+03  0.14047122506E+04  0.14747121494E+04  0.12699999809E+01 0. -1.
</event>
<event>
 5   0  0.5620246E-05  0.1200009E+04  0.7818609E-02  0.9112849E-01
       -1   -1    0    0    0  501  0.00000000000E+00  0.00000000000E+00  0.22821665600E+03  0.22821665605E+03  0.50400001928E-02 0. -1.
        1   -1    0    0  501    0  0.00000000000E+00  0.00000000000E+00 -0.15774723633E+04  0.15774723633E+04  0.50400001928E-02 0.  1.
    10030    2    1    2    0    0  0.00000000000E+00  0.00000000000E+00 -0.13492557073E+04  0.18056890193E+04  0.12000091128E+04 0.  0.
        1    1    3    3  502    0  0.64010635944E+02 -0.10346727325E+03  0.20946007469E+03  0.24223203971E+03  0.50400001928E-02 0. -1.
       -1    1    3    3    0  502 -0.64010635944E+02  0.10346727325E+03 -0.15587157820E+04  0.15634569796E+04  0.50400001928E-02 0.  1.
</event>
<event>
 5   0  0.1023063E-04  0.1200124E+04  0.7818609E-02  0.9112748E-01
        2   -1    0    0  501    0  0.00000000000E+00  0.00000000000E+00  0.40902739125E+03  0.40902739126E+03  0.25500000920E-02 0. -1.
       -2   -1    0    0    0  501  0.00000000000E+00  0.00000000000E+00 -0.88031862484E+03  0.88031862485E+03  0.25500000920E-02 0.  1.
    10030    2    1    2    0    0  0.00000000000E+00  0.00000000000E+00 -0.47129123359E+03  0.12893460161E+04  0.12001240446E+04 0.  0.
        3    1    3    3  502    0 -0.18304552013E+03  0.53660193615E+03 -0.44679485093E+03  0.72185382824E+03  0.10100000352E+00 0.  1.
       -3    1    3    3    0  502  0.18304552013E+03 -0.53660193615E+03 -0.24496382664E+02  0.56749218786E+03  0.10100000352E+00 0. -1.
</event>
<event>
 5   0  0.5625746E-05  0.1199519E+04  0.7818609E-02  0.9113277E-01
       -1   -1    0    0    0  501  0.00000000000E+00  0.00000000000E+00  0.59797269281E+03  0.59797269283E+03  0.50400001928E-02 0. -1.
        1   -1    0    0  501    0  0.00000000000E+00  0.00000000000E+00 -0.60155189594E+03  0.60155189596E+03  0.50400001928E-02 0.  1.
    10030    2    1    2    0    0  0.00000000000E+00  0.00000000000E+00 -0.35792031260E+01  0.11995245888E+04  0.11995192489E+04 0.  0.
        5    1    3    3  502    0  0.52889522882E+03  0.16849406049E+03  0.22529973055E+03  0.59908469357E+03  0.46999998093E+01 0.  1.
       -5    1    3    3    0  502 -0.52889522882E+03 -0.16849406049E+03 -0.22887893368E+03  0.60043989522E+03  0.46999998093E+01 0. -1.
</event>
<event>
 5   0  0.1023063E-04  0.1199790E+04  0.7818609E-02  0.9113041E-01
       -2   -1    0    0    0  501  0.00000000000E+00  0.00000000000E+00  0.87835055889E+03  0.87835055890E+03  0.25500000920E-02 0.  1.
        2   -1    0    0  501    0  0.00000000000E+00  0.00000000000E+00 -0.40971541261E+03  0.40971541262E+03  0.25500000920E-02 0. -1.
    10030    2    1    2    0    0  0.00000000000E+00  0.00000000000E+00  0.46863514628E+03  0.12880659715E+04  0.11997895843E+04 0.  0.
        3    1    3    3  502    0  0.14144451735E+03  0.52299759920E+03  0.51083536567E+03  0.74463804716E+03  0.10100000352E+00 0. -1.
       -3    1    3    3    0  502 -0.14144451735E+03 -0.52299759920E+03 -0.42200219389E+02  0.54342792436E+03  0.10100000352E+00 0.  1.
</event>
<event>
 5   0  0.9838215E-05  0.1200207E+04  0.7818609E-02  0.9112675E-01
       -2   -1    0    0    0  501  0.00000000000E+00  0.00000000000E+00  0.39759448950E+03  0.39759448951E+03  0.25500000920E-02 0. -1.
        2   -1    0    0  501    0  0.00000000000E+00  0.00000000000E+00 -0.90575773306E+03  0.90575773306E+03  0.25500000920E-02 0.  1.
    10030    2    1    2    0    0  0.00000000000E+00  0.00000000000E+00 -0.50816324356E+03  0.13033522226E+04  0.12002071213E+04 0.  0.
        4    1    3    3  502    0 -0.57291533827E+01 -0.49457932200E+02  0.39534625053E+03  0.39847105411E+03  0.12699999809E+01 0. -1.
       -4    1    3    3    0  502  0.57291533827E+01  0.49457932200E+02 -0.90350949408E+03  0.90488116847E+03  0.12699999809E+01 0.  1.
</event>
<event>
 5   0  0.1023063E-04  0.1200356E+04  0.7818609E-02  0.9112545E-01
       -2   -1    0    0    0  501  0.00000000000E+00  0.00000000000E+00  0.49678873764E+03  0.49678873765E+03  0.25500000920E-02 0.  1.
        2   -1    0    0  501    0  0.00000000000E+00  0.00000000000E+00 -0.72508406932E+03  0.72508406932E+03  0.25500000920E-02 0. -1.
    10030    2    1    2    0    0  0.00000000000E+00  0.00000000000E+00 -0.22829533168E+03  0.12218728070E+04  0.12003559464E+04 0.  0.
        3    1    3    3  502    0 -0.29777050202E+03  0.36414326188E+02 -0.64329297286E+03  0.70980217960E+03  0.10100000352E+00 0. -1.
       -3    1    3    3    0  502  0.29777050202E+03 -0.36414326188E+02  0.41499764118E+03  0.51207062737E+03  0.10100000352E+00 0.  1.
</event>
<event>
 5   0  0.1012657E-04  0.1199378E+04  0.7818609E-02  0.9113401E-01
        2   -1    0    0  501    0  0.00000000000E+00  0.00000000000E+00  0.87340726586E+03  0.87340726587E+03  0.25500000920E-02 0. -1.
       -2   -1    0    0    0  501  0.00000000000E+00  0.00000000000E+00 -0.41175181985E+03  0.41175181986E+03  0.25500000920E-02 0.  1.
    10030    2    1    2    0    0  0.00000000000E+00  0.00000000000E+00  0.46165544601E+03  0.12851590857E+04  0.11993782242E+04 0.  0.
        1    1    3    3  502    0  0.17456148713E+03 -0.28800939566E+02 -0.38315090347E+03  0.42202585438E+03  0.50400001928E-02 0.  1.
       -1    1    3    3    0  502 -0.17456148713E+03  0.28800939566E+02  0.84480634948E+03  0.86313323135E+03  0.50400001928E-02 0. -1.
</event>
<event>
 5   0  0.5447807E-05  0.1200214E+04  0.7818609E-02  0.9112669E-01
        1   -1    0    0  501    0  0.00000000000E+00  0.00000000000E+00  0.11856205010E+04  0.11856205010E+04  0.50400001928E-02 0. -1.
       -1   -1    0    0    0  501  0.00000000000E+00  0.00000000000E+00 -0.30374689325E+03  0.30374689329E+03  0.50400001928E-02 0.  1.
    10030    2    1    2    0    0  0.00000000000E+00  0.00000000000E+00  0.88187360774E+03  0.14893673943E+04  0.12002142205E+04 0.  0.
        2    1    3    3  502    0 -0.37265537199E+03 -0.91508604543E+02  0.10134865828E+04  0.10836977920E+04  0.25500000920E-02 0. -1.
       -2    1    3    3    0  502  0.37265537199E+03  0.91508604543E+02 -0.13161297506E+03  0.40566960225E+03  0.25500000920E-02 0.  1.
</event>
<event>
 5   0  0.5732931E-05  0.1200177E+04  0.7818609E-02  0.9112702E-01
        1   -1    0    0  501    0  0.00000000000E+00  0.00000000000E+00  0.76560828437E+03  0.76560828439E+03  0.50400001928E-02 0.  1.
       -1   -1    0    0    0  501  0.00000000000E+00  0.00000000000E+00 -0.47035308118E+03  0.47035308121E+03  0.50400001928E-02 0. -1.
    10030    2    1    2    0    0  0.00000000000E+00  0.00000000000E+00  0.29525520319E+03  0.12359613656E+04  0.12001770129E+04 0.  0.
        4    1    3    3  502    0  0.33667084772E+03 -0.15468742470E+03  0.63374994935E+03  0.73410903159E+03  0.12699999809E+01 0.  1.
       -4    1    3    3    0  502 -0.33667084772E+03  0.15468742470E+03 -0.33849474616E+03  0.50185233400E+03  0.12699999809E+01 0. -1.
</event>
<event>
 5   0  0.1004006E-04  0.1197801E+04  0.7818609E-02  0.9114783E-01
        2   -1    0    0  501    0  0.00000000000E+00  0.00000000000E+00  0.73032444013E+03  0.73032444014E+03  0.25500000920E-02 0. -1.
       -2   -1    0    0    0  501  0.00000000000E+00  0.00000000000E+00 -0.49112682535E+03  0.49112682536E+03  0.25500000920E-02 0.  1.
    10030    2    1    2    0    0  0.00000000000E+00  0.00000000000E+00  0.23919761478E+03  0.12214512655E+04  0.11978011918E+04 0.  0.
        5    1    3    3  502    0 -0.44389768974E+01 -0.34889324423E+03  0.61594698260E+03  0.70792582646E+03  0.46999998093E+01 0. -1.
       -5    1    3    3    0  502  0.44389768974E+01  0.34889324423E+03 -0.37674936782E+03  0.51352543904E+03  0.46999998093E+01 0.  1.
</event>
<event>
 5   0  0.5620246E-05  0.1199890E+04  0.7818609E-02  0.9112953E-01
       -1   -1    0    0    0  501  0.00000000000E+00  0.00000000000E+00  0.13138630537E+03  0.13138630546E+03  0.50400001928E-02 0.  1.
        1   -1    0    0  501    0  0.00000000000E+00  0.00000000000E+00 -0.27395083039E+04  0.27395083039E+04  0.50400001928E-02 0. -1.
    10030    2    1    2    0    0  0.00000000000E+00  0.00000000000E+00 -0.26081219985E+04  0.28708946093E+04  0.11998897861E+04 0.  0.
        1    1    3    3  502    0 -0.14652795537E+03 -0.57689099223E+03 -0.14840692444E+04  0.15989794185E+04  0.50400001928E-02 0. -1.
       -1    1    3    3    0  502  0.14652795537E+03  0.57689099223E+03 -0.11240527541E+04  0.12719151908E+04  0.50400001928E-02 0.  1.
</event>
<event>
 5   0  0.5732931E-05  0.1199753E+04  0.7818609E-02  0.9113073E-01
       -1   -1    0    0    0  501  0.00000000000E+00  0.00000000000E+00  0.40944367113E+03  0.40944367116E+03  0.50400001928E-02 0. -1.
        1   -1    0    0  501    0  0.00000000000E+00  0.00000000000E+00 -0.87888020156E+03  0.87888020157E+03  0.50400001928E-02 0.  1.
    10030    2    1    2    0    0  0.00000000000E+00  0.00000000000E+00 -0.46943653043E+03  0.12883238727E+04  0.11997532017E+04 0.  0.
        4    1    3    3  502    0 -0.28738297188E+02 -0.45279386993E+03  0.18668366612E+03  0.49061245650E+03  0.12699999809E+01 0. -1.
       -4    1    3    3    0  502  0.28738297188E+02  0.45279386993E+03 -0.65612019655E+03  0.79771141623E+03  0.12699999809E+01 0.  1.
</event>
<event>
 5   0  0.5625746E-05  0.1200142E+04  0.7818609E-02  0.9112732E-01
        1   -1    0    0  501    0  0.00000000000E+00  0.00000000000E+00  0.88798807534E+03  0.88798807535E+03  0.50400001928E-02 0.  1.
       -1   -1    0    0    0  501  0.00000000000E+00  0.00000000000E+00 -0.40550692623E+03  0.40550692626E+03  0.50400001928E-02 0. -1.
    10030    2    1    2    0    0  0.00000000000E+00  0.00000000000E+00  0.48248114911E+03  0.12934950016E+04  0.12001421832E+04 0.  0.
        5    1    3    3  502    0 -0.30538830561E+01  0.30430329567E+02  0.88712769330E+03  0.88766714785E+03  0.46999998093E+01 0.  1.
       -5    1    3    3    0  502  0.30538830561E+01 -0.30430329567E+02 -0.40464654419E+03  0.40582785376E+03  0.46999998093E+01 0. -1.
</event>
<event>
 5   0  0.9838215E-05  0.1200118E+04  0.7818609E-02  0.9112753E-01
        2   -1    0    0  501    0  0.00000000000E+00  0.00000000000E+00  0.31265530334E+03  0.31265530335E+03  0.25500000920E-02 0.  1.
       -2   -1    0    0    0  501  0.00000000000E+00  0.00000000000E+00 -0.11516547247E+04  0.11516547247E+04  0.25500000920E-02 0. -1.
    10030    2    1    2    0    0  0.00000000000E+00  0.00000000000E+00 -0.83899942135E+03  0.14643100280E+04  0.12001182563E+04 0.  0.
        4    1    3    3  502    0 -0.19987741380E+03 -0.43985857165E+03 -0.85370913718E+03  0.98094212235E+03  0.12699999809E+01 0. -1.
       -4    1    3    3    0  502  0.19987741380E+03  0.43985857165E+03  0.14709715827E+02  0.48336790568E+03  0.12699999809E+01 0.  1.
</event>
<event>
 5   0  0.5620246E-05  0.1199895E+04  0.7818609E-02  0.9112948E-01
       -1   -1    0    0    0  501  0.00000000000E+00  0.00000000000E+00  0.15033647549E+03  0.15033647558E+03  0.50400001928E-02 0. -1.
        1   -1    0    0  501    0  0.00000000000E+00  0.00000000000E+00 -0.23942098060E+04  0.23942098060E+04  0.50400001928E-02 0.  1.
    10030    2    1    2    0    0  0.00000000000E+00  0.00000000000E+00 -0.22438733305E+04  0.25445462816E+04  0.11998951020E+04 0.  0.
        1    1    3    3  502    0  0.32078204498E+02  0.59041535019E+03 -0.13373437242E+04  0.14622269091E+04  0.50400001928E-02 0. -1.
       -1    1    3    3    0  502 -0.32078204498E+02 -0.59041535019E+03 -0.90652960629E+03  0.10823193725E+04  0.50400001928E-02 0.  1.
</event>
<event>
 5   0  0.9941209E-05  0.1199704E+04  0.7818609E-02  0.9113116E-01
        2   -1    0    0  501    0  0.00000000000E+00  0.00000000000E+00  0.12991172497E+04  0.12991172497E+04  0.25500000920E-02 0. -1.
       -2   -1    0    0    0  501  0.00000000000E+00  0.00000000000E+00 -0.27697442682E+03  0.27697442683E+03  0.25500000920E-02 0.  1.
    10030    2    1    2    0    0  0.00000000000E+00  0.00000000000E+00  0.10221428229E+04  0.15760916765E+04  0.11997037228E+04 0.  0.
        2    1    3    3  502    0  0.40819215097E+03  0.34618691610E+03  0.15525545820E+03  0.55728849826E+03  0.25500000920E-02 0.  1.
       -2    1    3    3    0  502 -0.40819215097E+03 -0.34618691610E+03  0.86688736466E+03  0.10188031782E+04  0.25500000920E-02 0. -1.
</event>
<event>
 5   0  0.1004006E-04  0.1200023E+04  0.7818609E-02  0.9112837E-01
       -2   -1    0    0    0  501  0.00000000000E+00  0.00000000000E+00  0.30061043800E+03  0.30061043801E+03  0.25500000920E-02 0.  1.
        2   -1    0    0  501    0  0.00000000000E+00  0.00000000000E+00 -0.11976087023E+04  0.11976087023E+04  0.25500000920E-02 0. -1.
    10030    2    1    2    0    0  0.00000000000E+00  0.00000000000E+00 -0.89699826429E+03  0.14982191403E+04  0.12000227940E+04 0.  0.
        5    1    3    3  502    0 -0.31497966969E+03  0.41468999423E+03 -0.82056574437E+03  0.97186944312E+03  0.46999998093E+01 0. -1.
       -5    1    3    3    0  502  0.31497966969E+03 -0.41468999423E+03 -0.76432519914E+02  0.52634969719E+03  0.46999998093E+01 0.  1.
</event>
<event>
 5   0  0.5745487E-05  0.1199944E+04  0.7818609E-02  0.9112906E-01
        1   -1    0    0  501    0  0.00000000000E+00  0.00000000000E+00  0.44178423130E+03  0.44178423133E+03  0.50400001928E-02 0. -1.
       -1   -1    0    0    0  501  0.00000000000E+00  0.00000000000E+00 -0.81480090830E+03  0.81480090831E+03  0.50400001928E-02 0.  1.
    10030    2    1    2    0    0  0.00000000000E+00  0.00000000000E+00 -0.37301667700E+03  0.12565851396E+04  0.11999436536E+04 0.  0.
        3    1    3    3  502    0 -0.47216568519E+03 -0.25282048844E+03 -0.46965547810E+03  0.71234465812E+03  0.10100000352E+00 0.  1.
       -3    1    3    3    0  502  0.47216568519E+03  0.25282048844E+03  0.96638801104E+02  0.54424048152E+03  0.10100000352E+00 0. -1.
</event>
<event>
 5   0  0.3839750E-05  0.1200789E+04  0.7818609E-02  0.9112166E-01
        3   -1    0    0  501    0  0.00000000000E+00  0.00000000000E+00  0.97718739390E+03  0.97718739912E+03  0.10100000352E+00 0.  1.
       -3   -1    0    0    0  501  0.00000000000E+00  0.00000000000E+00 -0.36888915778E+03  0.36888917160E+03  0.10100000352E+00 0. -1.
    10030    2    1    2    0    0  0.00000000000E+00  0.00000000000E+00  0.60829823612E+03  0.13460765707E+04  0.12007894862E+04 0.  0.
        1    1    3    3  502    0 -0.10894098538E+03 -0.33149183686E+02  0.96497123158E+03  0.97166685879E+03  0.50400001928E-02 0.  1.
       -1    1    3    3    0  502  0.10894098538E+03  0.33149183686E+02 -0.35667299546E+03  0.37440971193E+03  0.50400001928E-02 0. -1.
</event>
<event>
 5   0  0.5625746E-05  0.1197346E+04  0.7818609E-02  0.9115183E-01
       -1   -1    0    0    0  501  0.00000000000E+00  0.00000000000E+00  0.25565004428E+03  0.25565004433E+03  0.50400001928E-02 0. -1.
        1   -1    0    0  501    0  0.00000000000E+00  0.00000000000E+00 -0.14019521238E+04  0.14019521238E+04  0.50400001928E-02 0.  1.
    10030    2    1    2    0    0  0.00000000000E+00  0.00000000000E+00 -0.11463020795E+04  0.16576021682E+04  0.11973456019E+04 0.  0.
        5    1    3    3  502    0  0.27959362320E+03 -0.11681786108E+03 -0.12879185619E+04  0.13230930878E+04  0.46999998093E+01 0.  1.
       -5    1    3    3    0  502 -0.27959362320E+03  0.11681786108E+03  0.14161648236E+03  0.33450908040E+03  0.46999998093E+01 0. -1.
</event>
<event>
 5   0  0.9941209E-05  0.1199395E+04  0.7818609E-02  0.9113386E-01
        2   -1    0    0  501    0  0.00000000000E+00  0.00000000000E+00  0.11728392105E+04  0.11728392105E+04  0.25500000920E-02 0. -1.
       -2   -1    0    0    0  501  0.00000000000E+00  0.00000000000E+00 -0.30663787506E+03  0.30663787507E+03  0.25500000920E-02 0.  1.
    10030    2    1    2    0    0  0.00000000000E+00  0.00000000000E+00  0.86620133544E+03  0.14794770856E+04  0.11993947195E+04 0.  0.
        2    1    3    3  502    0  0.22368070154E+03 -0.28266476807E+03 -0.15809447667E+03  0.39360677193E+03  0.25500000920E-02 0.  1.
       -2    1    3    3    0  502 -0.22368070154E+03  0.28266476807E+03  0.10242958121E+04  0.10858703137E+04  0.25500000920E-02 0. -1.
</event>
<event>
 5   0  0.5732931E-05  0.1200171E+04  0.7818609E-02  0.9112707E-01
        1   -1    0    0  501    0  0.00000000000E+00  0.00000000000E+00  0.12003930338E+04  0.12003930338E+04  0.50400001928E-02 0.  1.
       -1   -1    0    0    0  501  0.00000000000E+00  0.00000000000E+00 -0.29998702543E+03  0.29998702547E+03  0.50400001928E-02 0. -1.
    10030    2    1    2    0    0  0.00000000000E+00  0.00000000000E+00  0.90040600837E+03  0.15003800593E+04  0.12001705472E+04 0.  0.
        4    1    3    3  502    0 -0.38768868052E+03 -0.14528423929E+03 -0.92839178257E+02  0.42430030534E+03  0.12699999809E+01 0. -1.
       -4    1    3    3    0  502  0.38768868052E+03  0.14528423929E+03  0.99324518663E+03  0.10760797539E+04  0.12699999809E+01 0.  1.
</event>
<event>
 5   0  0.1023063E-04  0.1199562E+04  0.7818609E-02  0.9113240E-01
       -2   -1    0    0    0  501  0.00000000000E+00  0.00000000000E+00  0.44648412543E+03  0.44648412544E+03  0.25500000920E-02 0. -1.
        2   -1    0    0  501    0  0.00000000000E+00  0.00000000000E+00 -0.80571155490E+03  0.80571155490E+03  0.25500000920E-02 0.  1.
    10030    2    1    2    0    0  0.00000000000E+00  0.00000000000E+00 -0.35922742947E+03  0.12521956803E+04  0.11995622851E+04 0.  0.
        3    1    3    3  502    0 -0.54957534884E+03 -0.21487724020E+03 -0.29171327422E+03  0.65825674092E+03  0.10100000352E+00 0. -1.
       -3    1    3    3    0  502  0.54957534884E+03  0.21487724020E+03 -0.67514155252E+02  0.59393893943E+03  0.10100000352E+00 0.  1.
</event>
<event>
 5   0  0.1004006E-04  0.1200913E+04  0.7818609E-02  0.9112057E-01
        2   -1    0    0  501    0  0.00000000000E+00  0.00000000000E+00  0.35575948512E+03  0.35575948513E+03  0.25500000920E-02 0.  1.
       -2   -1    0    0    0  501  0.00000000000E+00  0.00000000000E+00 -0.10134607389E+04  0.10134607389E+04  0.25500000920E-02 0. -1.
    10030    2    1    2    0    0  0.00000000000E+00  0.00000000000E+00 -0.65770125375E+03  0.13692202240E+04  0.12009134368E+04 0.  0.
        5    1    3    3  502    0  0.31404452218E+03 -0.47913349242E+03 -0.53386613742E+03  0.78308876135E+03  0.46999998093E+01 0.  1.
       -5    1    3    3    0  502 -0.31404452218E+03  0.47913349242E+03 -0.12383511633E+03  0.58613146265E+03  0.46999998093E+01 0. -1.
</event>
<event>
 5   0  0.9838215E-05  0.1199500E+04  0.7818609E-02  0.9113295E-01
       -2   -1    0    0    0  501  0.00000000000E+00  0.00000000000E+00  0.23582370114E+03  0.23582370115E+03  0.25500000920E-02 0. -1.
        2   -1    0    0  501    0  0.00000000000E+00  0.00000000000E+00 -0.15252915342E+04  0.15252915342E+04  0.25500000920E-02 0.  1.
    10030    2    1    2    0    0  0.00000000000E+00  0.00000000000E+00 -0.12894678331E+04  0.17611152354E+04  0.11994997206E+04 0.  0.
        4    1    3    3  502    0  0.21020010273E+03 -0.14983840123E+03 -0.14395522223E+04  0.14625142199E+04  0.12699999809E+01 0.  1.
       -4    1    3    3    0  502 -0.21020010273E+03  0.14983840123E+03  0.15008438922E+03  0.29860101551E+03  0.12699999809E+01 0. -1.
</event>
<event>
 5   0  0.5732931E-05  0.1203702E+04  0.7818609E-02  0.9109623E-01
        1   -1    0    0  501    0  0.00000000000E+00  0.00000000000E+00  0.82472141854E+03  0.82472141855E+03  0.50400001928E-02 0. -1.
       -1   -1    0    0    0  501  0.00000000000E+00  0.00000000000E+00 -0.43920824222E+03  0.43920824225E+03  0.50400001928E-02 0.  1.
    10030    2    1    2    0    0  0.00000000000E+00  0.00000000000E+00  0.38551317631E+03  0.12639296608E+04  0.12037016982E+04 0.  0.
        4    1    3    3  502    0 -0.17741822536E+03  0.40787121876E+03 -0.23297643282E+03  0.50211133122E+03  0.12699999809E+01 0.  1.
       -4    1    3    3    0  502  0.17741822536E+03 -0.40787121876E+03  0.61848960914E+03  0.76181832959E+03  0.12699999809E+01 0. -1.
</event>
<event>
 5   0  0.1012657E-04  0.1200606E+04  0.7818609E-02  0.9112326E-01
        2   -1    0    0  501    0  0.00000000000E+00  0.00000000000E+00  0.20256645523E+04  0.20256645523E+04  0.25500000920E-02 0.  1.
       -2   -1    0    0    0  501  0.00000000000E+00  0.00000000000E+00 -0.17789906783E+03  0.17789906785E+03  0.25500000920E-02 0. -1.
    10030    2    1    2    0    0  0.00000000000E+00  0.00000000000E+00  0.18477654845E+04  0.22035636201E+04  0.12006062396E+04 0.  0.
        1    1    3    3  502    0 -0.45535867611E+03 -0.14368161658E+03  0.15916365065E+04  0.16617167929E+04  0.50400001928E-02 0.  1.
       -1    1    3    3    0  502  0.45535867611E+03  0.14368161658E+03  0.25612897796E+03  0.54184682727E+03  0.50400001928E-02 0. -1.
</event>
<event>
 5   0  0.5732931E-05  0.1200985E+04  0.7818609E-02  0.9111995E-01
       -1   -1    0    0    0  501  0.00000000000E+00  0.00000000000E+00  0.49402832038E+03  0.49402832041E+03  0.50400001928E-02 0.  1.
        1   -1    0    0  501    0  0.00000000000E+00  0.00000000000E+00 -0.72990020337E+03  0.72990020339E+03  0.50400001928E-02 0. -1.
    10030    2    1    2    0    0  0.00000000000E+00  0.00000000000E+00 -0.23587188299E+03  0.12239285238E+04  0.12009852148E+04 0.  0.
        4    1    3    3  502    0  0.13320842187E+03  0.58076660846E+03 -0.19389453288E+03  0.62660277684E+03  0.12699999809E+01 0. -1.
       -4    1    3    3    0  502 -0.13320842187E+03 -0.58076660846E+03 -0.41977350115E+02  0.59732574696E+03  0.12699999809E+01 0.  1.
</event>
<event>
 5   0  0.9838215E-05  0.1202617E+04  0.7818609E-02  0.9110569E-01
       -2   -1    0    0    0  501  0.00000000000E+00  0.00000000000E+00  0.38350586237E+03  0.38350586238E+03  0.25500000920E-02 0. -1.
        2   -1    0    0  501    0  0.00000000000E+00  0.00000000000E+00 -0.94280674654E+03  0.94280674654E+03  0.25500000920E-02 0.  1.
    10030    2    1    2    0    0  0.00000000000E+00  0.00000000000E+00 -0.55930088417E+03  0.13263126089E+04  0.12026170037E+04 0.  0.
        4    1    3    3  502    0 -0.63399448780E+02 -0.39450879571E+03 -0.77521628809E+03  0.87213450007E+03  0.12699999809E+01 0.  1.
       -4    1    3    3    0  502  0.63399448780E+02  0.39450879571E+03  0.21591540392E+03  0.45417810884E+03  0.12699999809E+01 0. -1.
</event>
<event>
 5   0  0.5620246E-05  0.1200073E+04  0.7818609E-02  0.9112792E-01
       -1   -1    0    0    0  501  0.00000000000E+00  0.00000000000E+00  0.61100101386E+03  0.61100101389E+03  0.50400001928E-02 0.  1.
        1   -1    0    0  501    0  0.00000000000E+00  0.00000000000E+00 -0.58926913640E+03  0.58926913642E+03  0.50400001928E-02 0. -1.
    10030    2    1    2    0    0  0.00000000000E+00  0.00000000000E+00  0.21731877461E+02  0.12002701503E+04  0.12000733974E+04 0.  0.
        1    1    3    3  502    0  0.95051728274E+02 -0.54487906201E+03  0.24353257297E+03  0.60434769577E+03  0.50400001928E-02 0.  1.
       -1    1    3    3    0  502 -0.95051728274E+02  0.54487906201E+03 -0.22180069551E+03  0.59592245454E+03  0.50400001928E-02 0. -1.
</event>
<event>
 5   0  0.1004006E-04  0.1199799E+04  0.7818609E-02  0.9113032E-01
       -2   -1    0    0    0  501  0.00000000000E+00  0.00000000000E+00  0.34996319086E+03  0.34996319087E+03  0.25500000920E-02 0. -1.
        2   -1    0    0  501    0  0.00000000000E+00  0.00000000000E+00 -0.10283352729E+04  0.10283352729E+04  0.25500000920E-02 0.  1.
    10030    2    1    2    0    0  0.00000000000E+00  0.00000000000E+00 -0.67837208201E+03  0.13782984637E+04  0.11997991388E+04 0.  0.
        5    1    3    3  502    0 -0.59292471273E+02 -0.16001255539E+03  0.32147186298E+03  0.36398607627E+03  0.46999998093E+01 0. -1.
       -5    1    3    3    0  502  0.59292471273E+02  0.16001255539E+03 -0.99984394499E+03  0.10143123875E+04  0.46999998093E+01 0.  1.
</event>
<event>
 5   0  0.1004006E-04  0.1200006E+04  0.7818609E-02  0.9112851E-01
        2   -1    0    0  501    0  0.00000000000E+00  0.00000000000E+00  0.10392422878E+04  0.10392422878E+04  0.25500000920E-02 0.  1.
       -2   -1    0    0    0  501  0.00000000000E+00  0.00000000000E+00 -0.34640974048E+03  0.34640974048E+03  0.25500000920E-02 0. -1.
    10030    2    1    2    0    0  0.00000000000E+00  0.00000000000E+00  0.69283254731E+03  0.13856520283E+04  0.12000060853E+04 0.  0.
        5    1    3    3  502    0  0.66835600547E+02 -0.23646784336E+03  0.97844940170E+03  0.10088455581E+04  0.46999998093E+01 0.  1.
       -5    1    3    3    0  502 -0.66835600547E+02  0.23646784336E+03 -0.28561685439E+03  0.37680647016E+03  0.46999998093E+01 0. -1.
</event>
<event>
 5   0  0.9941209E-05  0.1201839E+04  0.7818609E-02  0.9111248E-01
       -2   -1    0    0    0  501  0.00000000000E+00  0.00000000000E+00  0.50254220779E+03  0.50254220780E+03  0.25500000920E-02 0. -1.
        2   -1    0    0  501    0  0.00000000000E+00  0.00000000000E+00 -0.71855540396E+03  0.71855540396E+03  0.25500000920E-02 0.  1.
    10030    2    1    2    0    0  0.00000000000E+00  0.00000000000E+00 -0.21601319616E+03  0.12210976118E+04  0.12018392890E+04 0.  0.
        2    1    3    3  502    0 -0.22214217884E+03  0.51638938140E+02  0.45686136965E+03  0.51062318655E+03  0.25500000920E-02 0. -1.
       -2    1    3    3    0  502  0.22214217884E+03 -0.51638938140E+02 -0.67287456582E+03  0.71047442521E+03  0.25500000920E-02 0.  1.
</event>
<event>
 5   0  0.9941209E-05  0.1199907E+04  0.7818609E-02  0.9112938E-01
        2   -1    0    0  501    0  0.00000000000E+00  0.00000000000E+00  0.51238385547E+03  0.51238385548E+03  0.25500000920E-02 0.  1.
       -2   -1    0    0    0  501  0.00000000000E+00  0.00000000000E+00 -0.70248930160E+03  0.70248930160E+03  0.25500000920E-02 0. -1.
    10030    2    1    2    0    0  0.00000000000E+00  0.00000000000E+00 -0.19010544613E+03  0.12148731571E+04  0.11999069577E+04 0.  0.
        2    1    3    3  502    0  0.13890300574E+03  0.10421737290E+03  0.48638253356E+03  0.51645258716E+03  0.25500000920E-02 0.  1.
       -2    1    3    3    0  502 -0.13890300574E+03 -0.10421737290E+03 -0.67648797969E+03  0.69842056992E+03  0.25500000920E-02 0. -1.
</event>
<event>
 5   0  0.1012657E-04  0.1199674E+04  0.7818609E-02  0.9113142E-01
       -2   -1    0    0    0  501  0.00000000000E+00  0.00000000000E+00  0.22362964597E+03  0.22362964599E+03  0.25500000920E-02 0.  1.
        2   -1    0    0  501    0  0.00000000000E+00  0.00000000000E+00 -0.16089300437E+04  0.16089300437E+04  0.25500000920E-02 0. -1.
    10030    2    1    2    0    0  0.00000000000E+00  0.00000000000E+00 -0.13853003978E+04  0.18325596897E+04  0.11996740492E+04 0.  0.
        1    1    3    3  502    0 -0.30822852151E+03 -0.42322062943E+03 -0.24550912829E+03  0.57826918883E+03  0.50400001928E-02 0.  1.
       -1    1    3    3    0  502  0.30822852151E+03  0.42322062943E+03 -0.11397912695E+04  0.12542905009E+04  0.50400001928E-02 0. -1.
</event>
<event>
 5   0  0.5745487E-05  0.1197483E+04  0.7818609E-02  0.9115062E-01
        1   -1    0    0  501    0  0.00000000000E+00  0.00000000000E+00  0.11615932037E+04  0.11615932038E+04  0.50400001928E-02 0.  1.
       -1   -1    0    0    0  501  0.00000000000E+00  0.00000000000E+00 -0.30862060606E+03  0.30862060610E+03  0.50400001928E-02 0. -1.
    10030    2    1    2    0    0  0.00000000000E+00  0.00000000000E+00  0.85297259769E+03  0.14702138099E+04  0.11974833587E+04 0.  0.
        3    1    3    3  502    0  0.33047288162E+03  0.16249324216E+03  0.10061043374E+04  0.10713833708E+04  0.10100000352E+00 0.  1.
       -3    1    3    3    0  502 -0.33047288162E+03 -0.16249324216E+03 -0.15313173971E+03  0.39883043908E+03  0.10100000352E+00 0. -1.
</event>
<event>
 5   0  0.5745487E-05  0.1200433E+04  0.7818609E-02  0.9112478E-01
       -1   -1    0    0    0  501  0.00000000000E+00  0.00000000000E+00  0.25173469594E+03  0.25173469599E+03  0.50400001928E-02 0.  1.
        1   -1    0    0  501    0  0.00000000000E+00  0.00000000000E+00 -0.14311088393E+04  0.14311088393E+04  0.50400001928E-02 0. -1.
    10030    2    1    2    0    0  0.00000000000E+00  0.00000000000E+00 -0.11793741433E+04  0.16828435353E+04  0.12004328362E+04 0.  0.
        3    1    3    3  502    0 -0.23607867419E+03  0.19960211742E+03  0.13153834540E+03  0.33597096928E+03  0.10100000352E+00 0.  1.
       -3    1    3    3    0  502  0.23607867419E+03 -0.19960211742E+03 -0.13109124887E+04  0.13468725660E+04  0.10100000352E+00 0. -1.
</event>
<event>
 5   0  0.3839750E-05  0.1199234E+04  0.7818609E-02  0.9113528E-01
       -3   -1    0    0    0  501  0.00000000000E+00  0.00000000000E+00  0.68265038476E+03  0.68265039224E+03  0.10100000352E+00 0. -1.
        3   -1    0    0  501    0  0.00000000000E+00  0.00000000000E+00 -0.52668297637E+03  0.52668298605E+03  0.10100000352E+00 0.  1.
    10030    2    1    2    0    0  0.00000000000E+00  0.00000000000E+00  0.15596740840E+03  0.12093333783E+04  0.11992336667E+04 0.  0.
        4    1    3    3  502    0 -0.42660853419E+02 -0.41925099477E+03 -0.35216155564E+03  0.54919096788E+03  0.12699999809E+01 0.  1.
       -4    1    3    3    0  502  0.42660853419E+02  0.41925099477E+03  0.50812896403E+03  0.66014241041E+03  0.12699999809E+01 0. -1.
</event>
<event>
 5   0  0.1023063E-04  0.1200062E+04  0.7818609E-02  0.9112802E-01
        2   -1    0    0  501    0  0.00000000000E+00  0.00000000000E+00  0.18404942591E+04  0.18404942591E+04  0.25500000920E-02 0.  1.
       -2   -1    0    0    0  501  0.00000000000E+00  0.00000000000E+00 -0.19561979808E+03  0.19561979810E+03  0.25500000920E-02 0. -1.
    10030    2    1    2    0    0  0.00000000000E+00  0.00000000000E+00  0.16448744610E+04  0.20361140572E+04  0.12000618573E+04 0.  0.
        3    1    3    3  502    0 -0.15225040616E+03 -0.81727430617E+02  0.17973645437E+04  0.18056519245E+04  0.10100000352E+00 0.  1.
       -3    1    3    3    0  502  0.15225040616E+03  0.81727430617E+02 -0.15249008271E+03  0.23046213272E+03  0.10100000352E+00 0. -1.
</event>
<event>
 5   0  0.5620246E-05  0.1199540E+04  0.7818609E-02  0.9113259E-01
        1   -1    0    0  501    0  0.00000000000E+00  0.00000000000E+00  0.62340331772E+03  0.62340331775E+03  0.50400001928E-02 0. -1.
       -1   -1    0    0    0  501  0.00000000000E+00  0.00000000000E+00 -0.57703284212E+03  0.57703284214E+03  0.50400001928E-02 0.  1.
    10030    2    1    2    0    0  0.00000000000E+00  0.00000000000E+00  0.46370475609E+02  0.12004361599E+04  0.11995402256E+04 0.  0.
        1    1    3    3  502    0  0.21276048009E+03  0.22953366604E+03 -0.48883296665E+03  0.58043982896E+03  0.50400001928E-02 0.  1.
       -1    1    3    3    0  502 -0.21276048009E+03 -0.22953366604E+03  0.53520344226E+03  0.61999633093E+03  0.50400001928E-02 0. -1.
</event>
<event>
 5   0  0.9941209E-05  0.1199926E+04  0.7818609E-02  0.9112922E-01
        2   -1    0    0  501    0  0.00000000000E+00  0.00000000000E+00  0.79723390971E+03  0.79723390971E+03  0.25500000920E-02 0.  1.
       -2   -1    0    0    0  501  0.00000000000E+00  0.00000000000E+00 -0.45150532668E+03  0.45150532668E+03  0.25500000920E-02 0. -1.
    10030    2    1    2    0    0  0.00000000000E+00  0.00000000000E+00  0.34572858303E+03  0.12487392364E+04  0.11999255924E+04 0.  0.
        2    1    3    3  502    0 -0.46219472292E+03 -0.84968762618E+02  0.56101401159E+03  0.73183356969E+03  0.25500000920E-02 0.  1.
       -2    1    3    3    0  502  0.46219472292E+03  0.84968762618E+02 -0.21528542855E+03  0.51690566671E+03  0.25500000920E-02 0. -1.
</event>
<event>
 5   0  0.5732931E-05  0.1200754E+04  0.7818609E-02  0.9112197E-01
       -1   -1    0    0    0  501  0.00000000000E+00  0.00000000000E+00  0.62154535935E+03  0.62154535937E+03  0.50400001928E-02 0.  1.
        1   -1    0    0  501    0  0.00000000000E+00  0.00000000000E+00 -0.57992977084E+03  0.57992977087E+03  0.50400001928E-02 0. -1.
    10030    2    1    2    0    0  0.00000000000E+00  0.00000000000E+00  0.41615588507E+02  0.12014751302E+04  0.12007541927E+04 0.  0.
        4    1    3    3  502    0 -0.17203891320E+03 -0.16535225417E+03  0.57205806288E+03  0.61983126399E+03  0.12699999809E+01 0.  1.
       -4    1    3    3    0  502  0.17203891320E+03  0.16535225417E+03 -0.53044247438E+03  0.58164386624E+03  0.12699999809E+01 0. -1.
</event>
<event>
 5   0  0.5620246E-05  0.1200009E+04  0.7818609E-02  0.9112848E-01
        1   -1    0    0  501    0  0.00000000000E+00  0.00000000000E+00  0.29446402585E+03  0.29446402589E+03  0.50400001928E-02 0.  1.
       -1   -1    0    0    0  501  0.00000000000E+00  0.00000000000E+00 -0.12225794514E+04  0.12225794514E+04  0.50400001928E-02 0. -1.
    10030    2    1    2    0    0  0.00000000000E+00  0.00000000000E+00 -0.92811542552E+03  0.15170434773E+04  0.12000094453E+04 0.  0.
        1    1    3    3  502    0  0.53999650536E+03  0.24939450288E+03 -0.36442019246E+03  0.69756427701E+03  0.50400001928E-02 0. -1.
       -1    1    3    3    0  502 -0.53999650536E+03 -0.24939450288E+03 -0.56369523306E+03  0.81947920026E+03  0.50400001928E-02 0.  1.
</event>
<event>
 5   0  0.5447807E-05  0.1200961E+04  0.7818609E-02  0.9112016E-01
        1   -1    0    0  501    0  0.00000000000E+00  0.00000000000E+00  0.39583190109E+03  0.39583190112E+03  0.50400001928E-02 0. -1.
       -1   -1    0    0    0  501  0.00000000000E+00  0.00000000000E+00 -0.91093445626E+03  0.91093445627E+03  0.50400001928E-02 0.  1.
    10030    2    1    2    0    0  0.00000000000E+00  0.00000000000E+00 -0.51510255517E+03  0.13067663574E+04  0.12009611444E+04 0.  0.
        2    1    3    3  502    0  0.44159128961E+02  0.53918944147E+03 -0.54108786293E+03  0.76514793203E+03  0.25500000920E-02 0. -1.
       -2    1    3    3    0  502 -0.44159128961E+02 -0.53918944147E+03  0.25985307765E+02  0.54161842536E+03  0.25500000920E-02 0.  1.
</event>
<event>
 5   0  0.5745487E-05  0.1204127E+04  0.7818609E-02  0.9109252E-01
        1   -1    0    0  501    0  0.00000000000E+00  0.00000000000E+00  0.32175213976E+03  0.32175213980E+03  0.50400001928E-02 0. -1.
       -1   -1    0    0    0  501  0.00000000000E+00  0.00000000000E+00 -0.11265834441E+04  0.11265834441E+04  0.50400001928E-02 0.  1.
    10030    2    1    2    0    0  0.00000000000E+00  0.00000000000E+00 -0.80483130430E+03  0.14483355839E+04  0.12041272919E+04 0.  0.
        3    1    3    3  502    0 -0.57669385150E+03 -0.48097073110E+02 -0.20262073687E+03  0.61314296865E+03  0.10100000352E+00 0.  1.
       -3    1    3    3    0  502  0.57669385150E+03  0.48097073110E+02 -0.60221056743E+03  0.83519261522E+03  0.10100000352E+00 0. -1.
</event>
<event>
 5   0  0.9838215E-05  0.1200482E+04  0.7818609E-02  0.9112435E-01
       -2   -1    0    0    0  501  0.00000000000E+00  0.00000000000E+00  0.80232313286E+03  0.80232313286E+03  0.25500000920E-02 0.  1.
        2   -1    0    0  501    0  0.00000000000E+00  0.00000000000E+00 -0.44905765811E+03  0.44905765812E+03  0.25500000920E-02 0. -1.
    10030    2    1    2    0    0  0.00000000000E+00  0.00000000000E+00  0.35326547474E+03  0.12513807910E+04  0.12004821483E+04 0.  0.
        4    1    3    3  502    0 -0.35516168230E+03 -0.18209194350E+02 -0.32741446181E+03  0.48339759829E+03  0.12699999809E+01 0. -1.
       -4    1    3    3    0  502  0.35516168230E+03  0.18209194350E+02  0.68067993655E+03  0.76798319269E+03  0.12699999809E+01 0.  1.
</event>
<event>
 5   0  0.9838215E-05  0.1200110E+04  0.7818609E-02  0.9112761E-01
       -2   -1    0    0    0  501  0.00000000000E+00  0.00000000000E+00  0.10750329041E+04  0.10750329041E+04  0.25500000920E-02 0.  1.
        2   -1    0    0  501    0  0.00000000000E+00  0.00000000000E+00 -0.33493468526E+03  0.33493468527E+03  0.25500000920E-02 0. -1.
    10030    2    1    2    0    0  0.00000000000E+00  0.00000000000E+00  0.74009821879E+03  0.14099675893E+04  0.12001096740E+04 0.  0.
        4    1    3    3  502    0 -0.19793439538E+03 -0.78867239451E+02 -0.28899304046E+03  0.35904965766E+03  0.12699999809E+01 0. -1.
       -4    1    3    3    0  502  0.19793439538E+03  0.78867239451E+02  0.10290912593E+04  0.10509179317E+04  0.12699999809E+01 0.  1.
</event>
<event>
 5   0  0.5447807E-05  0.1198978E+04  0.7818609E-02  0.9113752E-01
       -1   -1    0    0    0  501  0.00000000000E+00  0.00000000000E+00  0.20609570433E+03  0.20609570439E+03  0.50400001928E-02 0.  1.
        1   -1    0    0  501    0  0.00000000000E+00  0.00000000000E+00 -0.17437859133E+04  0.17437859133E+04  0.50400001928E-02 0. -1.
    10030    2    1    2    0    0  0.00000000000E+00  0.00000000000E+00 -0.15376902090E+04  0.19498816177E+04  0.11989775412E+04 0.  0.
        2    1    3    3  502    0 -0.52442337598E+03  0.28352625632E+03 -0.87144011157E+03  0.10558479452E+04  0.25500000920E-02 0. -1.
       -2    1    3    3    0  502  0.52442337598E+03 -0.28352625632E+03 -0.66625009743E+03  0.89403367254E+03  0.25500000920E-02 0.  1.
</event>
<event>
 5   0  0.9838215E-05  0.1197079E+04  0.7818609E-02  0.9115417E-01
       -2   -1    0    0    0  501  0.00000000000E+00  0.00000000000E+00  0.45117443847E+03  0.45117443848E+03  0.25500000920E-02 0.  1.
        2   -1    0    0  501    0  0.00000000000E+00  0.00000000000E+00 -0.79403742986E+03  0.79403742986E+03  0.25500000920E-02 0. -1.
    10030    2    1    2    0    0  0.00000000000E+00  0.00000000000E+00 -0.34286299138E+03  0.12452118683E+04  0.11970787636E+04 0.  0.
        4    1    3    3  502    0 -0.32856566743E+03 -0.20582003884E+03  0.30289743686E+03  0.49200178491E+03  0.12699999809E+01 0.  1.
       -4    1    3    3    0  502  0.32856566743E+03  0.20582003884E+03 -0.64576042824E+03  0.75321008343E+03  0.12699999809E+01 0. -1.
</event>
<event>
 5   0  0.1012657E-04  0.1199722E+04  0.7818609E-02  0.9113100E-01
       -2   -1    0    0    0  501  0.00000000000E+00  0.00000000000E+00  0.27642429085E+03  0.27642429086E+03  0.25500000920E-02 0. -1.
        2   -1    0    0  501    0  0.00000000000E+00  0.00000000000E+00 -0.13017430787E+04  0.13017430787E+04  0.25500000920E-02 0.  1.
    10030    2    1    2    0    0  0.00000000000E+00  0.00000000000E+00 -0.10253187879E+04  0.15781673696E+04  0.11997223136E+04 0.  0.
        1    1    3    3  502    0 -0.37666050410E+03 -0.57942446965E+01  0.10142426859E+03  0.39011996989E+03  0.50400001928E-02 0. -1.
       -1    1    3    3    0  502  0.37666050410E+03  0.57942446965E+01 -0.11267430565E+04  0.11880473997E+04  0.50400001928E-02 0.  1.
</event>
<event>
 5   0  0.9838215E-05  0.1199777E+04  0.7818609E-02  0.9113051E-01
        2   -1    0    0  501    0  0.00000000000E+00  0.00000000000E+00  0.54549081208E+03  0.54549081209E+03  0.25500000920E-02 0.  1.
       -2   -1    0    0    0  501  0.00000000000E+00  0.00000000000E+00 -0.65971129509E+03  0.65971129509E+03  0.25500000920E-02 0. -1.
    10030    2    1    2    0    0  0.00000000000E+00  0.00000000000E+00 -0.11422048300E+03  0.12052021072E+04  0.11997773962E+04 0.  0.
        4    1    3    3  502    0  0.41249031536E+03 -0.42647484218E+03  0.31809970189E+02  0.59417382843E+03  0.12699999809E+01 0.  1.
       -4    1    3    3    0  502 -0.41249031536E+03  0.42647484218E+03 -0.14603045319E+03  0.61102827876E+03  0.12699999809E+01 0. -1.
</event>
<event>
 5   0  0.5745487E-05  0.1200080E+04  0.7818609E-02  0.9112786E-01
        1   -1    0    0  501    0  0.00000000000E+00  0.00000000000E+00  0.42334376580E+03  0.42334376583E+03  0.50400001928E-02 0. -1.
       -1   -1    0    0    0  501  0.00000000000E+00  0.00000000000E+00 -0.85048680202E+03  0.85048680203E+03  0.50400001928E-02 0.  1.
    10030    2    1    2    0    0  0.00000000000E+00  0.00000000000E+00 -0.42714303621E+03  0.12738305679E+04  0.12000804732E+04 0.  0.
        3    1    3    3  502    0 -0.11729360417E+03  0.21152878371E+03  0.36930710208E+03  0.44146343197E+03  0.10100000352E+00 0. -1.
       -3    1    3    3    0  502  0.11729360417E+03 -0.21152878371E+03 -0.79645013830E+03  0.83236713589E+03  0.10100000352E+00 0.  1.
</event>
<event>
 5   0  0.1004006E-04  0.1208831E+04  0.7818609E-02  0.9105161E-01
       -2   -1    0    0    0  501  0.00000000000E+00  0.00000000000E+00  0.44606975011E+03  0.44606975012E+03  0.25500000920E-02 0.  1.
        2   -1    0    0  501    0  0.00000000000E+00  0.00000000000E+00 -0.81897137787E+03  0.81897137787E+03  0.25500000920E-02 0. -1.
    10030    2    1    2    0    0  0.00000000000E+00  0.00000000000E+00 -0.37290162775E+03  0.12650411280E+04  0.12088314322E+04 0.  0.
        5    1    3    3  502    0 -0.33408018707E+02  0.47462673168E+03 -0.57648717003E+03  0.74749326241E+03  0.46999998093E+01 0. -1.
       -5    1    3    3    0  502  0.33408018707E+02 -0.47462673168E+03  0.20358554228E+03  0.51754786558E+03  0.46999998093E+01 0.  1.
</event>
<event>
 5   0  0.5745487E-05  0.1201255E+04  0.7818609E-02  0.9111759E-01
        1   -1    0    0  501    0  0.00000000000E+00  0.00000000000E+00  0.47166308524E+03  0.47166308527E+03  0.50400001928E-02 0.  1.
       -1   -1    0    0    0  501  0.00000000000E+00  0.00000000000E+00 -0.76485364588E+03  0.76485364590E+03  0.50400001928E-02 0. -1.
    10030    2    1    2    0    0  0.00000000000E+00  0.00000000000E+00 -0.29319056064E+03  0.12365167312E+04  0.12012547280E+04 0.  0.
        3    1    3    3  502    0  0.43777887799E+02  0.90281811441E+02  0.46297536719E+03  0.47372303065E+03  0.10100000352E+00 0.  1.
       -3    1    3    3    0  502 -0.43777887799E+02 -0.90281811441E+02 -0.75616592783E+03  0.76279370052E+03  0.10100000352E+00 0. -1.
</event>
<event>
 5   0  0.5745487E-05  0.1201788E+04  0.7818609E-02  0.9111293E-01
       -1   -1    0    0    0  501  0.00000000000E+00  0.00000000000E+00  0.23889233659E+03  0.23889233664E+03  0.50400001928E-02 0.  1.
        1   -1    0    0  501    0  0.00000000000E+00  0.00000000000E+00 -0.15114492375E+04  0.15114492375E+04  0.50400001928E-02 0. -1.
    10030    2    1    2    0    0  0.00000000000E+00  0.00000000000E+00 -0.12725569009E+04  0.17503415742E+04  0.12017880679E+04 0.  0.
        3    1    3    3  502    0  0.59197417920E+03 -0.50324214760E+02 -0.76742083332E+03  0.97051568820E+03  0.10100000352E+00 0. -1.
       -3    1    3    3    0  502 -0.59197417920E+03  0.50324214760E+02 -0.50513606762E+03  0.77982588598E+03  0.10100000352E+00 0.  1.
</event>
<event>
 5   0  0.1023063E-04  0.1197862E+04  0.7818609E-02  0.9114730E-01
        2   -1    0    0  501    0  0.00000000000E+00  0.00000000000E+00  0.16164269573E+04  0.16164269573E+04  0.25500000920E-02 0. -1.
       -2   -1    0    0    0  501  0.00000000000E+00  0.00000000000E+00 -0.22192067165E+03  0.22192067167E+03  0.25500000920E-02 0.  1.
    10030    2    1    2    0    0  0.00000000000E+00  0.00000000000E+00  0.13945062856E+04  0.18383476290E+04  0.11978623561E+04 0.  0.
        3    1    3    3  502    0  0.19142457410E+03 -0.54856885796E+02  0.15641370052E+04  0.15767616265E+04  0.10100000352E+00 0. -1.
       -3    1    3    3    0  502 -0.19142457410E+03  0.54856885796E+02 -0.16963071955E+03  0.26158600250E+03  0.10100000352E+00 0.  1.
</event>
<event>
 5   0  0.5620246E-05  0.1199927E+04  0.7818609E-02  0.9112921E-01
       -1   -1    0    0    0  501  0.00000000000E+00  0.00000000000E+00  0.38046471562E+03  0.38046471565E+03  0.50400001928E-02 0.  1.
        1   -1    0    0  501    0  0.00000000000E+00  0.00000000000E+00 -0.94609585396E+03  0.94609585397E+03  0.50400001928E-02 0. -1.
    10030    2    1    2    0    0  0.00000000000E+00  0.00000000000E+00 -0.56563113834E+03  0.13265605696E+04  0.11999268145E+04 0.  0.
        1    1    3    3  502    0  0.12728143154E+03  0.58139420599E+03 -0.36654698263E+03  0.69898245763E+03  0.50400001928E-02 0.  1.
       -1    1    3    3    0  502 -0.12728143154E+03 -0.58139420599E+03 -0.19908415571E+03  0.62757811199E+03  0.50400001928E-02 0. -1.
</event>
<event>
 5   0  0.5732931E-05  0.1203934E+04  0.7818609E-02  0.9109420E-01
        1   -1    0    0  501    0  0.00000000000E+00  0.00000000000E+00  0.11201019581E+04  0.11201019581E+04  0.50400001928E-02 0.  1.
       -1   -1    0    0    0  501  0.00000000000E+00  0.00000000000E+00 -0.32350986182E+03  0.32350986186E+03  0.50400001928E-02 0. -1.
    10030    2    1    2    0    0  0.00000000000E+00  0.00000000000E+00  0.79659209631E+03  0.14436118200E+04  0.12039336024E+04 0.  0.
        4    1    3    3  502    0  0.56964504049E+03 -0.12068760538E+03  0.58133323614E+03  0.82280672979E+03  0.12699999809E+01 0.  1.
       -4    1    3    3    0  502 -0.56964504049E+03  0.12068760538E+03  0.21525886017E+03  0.62080509021E+03  0.12699999809E+01 0. -1.
</event>
<event>
 5   0  0.5625746E-05  0.1200705E+04  0.7818609E-02  0.9112239E-01
        1   -1    0    0  501    0  0.00000000000E+00  0.00000000000E+00  0.54306374185E+03  0.54306374187E+03  0.50400001928E-02 0.  1.
       -1   -1    0    0    0  501  0.00000000000E+00  0.00000000000E+00 -0.66368525210E+03  0.66368525211E+03  0.50400001928E-02 0. -1.
    10030    2    1    2    0    0  0.00000000000E+00  0.00000000000E+00 -0.12062151024E+03  0.12067489940E+04  0.12007054534E+04 0.  0.
        5    1    3    3  502    0 -0.32289857964E+03 -0.49344352950E+03  0.52733367165E+02  0.59207508608E+03  0.46999998093E+01 0.  1.
       -5    1    3    3    0  502  0.32289857964E+03  0.49344352950E+03 -0.17335487741E+03  0.61467390791E+03  0.46999998093E+01 0. -1.
</event>
<event>
 5   0  0.5732931E-05  0.1200014E+04  0.7818609E-02  0.9112845E-01
        1   -1    0    0  501    0  0.00000000000E+00  0.00000000000E+00  0.26409384528E+04  0.26409384528E+04  0.50400001928E-02 0. -1.
       -1   -1    0    0    0  501  0.00000000000E+00  0.00000000000E+00 -0.13631829972E+03  0.13631829981E+03  0.50400001928E-02 0.  1.
    10030    2    1    2    0    0  0.00000000000E+00  0.00000000000E+00  0.25046201531E+04  0.27772567526E+04  0.12000137327E+04 0.  0.
        4    1    3    3  502    0 -0.46727282462E+03 -0.10238234028E+03  0.20905427905E+04  0.21445738057E+04  0.12699999809E+01 0. -1.
       -4    1    3    3    0  502  0.46727282462E+03  0.10238234028E+03  0.41407736257E+03  0.63268294692E+03  0.12699999809E+01 0.  1.
</event>
<event>
 5   0  0.5620246E-05  0.1199901E+04  0.7818609E-02  0.9112943E-01
       -1   -1    0    0    0  501  0.00000000000E+00  0.00000000000E+00  0.66335936118E+03  0.66335936120E+03  0.50400001928E-02 0. -1.
        1   -1    0    0  501    0  0.00000000000E+00  0.00000000000E+00 -0.54260294595E+03  0.54260294597E+03  0.50400001928E-02 0.  1.
    10030    2    1    2    0    0  0.00000000000E+00  0.00000000000E+00  0.12075641523E+03  0.12059623072E+04  0.11999012353E+04 0.  0.
        1    1    3    3  502    0 -0.49812780795E+02  0.93789117347E+02  0.65383784206E+03  0.66240594457E+03  0.50400001928E-02 0. -1.
       -1    1    3    3    0  502  0.49812780795E+02 -0.93789117347E+02 -0.53308142683E+03  0.54355636260E+03  0.50400001928E-02 0.  1.
</event>
<event>
 5   0  0.9838215E-05  0.1200513E+04  0.7818609E-02  0.9112407E-01
        2   -1    0    0  501    0  0.00000000000E+00  0.00000000000E+00  0.72711309759E+03  0.72711309759E+03  0.25500000920E-02 0.  1.
       -2   -1    0    0    0  501  0.00000000000E+00  0.00000000000E+00 -0.49553241522E+03  0.49553241522E+03  0.25500000920E-02 0. -1.
    10030    2    1    2    0    0  0.00000000000E+00  0.00000000000E+00  0.23158068237E+03  0.12226455128E+04  0.12005134058E+04 0.  0.
        4    1    3    3  502    0  0.48929608592E+03 -0.19255476649E+03 -0.17906125495E+03  0.55547506129E+03  0.12699999809E+01 0. -1.
       -4    1    3    3    0  502 -0.48929608592E+03  0.19255476649E+03  0.41064193732E+03  0.66717045152E+03  0.12699999809E+01 0.  1.
</event>
<event>
 5   0  0.5732931E-05  0.1208127E+04  0.7818609E-02  0.9105772E-01
       -1   -1    0    0    0  501  0.00000000000E+00  0.00000000000E+00  0.13869146137E+04  0.13869146137E+04  0.50400001928E-02 0.  1.
        1   -1    0    0  501    0  0.00000000000E+00  0.00000000000E+00 -0.26309679503E+03  0.26309679508E+03  0.50400001928E-02 0. -1.
    10030    2    1    2    0    0  0.00000000000E+00  0.00000000000E+00  0.11238178186E+04  0.16500114087E+04  0.12081271289E+04 0.  0.
        4    1    3    3  502    0 -0.12305677633E+03  0.59021433281E+03  0.61292416116E+03  0.85975203930E+03  0.12699999809E+01 0.  1.
       -4    1    3    3    0  502  0.12305677633E+03 -0.59021433281E+03  0.51089365748E+03  0.79025936945E+03  0.12699999809E+01 0. -1.
</event>
<event>
 5   0  0.5732931E-05  0.1199886E+04  0.7818609E-02  0.9112956E-01
       -1   -1    0    0    0  501  0.00000000000E+00  0.00000000000E+00  0.85897769383E+03  0.85897769384E+03  0.50400001928E-02 0.  1.
        1   -1    0    0  501    0  0.00000000000E+00  0.00000000000E+00 -0.41902350250E+03  0.41902350253E+03  0.50400001928E-02 0. -1.
    10030    2    1    2    0    0  0.00000000000E+00  0.00000000000E+00  0.43995419133E+03  0.12780011964E+04  0.11998863977E+04 0.  0.
        4    1    3    3  502    0 -0.20847173551E+03  0.53202929823E+02 -0.37651721787E+03  0.43365636683E+03  0.12699999809E+01 0. -1.
       -4    1    3    3    0  502  0.20847173551E+03 -0.53202929823E+02  0.81647140919E+03  0.84434482954E+03  0.12699999809E+01 0.  1.
</event>
<event>
 5   0  0.5745487E-05  0.1200249E+04  0.7818609E-02  0.9112639E-01
       -1   -1    0    0    0  501  0.00000000000E+00  0.00000000000E+00  0.45169700182E+03  0.45169700184E+03  0.50400001928E-02 0. -1.
        1   -1    0    0  501    0  0.00000000000E+00  0.00000000000E+00 -0.79732466045E+03  0.79732466047E+03  0.50400001928E-02 0.  1.
    10030    2    1    2    0    0  0.00000000000E+00  0.00000000000E+00 -0.34562765864E+03  0.12490216623E+04  0.12002485720E+04 0.  0.
        3    1    3    3  502    0  0.34431856875E+03  0.41374134247E+02  0.33686623969E+03  0.48347282179E+03  0.10100000352E+00 0. -1.
       -3    1    3    3    0  502 -0.34431856875E+03 -0.41374134247E+02 -0.68249389832E+03  0.76554884052E+03  0.10100000352E+00 0.  1.
</event>
<event>
 5   0  0.5745487E-05  0.1200302E+04  0.7818609E-02  0.9112592E-01
       -1   -1    0    0    0  501  0.00000000000E+00  0.00000000000E+00  0.27058469189E+03  0.27058469194E+03  0.50400001928E-02 0. -1.
        1   -1    0    0  501    0  0.00000000000E+00  0.00000000000E+00 -0.13311217950E+04  0.13311217950E+04  0.50400001928E-02 0.  1.
    10030    2    1    2    0    0  0.00000000000E+00  0.00000000000E+00 -0.10605371031E+04  0.16017064869E+04  0.12003019300E+04 0.  0.
        3    1    3    3  502    0 -0.39561306047E+03  0.25665710979E+03 -0.34915502503E+02  0.47286538056E+03  0.10100000352E+00 0. -1.
       -3    1    3    3    0  502  0.39561306047E+03 -0.25665710979E+03 -0.10256216006E+04  0.11288411064E+04  0.10100000352E+00 0.  1.
</event>
<event>
 5   0  0.9838215E-05  0.1199635E+04  0.7818609E-02  0.9113176E-01
        2   -1    0    0  501    0  0.00000000000E+00  0.00000000000E+00  0.91398547944E+03  0.91398547944E+03  0.25500000920E-02 0. -1.
       -2   -1    0    0    0  501  0.00000000000E+00  0.00000000000E+00 -0.39363960302E+03  0.39363960302E+03  0.25500000920E-02 0.  1.
    10030    2    1    2    0    0  0.00000000000E+00  0.00000000000E+00  0.52034587642E+03  0.13076250825E+04  0.11996347466E+04 0.  0.
        4    1    3    3  502    0  0.13753249291E+03  0.98903931267E+02  0.88736716626E+03  0.90339320060E+03  0.12699999809E+01 0. -1.
       -4    1    3    3    0  502 -0.13753249291E+03 -0.98903931267E+02 -0.36702128984E+03  0.40423188187E+03  0.12699999809E+01 0.  1.
</event>
<event>
 5   0  0.5447807E-05  0.1197271E+04  0.7818609E-02  0.9115248E-01
        1   -1    0    0  501    0  0.00000000000E+00  0.00000000000E+00  0.78504274280E+03  0.78504274282E+03  0.50400001928E-02 0. -1.
       -1   -1    0    0    0  501  0.00000000000E+00  0.00000000000E+00 -0.45649060875E+03  0.45649060877E+03  0.50400001928E-02 0.  1.
    10030    2    1    2    0    0  0.00000000000E+00  0.00000000000E+00  0.32855213406E+03  0.12415333516E+04  0.11972712969E+04 0.  0.
        2    1    3    3  502    0 -0.29648281077E+02 -0.40834681656E+03  0.61715800159E+03  0.74061470556E+03  0.25500000920E-02 0. -1.
       -2    1    3    3    0  502  0.29648281077E+02  0.40834681656E+03 -0.28860586753E+03  0.50091864603E+03  0.25500000920E-02 0.  1.
</event>
<event>
 5   0  0.5732931E-05  0.1199599E+04  0.7818609E-02  0.9113208E-01
        1   -1    0    0  501    0  0.00000000000E+00  0.00000000000E+00  0.10491894256E+04  0.10491894256E+04  0.50400001928E-02 0.  1.
       -1   -1    0    0    0  501  0.00000000000E+00  0.00000000000E+00 -0.34289252383E+03  0.34289252387E+03  0.50400001928E-02 0. -1.
    10030    2    1    2    0    0  0.00000000000E+00  0.00000000000E+00  0.70629690180E+03  0.13920819495E+04  0.11995986165E+04 0.  0.
        4    1    3    3  502    0  0.52064210080E+03  0.23392945545E+03  0.13927657936E+03  0.58752937434E+03  0.12699999809E+01 0. -1.
       -4    1    3    3    0  502 -0.52064210080E+03 -0.23392945545E+03  0.56702032244E+03  0.80455257517E+03  0.12699999809E+01 0.  1.
</event>
<event>
 5   0  0.9838215E-05  0.1200172E+04  0.7818609E-02  0.9112706E-01
       -2   -1    0    0    0  501  0.00000000000E+00  0.00000000000E+00  0.15026962192E+03  0.15026962194E+03  0.25500000920E-02 0.  1.
        2   -1    0    0  501    0  0.00000000000E+00  0.00000000000E+00 -0.23963800905E+04  0.23963800905E+04  0.25500000920E-02 0. -1.
    10030    2    1    2    0    0  0.00000000000E+00  0.00000000000E+00 -0.22461104685E+04  0.25466497124E+04  0.12001718713E+04 0.  0.
        4    1    3    3  502    0  0.45019349306E+03 -0.39136514647E+03 -0.12615598088E+04  0.13954840104E+04  0.12699999809E+01 0. -1.
       -4    1    3    3    0  502 -0.45019349306E+03  0.39136514647E+03 -0.98455065971E+03  0.11511657020E+04  0.12699999809E+01 0.  1.
</event>
<event>
 5   0  0.1004006E-04  0.1206075E+04  0.7818609E-02  0.9107555E-01
        2   -1    0    0  501    0  0.00000000000E+00  0.00000000000E+00  0.10303552766E+04  0.10303552766E+04  0.25500000920E-02 0.  1.
       -2   -1    0    0    0  501  0.00000000000E+00  0.00000000000E+00 -0.35294088497E+03  0.35294088498E+03  0.25500000920E-02 0. -1.
    10030    2    1    2    0    0  0.00000000000E+00  0.00000000000E+00  0.67741439166E+03  0.13832961616E+04  0.12060754590E+04 0.  0.
        5    1    3    3  502    0 -0.85298660178E+02 -0.42757998080E+03  0.81648983706E+03  0.92562316600E+03  0.46999998093E+01 0.  1.
       -5    1    3    3    0  502  0.85298660178E+02  0.42757998080E+03 -0.13907544540E+03  0.45767299562E+03  0.46999998093E+01 0. -1.
</event>
<event>
 5   0  0.5732931E-05  0.1199999E+04  0.7818609E-02  0.9112858E-01
        1   -1    0    0  501    0  0.00000000000E+00  0.00000000000E+00  0.20071433002E+04  0.20071433002E+04  0.50400001928E-02 0.  1.
       -1   -1    0    0    0  501  0.00000000000E+00  0.00000000000E+00 -0.17935905170E+03  0.17935905177E+03  0.50400001928E-02 0. -1.
    10030    2    1    2    0    0  0.00000000000E+00  0.00000000000E+00  0.18277842485E+04  0.21865023520E+04  0.11999988650E+04 0.  0.
        4    1    3    3  502    0 -0.41806221125E+03  0.17636599720E+03  0.16292016434E+04  0.16912068428E+04  0.12699999809E+01 0.  1.
       -4    1    3    3    0  502  0.41806221125E+03 -0.17636599720E+03  0.19858260511E+03  0.49529550916E+03  0.12699999809E+01 0. -1.
</event>
<event>
 5   0  0.9838215E-05  0.1199736E+04  0.7818609E-02  0.9113087E-01
       -2   -1    0    0    0  501  0.00000000000E+00  0.00000000000E+00  0.12563054846E+04  0.12563054846E+04  0.25500000920E-02 0. -1.
        2   -1    0    0  501    0  0.00000000000E+00  0.00000000000E+00 -0.28642856477E+03  0.28642856478E+03  0.25500000920E-02 0.  1.
    10030    2    1    2    0    0  0.00000000000E+00  0.00000000000E+00  0.96987691985E+03  0.15427340494E+04  0.11997362658E+04 0.  0.
        4    1    3    3  502    0 -0.49277804094E+03 -0.13974682984E+03  0.88641927550E+03  0.10237676098E+04  0.12699999809E+01 0. -1.
       -4    1    3    3    0  502  0.49277804094E+03  0.13974682984E+03  0.83457644359E+02  0.51896643956E+03  0.12699999809E+01 0.  1.
</event>
<event>
 5   0  0.1023063E-04  0.1204891E+04  0.7818609E-02  0.9108586E-01
       -2   -1    0    0    0  501  0.00000000000E+00  0.00000000000E+00  0.56600631925E+03  0.56600631925E+03  0.25500000920E-02 0.  1.
        2   -1    0    0  501    0  0.00000000000E+00  0.00000000000E+00 -0.64123047725E+03  0.64123047726E+03  0.25500000920E-02 0. -1.
    10030    2    1    2    0    0  0.00000000000E+00  0.00000000000E+00 -0.75224158004E+02  0.12072367965E+04  0.12048908701E+04 0.  0.
        3    1    3    3  502    0 -0.43648205935E+03  0.28405943296E+03  0.26585406988E+03  0.58470911252E+03  0.10100000352E+00 0.  1.
       -3    1    3    3    0  502  0.43648205935E+03 -0.28405943296E+03 -0.34107822789E+03  0.62252768399E+03  0.10100000352E+00 0. -1.
</event>
<event>
 5   0  0.5625746E-05  0.1203463E+04  0.7818609E-02  0.9109831E-01
       -1   -1    0    0    0  501  0.00000000000E+00  0.00000000000E+00  0.59165712586E+03  0.59165712588E+03  0.50400001928E-02 0. -1.
        1   -1    0    0  501    0  0.00000000000E+00  0.00000000000E+00 -0.61197718985E+03  0.61197718987E+03  0.50400001928E-02 0.  1.
    10030    2    1    2    0    0  0.00000000000E+00  0.00000000000E+00 -0.20320063988E+02  0.12036343158E+04  0.12034627793E+04 0.  0.
        5    1    3    3  502    0 -0.94897964326E+02 -0.23187887562E+03 -0.55730760115E+03  0.61105424382E+03  0.46999998093E+01 0.  1.
       -5    1    3    3    0  502  0.94897964326E+02  0.23187887562E+03  0.53698753716E+03  0.59258007194E+03  0.46999998093E+01 0. -1.
</event>
<event>
 5   0  0.9941209E-05  0.1200050E+04  0.7818609E-02  0.9112813E-01
       -2   -1    0    0    0  501  0.00000000000E+00  0.00000000000E+00  0.39774350773E+03  0.39774350774E+03  0.25500000920E-02 0. -1.
        2   -1    0    0  501    0  0.00000000000E+00  0.00000000000E+00 -0.90518139520E+03  0.90518139520E+03  0.25500000920E-02 0.  1.
    10030    2    1    2    0    0  0.00000000000E+00  0.00000000000E+00 -0.50743788747E+03  0.13029249029E+04  0.12000500377E+04 0.  0.
        2    1    3    3  502    0  0.50460264168E+03  0.16846716874E+03 -0.55504446224E+03  0.76881686246E+03  0.25500000920E-02 0.  1.
       -2    1    3    3    0  502 -0.50460264168E+03 -0.16846716874E+03  0.47606574767E+02  0.53410804048E+03  0.25500000920E-02 0. -1.
</event>
<event>
 5   0  0.5625746E-05  0.1196436E+04  0.7818609E-02  0.9115981E-01
        1   -1    0    0  501    0  0.00000000000E+00  0.00000000000E+00  0.73793872466E+03  0.73793872468E+03  0.50400001928E-02 0.  1.
       -1   -1    0    0    0  501  0.00000000000E+00  0.00000000000E+00 -0.48495223333E+03  0.48495223336E+03  0.50400001928E-02 0. -1.
    10030    2    1    2    0    0  0.00000000000E+00  0.00000000000E+00  0.25298649133E+03  0.12228909580E+04  0.11964364298E+04 0.  0.
        5    1    3    3  502    0 -0.19422239929E+03 -0.29250012041E+03  0.62152042685E+03  0.71385460132E+03  0.46999998093E+01 0.  1.
       -5    1    3    3    0  502  0.19422239929E+03  0.29250012041E+03 -0.36853393552E+03  0.50903635672E+03  0.46999998093E+01 0. -1.
</event>
<event>
 5   0  0.9941209E-05  0.1200418E+04  0.7818609E-02  0.9112491E-01
        2   -1    0    0  501    0  0.00000000000E+00  0.00000000000E+00  0.83770552907E+03  0.83770552907E+03  0.25500000920E-02 0.  1.
       -2   -1    0    0    0  501  0.00000000000E+00  0.00000000000E+00 -0.43004485015E+03  0.43004485016E+03  0.25500000920E-02 0. -1.
    10030    2    1    2    0    0  0.00000000000E+00  0.00000000000E+00  0.40766067892E+03  0.12677503792E+04  0.12004181750E+04 0.  0.
        2    1    3    3  502    0  0.48569099331E+03  0.35256468519E+03  0.21154417579E+03  0.63635566827E+03  0.25500000920E-02 0.  1.
       -2    1    3    3    0  502 -0.48569099331E+03 -0.35256468519E+03  0.19611650313E+03  0.63139471096E+03  0.25500000920E-02 0. -1.
</event>
<event>
 5   0  0.5745487E-05  0.1200705E+04  0.7818609E-02  0.9112240E-01
        1   -1    0    0  501    0  0.00000000000E+00  0.00000000000E+00  0.70700159855E+03  0.70700159857E+03  0.50400001928E-02 0. -1.
       -1   -1    0    0    0  501  0.00000000000E+00  0.00000000000E+00 -0.50979113443E+03  0.50979113446E+03  0.50400001928E-02 0.  1.
    10030    2    1    2    0    0  0.00000000000E+00  0.00000000000E+00  0.19721046411E+03  0.12167927330E+04  0.12007050379E+04 0.  0.
        3    1    3    3  502    0  0.45599345852E+03  0.36920735129E+03 -0.30295852903E+02  0.58750485221E+03  0.10100000352E+00 0.  1.
       -3    1    3    3    0  502 -0.45599345852E+03 -0.36920735129E+03  0.22750631702E+03  0.62928788082E+03  0.10100000352E+00 0. -1.
</event>
<event>
 5   0  0.1023063E-04  0.1199673E+04  0.7818609E-02  0.9113143E-01
        2   -1    0    0  501    0  0.00000000000E+00  0.00000000000E+00  0.81454969993E+03  0.81454969993E+03  0.25500000920E-02 0.  1.
       -2   -1    0    0    0  501  0.00000000000E+00  0.00000000000E+00 -0.44172082916E+03  0.44172082916E+03  0.25500000920E-02 0. -1.
    10030    2    1    2    0    0  0.00000000000E+00  0.00000000000E+00  0.37282887077E+03  0.12562705291E+04  0.11996725701E+04 0.  0.
        3    1    3    3  502    0 -0.46761812910E+02 -0.43358790102E+03 -0.24486321625E+03  0.50014311945E+03  0.10100000352E+00 0. -1.
       -3    1    3    3    0  502  0.46761812910E+02  0.43358790102E+03  0.61769208702E+03  0.75612740965E+03  0.10100000352E+00 0.  1.
</event>
<event>
 5   0  0.5447807E-05  0.1200213E+04  0.7818609E-02  0.9112670E-01
        1   -1    0    0  501    0  0.00000000000E+00  0.00000000000E+00  0.10769203487E+04  0.10769203487E+04  0.50400001928E-02 0.  1.
       -1   -1    0    0    0  501  0.00000000000E+00  0.00000000000E+00 -0.33440501529E+03  0.33440501533E+03  0.50400001928E-02 0. -1.
    10030    2    1    2    0    0  0.00000000000E+00  0.00000000000E+00  0.74251533340E+03  0.14113253640E+04  0.12002125907E+04 0.  0.
        2    1    3    3  502    0  0.34411375582E+03  0.25093973392E+03 -0.12588716546E+03  0.44410877658E+03  0.25500000920E-02 0.  1.
       -2    1    3    3    0  502 -0.34411375582E+03 -0.25093973392E+03  0.86840249886E+03  0.96721658745E+03  0.25500000920E-02 0. -1.
</event>
<event>
 5   0  0.5620246E-05  0.1199047E+04  0.7818609E-02  0.9113691E-01
        1   -1    0    0  501    0  0.00000000000E+00  0.00000000000E+00  0.11479456511E+04  0.11479456511E+04  0.50400001928E-02 0.  1.
       -1   -1    0    0    0  501  0.00000000000E+00  0.00000000000E+00 -0.31310600635E+03  0.31310600639E+03  0.50400001928E-02 0. -1.
    10030    2    1    2    0    0  0.00000000000E+00  0.00000000000E+00  0.83483964476E+03  0.14610516575E+04  0.11990474192E+04 0.  0.
        1    1    3    3  502    0  0.25195712310E+03 -0.33231546120E+03 -0.10740704538E+03  0.43064165040E+03  0.50400001928E-02 0. -1.
       -1    1    3    3    0  502 -0.25195712310E+03  0.33231546120E+03  0.94224669014E+03  0.10304100071E+04  0.50400001928E-02 0.  1.
</event>
<event>
 5   0  0.9941209E-05  0.1199530E+04  0.7818609E-02  0.9113268E-01
        2   -1    0    0  501    0  0.00000000000E+00  0.00000000000E+00  0.17182086401E+04  0.17182086401E+04  0.25500000920E-02 0. -1.
       -2   -1    0    0    0  501  0.00000000000E+00  0.00000000000E+00 -0.20935635069E+03  0.20935635071E+03  0.25500000920E-02 0.  1.
    10030    2    1    2    0    0  0.00000000000E+00  0.00000000000E+00  0.15088522894E+04  0.19275649908E+04  0.11995297256E+04 0.  0.
        2    1    3    3  502    0 -0.27940653520E+03 -0.79057176001E+02  0.15977217912E+04  0.16238943842E+04  0.25500000920E-02 0. -1.
       -2    1    3    3    0  502  0.27940653520E+03  0.79057176001E+02 -0.88869501749E+02  0.30367060664E+03  0.25500000920E-02 0.  1.
</event>
<event>
 5   0  0.5745487E-05  0.1200250E+04  0.7818609E-02  0.9112637E-01
        1   -1    0    0  501    0  0.00000000000E+00  0.00000000000E+00  0.75204786045E+03  0.75204786047E+03  0.50400001928E-02 0.  1.
       -1   -1    0    0    0  501  0.00000000000E+00  0.00000000000E+00 -0.47889267406E+03  0.47889267409E+03  0.50400001928E-02 0. -1.
    10030    2    1    2    0    0  0.00000000000E+00  0.00000000000E+00  0.27315518639E+03  0.12309405346E+04  0.12002503255E+04 0.  0.
        3    1    3    3  502    0 -0.46396231637E+03 -0.37035023260E+01  0.52693519876E+03  0.70209362683E+03  0.10100000352E+00 0.  1.
       -3    1    3    3    0  502  0.46396231637E+03  0.37035023260E+01 -0.25378001236E+03  0.52884690773E+03  0.10100000352E+00 0. -1.
</event>
<event>
 5   0  0.9838215E-05  0.1203375E+04  0.7818609E-02  0.9109908E-01
        2   -1    0    0  501    0  0.00000000000E+00  0.00000000000E+00  0.58584599573E+03  0.58584599573E+03  0.25500000920E-02 0.  1.
       -2   -1    0    0    0  501  0.00000000000E+00  0.00000000000E+00 -0.61795687967E+03  0.61795687967E+03  0.25500000920E-02 0. -1.
    10030    2    1    2    0    0  0.00000000000E+00  0.00000000000E+00 -0.32110883937E+02  0.12038028754E+04  0.12033745277E+04 0.  0.
        4    1    3    3  502    0  0.55336047672E+03  0.47779507375E+02 -0.24751466339E+03  0.60807550519E+03  0.12699999809E+01 0. -1.
       -4    1    3    3    0  502 -0.55336047672E+03 -0.47779507375E+02  0.21540377946E+03  0.59572737021E+03  0.12699999809E+01 0.  1.
</event>
<event>
 5   0  0.1023063E-04  0.1199895E+04  0.7818609E-02  0.9112949E-01
       -2   -1    0    0    0  501  0.00000000000E+00  0.00000000000E+00  0.17693641352E+03  0.17693641354E+03  0.25500000920E-02 0.  1.
        2   -1    0    0  501    0  0.00000000000E+00  0.00000000000E+00 -0.20342721755E+04  0.20342721755E+04  0.25500000920E-02 0. -1.
    10030    2    1    2    0    0  0.00000000000E+00  0.00000000000E+00 -0.18573357620E+04  0.22112085890E+04  0.11998947002E+04 0.  0.
        3    1    3    3  502    0 -0.51464217320E+03 -0.17207841984E+03 -0.45714224911E+03  0.70953970653E+03  0.10100000352E+00 0.  1.
       -3    1    3    3    0  502  0.51464217320E+03  0.17207841984E+03 -0.14001935128E+04  0.15016688825E+04  0.10100000352E+00 0. -1.
</event>
<event>
 5   0  0.1004006E-04  0.1199943E+04  0.7818609E-02  0.9112906E-01
        2   -1    0    0  501    0  0.00000000000E+00  0.00000000000E+00  0.10633538051E+04  0.10633538051E+04  0.25500000920E-02 0. -1.
       -2   -1    0    0    0  501  0.00000000000E+00  0.00000000000E+00 -0.33851929864E+03  0.33851929865E+03  0.25500000920E-02 0.  1.
    10030    2    1    2    0    0  0.00000000000E+00  0.00000000000E+00  0.72483450648E+03  0.14018731038E+04  0.11999429725E+04 0.  0.
        5    1    3    3  502    0 -0.59614894675E+03 -0.37945391001E+02  0.42757221377E+03  0.73462473916E+03  0.46999998093E+01 0. -1.
       -5    1    3    3    0  502  0.59614894675E+03  0.37945391001E+02  0.29726229271E+03  0.66724836461E+03  0.46999998093E+01 0.  1.
</event>
<event>
 5   0  0.5732931E-05  0.1200728E+04  0.7818609E-02  0.9112219E-01
       -1   -1    0    0    0  501  0.00000000000E+00  0.00000000000E+00  0.21087828815E+03  0.21087828821E+03  0.50400001928E-02 0. -1.
        1   -1    0    0  501    0  0.00000000000E+00  0.00000000000E+00 -0.17092184887E+04  0.17092184887E+04  0.50400001928E-02 0.  1.
    10030    2    1    2    0    0  0.00000000000E+00  0.00000000000E+00 -0.14983402005E+04  0.19200967769E+04  0.12007282274E+04 0.  0.
        4    1    3    3  502    0 -0.20453652128E+03 -0.11347396849E+03 -0.16333550378E+04  0.16500187340E+04  0.12699999809E+01 0.  1.
       -4    1    3    3    0  502  0.20453652128E+03  0.11347396849E+03  0.13501483730E+03  0.27007804289E+03  0.12699999809E+01 0. -1.
</event>
<event>
 5   0  0.5745487E-05  0.1202116E+04  0.7818609E-02  0.9111006E-01
        1   -1    0    0  501    0  0.00000000000E+00  0.00000000000E+00  0.10283567335E+04  0.10283567335E+04  0.50400001928E-02 0.  1.
       -1   -1    0    0    0  501  0.00000000000E+00  0.00000000000E+00 -0.35130876315E+03  0.35130876319E+03  0.50400001928E-02 0. -1.
    10030    2    1    2    0    0  0.00000000000E+00  0.00000000000E+00  0.67704797032E+03  0.13796654967E+04  0.12021160213E+04 0.  0.
        3    1    3    3  502    0 -0.45020106897E+03  0.13589104889E+03 -0.91094205737E+02  0.47900474339E+03  0.10100000352E+00 0. -1.
       -3    1    3    3    0  502  0.45020106897E+03 -0.13589104889E+03  0.76814217606E+03  0.90066075328E+03  0.10100000352E+00 0.  1.
</event>
<event>
 5   0  0.5625746E-05  0.1198481E+04  0.7818609E-02  0.9114187E-01
        1   -1    0    0  501    0  0.00000000000E+00  0.00000000000E+00  0.55754997925E+03  0.55754997927E+03  0.50400001928E-02 0.  1.
       -1   -1    0    0    0  501  0.00000000000E+00  0.00000000000E+00 -0.64404871777E+03  0.64404871779E+03  0.50400001928E-02 0. -1.
    10030    2    1    2    0    0  0.00000000000E+00  0.00000000000E+00 -0.86498738524E+02  0.12015986971E+04  0.11984812877E+04 0.  0.
        5    1    3    3  502    0  0.43188215841E+03  0.35303071589E+03 -0.26271226283E+03  0.61659768744E+03  0.46999998093E+01 0. -1.
       -5    1    3    3    0  502 -0.43188215841E+03 -0.35303071589E+03  0.17621352431E+03  0.58500100962E+03  0.46999998093E+01 0.  1.
</event>
<event>
 5   0  0.9838215E-05  0.1199711E+04  0.7818609E-02  0.9113109E-01
       -2   -1    0    0    0  501  0.00000000000E+00  0.00000000000E+00  0.51025962985E+03  0.51025962985E+03  0.25500000920E-02 0. -1.
        2   -1    0    0  501    0  0.00000000000E+00  0.00000000000E+00 -0.70518382625E+03  0.70518382625E+03  0.25500000920E-02 0.  1.
    10030    2    1    2    0    0  0.00000000000E+00  0.00000000000E+00 -0.19492419640E+03  0.12154434561E+04  0.11997113622E+04 0.  0.
        4    1    3    3  502    0 -0.51732242155E+03  0.28615441248E+03  0.54494115369E+01  0.59121751041E+03  0.12699999809E+01 0.  1.
       -4    1    3    3    0  502  0.51732242155E+03 -0.28615441248E+03 -0.20037360794E+03  0.62422594570E+03  0.12699999809E+01 0. -1.
</event>
<event>
 5   0  0.1012657E-04  0.1199699E+04  0.7818609E-02  0.9113120E-01
       -2   -1    0    0    0  501  0.00000000000E+00  0.00000000000E+00  0.26242028872E+03  0.26242028874E+03  0.25500000920E-02 0.  1.
        2   -1    0    0  501    0  0.00000000000E+00  0.00000000000E+00 -0.13711569288E+04  0.13711569288E+04  0.25500000920E-02 0. -1.
    10030    2    1    2    0    0  0.00000000000E+00  0.00000000000E+00 -0.11087366401E+04  0.16335772175E+04  0.11996989575E+04 0.  0.
        1    1    3    3  502    0 -0.32094491882E+03  0.29394340604E+03  0.77351127210E+01  0.43527944916E+03  0.50400001928E-02 0.  1.
       -1    1    3    3    0  502  0.32094491882E+03 -0.29394340604E+03 -0.11164717528E+04  0.11982977684E+04  0.50400001928E-02 0. -1.
</event>
<event>
 5   0  0.1004006E-04  0.1200131E+04  0.7818609E-02  0.9112742E-01
       -2   -1    0    0    0  501  0.00000000000E+00  0.00000000000E+00  0.12759653400E+03  0.12759653403E+03  0.25500000920E-02 0.  1.
        2   -1    0    0  501    0  0.00000000000E+00  0.00000000000E+00 -0.28220078462E+04  0.28220078462E+04  0.25500000920E-02 0. -1.
    10030    2    1    2    0    0  0.00000000000E+00  0.00000000000E+00 -0.26944113122E+04  0.29496043803E+04  0.12001306931E+04 0.  0.
        5    1    3    3  502    0 -0.25480809464E+03 -0.52629155045E+03 -0.10161278297E+04  0.11723684648E+04  0.46999998093E+01 0. -1.
       -5    1    3    3    0  502  0.25480809464E+03  0.52629155045E+03 -0.16782834826E+04  0.17772359154E+04  0.46999998093E+01 0.  1.
</event>
<event>
 5   0  0.9838215E-05  0.1202063E+04  0.7818609E-02  0.9111053E-01
        2   -1    0    0  501    0  0.00000000000E+00  0.00000000000E+00  0.54973366610E+03  0.54973366610E+03  0.25500000920E-02 0.  1.
       -2   -1    0    0    0  501  0.00000000000E+00  0.00000000000E+00 -0.65711593400E+03  0.65711593401E+03  0.25500000920E-02 0. -1.
    10030    2    1    2    0    0  0.00000000000E+00  0.00000000000E+00 -0.10738226791E+03  0.12068496001E+04  0.12020628128E+04 0.  0.
        4    1    3    3  502    0  0.29951855447E+03 -0.35387993583E+03  0.33031696316E+03  0.56925678081E+03  0.12699999809E+01 0.  1.
       -4    1    3    3    0  502 -0.29951855447E+03  0.35387993583E+03 -0.43769923106E+03  0.63759281930E+03  0.12699999809E+01 0. -1.
</event>
<event>
 5   0  0.9941209E-05  0.1201916E+04  0.7818609E-02  0.9111181E-01
        2   -1    0    0  501    0  0.00000000000E+00  0.00000000000E+00  0.12448984847E+04  0.12448984847E+04  0.25500000920E-02 0.  1.
       -2   -1    0    0    0  501  0.00000000000E+00  0.00000000000E+00 -0.29010446234E+03  0.29010446235E+03  0.25500000920E-02 0. -1.
    10030    2    1    2    0    0  0.00000000000E+00  0.00000000000E+00  0.95479402234E+03  0.15350029470E+04  0.12019161461E+04 0.  0.
        2    1    3    3  502    0  0.13812005087E+01  0.19743667774E+03  0.12022933031E+04  0.12183974458E+04  0.25500000920E-02 0.  1.
       -2    1    3    3    0  502 -0.13812005087E+01 -0.19743667774E+03 -0.24749928071E+03  0.31660550120E+03  0.25500000920E-02 0. -1.
</event>
<event>
 5   0  0.1004006E-04  0.1200110E+04  0.7818609E-02  0.9112760E-01
        2   -1    0    0  501    0  0.00000000000E+00  0.00000000000E+00  0.71872307993E+03  0.71872307994E+03  0.25500000920E-02 0. -1.
       -2   -1    0    0    0  501  0.00000000000E+00  0.00000000000E+00 -0.50098037555E+03  0.50098037556E+03  0.25500000920E-02 0.  1.
    10030    2    1    2    0    0  0.00000000000E+00  0.00000000000E+00  0.21774270438E+03  0.12197034555E+04  0.12001102591E+04 0.  0.
        5    1    3    3  502    0  0.52748368471E+03  0.11748485093E+03  0.37390135227E+03  0.65716515357E+03  0.46999998093E+01 0.  1.
       -5    1    3    3    0  502 -0.52748368471E+03 -0.11748485093E+03 -0.15615864789E+03  0.56253830193E+03  0.46999998093E+01 0. -1.
</event>
<event>
 5   0  0.1004006E-04  0.1198935E+04  0.7818609E-02  0.9113790E-01
       -2   -1    0    0    0  501  0.00000000000E+00  0.00000000000E+00  0.72362838056E+03  0.72362838056E+03  0.25500000920E-02 0.  1.
        2   -1    0    0  501    0  0.00000000000E+00  0.00000000000E+00 -0.49660992417E+03  0.49660992417E+03  0.25500000920E-02 0. -1.
    10030    2    1    2    0    0  0.00000000000E+00  0.00000000000E+00  0.22701845639E+03  0.12202383047E+04  0.11989345857E+04 0.  0.
        5    1    3    3  502    0 -0.33945217423E+03 -0.21562319336E+03  0.56595048602E+03  0.69429329734E+03  0.46999998093E+01 0.  1.
       -5    1    3    3    0  502  0.33945217423E+03  0.21562319336E+03 -0.33893202962E+03  0.52594500740E+03  0.46999998093E+01 0. -1.
</event>
<event>
 5   0  0.5447807E-05  0.1199627E+04  0.7818609E-02  0.9113183E-01
       -1   -1    0    0    0  501  0.00000000000E+00  0.00000000000E+00  0.43071716025E+03  0.43071716028E+03  0.50400001928E-02 0.  1.
        1   -1    0    0  501    0  0.00000000000E+00  0.00000000000E+00 -0.83529568005E+03  0.83529568007E+03  0.50400001928E-02 0. -1.
    10030    2    1    2    0    0  0.00000000000E+00  0.00000000000E+00 -0.40457851980E+03  0.12660128403E+04  0.11996269142E+04 0.  0.
        2    1    3    3  502    0  0.33217549913E+03  0.49850109122E+03 -0.23451224889E+03  0.64330389013E+03  0.25500000920E-02 0.  1.
       -2    1    3    3    0  502 -0.33217549913E+03 -0.49850109122E+03 -0.17006627091E+03  0.62270895021E+03  0.25500000920E-02 0. -1.
</event>
<event>
 5   0  0.5447807E-05  0.1198390E+04  0.7818609E-02  0.9114267E-01
        1   -1    0    0  501    0  0.00000000000E+00  0.00000000000E+00  0.68624334445E+03  0.68624334447E+03  0.50400001928E-02 0.  1.
       -1   -1    0    0    0  501  0.00000000000E+00  0.00000000000E+00 -0.52318824176E+03  0.52318824179E+03  0.50400001928E-02 0. -1.
    10030    2    1    2    0    0  0.00000000000E+00  0.00000000000E+00  0.16305510269E+03  0.12094315863E+04  0.11983896676E+04 0.  0.
        2    1    3    3  502    0  0.26438613805E+03 -0.53770715339E+03  0.79174539463E+02  0.60439856097E+03  0.25500000920E-02 0. -1.
       -2    1    3    3    0  502 -0.26438613805E+03  0.53770715339E+03  0.83880563225E+02  0.60503302529E+03  0.25500000920E-02 0.  1.
</event>
<event>
 5   0  0.3839750E-05  0.1199417E+04  0.7818609E-02  0.9113367E-01
       -4   -1    0    0    0  501  0.00000000000E+00  0.00000000000E+00  0.60419302802E+03  0.60419436278E+03  0.12699999809E+01 0.  1.
        4   -1    0    0  501    0  0.00000000000E+00  0.00000000000E+00 -0.59525497950E+03  0.59525633429E+03  0.12699999809E+01 0. -1.
    10030    2    1    2    0    0  0.00000000000E+00  0.00000000000E+00  0.89380485241E+01  0.11994506971E+04  0.11994173944E+04 0.  0.
        1    1    3    3  502    0 -0.54662493430E+03  0.18132947854E+03 -0.16278191353E+03  0.59847903053E+03  0.50400001928E-02 0. -1.
       -1    1    3    3    0  502  0.54662493430E+03 -0.18132947854E+03  0.17171996205E+03  0.60097166654E+03  0.50400001928E-02 0.  1.
</event>
<event>
 5   0  0.5625746E-05  0.1200035E+04  0.7818609E-02  0.9112826E-01
       -1   -1    0    0    0  501  0.00000000000E+00  0.00000000000E+00  0.43685210145E+03  0.43685210148E+03  0.50400001928E-02 0.  1.
        1   -1    0    0  501    0  0.00000000000E+00  0.00000000000E+00 -0.82412545586E+03  0.82412545587E+03  0.50400001928E-02 0. -1.
    10030    2    1    2    0    0  0.00000000000E+00  0.00000000000E+00 -0.38727335441E+03  0.12609775573E+04  0.12000348950E+04 0.  0.
        5    1    3    3  502    0 -0.29549701118E+03 -0.48922711679E+03 -0.17795268666E+01  0.57156531747E+03  0.46999998093E+01 0.  1.
       -5    1    3    3    0  502  0.29549701118E+03  0.48922711679E+03 -0.38549382754E+03  0.68941223988E+03  0.46999998093E+01 0. -1.
</event>
<event>
 5   0  0.1023063E-04  0.1200350E+04  0.7818609E-02  0.9112551E-01
        2   -1    0    0  501    0  0.00000000000E+00  0.00000000000E+00  0.45768513965E+03  0.45768513966E+03  0.25500000920E-02 0.  1.
       -2   -1    0    0    0  501  0.00000000000E+00  0.00000000000E+00 -0.78702528176E+03  0.78702528176E+03  0.25500000920E-02 0. -1.
    10030    2    1    2    0    0  0.00000000000E+00  0.00000000000E+00 -0.32934014210E+03  0.12447104214E+04  0.12003495757E+04 0.  0.
        3    1    3    3  502    0 -0.85296967110E+02 -0.22397968835E+02 -0.78027001642E+03  0.78523789410E+03  0.10100000352E+00 0. -1.
       -3    1    3    3    0  502  0.85296967110E+02  0.22397968835E+02  0.45092987432E+03  0.45947252732E+03  0.10100000352E+00 0.  1.
</event>
<event>
 5   0  0.5620246E-05  0.1199489E+04  0.7818609E-02  0.9113304E-01
       -1   -1    0    0    0  501  0.00000000000E+00  0.00000000000E+00  0.18700527417E+04  0.18700527417E+04  0.50400001928E-02 0. -1.
        1   -1    0    0  501    0  0.00000000000E+00  0.00000000000E+00 -0.19234407500E+03  0.19234407507E+03  0.50400001928E-02 0.  1.
    10030    2    1    2    0    0  0.00000000000E+00  0.00000000000E+00  0.16777086667E+04  0.20623968168E+04  0.11994891661E+04 0.  0.
        1    1    3    3  502    0 -0.27497135899E+03  0.23740532879E+03  0.18352844462E+02  0.36374079415E+03  0.50400001928E-02 0.  1.
       -1    1    3    3    0  502  0.27497135899E+03 -0.23740532879E+03  0.16593558223E+04  0.16986560227E+04  0.50400001928E-02 0. -1.
</event>
<event>
 5   0  0.5447807E-05  0.1200732E+04  0.7818609E-02  0.9112216E-01
       -1   -1    0    0    0  501  0.00000000000E+00  0.00000000000E+00  0.44731894387E+03  0.44731894389E+03  0.50400001928E-02 0. -1.
        1   -1    0    0  501    0  0.00000000000E+00  0.00000000000E+00 -0.80577766219E+03  0.80577766220E+03  0.50400001928E-02 0.  1.
    10030    2    1    2    0    0  0.00000000000E+00  0.00000000000E+00 -0.35845871832E+03  0.12530966061E+04  0.12007324646E+04 0.  0.
        2    1    3    3  502    0  0.51979998768E+03 -0.20855348848E+03  0.46424711899E+02  0.56199807707E+03  0.25500000920E-02 0. -1.
       -2    1    3    3    0  502 -0.51979998768E+03  0.20855348848E+03 -0.40488343022E+03  0.69109852903E+03  0.25500000920E-02 0.  1.
</event>
<event>
 5   0  0.5625746E-05  0.1199764E+04  0.7818609E-02  0.9113063E-01
       -1   -1    0    0    0  501  0.00000000000E+00  0.00000000000E+00  0.17705324862E+03  0.17705324869E+03  0.50400001928E-02 0.  1.
        1   -1    0    0  501    0  0.00000000000E+00  0.00000000000E+00 -0.20324869068E+04  0.20324869068E+04  0.50400001928E-02 0. -1.
    10030    2    1    2    0    0  0.00000000000E+00  0.00000000000E+00 -0.18554336582E+04  0.22095401555E+04  0.11997639930E+04 0.  0.
        5    1    3    3  502    0  0.12491778475E+03 -0.23541995177E+03 -0.19174352912E+04  0.19358737543E+04  0.46999998093E+01 0. -1.
       -5    1    3    3    0  502 -0.12491778475E+03  0.23541995177E+03  0.62001633033E+02  0.27366640119E+03  0.46999998093E+01 0.  1.
</event>
<event>
 5   0  0.9941209E-05  0.1199629E+04  0.7818609E-02  0.9113181E-01
        2   -1    0    0  501    0  0.00000000000E+00  0.00000000000E+00  0.10779269501E+04  0.10779269501E+04  0.25500000920E-02 0. -1.
       -2   -1    0    0    0  501  0.00000000000E+00  0.00000000000E+00 -0.33376800051E+03  0.33376800052E+03  0.25500000920E-02 0.  1.
    10030    2    1    2    0    0  0.00000000000E+00  0.00000000000E+00  0.74415894960E+03  0.14116949506E+04  0.11996291474E+04 0.  0.
        2    1    3    3  502    0 -0.54867889236E+02 -0.42886909675E+03  0.86131038622E+03  0.96373999026E+03  0.25500000920E-02 0. -1.
       -2    1    3    3    0  502  0.54867889236E+02  0.42886909675E+03 -0.11715143662E+03  0.44795496037E+03  0.25500000920E-02 0.  1.
</event>
<event>
 5   0  0.9838215E-05  0.1200678E+04  0.7818609E-02  0.9112264E-01
        2   -1    0    0  501    0  0.00000000000E+00  0.00000000000E+00  0.25239020186E+04  0.25239020186E+04  0.25500000920E-02 0.  1.
       -2   -1    0    0    0  501  0.00000000000E+00  0.00000000000E+00 -0.14279740864E+03  0.14279740866E+03  0.25500000920E-02 0. -1.
    10030    2    1    2    0    0  0.00000000000E+00  0.00000000000E+00  0.23811046099E+04  0.26666994272E+04  0.12006775886E+04 0.  0.
        4    1    3    3  502    0 -0.99340514836E+02  0.29495708747E+03  0.23307189326E+04  0.23514082115E+04  0.12699999809E+01 0.  1.
       -4    1    3    3    0  502  0.99340514836E+02 -0.29495708747E+03  0.50385677300E+02  0.31529121572E+03  0.12699999809E+01 0. -1.
</event>
<event>
 5   0  0.5745487E-05  0.1200606E+04  0.7818609E-02  0.9112327E-01
       -1   -1    0    0    0  501  0.00000000000E+00  0.00000000000E+00  0.78650295422E+03  0.78650295424E+03  0.50400001928E-02 0.  1.
        1   -1    0    0  501    0  0.00000000000E+00  0.00000000000E+00 -0.45818457206E+03  0.45818457209E+03  0.50400001928E-02 0. -1.
    10030    2    1    2    0    0  0.00000000000E+00  0.00000000000E+00  0.32831838216E+03  0.12446875263E+04  0.12006057130E+04 0.  0.
        3    1    3    3  502    0  0.10354898642E+03 -0.33239090951E+03 -0.34283366913E+03  0.48861134269E+03  0.10100000352E+00 0. -1.
       -3    1    3    3    0  502 -0.10354898642E+03  0.33239090951E+03  0.67115205129E+03  0.75607618364E+03  0.10100000352E+00 0.  1.
</event>
<event>
 5   0  0.9941209E-05  0.1199583E+04  0.7818609E-02  0.9113221E-01
       -2   -1    0    0    0  501  0.00000000000E+00  0.00000000000E+00  0.10027271506E+04  0.10027271506E+04  0.25500000920E-02 0.  1.
        2   -1    0    0  501    0  0.00000000000E+00  0.00000000000E+00 -0.35877168612E+03  0.35877168613E+03  0.25500000920E-02 0. -1.
    10030    2    1    2    0    0  0.00000000000E+00  0.00000000000E+00  0.64395546453E+03  0.13614988368E+04  0.11995834453E+04 0.  0.
        2    1    3    3  502    0 -0.48345518691E+03  0.23811007331E+03  0.62081246924E+03  0.82209089931E+03  0.25500000920E-02 0.  1.
       -2    1    3    3    0  502  0.48345518691E+03 -0.23811007331E+03  0.23142995290E+02  0.53940793746E+03  0.25500000920E-02 0. -1.
</event>
<event>
 5   0  0.5625746E-05  0.1197818E+04  0.7818609E-02  0.9114768E-01
        1   -1    0    0  501    0  0.00000000000E+00  0.00000000000E+00  0.77618492433E+03  0.77618492435E+03  0.50400001928E-02 0.  1.
       -1   -1    0    0    0  501  0.00000000000E+00  0.00000000000E+00 -0.46212217549E+03  0.46212217552E+03  0.50400001928E-02 0. -1.
    10030    2    1    2    0    0  0.00000000000E+00  0.00000000000E+00  0.31406274884E+03  0.12383070999E+04  0.11978184601E+04 0.  0.
        5    1    3    3  502    0  0.39383839773E+03 -0.34058659420E+03 -0.14888016011E+03  0.54156745078E+03  0.46999998093E+01 0. -1.
       -5    1    3    3    0  502 -0.39383839773E+03  0.34058659420E+03  0.46294290895E+03  0.69673964909E+03  0.46999998093E+01 0.  1.
</event>
<event>
 5   0  0.3839750E-05  0.1209202E+04  0.7818609E-02  0.9104840E-01
       -3   -1    0    0    0  501  0.00000000000E+00  0.00000000000E+00  0.24336497610E+03  0.24336499706E+03  0.10100000352E+00 0.  1.
        3   -1    0    0  501    0  0.00000000000E+00  0.00000000000E+00 -0.15020347164E+04  0.15020347198E+04  0.10100000352E+00 0. -1.
    10030    2    1    2    0    0  0.00000000000E+00  0.00000000000E+00 -0.12586697403E+04  0.17453997168E+04  0.12092024878E+04 0.  0.
        4    1    3    3  502    0 -0.53124260417E+03  0.15274966312E+03 -0.27579785443E+03  0.61775175716E+03  0.12699999809E+01 0. -1.
       -4    1    3    3    0  502  0.53124260417E+03 -0.15274966312E+03 -0.98287188582E+03  0.11276479597E+04  0.12699999809E+01 0.  1.
</event>
<event>
 5   0  0.5732931E-05  0.1200245E+04  0.7818609E-02  0.9112642E-01
       -1   -1    0    0    0  501  0.00000000000E+00  0.00000000000E+00  0.43952900818E+03  0.43952900821E+03  0.50400001928E-02 0. -1.
        1   -1    0    0  501    0  0.00000000000E+00  0.00000000000E+00 -0.81939263524E+03  0.81939263525E+03  0.50400001928E-02 0.  1.
    10030    2    1    2    0    0  0.00000000000E+00  0.00000000000E+00 -0.37986362706E+03  0.12589216435E+04  0.12002446956E+04 0.  0.
        4    1    3    3  502    0  0.30702709672E+03  0.29844423289E+03 -0.63097699296E+03  0.76254060666E+03  0.12699999809E+01 0.  1.
       -4    1    3    3    0  502 -0.30702709672E+03 -0.29844423289E+03  0.25111336590E+03  0.49638103680E+03  0.12699999809E+01 0. -1.
</event>
<event>
 5   0  0.5447807E-05  0.1199746E+04  0.7818609E-02  0.9113078E-01
        1   -1    0    0  501    0  0.00000000000E+00  0.00000000000E+00  0.34719538514E+03  0.34719538518E+03  0.50400001928E-02 0.  1.
       -1   -1    0    0    0  501  0.00000000000E+00  0.00000000000E+00 -0.10364420456E+04  0.10364420457E+04  0.50400001928E-02 0. -1.
    10030    2    1    2    0    0  0.00000000000E+00  0.00000000000E+00 -0.68924666049E+03  0.13836374308E+04  0.11997464653E+04 0.  0.
        2    1    3    3  502    0  0.94353531037E+02 -0.45830519815E+03 -0.77752659924E+03  0.90746562249E+03  0.25500000920E-02 0. -1.
       -2    1    3    3    0  502 -0.94353531037E+02  0.45830519815E+03  0.88279938745E+02  0.47617180834E+03  0.25500000920E-02 0.  1.
</event>
<event>
 5   0  0.5625746E-05  0.1200882E+04  0.7818609E-02  0.9112085E-01
       -1   -1    0    0    0  501  0.00000000000E+00  0.00000000000E+00  0.24480615644E+03  0.24480615650E+03  0.50400001928E-02 0.  1.
        1   -1    0    0  501    0  0.00000000000E+00  0.00000000000E+00 -0.14727142080E+04  0.14727142080E+04  0.50400001928E-02 0. -1.
    10030    2    1    2    0    0  0.00000000000E+00  0.00000000000E+00 -0.12279080516E+04  0.17175203645E+04  0.12008821838E+04 0.  0.
        5    1    3    3  502    0  0.51142522091E+03  0.25876942007E+03 -0.86975896299E+03  0.10416429873E+04  0.46999998093E+01 0. -1.
       -5    1    3    3    0  502 -0.51142522091E+03 -0.25876942007E+03 -0.35814908856E+03  0.67587737718E+03  0.46999998093E+01 0.  1.
</event>
<event>
 5   0  0.5620246E-05  0.1200051E+04  0.7818609E-02  0.9112812E-01
       -1   -1    0    0    0  501  0.00000000000E+00  0.00000000000E+00  0.74960180005E+03  0.74960180007E+03  0.50400001928E-02 0. -1.
        1   -1    0    0  501    0  0.00000000000E+00  0.00000000000E+00 -0.48029555157E+03  0.48029555159E+03  0.50400001928E-02 0.  1.
    10030    2    1    2    0    0  0.00000000000E+00  0.00000000000E+00  0.26930624848E+03  0.12298973517E+04  0.12000506823E+04 0.  0.
        1    1    3    3  502    0  0.42628682874E+03 -0.34713599295E+03  0.38106283061E+03  0.66890413278E+03  0.50400001928E-02 0. -1.
       -1    1    3    3    0  502 -0.42628682874E+03  0.34713599295E+03 -0.11175658213E+03  0.56099321888E+03  0.50400001928E-02 0.  1.
</event>
<event>
 5   0  0.1023063E-04  0.1200124E+04  0.7818609E-02  0.9112748E-01
       -2   -1    0    0    0  501  0.00000000000E+00  0.00000000000E+00  0.36706949564E+03  0.36706949564E+03  0.25500000920E-02 0. -1.
        2   -1    0    0  501    0  0.00000000000E+00  0.00000000000E+00 -0.98094305369E+03  0.98094305369E+03  0.25500000920E-02 0.  1.
    10030    2    1    2    0    0  0.00000000000E+00  0.00000000000E+00 -0.61387355806E+03  0.13480125493E+04  0.12001237802E+04 0.  0.
        3    1    3    3  502    0  0.23727343194E+03  0.14356181715E+03 -0.90464348536E+03  0.94619687310E+03  0.10100000352E+00 0.  1.
       -3    1    3    3    0  502 -0.23727343194E+03 -0.14356181715E+03  0.29076992731E+03  0.40181567624E+03  0.10100000352E+00 0. -1.
</event>
<event>
 5   0  0.1023063E-04  0.1199623E+04  0.7818609E-02  0.9113187E-01
       -2   -1    0    0    0  501  0.00000000000E+00  0.00000000000E+00  0.42066350462E+03  0.42066350462E+03  0.25500000920E-02 0. -1.
        2   -1    0    0  501    0  0.00000000000E+00  0.00000000000E+00 -0.85525271131E+03  0.85525271132E+03  0.25500000920E-02 0.  1.
    10030    2    1    2    0    0  0.00000000000E+00  0.00000000000E+00 -0.43458920669E+03  0.12759162159E+04  0.11996226121E+04 0.  0.
        3    1    3    3  502    0  0.40493105035E+03  0.53612447356E+02  0.24987820447E+03  0.47883460330E+03  0.10100000352E+00 0. -1.
       -3    1    3    3    0  502 -0.40493105035E+03 -0.53612447356E+02 -0.68446741117E+03  0.79708161264E+03  0.10100000352E+00 0.  1.
</event>
<event>
 5   0  0.5625746E-05  0.1199053E+04  0.7818609E-02  0.9113686E-01
       -1   -1    0    0    0  501  0.00000000000E+00  0.00000000000E+00  0.75976718327E+03  0.75976718328E+03  0.50400001928E-02 0. -1.
        1   -1    0    0  501    0  0.00000000000E+00  0.00000000000E+00 -0.47308179001E+03  0.47308179004E+03  0.50400001928E-02 0.  1.
    10030    2    1    2    0    0  0.00000000000E+00  0.00000000000E+00  0.28668539326E+03  0.12328489733E+04  0.11990529914E+04 0.  0.
        5    1    3    3  502    0  0.18950143097E+03  0.33605984129E+03  0.61514759773E+03  0.72613749818E+03  0.46999998093E+01 0. -1.
       -5    1    3    3    0  502 -0.18950143097E+03 -0.33605984129E+03 -0.32846220448E+03  0.50671147514E+03  0.46999998093E+01 0.  1.
</event>
<event>
 5   0  0.5745487E-05  0.1200320E+04  0.7818609E-02  0.9112577E-01
        1   -1    0    0  501    0  0.00000000000E+00  0.00000000000E+00  0.14231421860E+04  0.14231421860E+04  0.50400001928E-02 0.  1.
       -1   -1    0    0    0  501  0.00000000000E+00  0.00000000000E+00 -0.25309621588E+03  0.25309621593E+03  0.50400001928E-02 0. -1.
    10030    2    1    2    0    0  0.00000000000E+00  0.00000000000E+00  0.11700459701E+04  0.16762384019E+04  0.12003197940E+04 0.  0.
        3    1    3    3  502    0  0.32531836017E+03 -0.21668253478E+03  0.12210156845E+04  0.12820540817E+04  0.10100000352E+00 0.  1.
       -3    1    3    3    0  502 -0.32531836017E+03  0.21668253478E+03 -0.50969714392E+02  0.39418432025E+03  0.10100000352E+00 0. -1.
</event>
<event>
 5   0  0.5745487E-05  0.1199860E+04  0.7818609E-02  0.9112979E-01
        1   -1    0    0  501    0  0.00000000000E+00  0.00000000000E+00  0.52101107151E+03  0.52101107153E+03  0.50400001928E-02 0. -1.
       -1   -1    0    0    0  501  0.00000000000E+00  0.00000000000E+00 -0.69080266649E+03  0.69080266651E+03  0.50400001928E-02 0.  1.
    10030    2    1    2    0    0  0.00000000000E+00  0.00000000000E+00 -0.16979159499E+03  0.12118137380E+04  0.11998597210E+04 0.  0.
        3    1    3    3  502    0  0.23122801685E+02  0.56422642737E+03 -0.28947174843E+03  0.63457074360E+03  0.10100000352E+00 0. -1.
       -3    1    3    3    0  502 -0.23122801685E+02 -0.56422642737E+03  0.11968015344E+03  0.57724299444E+03  0.10100000352E+00 0.  1.
</event>
<event>
 5   0  0.9941209E-05  0.1198802E+04  0.7818609E-02  0.9113906E-01
       -2   -1    0    0    0  501  0.00000000000E+00  0.00000000000E+00  0.54503969488E+03  0.54503969488E+03  0.25500000920E-02 0.  1.
        2   -1    0    0  501    0  0.00000000000E+00  0.00000000000E+00 -0.65918380725E+03  0.65918380726E+03  0.25500000920E-02 0. -1.
    10030    2    1    2    0    0  0.00000000000E+00  0.00000000000E+00 -0.11414411237E+03  0.12042235021E+04  0.11988016369E+04 0.  0.
        2    1    3    3  502    0  0.19841818999E+03  0.15474584260E+03 -0.60355946493E+03  0.65391137139E+03  0.25500000920E-02 0. -1.
       -2    1    3    3    0  502 -0.19841818999E+03 -0.15474584260E+03  0.48941535256E+03  0.55031213075E+03  0.25500000920E-02 0.  1.
</event>
<event>
 5   0  0.9941209E-05  0.1200264E+04  0.7818609E-02  0.9112625E-01
       -2   -1    0    0    0  501  0.00000000000E+00  0.00000000000E+00  0.41618729260E+03  0.41618729260E+03  0.25500000920E-02 0. -1.
        2   -1    0    0  501    0  0.00000000000E+00  0.00000000000E+00 -0.86537619938E+03  0.86537619939E+03  0.25500000920E-02 0.  1.
    10030    2    1    2    0    0  0.00000000000E+00  0.00000000000E+00 -0.44918890679E+03  0.12815634920E+04  0.12002642667E+04 0.  0.
        2    1    3    3  502    0 -0.51301556995E+03  0.17639058100E+02 -0.55655936820E+03  0.75713568250E+03  0.25500000920E-02 0.  1.
       -2    1    3    3    0  502  0.51301556995E+03 -0.17639058100E+02  0.10737046141E+03  0.52442780949E+03  0.25500000920E-02 0. -1.
</event>
<event>
 5   0  0.5732931E-05  0.1200606E+04  0.7818609E-02  0.9112327E-01
       -1   -1    0    0    0  501  0.00000000000E+00  0.00000000000E+00  0.40197743757E+03  0.40197743761E+03  0.50400001928E-02 0.  1.
        1   -1    0    0  501    0  0.00000000000E+00  0.00000000000E+00 -0.89647667539E+03  0.89647667541E+03  0.50400001928E-02 0. -1.
    10030    2    1    2    0    0  0.00000000000E+00  0.00000000000E+00 -0.49449923782E+03  0.12984541130E+04  0.12006055086E+04 0.  0.
        4    1    3    3  502    0 -0.90330399673E+02  0.24411423021E+00 -0.88908295773E+03  0.89366087490E+03  0.12699999809E+01 0. -1.
       -4    1    3    3    0  502  0.90330399673E+02 -0.24411423021E+00  0.39458371992E+03  0.40479323811E+03  0.12699999809E+01 0.  1.
</event>
<event>
 5   0  0.1012657E-04  0.1199689E+04  0.7818609E-02  0.9113129E-01
        2   -1    0    0  501    0  0.00000000000E+00  0.00000000000E+00  0.87607186373E+03  0.87607186373E+03  0.25500000920E-02 0. -1.
       -2   -1    0    0    0  501  0.00000000000E+00  0.00000000000E+00 -0.41071192042E+03  0.41071192042E+03  0.25500000920E-02 0.  1.
    10030    2    1    2    0    0  0.00000000000E+00  0.00000000000E+00  0.46535994331E+03  0.12867837842E+04  0.11996885556E+04 0.  0.
        1    1    3    3  502    0 -0.49121678435E+03 -0.33860338589E+03  0.16598044262E+03  0.61927028794E+03  0.50400001928E-02 0. -1.
       -1    1    3    3    0  502  0.49121678435E+03  0.33860338589E+03  0.29937950070E+03  0.66751349622E+03  0.50400001928E-02 0.  1.
</event>
<event>
 5   0  0.3839750E-05  0.1200141E+04  0.7818609E-02  0.9112733E-01
        3   -1    0    0  501    0  0.00000000000E+00  0.00000000000E+00  0.64900347903E+03  0.64900348689E+03  0.10100000352E+00 0. -1.
       -3   -1    0    0    0  501  0.00000000000E+00  0.00000000000E+00 -0.55482707631E+03  0.55482708551E+03  0.10100000352E+00 0.  1.
    10030    2    1    2    0    0  0.00000000000E+00  0.00000000000E+00  0.94176402715E+02  0.12038305724E+04  0.12001411801E+04 0.  0.
        4    1    3    3  502    0 -0.47142142103E+03  0.35470079564E+03  0.15711720167E+03  0.61052292226E+03  0.12699999809E+01 0.  1.
       -4    1    3    3    0  502  0.47142142103E+03 -0.35470079564E+03 -0.62940798957E+02  0.59330765014E+03  0.12699999809E+01 0. -1.
</event>
<event>
 5   0  0.1004006E-04  0.1200409E+04  0.7818609E-02  0.9112499E-01
        2   -1    0    0  501    0  0.00000000000E+00  0.00000000000E+00  0.73334194498E+03  0.73334194498E+03  0.25500000920E-02 0.  1.
       -2   -1    0    0    0  501  0.00000000000E+00  0.00000000000E+00 -0.49123780095E+03  0.49123780095E+03  0.25500000920E-02 0. -1.
    10030    2    1    2    0    0  0.00000000000E+00  0.00000000000E+00  0.24210414403E+03  0.12245797459E+04  0.12004087377E+04 0.  0.
        5    1    3    3  502    0  0.67457148860E+02 -0.58809075524E+03  0.22215359359E+03  0.63227803415E+03  0.46999998093E+01 0.  1.
       -5    1    3    3    0  502 -0.67457148860E+02  0.58809075524E+03  0.19950550442E+02  0.59230171179E+03  0.46999998093E+01 0. -1.
</event>
<event>
 5   0  0.1004006E-04  0.1199426E+04  0.7818609E-02  0.9113359E-01
        2   -1    0    0  501    0  0.00000000000E+00  0.00000000000E+00  0.13623225712E+04  0.13623225712E+04  0.25500000920E-02 0.  1.
       -2   -1    0    0    0  501  0.00000000000E+00  0.00000000000E+00 -0.26400191160E+03  0.26400191161E+03  0.25500000920E-02 0. -1.
    10030    2    1    2    0    0  0.00000000000E+00  0.00000000000E+00  0.10983206596E+04  0.16263244828E+04  0.11994261345E+04 0.  0.
        5    1    3    3  502    0 -0.26170928898E+03  0.84452947414E+01 -0.18237088357E+03  0.31913054400E+03  0.46999998093E+01 0. -1.
       -5    1    3    3    0  502  0.26170928898E+03 -0.84452947414E+01  0.12806915432E+04  0.13071939388E+04  0.46999998093E+01 0.  1.
</event>
<event>
 5   0  0.9941209E-05  0.1199944E+04  0.7818609E-02  0.9112905E-01
       -2   -1    0    0    0  501  0.00000000000E+00  0.00000000000E+00  0.56410855175E+03  0.56410855175E+03  0.25500000920E-02 0.  1.
        2   -1    0    0  501    0  0.00000000000E+00  0.00000000000E+00 -0.63811575025E+03  0.63811575026E+03  0.25500000920E-02 0. -1.
    10030    2    1    2    0    0  0.00000000000E+00  0.00000000000E+00 -0.74007198506E+02  0.12022243020E+04  0.11999442516E+04 0.  0.
        2    1    3    3  502    0 -0.13554425005E+03  0.29656933510E+03 -0.54158833436E+03  0.63217366140E+03  0.25500000920E-02 0. -1.
       -2    1    3    3    0  502  0.13554425005E+03 -0.29656933510E+03  0.46758113586E+03  0.57005064061E+03  0.25500000920E-02 0.  1.
</event>
<event>
 5   0  0.5625746E-05  0.1204217E+04  0.7818609E-02  0.9109173E-01
       -1   -1    0    0    0  501  0.00000000000E+00  0.00000000000E+00  0.53932626904E+03  0.53932626906E+03  0.50400001928E-02 0.  1.
        1   -1    0    0  501    0  0.00000000000E+00  0.00000000000E+00 -0.67219926317E+03  0.67219926319E+03  0.50400001928E-02 0. -1.
    10030    2    1    2    0    0  0.00000000000E+00  0.00000000000E+00 -0.13287299413E+03  0.12115255322E+04  0.12042171244E+04 0.  0.
        5    1    3    3  502    0  0.98387966166E+02  0.23428735086E+03 -0.61558973211E+03  0.66599066280E+03  0.46999998093E+01 0. -1.
       -5    1    3    3    0  502 -0.98387966166E+02 -0.23428735086E+03  0.48271673798E+03  0.54553486945E+03  0.46999998093E+01 0.  1.
</event>
<event>
 5   0  0.1023063E-04  0.1199465E+04  0.7818609E-02  0.9113325E-01
        2   -1    0    0  501    0  0.00000000000E+00  0.00000000000E+00  0.16331564553E+04  0.16331564553E+04  0.25500000920E-02 0.  1.
       -2   -1    0    0    0  501  0.00000000000E+00  0.00000000000E+00 -0.22023564207E+03  0.22023564208E+03  0.25500000920E-02 0. -1.
    10030    2    1    2    0    0  0.00000000000E+00  0.00000000000E+00  0.14129208132E+04  0.18533920973E+04  0.11994653151E+04 0.  0.
        3    1    3    3  502    0  0.16237510685E+03  0.55989285500E+03  0.92407099086E+03  0.10925899921E+04  0.10100000352E+00 0. -1.
       -3    1    3    3    0  502 -0.16237510685E+03 -0.55989285500E+03  0.48884982233E+03  0.76080210528E+03  0.10100000352E+00 0.  1.
</event>
<event>
 5   0  0.5745487E-05  0.1200162E+04  0.7818609E-02  0.9112715E-01
       -1   -1    0    0    0  501  0.00000000000E+00  0.00000000000E+00  0.33289136892E+03  0.33289136895E+03  0.50400001928E-02 0. -1.
        1   -1    0    0  501    0  0.00000000000E+00  0.00000000000E+00 -0.10817251123E+04  0.10817251123E+04  0.50400001928E-02 0.  1.
    10030    2    1    2    0    0  0.00000000000E+00  0.00000000000E+00 -0.74883374339E+03  0.14146164813E+04  0.12001615782E+04 0.  0.
        3    1    3    3  502    0 -0.53578808290E+03  0.23502275176E+03 -0.21719389562E+03  0.62408153483E+03  0.10100000352E+00 0. -1.
       -3    1    3    3    0  502  0.53578808290E+03 -0.23502275176E+03 -0.53163984777E+03  0.79053494645E+03  0.10100000352E+00 0.  1.
</event>
<event>
 5   0  0.9838215E-05  0.1197766E+04  0.7818609E-02  0.9114814E-01
       -2   -1    0    0    0  501  0.00000000000E+00  0.00000000000E+00  0.49970116213E+03  0.49970116214E+03  0.25500000920E-02 0.  1.
        2   -1    0    0  501    0  0.00000000000E+00  0.00000000000E+00 -0.71775119031E+03  0.71775119032E+03  0.25500000920E-02 0. -1.
    10030    2    1    2    0    0  0.00000000000E+00  0.00000000000E+00 -0.21805002818E+03  0.12174523525E+04  0.11977664279E+04 0.  0.
        4    1    3    3  502    0  0.21880321800E+03 -0.18343625763E+03  0.42606412820E+03  0.51288981571E+03  0.12699999809E+01 0.  1.
       -4    1    3    3    0  502 -0.21880321800E+03  0.18343625763E+03 -0.64411415638E+03  0.70456253674E+03  0.12699999809E+01 0. -1.
</event>
<event>
 5   0  0.5447807E-05  0.1200151E+04  0.7818609E-02  0.9112724E-01
       -1   -1    0    0    0  501  0.00000000000E+00  0.00000000000E+00  0.70797782493E+03  0.70797782495E+03  0.50400001928E-02 0. -1.
        1   -1    0    0  501    0  0.00000000000E+00  0.00000000000E+00 -0.50861842886E+03  0.50861842889E+03  0.50400001928E-02 0.  1.
    10030    2    1    2    0    0  0.00000000000E+00  0.00000000000E+00  0.19935939607E+03  0.12165962538E+04  0.12001509389E+04 0.  0.
        2    1    3    3  502    0  0.18039654177E+03  0.23840745706E+03 -0.42774733670E+03  0.52187049344E+03  0.25500000920E-02 0.  1.
       -2    1    3    3    0  502 -0.18039654177E+03 -0.23840745706E+03  0.62710673277E+03  0.69472576040E+03  0.25500000920E-02 0. -1.
</event>
<event>
 5   0  0.5620246E-05  0.1200016E+04  0.7818609E-02  0.9112842E-01
        1   -1    0    0  501    0  0.00000000000E+00  0.00000000000E+00  0.61232317825E+03  0.61232317827E+03  0.50400001928E-02 0. -1.
       -1   -1    0    0    0  501  0.00000000000E+00  0.00000000000E+00 -0.58794073148E+03  0.58794073150E+03  0.50400001928E-02 0.  1.
    10030    2    1    2    0    0  0.00000000000E+00  0.00000000000E+00  0.24382446774E+02  0.12002639098E+04  0.12000162288E+04 0.  0.
        1    1    3    3  502    0  0.28367196068E+03 -0.18173950404E+03 -0.48440970076E+03  0.59004388550E+03  0.50400001928E-02 0.  1.
       -1    1    3    3    0  502 -0.28367196068E+03  0.18173950404E+03  0.50879214753E+03  0.61022002427E+03  0.50400001928E-02 0. -1.
</event>
<event>
 5   0  0.1004006E-04  0.1199817E+04  0.7818609E-02  0.9113016E-01
        2   -1    0    0  501    0  0.00000000000E+00  0.00000000000E+00  0.49379276016E+03  0.49379276016E+03  0.25500000920E-02 0. -1.
       -2   -1    0    0    0  501  0.00000000000E+00  0.00000000000E+00 -0.72882893184E+03  0.72882893184E+03  0.25500000920E-02 0.  1.
    10030    2    1    2    0    0  0.00000000000E+00  0.00000000000E+00 -0.23503617168E+03  0.12226216920E+04  0.11998174027E+04 0.  0.
        5    1    3    3  502    0  0.16127786891E+02 -0.36900454342E+03  0.36416477415E+03  0.51871237820E+03  0.46999998093E+01 0. -1.
       -5    1    3    3    0  502 -0.16127786891E+02  0.36900454342E+03 -0.59920094583E+03  0.70390931380E+03  0.46999998093E+01 0.  1.
</event>
<event>
 5   0  0.5625746E-05  0.1199684E+04  0.7818609E-02  0.9113133E-01
        1   -1    0    0  501    0  0.00000000000E+00  0.00000000000E+00  0.77734755604E+03  0.77734755606E+03  0.50400001928E-02 0.  1.
       -1   -1    0    0    0  501  0.00000000000E+00  0.00000000000E+00 -0.46286963621E+03  0.46286963624E+03  0.50400001928E-02 0. -1.
    10030    2    1    2    0    0  0.00000000000E+00  0.00000000000E+00  0.31447791983E+03  0.12402171923E+04  0.11996842593E+04 0.  0.
        5    1    3    3  502    0 -0.18480039589E+03 -0.27617579584E+03 -0.35899654244E+03  0.48920840550E+03  0.46999998093E+01 0. -1.
       -5    1    3    3    0  502  0.18480039589E+03  0.27617579584E+03  0.67347446227E+03  0.75100878680E+03  0.46999998093E+01 0.  1.
</event>
<event>
 5   0  0.1023063E-04  0.1197900E+04  0.7818609E-02  0.9114696E-01
        2   -1    0    0  501    0  0.00000000000E+00  0.00000000000E+00  0.50049564254E+03  0.50049564255E+03  0.25500000920E-02 0. -1.
       -2   -1    0    0    0  501  0.00000000000E+00  0.00000000000E+00 -0.71677215807E+03  0.71677215807E+03  0.25500000920E-02 0.  1.
    10030    2    1    2    0    0  0.00000000000E+00  0.00000000000E+00 -0.21627651553E+03  0.12172678006E+04  0.11979003996E+04 0.  0.
        3    1    3    3  502    0  0.35407210227E+03  0.37575370976E+03  0.20038780039E+03  0.55381692349E+03  0.10100000352E+00 0. -1.
       -3    1    3    3    0  502 -0.35407210227E+03 -0.37575370976E+03 -0.41666431592E+03  0.66345087713E+03  0.10100000352E+00 0.  1.
</event>
<event>
 5   0  0.1012657E-04  0.1199846E+04  0.7818609E-02  0.9112991E-01
        2   -1    0    0  501    0  0.00000000000E+00  0.00000000000E+00  0.43430088112E+03  0.43430088112E+03  0.25500000920E-02 0.  1.
       -2   -1    0    0    0  501  0.00000000000E+00  0.00000000000E+00 -0.82870582740E+03  0.82870582740E+03  0.25500000920E-02 0. -1.
    10030    2    1    2    0    0  0.00000000000E+00  0.00000000000E+00 -0.39440494628E+03  0.12630067085E+04  0.11998461085E+04 0.  0.
        1    1    3    3  502    0 -0.59543265804E+03 -0.34363854357E+02 -0.26531365720E+03  0.65277274872E+03  0.50400001928E-02 0. -1.
       -1    1    3    3    0  502  0.59543265804E+03  0.34363854357E+02 -0.12909128908E+03  0.61023395980E+03  0.50400001928E-02 0.  1.
</event>
<event>
 5   0  0.5447807E-05  0.1199444E+04  0.7818609E-02  0.9113343E-01
       -1   -1    0    0    0  501  0.00000000000E+00  0.00000000000E+00  0.74924974673E+03  0.74924974674E+03  0.50400001928E-02 0. -1.
        1   -1    0    0  501    0  0.00000000000E+00  0.00000000000E+00 -0.48003574449E+03  0.48003574452E+03  0.50400001928E-02 0.  1.
    10030    2    1    2    0    0  0.00000000000E+00  0.00000000000E+00  0.26921400223E+03  0.12292854913E+04  0.11994443047E+04 0.  0.
        2    1    3    3  502    0  0.31480696021E+03  0.86786651330E+02  0.65014396014E+03  0.72754554081E+03  0.25500000920E-02 0. -1.
       -2    1    3    3    0  502 -0.31480696021E+03 -0.86786651330E+02 -0.38092995790E+03  0.50173995045E+03  0.25500000920E-02 0.  1.
</event>
<event>
 5   0  0.5447807E-05  0.1199746E+04  0.7818609E-02  0.9113079E-01
        1   -1    0    0  501    0  0.00000000000E+00  0.00000000000E+00  0.88299314130E+03  0.88299314131E+03  0.50400001928E-02 0.  1.
       -1   -1    0    0    0  501  0.00000000000E+00  0.00000000000E+00 -0.40753161119E+03  0.40753161122E+03  0.50400001928E-02 0. -1.
    10030    2    1    2    0    0  0.00000000000E+00  0.00000000000E+00  0.47546153011E+03  0.12905247525E+04  0.11997460024E+04 0.  0.
        2    1    3    3  502    0 -0.15405221024E+03  0.50563724423E+03 -0.67361104952E+02  0.53285891631E+03  0.25500000920E-02 0. -1.
       -2    1    3    3    0  502  0.15405221024E+03 -0.50563724423E+03  0.54282263506E+03  0.75766583622E+03  0.25500000920E-02 0.  1.
</event>
<event>
 5   0  0.1023063E-04  0.1199273E+04  0.7818609E-02  0.9113493E-01
       -2   -1    0    0    0  501  0.00000000000E+00  0.00000000000E+00  0.66454021100E+03  0.66454021101E+03  0.25500000920E-02 0.  1.
        2   -1    0    0  501    0  0.00000000000E+00  0.00000000000E+00 -0.54107214361E+03  0.54107214362E+03  0.25500000920E-02 0. -1.
    10030    2    1    2    0    0  0.00000000000E+00  0.00000000000E+00  0.12346806739E+03  0.12056123546E+04  0.11992734409E+04 0.  0.
        3    1    3    3  502    0 -0.49851856891E+03 -0.22120835731E+03  0.31227066655E+03  0.62846390531E+03  0.10100000352E+00 0.  1.
       -3    1    3    3    0  502  0.49851856891E+03  0.22120835731E+03 -0.18880259916E+03  0.57714844931E+03  0.10100000352E+00 0. -1.
</event>
<event>
 5   0  0.1023063E-04  0.1199992E+04  0.7818609E-02  0.9112864E-01
       -2   -1    0    0    0  501  0.00000000000E+00  0.00000000000E+00  0.24434670928E+03  0.24434670930E+03  0.25500000920E-02 0.  1.
        2   -1    0    0  501    0  0.00000000000E+00  0.00000000000E+00 -0.14732960137E+04  0.14732960137E+04  0.25500000920E-02 0. -1.
    10030    2    1    2    0    0  0.00000000000E+00  0.00000000000E+00 -0.12289493044E+04  0.17176427230E+04  0.11999917212E+04 0.  0.
        3    1    3    3  502    0 -0.30280911798E+02 -0.50848831104E+03 -0.10682865862E+04  0.11835174424E+04  0.10100000352E+00 0. -1.
       -3    1    3    3    0  502  0.30280911798E+02  0.50848831104E+03 -0.16066271818E+03  0.53412528053E+03  0.10100000352E+00 0.  1.
</event>
<event>
 5   0  0.5732931E-05  0.1200105E+04  0.7818609E-02  0.9112765E-01
       -1   -1    0    0    0  501  0.00000000000E+00  0.00000000000E+00  0.12030827907E+04  0.12030827907E+04  0.50400001928E-02 0. -1.
        1   -1    0    0  501    0  0.00000000000E+00  0.00000000000E+00 -0.29928369248E+03  0.29928369252E+03  0.50400001928E-02 0.  1.
    10030    2    1    2    0    0  0.00000000000E+00  0.00000000000E+00  0.90379909822E+03  0.15023664832E+04  0.12001050954E+04 0.  0.
        4    1    3    3  502    0  0.57912818367E+03 -0.67182438104E+02  0.27415926757E+03  0.64425759600E+03  0.12699999809E+01 0.  1.
       -4    1    3    3    0  502 -0.57912818367E+03  0.67182438104E+02  0.62963983065E+03  0.85810888723E+03  0.12699999809E+01 0. -1.
</event>
<event>
 5   0  0.5732931E-05  0.1200661E+04  0.7818609E-02  0.9112278E-01
       -1   -1    0    0    0  501  0.00000000000E+00  0.00000000000E+00  0.33396682411E+03  0.33396682415E+03  0.50400001928E-02 0.  1.
        1   -1    0    0  501    0  0.00000000000E+00  0.00000000000E+00 -0.10791389448E+04  0.10791389448E+04  0.50400001928E-02 0. -1.
    10030    2    1    2    0    0  0.00000000000E+00  0.00000000000E+00 -0.74517212068E+03  0.14131057689E+04  0.12006608284E+04 0.  0.
        4    1    3    3  502    0  0.31388516215E+03 -0.28369226347E+03 -0.87384341277E+03  0.97088058911E+03  0.12699999809E+01 0. -1.
       -4    1    3    3    0  502 -0.31388516215E+03  0.28369226347E+03  0.12867129209E+03  0.44222517983E+03  0.12699999809E+01 0.  1.
</event>
<event>
 5   0  0.5620246E-05  0.1199540E+04  0.7818609E-02  0.9113260E-01
       -1   -1    0    0    0  501  0.00000000000E+00  0.00000000000E+00  0.20302197522E+03  0.20302197528E+03  0.50400001928E-02 0. -1.
        1   -1    0    0  501    0  0.00000000000E+00  0.00000000000E+00 -0.17718464088E+04  0.17718464088E+04  0.50400001928E-02 0.  1.
    10030    2    1    2    0    0  0.00000000000E+00  0.00000000000E+00 -0.15688244336E+04  0.19748683841E+04  0.11995395079E+04 0.  0.
        1    1    3    3  502    0  0.41834187575E+03  0.16895602889E+03 -0.13380451787E+03  0.47059506344E+03  0.50400001928E-02 0. -1.
       -1    1    3    3    0  502 -0.41834187575E+03 -0.16895602889E+03 -0.14350199157E+04  0.15042733206E+04  0.50400001928E-02 0.  1.
</event>
<event>
 5   0  0.5620246E-05  0.1200754E+04  0.7818609E-02  0.9112197E-01
        1   -1    0    0  501    0  0.00000000000E+00  0.00000000000E+00  0.11089113251E+04  0.11089113251E+04  0.50400001928E-02 0. -1.
       -1   -1    0    0    0  501  0.00000000000E+00  0.00000000000E+00 -0.32505057787E+03  0.32505057791E+03  0.50400001928E-02 0.  1.
    10030    2    1    2    0    0  0.00000000000E+00  0.00000000000E+00  0.78386074719E+03  0.14339619030E+04  0.12007535418E+04 0.  0.
        1    1    3    3  502    0 -0.82293787049E+02 -0.34129801837E+03  0.97354739543E+03  0.10349160043E+04  0.50400001928E-02 0. -1.
       -1    1    3    3    0  502  0.82293787049E+02  0.34129801837E+03 -0.18968664824E+03  0.39904589871E+03  0.50400001928E-02 0.  1.
</event>
<event>
 5   0  0.5447807E-05  0.1201561E+04  0.7818609E-02  0.9111491E-01
       -1   -1    0    0    0  501  0.00000000000E+00  0.00000000000E+00  0.14294077900E+04  0.14294077900E+04  0.50400001928E-02 0.  1.
        1   -1    0    0  501    0  0.00000000000E+00  0.00000000000E+00 -0.25250823864E+03  0.25250823869E+03  0.50400001928E-02 0. -1.
    10030    2    1    2    0    0  0.00000000000E+00  0.00000000000E+00  0.11768995514E+04  0.16819160287E+04  0.12015610570E+04 0.  0.
        2    1    3    3  502    0  0.59498784907E+02 -0.17389034996E+03  0.13890912619E+04  0.14011968074E+04  0.25500000920E-02 0.  1.
       -2    1    3    3    0  502 -0.59498784907E+02  0.17389034996E+03 -0.21219171049E+03  0.28071922133E+03  0.25500000920E-02 0. -1.
</event>
<event>
 5   0  0.5625746E-05  0.1204021E+04  0.7818609E-02  0.9109344E-01
        1   -1    0    0  501    0  0.00000000000E+00  0.00000000000E+00  0.88098409916E+03  0.88098409918E+03  0.50400001928E-02 0.  1.
       -1   -1    0    0    0  501  0.00000000000E+00  0.00000000000E+00 -0.41137731541E+03  0.41137731544E+03  0.50400001928E-02 0. -1.
    10030    2    1    2    0    0  0.00000000000E+00  0.00000000000E+00  0.46960678375E+03  0.12923614146E+04  0.12040213846E+04 0.  0.
        5    1    3    3  502    0  0.19727060217E+03 -0.48077393921E+03 -0.91359211324E+02  0.52766264468E+03  0.46999998093E+01 0. -1.
       -5    1    3    3    0  502 -0.19727060217E+03  0.48077393921E+03  0.56096599508E+03  0.76469876993E+03  0.46999998093E+01 0.  1.
</event>
<event>
 5   0  0.5447807E-05  0.1200245E+04  0.7818609E-02  0.9112642E-01
        1   -1    0    0  501    0  0.00000000000E+00  0.00000000000E+00  0.41815841913E+03  0.41815841916E+03  0.50400001928E-02 0.  1.
       -1   -1    0    0    0  501  0.00000000000E+00  0.00000000000E+00 -0.86126896071E+03  0.86126896072E+03  0.50400001928E-02 0. -1.
    10030    2    1    2    0    0  0.00000000000E+00  0.00000000000E+00 -0.44311054158E+03  0.12794273799E+04  0.12002447535E+04 0.  0.
        2    1    3    3  502    0  0.13794102024E+03 -0.43263232386E+03  0.19669230673E+03  0.49485989557E+03  0.25500000920E-02 0.  1.
       -2    1    3    3    0  502 -0.13794102024E+03  0.43263232386E+03 -0.63980284831E+03  0.78456748430E+03  0.25500000920E-02 0. -1.
</event>
<event>
 5   0  0.1012657E-04  0.1199228E+04  0.7818609E-02  0.9113533E-01
        2   -1    0    0  501    0  0.00000000000E+00  0.00000000000E+00  0.30753939137E+03  0.30753939138E+03  0.25500000920E-02 0.  1.
       -2   -1    0    0    0  501  0.00000000000E+00  0.00000000000E+00 -0.11690759443E+04  0.11690759443E+04  0.25500000920E-02 0. -1.
    10030    2    1    2    0    0  0.00000000000E+00  0.00000000000E+00 -0.86153655296E+03  0.14766153357E+04  0.11992279256E+04 0.  0.
        1    1    3    3  502    0 -0.25270273076E+03 -0.47832563826E+03 -0.11233171692E+03  0.55251470659E+03  0.50400001928E-02 0.  1.
       -1    1    3    3    0  502  0.25270273076E+03  0.47832563826E+03 -0.74920483604E+03  0.92410062911E+03  0.50400001928E-02 0. -1.
</event>
<event>
 5   0  0.1012657E-04  0.1200448E+04  0.7818609E-02  0.9112465E-01
       -2   -1    0    0    0  501  0.00000000000E+00  0.00000000000E+00  0.88309661273E+03  0.88309661273E+03  0.25500000920E-02 0.  1.
        2   -1    0    0  501    0  0.00000000000E+00  0.00000000000E+00 -0.40796084884E+03  0.40796084885E+03  0.25500000920E-02 0. -1.
    10030    2    1    2    0    0  0.00000000000E+00  0.00000000000E+00  0.47513576388E+03  0.12910574616E+04  0.12004479893E+04 0.  0.
        1    1    3    3  502    0 -0.18069525390E+03  0.56288461336E+03  0.12590956525E+03  0.60443616816E+03  0.50400001928E-02 0.  1.
       -1    1    3    3    0  502  0.18069525390E+03 -0.56288461336E+03  0.34922619863E+03  0.68662129342E+03  0.50400001928E-02 0. -1.
</event>
<event>
 5   0  0.9941209E-05  0.1199832E+04  0.7818609E-02  0.9113004E-01
        2   -1    0    0  501    0  0.00000000000E+00  0.00000000000E+00  0.64828836525E+03  0.64828836526E+03  0.25500000920E-02 0.  1.
       -2   -1    0    0    0  501  0.00000000000E+00  0.00000000000E+00 -0.55515260924E+03  0.55515260924E+03  0.25500000920E-02 0. -1.
    10030    2    1    2    0    0  0.00000000000E+00  0.00000000000E+00  0.93135756015E+02  0.12034409745E+04  0.11998316174E+04 0.  0.
        2    1    3    3  502    0 -0.30011260454E+03 -0.46512900805E+03 -0.18539912337E+03  0.58376827979E+03  0.25500000920E-02 0. -1.
       -2    1    3    3    0  502  0.30011260454E+03  0.46512900805E+03  0.27853487938E+03  0.61967269471E+03  0.25500000920E-02 0.  1.
</event>
<event>
 5   0  0.5732931E-05  0.1201200E+04  0.7818609E-02  0.9111807E-01
        1   -1    0    0  501    0  0.00000000000E+00  0.00000000000E+00  0.64948698007E+03  0.64948698009E+03  0.50400001928E-02 0.  1.
       -1   -1    0    0    0  501  0.00000000000E+00  0.00000000000E+00 -0.55539237662E+03  0.55539237664E+03  0.50400001928E-02 0. -1.
    10030    2    1    2    0    0  0.00000000000E+00  0.00000000000E+00  0.94094603455E+02  0.12048793567E+04  0.12011995962E+04 0.  0.
        4    1    3    3  502    0  0.68524367012E+02 -0.58681118569E+03  0.15543176309E+03  0.61090392240E+03  0.12699999809E+01 0.  1.
       -4    1    3    3    0  502 -0.68524367012E+02  0.58681118569E+03 -0.61337159640E+02  0.59397543433E+03  0.12699999809E+01 0. -1.
</event>
<event>
 5   0  0.5732931E-05  0.1199780E+04  0.7818609E-02  0.9113049E-01
        1   -1    0    0  501    0  0.00000000000E+00  0.00000000000E+00  0.96633795152E+03  0.96633795153E+03  0.50400001928E-02 0.  1.
       -1   -1    0    0    0  501  0.00000000000E+00  0.00000000000E+00 -0.37240407882E+03  0.37240407885E+03  0.50400001928E-02 0. -1.
    10030    2    1    2    0    0  0.00000000000E+00  0.00000000000E+00  0.59393387270E+03  0.13387420304E+04  0.11997803044E+04 0.  0.
        4    1    3    3  502    0  0.52613438374E+03  0.67155337758E+02 -0.15740946251E+02  0.53063793629E+03  0.12699999809E+01 0. -1.
       -4    1    3    3    0  502 -0.52613438374E+03 -0.67155337758E+02  0.60967481895E+03  0.80810409410E+03  0.12699999809E+01 0.  1.
</event>
<event>
 5   0  0.5620246E-05  0.1200134E+04  0.7818609E-02  0.9112739E-01
       -1   -1    0    0    0  501  0.00000000000E+00  0.00000000000E+00  0.42395447306E+03  0.42395447309E+03  0.50400001928E-02 0. -1.
        1   -1    0    0  501    0  0.00000000000E+00  0.00000000000E+00 -0.84933750911E+03  0.84933750913E+03  0.50400001928E-02 0.  1.
    10030    2    1    2    0    0  0.00000000000E+00  0.00000000000E+00 -0.42538303605E+03  0.12732919822E+04  0.12001340528E+04 0.  0.
        1    1    3    3  502    0 -0.81972458697E+02  0.37935350826E+03 -0.69824868030E+03  0.79886155733E+03  0.50400001928E-02 0.  1.
       -1    1    3    3    0  502  0.81972458697E+02 -0.37935350826E+03  0.27286564425E+03  0.47443042488E+03  0.50400001928E-02 0. -1.
</event>
<event>
 5   0  0.5447807E-05  0.1199981E+04  0.7818609E-02  0.9112874E-01
        1   -1    0    0  501    0  0.00000000000E+00  0.00000000000E+00  0.10612589382E+04  0.10612589382E+04  0.50400001928E-02 0.  1.
       -1   -1    0    0    0  501  0.00000000000E+00  0.00000000000E+00 -0.33920875063E+03  0.33920875066E+03  0.50400001928E-02 0. -1.
    10030    2    1    2    0    0  0.00000000000E+00  0.00000000000E+00  0.72205018760E+03  0.14004676889E+04  0.11999805308E+04 0.  0.
        2    1    3    3  502    0 -0.11014422119E+03 -0.58403523837E+03  0.45697692568E+03  0.74970448827E+03  0.25500000920E-02 0.  1.
       -2    1    3    3    0  502  0.11014422119E+03  0.58403523837E+03  0.26507326192E+03  0.65076320064E+03  0.25500000920E-02 0. -1.
</event>
<event>
 5   0  0.5447807E-05  0.1199753E+04  0.7818609E-02  0.9113073E-01
        1   -1    0    0  501    0  0.00000000000E+00  0.00000000000E+00  0.93946685022E+03  0.93946685024E+03  0.50400001928E-02 0. -1.
       -1   -1    0    0    0  501  0.00000000000E+00  0.00000000000E+00 -0.38303848477E+03  0.38303848481E+03  0.50400001928E-02 0.  1.
    10030    2    1    2    0    0  0.00000000000E+00  0.00000000000E+00  0.55642836545E+03  0.13225053350E+04  0.11997532394E+04 0.  0.
        2    1    3    3  502    0  0.37048175233E+03  0.12368661606E+03  0.78009645307E+03  0.87241365413E+03  0.25500000920E-02 0. -1.
       -2    1    3    3    0  502 -0.37048175233E+03 -0.12368661606E+03 -0.22366808763E+03  0.45009168092E+03  0.25500000920E-02 0.  1.
</event>
<event>
 5   0  0.1023063E-04  0.1201197E+04  0.7818609E-02  0.9111810E-01
       -2   -1    0    0    0  501  0.00000000000E+00  0.00000000000E+00  0.23587620875E+03  0.23587620876E+03  0.25500000920E-02 0.  1.
        2   -1    0    0  501    0  0.00000000000E+00  0.00000000000E+00 -0.15292698367E+04  0.15292698367E+04  0.25500000920E-02 0. -1.
    10030    2    1    2    0    0  0.00000000000E+00  0.00000000000E+00 -0.12933936279E+04  0.17651460454E+04  0.12011966887E+04 0.  0.
        3    1    3    3  502    0 -0.20177657616E+03  0.27736552257E+03 -0.13711908684E+04  0.14134390074E+04  0.10100000352E+00 0. -1.
       -3    1    3    3    0  502  0.20177657616E+03 -0.27736552257E+03  0.77797240468E+02  0.35170703806E+03  0.10100000352E+00 0.  1.
</event>
<event>
 5   0  0.1012657E-04  0.1205746E+04  0.7818609E-02  0.9107842E-01
        2   -1    0    0  501    0  0.00000000000E+00  0.00000000000E+00  0.12095099624E+04  0.12095099624E+04  0.25500000920E-02 0.  1.
       -2   -1    0    0    0  501  0.00000000000E+00  0.00000000000E+00 -0.30049856139E+03  0.30049856140E+03  0.25500000920E-02 0. -1.
    10030    2    1    2    0    0  0.00000000000E+00  0.00000000000E+00  0.90901140099E+03  0.15100085238E+04  0.12057462481E+04 0.  0.
        1    1    3    3  502    0 -0.21047150171E+03  0.31893789161E+03  0.10384744086E+04  0.11065481142E+04  0.50400001928E-02 0.  1.
       -1    1    3    3    0  502  0.21047150171E+03 -0.31893789161E+03 -0.12946300760E+03  0.40346040958E+03  0.50400001928E-02 0. -1.
</event>
<event>
 5   0  0.1023063E-04  0.1200893E+04  0.7818609E-02  0.9112075E-01
        2   -1    0    0  501    0  0.00000000000E+00  0.00000000000E+00  0.66389353130E+03  0.66389353130E+03  0.25500000920E-02 0. -1.
       -2   -1    0    0    0  501  0.00000000000E+00  0.00000000000E+00 -0.54306305024E+03  0.54306305025E+03  0.25500000920E-02 0.  1.
    10030    2    1    2    0    0  0.00000000000E+00  0.00000000000E+00  0.12083048106E+03  0.12069565815E+04  0.12008930779E+04 0.  0.
        3    1    3    3  502    0 -0.21942906747E+03 -0.41852887414E+03 -0.31188799231E+03  0.56620637941E+03  0.10100000352E+00 0.  1.
       -3    1    3    3    0  502  0.21942906747E+03  0.41852887414E+03  0.43271847337E+03  0.64075020213E+03  0.10100000352E+00 0. -1.
</event>
<event>
 5   0  0.5732931E-05  0.1199992E+04  0.7818609E-02  0.9112863E-01
        1   -1    0    0  501    0  0.00000000000E+00  0.00000000000E+00  0.12401141614E+04  0.12401141614E+04  0.50400001928E-02 0.  1.
       -1   -1    0    0    0  501  0.00000000000E+00  0.00000000000E+00 -0.29029219203E+03  0.29029219208E+03  0.50400001928E-02 0. -1.
    10030    2    1    2    0    0  0.00000000000E+00  0.00000000000E+00  0.94982196938E+03  0.15304063535E+04  0.11999924305E+04 0.  0.
        4    1    3    3  502    0 -0.56914852678E+03 -0.32538594985E+02  0.71352367694E+03  0.91329428782E+03  0.12699999809E+01 0.  1.
       -4    1    3    3    0  502  0.56914852678E+03  0.32538594985E+02  0.23629829243E+03  0.61711206568E+03  0.12699999809E+01 0. -1.
</event>
<event>
 5   0  0.9941209E-05  0.1199251E+04  0.7818609E-02  0.9113512E-01
        2   -1    0    0  501    0  0.00000000000E+00  0.00000000000E+00  0.55991503359E+03  0.55991503360E+03  0.25500000920E-02 0.  1.
       -2   -1    0    0    0  501  0.00000000000E+00  0.00000000000E+00 -0.64215259641E+03  0.64215259641E+03  0.25500000920E-02 0. -1.
    10030    2    1    2    0    0  0.00000000000E+00  0.00000000000E+00 -0.82237562817E+02  0.12020676300E+04  0.11992512541E+04 0.  0.
        2    1    3    3  502    0 -0.23660296674E+03 -0.44728561252E+03 -0.36359705115E+03  0.62309565770E+03  0.25500000920E-02 0. -1.
       -2    1    3    3    0  502  0.23660296674E+03  0.44728561252E+03  0.28135948834E+03  0.57897197231E+03  0.25500000920E-02 0.  1.
</event>
<event>
 5   0  0.9941209E-05  0.1199710E+04  0.7818609E-02  0.9113110E-01
       -2   -1    0    0    0  501  0.00000000000E+00  0.00000000000E+00  0.70772527743E+03  0.70772527744E+03  0.25500000920E-02 0.  1.
        2   -1    0    0  501    0  0.00000000000E+00  0.00000000000E+00 -0.50842634294E+03  0.50842634294E+03  0.25500000920E-02 0. -1.
    10030    2    1    2    0    0  0.00000000000E+00  0.00000000000E+00  0.19929893450E+03  0.12161516204E+04  0.11997102560E+04 0.  0.
        2    1    3    3  502    0 -0.57722950076E+03 -0.47656590915E+02  0.25786898003E+03  0.63400430446E+03  0.25500000920E-02 0.  1.
       -2    1    3    3    0  502  0.57722950076E+03  0.47656590915E+02 -0.58570045535E+02  0.58214731593E+03  0.25500000920E-02 0. -1.
</event>
<event>
 5   0  0.5732931E-05  0.1200391E+04  0.7818609E-02  0.9112514E-01
       -1   -1    0    0    0  501  0.00000000000E+00  0.00000000000E+00  0.10522903117E+04  0.10522903117E+04  0.50400001928E-02 0. -1.
        1   -1    0    0  501    0  0.00000000000E+00  0.00000000000E+00 -0.34233395863E+03  0.34233395867E+03  0.50400001928E-02 0.  1.
    10030    2    1    2    0    0  0.00000000000E+00  0.00000000000E+00  0.70995635303E+03  0.13946242703E+04  0.12003911163E+04 0.  0.
        4    1    3    3  502    0 -0.44430180355E+03  0.39107797570E+03  0.47050082578E+03  0.75612083404E+03  0.12699999809E+01 0. -1.
       -4    1    3    3    0  502  0.44430180355E+03 -0.39107797570E+03  0.23945552725E+03  0.63850343629E+03  0.12699999809E+01 0.  1.
</event>
<event>
 5   0  0.5447807E-05  0.1200231E+04  0.7818609E-02  0.9112654E-01
       -1   -1    0    0    0  501  0.00000000000E+00  0.00000000000E+00  0.47590542102E+03  0.47590542104E+03  0.50400001928E-02 0. -1.
        1   -1    0    0  501    0  0.00000000000E+00  0.00000000000E+00 -0.75674426319E+03  0.75674426321E+03  0.50400001928E-02 0.  1.
    10030    2    1    2    0    0  0.00000000000E+00  0.00000000000E+00 -0.28083884217E+03  0.12326496842E+04  0.12002311397E+04 0.  0.
        2    1    3    3  502    0 -0.34721947435E+03 -0.27580141617E+03  0.27486740062E+03  0.52170860876E+03  0.25500000920E-02 0. -1.
       -2    1    3    3    0  502  0.34721947435E+03  0.27580141617E+03 -0.55570624279E+03  0.71094107548E+03  0.25500000920E-02 0.  1.
</event>
<event>
 5   0  0.5625746E-05  0.1200309E+04  0.7818609E-02  0.9112586E-01
       -1   -1    0    0    0  501  0.00000000000E+00  0.00000000000E+00  0.36132411733E+03  0.36132411736E+03  0.50400001928E-02 0.  1.
        1   -1    0    0  501    0  0.00000000000E+00  0.00000000000E+00 -0.99684903792E+03  0.99684903793E+03  0.50400001928E-02 0. -1.
    10030    2    1    2    0    0  0.00000000000E+00  0.00000000000E+00 -0.63552492059E+03  0.13581731553E+04  0.12003092914E+04 0.  0.
        5    1    3    3  502    0 -0.35574705513E+03  0.25621392691E+03  0.14596994804E+03  0.46209399402E+03  0.46999998093E+01 0.  1.
       -5    1    3    3    0  502  0.35574705513E+03 -0.25621392691E+03 -0.78149486863E+03  0.89607916128E+03  0.46999998093E+01 0. -1.
</event>
<event>
 5   0  0.9838215E-05  0.1199953E+04  0.7818609E-02  0.9112898E-01
        2   -1    0    0  501    0  0.00000000000E+00  0.00000000000E+00  0.19396211254E+04  0.19396211254E+04  0.25500000920E-02 0. -1.
       -2   -1    0    0    0  501  0.00000000000E+00  0.00000000000E+00 -0.18558874911E+03  0.18558874913E+03  0.25500000920E-02 0.  1.
    10030    2    1    2    0    0  0.00000000000E+00  0.00000000000E+00  0.17540323763E+04  0.21252098745E+04  0.11999530965E+04 0.  0.
        4    1    3    3  502    0  0.32875550481E+03 -0.45555589147E+03  0.12500325705E+04  0.13704723246E+04  0.12699999809E+01 0.  1.
       -4    1    3    3    0  502 -0.32875550481E+03  0.45555589147E+03  0.50399980580E+03  0.75473754997E+03  0.12699999809E+01 0. -1.
</event>
<event>
 5   0  0.5625746E-05  0.1199862E+04  0.7818609E-02  0.9112978E-01
        1   -1    0    0  501    0  0.00000000000E+00  0.00000000000E+00  0.13375074711E+04  0.13375074711E+04  0.50400001928E-02 0. -1.
       -1   -1    0    0    0  501  0.00000000000E+00  0.00000000000E+00 -0.26909531559E+03  0.26909531563E+03  0.50400001928E-02 0.  1.
    10030    2    1    2    0    0  0.00000000000E+00  0.00000000000E+00  0.10684121555E+04  0.16066027868E+04  0.11998616505E+04 0.  0.
        5    1    3    3  502    0 -0.13833001112E+03 -0.40191052598E+03  0.11010713333E+04  0.11802743045E+04  0.46999998093E+01 0. -1.
       -5    1    3    3    0  502  0.13833001112E+03  0.40191052598E+03 -0.32659177790E+02  0.42632848223E+03  0.46999998093E+01 0.  1.
</event>
<event>
 5   0  0.1012657E-04  0.1200598E+04  0.7818609E-02  0.9112333E-01
        2   -1    0    0  501    0  0.00000000000E+00  0.00000000000E+00  0.19622809650E+04  0.19622809650E+04  0.25500000920E-02 0.  1.
       -2   -1    0    0    0  501  0.00000000000E+00  0.00000000000E+00 -0.18364283476E+03  0.18364283478E+03  0.25500000920E-02 0. -1.
    10030    2    1    2    0    0  0.00000000000E+00  0.00000000000E+00  0.17786381303E+04  0.21459237998E+04  0.12005979161E+04 0.  0.
        1    1    3    3  502    0 -0.30696499309E+03 -0.23402356955E+03  0.17110554744E+04  0.17540539828E+04  0.50400001928E-02 0.  1.
       -1    1    3    3    0  502  0.30696499309E+03  0.23402356955E+03  0.67582655887E+02  0.39186981702E+03  0.50400001928E-02 0. -1.
</event>
<event>
 5   0  0.5625746E-05  0.1199241E+04  0.7818609E-02  0.9113521E-01
        1   -1    0    0  501    0  0.00000000000E+00  0.00000000000E+00  0.49136008279E+03  0.49136008282E+03  0.50400001928E-02 0. -1.
       -1   -1    0    0    0  501  0.00000000000E+00  0.00000000000E+00 -0.73173383120E+03  0.73173383122E+03  0.50400001928E-02 0.  1.
    10030    2    1    2    0    0  0.00000000000E+00  0.00000000000E+00 -0.24037374841E+03  0.12230939140E+04  0.11992410865E+04 0.  0.
        5    1    3    3  502    0  0.58491549366E+03 -0.46391278536E+02  0.57371996354E+01  0.58679919130E+03  0.46999998093E+01 0. -1.
       -5    1    3    3    0  502 -0.58491549366E+03  0.46391278536E+02 -0.24611094805E+03  0.63629472275E+03  0.46999998093E+01 0.  1.
</event>
<event>
 5   0  0.5620246E-05  0.1200059E+04  0.7818609E-02  0.9112805E-01
        1   -1    0    0  501    0  0.00000000000E+00  0.00000000000E+00  0.21392619265E+04  0.21392619265E+04  0.50400001928E-02 0. -1.
       -1   -1    0    0    0  501  0.00000000000E+00  0.00000000000E+00 -0.16829896543E+03  0.16829896551E+03  0.50400001928E-02 0.  1.
    10030    2    1    2    0    0  0.00000000000E+00  0.00000000000E+00  0.19709629611E+04  0.23075608920E+04  0.12000592804E+04 0.  0.
        1    1    3    3  502    0 -0.21737907581E+03 -0.16782569729E+03  0.20113234492E+04  0.20299855035E+04  0.50400001928E-02 0. -1.
       -1    1    3    3    0  502  0.21737907581E+03  0.16782569729E+03 -0.40360488106E+02  0.27757538849E+03  0.50400001928E-02 0.  1.
</event>
<event>
 5   0  0.5745487E-05  0.1200071E+04  0.7818609E-02  0.9112794E-01
        1   -1    0    0  501    0  0.00000000000E+00  0.00000000000E+00  0.69176835152E+03  0.69176835154E+03  0.50400001928E-02 0. -1.
       -1   -1    0    0    0  501  0.00000000000E+00  0.00000000000E+00 -0.52046720442E+03  0.52046720444E+03  0.50400001928E-02 0.  1.
    10030    2    1    2    0    0  0.00000000000E+00  0.00000000000E+00  0.17130114710E+03  0.12122355560E+04  0.12000712313E+04 0.  0.
        3    1    3    3  502    0 -0.49366700210E+03  0.32571206967E+03  0.18790545567E+03  0.62056742725E+03  0.10100000352E+00 0. -1.
       -3    1    3    3    0  502  0.49366700210E+03 -0.32571206967E+03 -0.16604308562E+02  0.59166812873E+03  0.10100000352E+00 0.  1.
</event>
<event>
 5   0  0.5625746E-05  0.1200241E+04  0.7818609E-02  0.9112646E-01
        1   -1    0    0  501    0  0.00000000000E+00  0.00000000000E+00  0.16138211204E+04  0.16138211204E+04  0.50400001928E-02 0. -1.
       -1   -1    0    0    0  501  0.00000000000E+00  0.00000000000E+00 -0.22316260999E+03  0.22316261005E+03  0.50400001928E-02 0.  1.
    10030    2    1    2    0    0  0.00000000000E+00  0.00000000000E+00  0.13906585104E+04  0.18369837304E+04  0.12002408647E+04 0.  0.
        5    1    3    3  502    0 -0.50868630042E+03 -0.56591144247E+02  0.11748418806E+04  0.12814990614E+04  0.46999998093E+01 0. -1.
       -5    1    3    3    0  502  0.50868630042E+03  0.56591144247E+02  0.21581662972E+03  0.55548466901E+03  0.46999998093E+01 0.  1.
</event>
<event>
 5   0  0.9838215E-05  0.1200026E+04  0.7818609E-02  0.9112834E-01
       -2   -1    0    0    0  501  0.00000000000E+00  0.00000000000E+00  0.14490286495E+03  0.14490286497E+03  0.25500000920E-02 0. -1.
        2   -1    0    0  501    0  0.00000000000E+00  0.00000000000E+00 -0.24845294119E+04  0.24845294119E+04  0.25500000920E-02 0.  1.
    10030    2    1    2    0    0  0.00000000000E+00  0.00000000000E+00 -0.23396265470E+04  0.26294322769E+04  0.12000257162E+04 0.  0.
        4    1    3    3  502    0 -0.51177416700E+03 -0.25874923483E+03 -0.78309077977E+03  0.97061668376E+03  0.12699999809E+01 0. -1.
       -4    1    3    3    0  502  0.51177416700E+03  0.25874923483E+03 -0.15565357672E+04  0.16588155931E+04  0.12699999809E+01 0.  1.
</event>
<event>
 5   0  0.1023063E-04  0.1200232E+04  0.7818609E-02  0.9112654E-01
       -2   -1    0    0    0  501  0.00000000000E+00  0.00000000000E+00  0.71040247645E+03  0.71040247646E+03  0.25500000920E-02 0. -1.
        2   -1    0    0  501    0  0.00000000000E+00  0.00000000000E+00 -0.50695082248E+03  0.50695082249E+03  0.25500000920E-02 0.  1.
    10030    2    1    2    0    0  0.00000000000E+00  0.00000000000E+00  0.20345165397E+03  0.12173532989E+04  0.12002318438E+04 0.  0.
        3    1    3    3  502    0 -0.56547973904E+03  0.59322098988E+02 -0.92983129341E+02  0.57613567781E+03  0.10100000352E+00 0.  1.
       -3    1    3    3    0  502  0.56547973904E+03 -0.59322098988E+02  0.29643478331E+03  0.64121762114E+03  0.10100000352E+00 0. -1.
</event>
<event>
 5   0  0.9941209E-05  0.1199540E+04  0.7818609E-02  0.9113259E-01
       -2   -1    0    0    0  501  0.00000000000E+00  0.00000000000E+00  0.28902382868E+03  0.28902382869E+03  0.25500000920E-02 0. -1.
        2   -1    0    0  501    0  0.00000000000E+00  0.00000000000E+00 -0.12446179535E+04  0.12446179535E+04  0.25500000920E-02 0.  1.
    10030    2    1    2    0    0  0.00000000000E+00  0.00000000000E+00 -0.95559412478E+03  0.15336417822E+04  0.11995403222E+04 0.  0.
        2    1    3    3  502    0 -0.13887834839E+03 -0.16317452167E+03  0.23841766846E+03  0.32055593087E+03  0.25500000920E-02 0. -1.
       -2    1    3    3    0  502  0.13887834839E+03  0.16317452167E+03 -0.11940117932E+04  0.12130858513E+04  0.25500000920E-02 0.  1.
</event>
<event>
 5   0  0.1012657E-04  0.1200005E+04  0.7818609E-02  0.9112852E-01
        2   -1    0    0  501    0  0.00000000000E+00  0.00000000000E+00  0.75604116578E+03  0.75604116579E+03  0.25500000920E-02 0.  1.
       -2   -1    0    0    0  501  0.00000000000E+00  0.00000000000E+00 -0.47616840460E+03  0.47616840461E+03  0.25500000920E-02 0. -1.
    10030    2    1    2    0    0  0.00000000000E+00  0.00000000000E+00  0.27987276118E+03  0.12322095704E+04  0.12000048595E+04 0.  0.
        1    1    3    3  502    0  0.51897371220E+03  0.95986354419E+02 -0.15312773001E+03  0.54954089558E+03  0.50400001928E-02 0. -1.
       -1    1    3    3    0  502 -0.51897371220E+03 -0.95986354419E+02  0.43300049119E+03  0.68266867482E+03  0.50400001928E-02 0.  1.
</event>
<event>
 5   0  0.1004006E-04  0.1200362E+04  0.7818609E-02  0.9112539E-01
       -2   -1    0    0    0  501  0.00000000000E+00  0.00000000000E+00  0.47227415603E+03  0.47227415603E+03  0.25500000920E-02 0. -1.
        2   -1    0    0  501    0  0.00000000000E+00  0.00000000000E+00 -0.76272964595E+03  0.76272964595E+03  0.25500000920E-02 0.  1.
    10030    2    1    2    0    0  0.00000000000E+00  0.00000000000E+00 -0.29045548992E+03  0.12350038020E+04  0.12003624450E+04 0.  0.
        5    1    3    3  502    0  0.25315391845E+03 -0.40022566839E+02  0.41311834995E+03  0.48618676797E+03  0.46999998093E+01 0. -1.
       -5    1    3    3    0  502 -0.25315391845E+03  0.40022566839E+02 -0.70357383988E+03  0.74881703402E+03  0.46999998093E+01 0.  1.
</event>
<event>
 5   0  0.1023063E-04  0.1200469E+04  0.7818609E-02  0.9112446E-01
       -2   -1    0    0    0  501  0.00000000000E+00  0.00000000000E+00  0.28667870847E+03  0.28667870849E+03  0.25500000920E-02 0.  1.
        2   -1    0    0  501    0  0.00000000000E+00  0.00000000000E+00 -0.12567429583E+04  0.12567429583E+04  0.25500000920E-02 0. -1.
    10030    2    1    2    0    0  0.00000000000E+00  0.00000000000E+00 -0.97006424986E+03  0.15434216668E+04  0.12004689887E+04 0.  0.
        3    1    3    3  502    0 -0.35279020264E+03  0.14770221102E+03  0.10973255311E+03  0.39789208793E+03  0.10100000352E+00 0.  1.
       -3    1    3    3    0  502  0.35279020264E+03 -0.14770221102E+03 -0.10797968030E+04  0.11455295789E+04  0.10100000352E+00 0. -1.
</event>
<event>
 5   0  0.5620246E-05  0.1199828E+04  0.7818609E-02  0.9113007E-01
       -1   -1    0    0    0  501  0.00000000000E+00  0.00000000000E+00  0.55984674890E+03  0.55984674892E+03  0.50400001928E-02 0.  1.
        1   -1    0    0  501    0  0.00000000000E+00  0.00000000000E+00 -0.64284876356E+03  0.64284876358E+03  0.50400001928E-02 0. -1.
    10030    2    1    2    0    0  0.00000000000E+00  0.00000000000E+00 -0.83002014663E+02  0.12026955125E+04  0.11998279716E+04 0.  0.
        1    1    3    3  502    0 -0.30896575354E+03 -0.17149215352E+03  0.44445387675E+03  0.56781039456E+03  0.50400001928E-02 0.  1.
       -1    1    3    3    0  502  0.30896575354E+03  0.17149215352E+03 -0.52745589142E+03  0.63488511795E+03  0.50400001928E-02 0. -1.
</event>
<event>
 5   0  0.5745487E-05  0.1198190E+04  0.7818609E-02  0.9114442E-01
        1   -1    0    0  501    0  0.00000000000E+00  0.00000000000E+00  0.47174400533E+03  0.47174400536E+03  0.50400001928E-02 0.  1.
       -1   -1    0    0    0  501  0.00000000000E+00  0.00000000000E+00 -0.76082571337E+03  0.76082571338E+03  0.50400001928E-02 0. -1.
    10030    2    1    2    0    0  0.00000000000E+00  0.00000000000E+00 -0.28908170803E+03  0.12325697187E+04  0.11981902510E+04 0.  0.
        3    1    3    3  502    0  0.10182675253E+03 -0.12886195482E+03 -0.73721512631E+03  0.75528818578E+03  0.10100000352E+00 0. -1.
       -3    1    3    3    0  502 -0.10182675253E+03  0.12886195482E+03  0.44813341827E+03  0.47728153296E+03  0.10100000352E+00 0.  1.
</event>
<event>
 5   0  0.5625746E-05  0.1200410E+04  0.7818609E-02  0.9112498E-01
       -1   -1    0    0    0  501  0.00000000000E+00  0.00000000000E+00  0.32934090443E+03  0.32934090447E+03  0.50400001928E-02 0.  1.
        1   -1    0    0  501    0  0.00000000000E+00  0.00000000000E+00 -0.10938395134E+04  0.10938395134E+04  0.50400001928E-02 0. -1.
    10030    2    1    2    0    0  0.00000000000E+00  0.00000000000E+00 -0.76449860898E+03  0.14231804179E+04  0.12004100877E+04 0.  0.
        5    1    3    3  502    0 -0.30545692077E+02  0.59845161626E+03 -0.34210336124E+03  0.69002476483E+03  0.46999998093E+01 0.  1.
       -5    1    3    3    0  502  0.30545692077E+02 -0.59845161626E+03 -0.42239524774E+03  0.73315565306E+03  0.46999998093E+01 0. -1.
</event>
<event>
 5   0  0.5745487E-05  0.1200060E+04  0.7818609E-02  0.9112804E-01
       -1   -1    0    0    0  501  0.00000000000E+00  0.00000000000E+00  0.75944373083E+03  0.75944373084E+03  0.50400001928E-02 0. -1.
        1   -1    0    0  501    0  0.00000000000E+00  0.00000000000E+00 -0.47407875113E+03  0.47407875116E+03  0.50400001928E-02 0.  1.
    10030    2    1    2    0    0  0.00000000000E+00  0.00000000000E+00  0.28536497970E+03  0.12335224820E+04  0.12000602243E+04 0.  0.
        3    1    3    3  502    0  0.53644754912E+03  0.18902266331E+03  0.33914167659E+03  0.66221041007E+03  0.10100000352E+00 0.  1.
       -3    1    3    3    0  502 -0.53644754912E+03 -0.18902266331E+03 -0.53776696892E+02  0.57131207193E+03  0.10100000352E+00 0. -1.
</event>
<event>
 5   0  0.9941209E-05  0.1200928E+04  0.7818609E-02  0.9112045E-01
        2   -1    0    0  501    0  0.00000000000E+00  0.00000000000E+00  0.19364855235E+04  0.19364855235E+04  0.25500000920E-02 0. -1.
       -2   -1    0    0    0  501  0.00000000000E+00  0.00000000000E+00 -0.18619144165E+03  0.18619144167E+03  0.25500000920E-02 0.  1.
    10030    2    1    2    0    0  0.00000000000E+00  0.00000000000E+00  0.17502940819E+04  0.21226769652E+04  0.12009280268E+04 0.  0.
        2    1    3    3  502    0 -0.32646100325E+03 -0.23235642559E+03  0.84701659354E+02  0.40956155369E+03  0.25500000920E-02 0.  1.
       -2    1    3    3    0  502  0.32646100325E+03  0.23235642559E+03  0.16655924225E+04  0.17131154115E+04  0.25500000920E-02 0. -1.
</event>
<event>
 5   0  0.1023063E-04  0.1199828E+04  0.7818609E-02  0.9113007E-01
        2   -1    0    0  501    0  0.00000000000E+00  0.00000000000E+00  0.12656958427E+04  0.12656958427E+04  0.25500000920E-02 0. -1.
       -2   -1    0    0    0  501  0.00000000000E+00  0.00000000000E+00 -0.28434693065E+03  0.28434693066E+03  0.25500000920E-02 0.  1.
    10030    2    1    2    0    0  0.00000000000E+00  0.00000000000E+00  0.98134891202E+03  0.15500427733E+04  0.11998278677E+04 0.  0.
        3    1    3    3  502    0  0.31276163821E+03  0.46630227048E+03  0.21772495968E+03  0.60221409653E+03  0.10100000352E+00 0.  1.
       -3    1    3    3    0  502 -0.31276163821E+03 -0.46630227048E+03  0.76362395234E+03  0.94782867681E+03  0.10100000352E+00 0. -1.
</event>
<event>
 5   0  0.5745487E-05  0.1200703E+04  0.7818609E-02  0.9112241E-01
        1   -1    0    0  501    0  0.00000000000E+00  0.00000000000E+00  0.53611392540E+03  0.53611392542E+03  0.50400001928E-02 0.  1.
       -1   -1    0    0    0  501  0.00000000000E+00  0.00000000000E+00 -0.67228656883E+03  0.67228656885E+03  0.50400001928E-02 0. -1.
    10030    2    1    2    0    0  0.00000000000E+00  0.00000000000E+00 -0.13617264343E+03  0.12084004943E+04  0.12007034462E+04 0.  0.
        3    1    3    3  502    0 -0.50353573415E+03 -0.30926290358E+03  0.38566608295E+02  0.59218170570E+03  0.10100000352E+00 0.  1.
       -3    1    3    3    0  502  0.50353573415E+03  0.30926290358E+03 -0.17473925172E+03  0.61621878857E+03  0.10100000352E+00 0. -1.
</event>
<event>
 5   0  0.5447807E-05  0.1200044E+04  0.7818609E-02  0.9112818E-01
       -1   -1    0    0    0  501  0.00000000000E+00  0.00000000000E+00  0.63263714297E+03  0.63263714299E+03  0.50400001928E-02 0. -1.
        1   -1    0    0  501    0  0.00000000000E+00  0.00000000000E+00 -0.56908827700E+03  0.56908827702E+03  0.50400001928E-02 0.  1.
    10030    2    1    2    0    0  0.00000000000E+00  0.00000000000E+00  0.63548865969E+02  0.12017254200E+04  0.12000439687E+04 0.  0.
        2    1    3    3  502    0 -0.27308070095E+03 -0.19263780529E+03  0.53081392477E+03  0.62725259346E+03  0.25500000920E-02 0. -1.
       -2    1    3    3    0  502  0.27308070095E+03  0.19263780529E+03 -0.46726505880E+03  0.57447282655E+03  0.25500000920E-02 0.  1.
</event>
<event>
 5   0  0.9941209E-05  0.1199986E+04  0.7818609E-02  0.9112868E-01
        2   -1    0    0  501    0  0.00000000000E+00  0.00000000000E+00  0.79747758177E+03  0.79747758177E+03  0.25500000920E-02 0.  1.
       -2   -1    0    0    0  501  0.00000000000E+00  0.00000000000E+00 -0.45141318219E+03  0.45141318220E+03  0.25500000920E-02 0. -1.
    10030    2    1    2    0    0  0.00000000000E+00  0.00000000000E+00  0.34606439957E+03  0.12488907640E+04  0.11999864881E+04 0.  0.
        2    1    3    3  502    0  0.21244890411E+01  0.44738022157E+02 -0.44967093476E+03  0.45189595446E+03  0.25500000920E-02 0. -1.
       -2    1    3    3    0  502 -0.21244890411E+01 -0.44738022157E+02  0.79573533433E+03  0.79699480951E+03  0.25500000920E-02 0.  1.
</event>
<event>
 5   0  0.5732931E-05  0.1200017E+04  0.7818609E-02  0.9112841E-01
       -1   -1    0    0    0  501  0.00000000000E+00  0.00000000000E+00  0.47812319323E+03  0.47812319326E+03  0.50400001928E-02 0.  1.
        1   -1    0    0  501    0  0.00000000000E+00  0.00000000000E+00 -0.75296584338E+03  0.75296584340E+03  0.50400001928E-02 0. -1.
    10030    2    1    2    0    0  0.00000000000E+00  0.00000000000E+00 -0.27484265015E+03  0.12310890367E+04  0.12000173890E+04 0.  0.
        4    1    3    3  502    0  0.36675401812E+03  0.47398749173E+03 -0.10775602053E+03  0.60892169035E+03  0.12699999809E+01 0. -1.
       -4    1    3    3    0  502 -0.36675401812E+03 -0.47398749173E+03 -0.16708662962E+03  0.62216734631E+03  0.12699999809E+01 0.  1.
</event>
<event>
 5   0  0.3839750E-05  0.1201083E+04  0.7818609E-02  0.9111909E-01
       -3   -1    0    0    0  501  0.00000000000E+00  0.00000000000E+00  0.89405289404E+03  0.89405289974E+03  0.10100000352E+00 0. -1.
        3   -1    0    0  501    0  0.00000000000E+00  0.00000000000E+00 -0.40338770570E+03  0.40338771834E+03  0.10100000352E+00 0.  1.
    10030    2    1    2    0    0  0.00000000000E+00  0.00000000000E+00  0.49066518834E+03  0.12974406181E+04  0.12010827742E+04 0.  0.
        4    1    3    3  502    0 -0.18406183199E+03 -0.48179950415E+03 -0.86981851368E+02  0.52304586373E+03  0.12699999809E+01 0.  1.
       -4    1    3    3    0  502  0.18406183199E+03  0.48179950415E+03  0.57764703971E+03  0.77439475436E+03  0.12699999809E+01 0. -1.
</event>
<event>
 5   0  0.1012657E-04  0.1200253E+04  0.7818609E-02  0.9112635E-01
       -2   -1    0    0    0  501  0.00000000000E+00  0.00000000000E+00  0.29531510248E+03  0.29531510249E+03  0.25500000920E-02 0.  1.
        2   -1    0    0  501    0  0.00000000000E+00  0.00000000000E+00 -0.12195508182E+04  0.12195508182E+04  0.25500000920E-02 0. -1.
    10030    2    1    2    0    0  0.00000000000E+00  0.00000000000E+00 -0.92423571575E+03  0.15148659207E+04  0.12002529315E+04 0.  0.
        1    1    3    3  502    0 -0.24172175655E+03 -0.45908627090E+03 -0.84277309562E+03  0.98967474579E+03  0.50400001928E-02 0. -1.
       -1    1    3    3    0  502  0.24172175655E+03  0.45908627090E+03 -0.81462620128E+02  0.52519117493E+03  0.50400001928E-02 0.  1.
</event>
<event>
 5   0  0.5732931E-05  0.1202403E+04  0.7818609E-02  0.9110756E-01
       -1   -1    0    0    0  501  0.00000000000E+00  0.00000000000E+00  0.50526571326E+03  0.50526571329E+03  0.50400001928E-02 0.  1.
        1   -1    0    0  501    0  0.00000000000E+00  0.00000000000E+00 -0.71535284974E+03  0.71535284976E+03  0.50400001928E-02 0. -1.
    10030    2    1    2    0    0  0.00000000000E+00  0.00000000000E+00 -0.21008713648E+03  0.12206185630E+04  0.12024030404E+04 0.  0.
        4    1    3    3  502    0 -0.78945641148E+02  0.38574362839E+03 -0.56625113335E+03  0.68969016234E+03  0.12699999809E+01 0. -1.
       -4    1    3    3    0  502  0.78945641148E+02 -0.38574362839E+03  0.35616399688E+03  0.53092840070E+03  0.12699999809E+01 0.  1.
</event>
<event>
 5   0  0.5620246E-05  0.1199709E+04  0.7818609E-02  0.9113111E-01
        1   -1    0    0  501    0  0.00000000000E+00  0.00000000000E+00  0.48467570822E+03  0.48467570825E+03  0.50400001928E-02 0. -1.
       -1   -1    0    0    0  501  0.00000000000E+00  0.00000000000E+00 -0.74240456747E+03  0.74240456749E+03  0.50400001928E-02 0.  1.
    10030    2    1    2    0    0  0.00000000000E+00  0.00000000000E+00 -0.25772885924E+03  0.12270802757E+04  0.11997090640E+04 0.  0.
        1    1    3    3  502    0 -0.45993127542E+03 -0.38466763149E+03 -0.11058221235E+03  0.60970024647E+03  0.50400001928E-02 0. -1.
       -1    1    3    3    0  502  0.45993127542E+03  0.38466763149E+03 -0.14714664689E+03  0.61738002927E+03  0.50400001928E-02 0.  1.
</event>
<event>
 5   0  0.5447807E-05  0.1198730E+04  0.7818609E-02  0.9113968E-01
       -1   -1    0    0    0  501  0.00000000000E+00  0.00000000000E+00  0.60331305298E+03  0.60331305301E+03  0.50400001928E-02 0.  1.
        1   -1    0    0  501    0  0.00000000000E+00  0.00000000000E+00 -0.59544327253E+03  0.59544327255E+03  0.50400001928E-02 0. -1.
    10030    2    1    2    0    0  0.00000000000E+00  0.00000000000E+00  0.78697804511E+01  0.11987563256E+04  0.11987304929E+04 0.  0.
        2    1    3    3  502    0 -0.18991911292E+03  0.37376375354E+03  0.43227820275E+03  0.60219021704E+03  0.25500000920E-02 0.  1.
       -2    1    3    3    0  502  0.18991911292E+03 -0.37376375354E+03 -0.42440842230E+03  0.59656610852E+03  0.25500000920E-02 0. -1.
</event>
<event>
 5   0  0.1012657E-04  0.1200292E+04  0.7818609E-02  0.9112601E-01
       -2   -1    0    0    0  501  0.00000000000E+00  0.00000000000E+00  0.22283965305E+03  0.22283965307E+03  0.25500000920E-02 0. -1.
        2   -1    0    0  501    0  0.00000000000E+00  0.00000000000E+00 -0.16162980370E+04  0.16162980370E+04  0.25500000920E-02 0.  1.
    10030    2    1    2    0    0  0.00000000000E+00  0.00000000000E+00 -0.13934583839E+04  0.18391376900E+04  0.12002921208E+04 0.  0.
        1    1    3    3  502    0 -0.60910206973E+02  0.59593870635E+03 -0.75244675074E+03  0.96178433537E+03  0.50400001928E-02 0. -1.
       -1    1    3    3    0  502  0.60910206973E+02 -0.59593870635E+03 -0.64101163316E+03  0.87735335465E+03  0.50400001928E-02 0.  1.
</event>
<event>
 5   0  0.1004006E-04  0.1200084E+04  0.7818609E-02  0.9112783E-01
       -2   -1    0    0    0  501  0.00000000000E+00  0.00000000000E+00  0.25774366203E+03  0.25774366205E+03  0.25500000920E-02 0. -1.
        2   -1    0    0  501    0  0.00000000000E+00  0.00000000000E+00 -0.13969328194E+04  0.13969328194E+04  0.25500000920E-02 0.  1.
    10030    2    1    2    0    0  0.00000000000E+00  0.00000000000E+00 -0.11391891574E+04  0.16546764815E+04  0.12000842979E+04 0.  0.
        5    1    3    3  502    0  0.18884274512E+03  0.53499807591E+03 -0.30030827245E+03  0.64194366740E+03  0.46999998093E+01 0. -1.
       -5    1    3    3    0  502 -0.18884274512E+03 -0.53499807591E+03 -0.83888088496E+03  0.10127328141E+04  0.46999998093E+01 0.  1.
</event>
<event>
 5   0  0.5745487E-05  0.1200490E+04  0.7818609E-02  0.9112427E-01
       -1   -1    0    0    0  501  0.00000000000E+00  0.00000000000E+00  0.35527735505E+03  0.35527735509E+03  0.50400001928E-02 0.  1.
        1   -1    0    0  501    0  0.00000000000E+00  0.00000000000E+00 -0.10141212091E+04  0.10141212091E+04  0.50400001928E-02 0. -1.
    10030    2    1    2    0    0  0.00000000000E+00  0.00000000000E+00 -0.65884385405E+03  0.13693985642E+04  0.12004904013E+04 0.  0.
        3    1    3    3  502    0 -0.57887081119E+03 -0.43013084042E+02 -0.50373910416E+03  0.76856661176E+03  0.10100000352E+00 0.  1.
       -3    1    3    3    0  502  0.57887081119E+03  0.43013084042E+02 -0.15510474988E+03  0.60083195245E+03  0.10100000352E+00 0. -1.
</event>
<event>
 5   0  0.9838215E-05  0.1193797E+04  0.7818609E-02  0.9118303E-01
        2   -1    0    0  501    0  0.00000000000E+00  0.00000000000E+00  0.13784568103E+04  0.13784568103E+04  0.25500000920E-02 0.  1.
       -2   -1    0    0    0  501  0.00000000000E+00  0.00000000000E+00 -0.25846859822E+03  0.25846859823E+03  0.25500000920E-02 0. -1.
    10030    2    1    2    0    0  0.00000000000E+00  0.00000000000E+00  0.11199882120E+04  0.16369254085E+04  0.11937969668E+04 0.  0.
        4    1    3    3  502    0  0.10382437714E+03  0.34453431438E+03 -0.93020080979E+02  0.37166886261E+03  0.12699999809E+01 0. -1.
       -4    1    3    3    0  502 -0.10382437714E+03 -0.34453431438E+03  0.12130082930E+04  0.12652565459E+04  0.12699999809E+01 0.  1.
</event>
<event>
 5   0  0.5732931E-05  0.1199071E+04  0.7818609E-02  0.9113670E-01
        1   -1    0    0  501    0  0.00000000000E+00  0.00000000000E+00  0.15582570760E+04  0.15582570761E+04  0.50400001928E-02 0.  1.
       -1   -1    0    0    0  501  0.00000000000E+00  0.00000000000E+00 -0.23066971165E+03  0.23066971170E+03  0.50400001928E-02 0. -1.
    10030    2    1    2    0    0  0.00000000000E+00  0.00000000000E+00  0.13275873644E+04  0.17889267878E+04  0.11990708244E+04 0.  0.
        4    1    3    3  502    0  0.59103602521E+03  0.61161980867E+02  0.78293067364E+03  0.98287660651E+03  0.12699999809E+01 0. -1.
       -4    1    3    3    0  502 -0.59103602521E+03 -0.61161980867E+02  0.54465669075E+03  0.80605018124E+03  0.12699999809E+01 0.  1.
</event>
<event>
 5   0  0.5625746E-05  0.1200466E+04  0.7818609E-02  0.9112448E-01
       -1   -1    0    0    0  501  0.00000000000E+00  0.00000000000E+00  0.81509498966E+03  0.81509498968E+03  0.50400001928E-02 0. -1.
        1   -1    0    0  501    0  0.00000000000E+00  0.00000000000E+00 -0.44200964253E+03  0.44200964256E+03  0.50400001928E-02 0.  1.
    10030    2    1    2    0    0  0.00000000000E+00  0.00000000000E+00  0.37308534713E+03  0.12571046322E+04  0.12004663178E+04 0.  0.
        5    1    3    3  502    0  0.26632222109E+03  0.52535516156E+03  0.30745542217E+03  0.66443697809E+03  0.46999998093E+01 0.  1.
       -5    1    3    3    0  502 -0.26632222109E+03 -0.52535516156E+03  0.65629924963E+02  0.59266765415E+03  0.46999998093E+01 0. -1.
</event>
<event>
 5   0  0.5447807E-05  0.1200024E+04  0.7818609E-02  0.9112835E-01
       -1   -1    0    0    0  501  0.00000000000E+00  0.00000000000E+00  0.25042651928E+03  0.25042651934E+03  0.50400001928E-02 0. -1.
        1   -1    0    0  501    0  0.00000000000E+00  0.00000000000E+00 -0.14376053722E+04  0.14376053722E+04  0.50400001928E-02 0.  1.
    10030    2    1    2    0    0  0.00000000000E+00  0.00000000000E+00 -0.11871788529E+04  0.16880318915E+04  0.12000241823E+04 0.  0.
        2    1    3    3  502    0 -0.14247826600E+02 -0.29798640853E+03 -0.13258873489E+04  0.13590350114E+04  0.25500000920E-02 0.  1.
       -2    1    3    3    0  502  0.14247826600E+02  0.29798640853E+03  0.13870849604E+03  0.32899688009E+03  0.25500000920E-02 0. -1.
</event>
<event>
 5   0  0.5447807E-05  0.1200259E+04  0.7818609E-02  0.9112630E-01
        1   -1    0    0  501    0  0.00000000000E+00  0.00000000000E+00  0.13244995128E+04  0.13244995129E+04  0.50400001928E-02 0. -1.
       -1   -1    0    0    0  501  0.00000000000E+00  0.00000000000E+00 -0.27191815168E+03  0.27191815172E+03  0.50400001928E-02 0.  1.
    10030    2    1    2    0    0  0.00000000000E+00  0.00000000000E+00  0.10525813612E+04  0.15964176646E+04  0.12002590712E+04 0.  0.
        2    1    3    3  502    0  0.52796460646E+03  0.48817373854E+01  0.90573121051E+03  0.10483889940E+04  0.25500000920E-02 0. -1.
       -2    1    3    3    0  502 -0.52796460646E+03 -0.48817373854E+01  0.14685015066E+03  0.54802867059E+03  0.25500000920E-02 0.  1.
</event>
<event>
 5   0  0.5625746E-05  0.1200192E+04  0.7818609E-02  0.9112689E-01
        1   -1    0    0  501    0  0.00000000000E+00  0.00000000000E+00  0.22095012830E+04  0.22095012830E+04  0.50400001928E-02 0.  1.
       -1   -1    0    0    0  501  0.00000000000E+00  0.00000000000E+00 -0.16298483506E+03  0.16298483514E+03  0.50400001928E-02 0. -1.
    10030    2    1    2    0    0  0.00000000000E+00  0.00000000000E+00  0.20465164479E+04  0.23724861181E+04  0.12001919884E+04 0.  0.
        5    1    3    3  502    0  0.20256455622E+03  0.12270973703E+03 -0.66654982637E+02  0.24607936872E+03  0.46999998093E+01 0. -1.
       -5    1    3    3    0  502 -0.20256455622E+03 -0.12270973703E+03  0.21131714305E+04  0.21264067494E+04  0.46999998093E+01 0.  1.
</event>
<event>
 5   0  0.5625746E-05  0.1201418E+04  0.7818609E-02  0.9111616E-01
       -1   -1    0    0    0  501  0.00000000000E+00  0.00000000000E+00  0.58498590864E+03  0.58498590866E+03  0.50400001928E-02 0. -1.
        1   -1    0    0  501    0  0.00000000000E+00  0.00000000000E+00 -0.61685456403E+03  0.61685456406E+03  0.50400001928E-02 0.  1.
    10030    2    1    2    0    0  0.00000000000E+00  0.00000000000E+00 -0.31868655395E+02  0.12018404727E+04  0.12014178751E+04 0.  0.
        5    1    3    3  502    0 -0.33819826646E+03 -0.20508337706E+03  0.43632189755E+03  0.58892796441E+03  0.46999998093E+01 0. -1.
       -5    1    3    3    0  502  0.33819826646E+03  0.20508337706E+03 -0.46819055294E+03  0.61291250831E+03  0.46999998093E+01 0.  1.
</event>
<event>
 5   0  0.5447807E-05  0.1199925E+04  0.7818609E-02  0.9112922E-01
        1   -1    0    0  501    0  0.00000000000E+00  0.00000000000E+00  0.25461194788E+04  0.25461194788E+04  0.50400001928E-02 0. -1.
       -1   -1    0    0    0  501  0.00000000000E+00  0.00000000000E+00 -0.14137399189E+03  0.14137399198E+03  0.50400001928E-02 0.  1.
    10030    2    1    2    0    0  0.00000000000E+00  0.00000000000E+00  0.24047454869E+04  0.26874934708E+04  0.11999251221E+04 0.  0.
        2    1    3    3  502    0  0.17016719680E+03 -0.55437011671E+03  0.85777652700E+03  0.10354050760E+04  0.25500000920E-02 0.  1.
       -2    1    3    3    0  502 -0.17016719680E+03  0.55437011671E+03  0.15469689599E+04  0.16520883947E+04  0.25500000920E-02 0. -1.
</event>
<event>
 5   0  0.5447807E-05  0.1199813E+04  0.7818609E-02  0.9113020E-01
        1   -1    0    0  501    0  0.00000000000E+00  0.00000000000E+00  0.13155407684E+04  0.13155407684E+04  0.50400001928E-02 0. -1.
       -1   -1    0    0    0  501  0.00000000000E+00  0.00000000000E+00 -0.27356641801E+03  0.27356641805E+03  0.50400001928E-02 0.  1.
    10030    2    1    2    0    0  0.00000000000E+00  0.00000000000E+00  0.10419743504E+04  0.15891071865E+04  0.11998129451E+04 0.  0.
        2    1    3    3  502    0  0.23008412931E+03 -0.38030021978E+03 -0.12626255212E+02  0.44466435213E+03  0.25500000920E-02 0.  1.
       -2    1    3    3    0  502 -0.23008412931E+03  0.38030021978E+03  0.10546006056E+04  0.11444428344E+04  0.25500000920E-02 0. -1.
</event>
<event>
 5   0  0.3839750E-05  0.1199359E+04  0.7818609E-02  0.9113418E-01
        4   -1    0    0  501    0  0.00000000000E+00  0.00000000000E+00  0.28345598891E+03  0.28345883396E+03  0.12699999809E+01 0.  1.
       -4   -1    0    0    0  501  0.00000000000E+00  0.00000000000E+00 -0.12686729707E+04  0.12686736064E+04  0.12699999809E+01 0. -1.
    10030    2    1    2    0    0  0.00000000000E+00  0.00000000000E+00 -0.98521698183E+03  0.15521324404E+04  0.11993592502E+04 0.  0.
        1    1    3    3  502    0 -0.22547359576E+03 -0.43866303592E+03 -0.93404323180E+03  0.10562671823E+04  0.50400001928E-02 0. -1.
       -1    1    3    3    0  502  0.22547359576E+03  0.43866303592E+03 -0.51173750036E+02  0.49586525809E+03  0.50400001928E-02 0.  1.
</event>
<event>
 5   0  0.1012657E-04  0.1200771E+04  0.7818609E-02  0.9112182E-01
       -2   -1    0    0    0  501  0.00000000000E+00  0.00000000000E+00  0.62061394466E+03  0.62061394467E+03  0.25500000920E-02 0.  1.
        2   -1    0    0  501    0  0.00000000000E+00  0.00000000000E+00 -0.58081663745E+03  0.58081663745E+03  0.25500000920E-02 0. -1.
    10030    2    1    2    0    0  0.00000000000E+00  0.00000000000E+00  0.39797307212E+02  0.12014305821E+04  0.12007712596E+04 0.  0.
        1    1    3    3  502    0  0.49983252233E+03  0.29231150372E+03 -0.13888422656E+03  0.59545561884E+03  0.50400001928E-02 0. -1.
       -1    1    3    3    0  502 -0.49983252233E+03 -0.29231150372E+03  0.17868153378E+03  0.60597496328E+03  0.50400001928E-02 0.  1.
</event>
<event>
 5   0  0.5625746E-05  0.1199957E+04  0.7818609E-02  0.9112894E-01
        1   -1    0    0  501    0  0.00000000000E+00  0.00000000000E+00  0.20114299711E+04  0.20114299711E+04  0.50400001928E-02 0. -1.
       -1   -1    0    0    0  501  0.00000000000E+00  0.00000000000E+00 -0.17896433624E+03  0.17896433631E+03  0.50400001928E-02 0.  1.
    10030    2    1    2    0    0  0.00000000000E+00  0.00000000000E+00  0.18324656349E+04  0.21903943074E+04  0.11999570488E+04 0.  0.
        5    1    3    3  502    0  0.42682462065E+03 -0.42018154969E+03  0.98000018584E+03  0.11485444030E+04  0.46999998093E+01 0.  1.
       -5    1    3    3    0  502 -0.42682462065E+03  0.42018154969E+03  0.85246544905E+03  0.10418499044E+04  0.46999998093E+01 0. -1.
</event>
<event>
 5   0  0.5447807E-05  0.1199975E+04  0.7818609E-02  0.9112878E-01
        1   -1    0    0  501    0  0.00000000000E+00  0.00000000000E+00  0.43139974484E+03  0.43139974487E+03  0.50400001928E-02 0. -1.
       -1   -1    0    0    0  501  0.00000000000E+00  0.00000000000E+00 -0.83445850408E+03  0.83445850409E+03  0.50400001928E-02 0.  1.
    10030    2    1    2    0    0  0.00000000000E+00  0.00000000000E+00 -0.40305875924E+03  0.12658582490E+04  0.11999753094E+04 0.  0.
        2    1    3    3  502    0  0.53388290008E+03 -0.34858705450E+02 -0.48798786954E+03  0.72413965585E+03  0.25500000920E-02 0.  1.
       -2    1    3    3    0  502 -0.53388290008E+03  0.34858705450E+02  0.84929110300E+02  0.54171859312E+03  0.25500000920E-02 0. -1.
</event>
<event>
 5   0  0.5620246E-05  0.1200682E+04  0.7818609E-02  0.9112260E-01
        1   -1    0    0  501    0  0.00000000000E+00  0.00000000000E+00  0.91570958872E+03  0.91570958873E+03  0.50400001928E-02 0.  1.
       -1   -1    0    0    0  501  0.00000000000E+00  0.00000000000E+00 -0.39358456660E+03  0.39358456663E+03  0.50400001928E-02 0. -1.
    10030    2    1    2    0    0  0.00000000000E+00  0.00000000000E+00  0.52212502211E+03  0.13092941554E+04  0.12006817424E+04 0.  0.
        1    1    3    3  502    0 -0.41943685410E+03  0.46864677114E+02  0.72663304984E+03  0.84030896799E+03  0.50400001928E-02 0.  1.
       -1    1    3    3    0  502  0.41943685410E+03 -0.46864677114E+02 -0.20450802773E+03  0.46898518737E+03  0.50400001928E-02 0. -1.
</event>
<event>
 5   0  0.1004006E-04  0.1202174E+04  0.7818609E-02  0.9110956E-01
        2   -1    0    0  501    0  0.00000000000E+00  0.00000000000E+00  0.16915373890E+04  0.16915373890E+04  0.25500000920E-02 0.  1.
       -2   -1    0    0    0  501  0.00000000000E+00  0.00000000000E+00 -0.21359597703E+03  0.21359597705E+03  0.25500000920E-02 0. -1.
    10030    2    1    2    0    0  0.00000000000E+00  0.00000000000E+00  0.14779414120E+04  0.19051333661E+04  0.12021739996E+04 0.  0.
        5    1    3    3  502    0 -0.43905186165E+02  0.59483689186E+03  0.85676389661E+03  0.10439468654E+04  0.46999998093E+01 0.  1.
       -5    1    3    3    0  502  0.43905186165E+02 -0.59483689186E+03  0.62117751537E+03  0.86118650065E+03  0.46999998093E+01 0. -1.
</event>
<event>
 5   0  0.1004006E-04  0.1200503E+04  0.7818609E-02  0.9112417E-01
        2   -1    0    0  501    0  0.00000000000E+00  0.00000000000E+00  0.15455188824E+04  0.15455188824E+04  0.25500000920E-02 0.  1.
       -2   -1    0    0    0  501  0.00000000000E+00  0.00000000000E+00 -0.23312664836E+03  0.23312664837E+03  0.25500000920E-02 0. -1.
    10030    2    1    2    0    0  0.00000000000E+00  0.00000000000E+00  0.13123922341E+04  0.17786455308E+04  0.12005026231E+04 0.  0.
        5    1    3    3  502    0  0.43068318559E+03 -0.40028725835E+03  0.83498133511E+03  0.10212413111E+04  0.46999998093E+01 0.  1.
       -5    1    3    3    0  502 -0.43068318559E+03  0.40028725835E+03  0.47741089896E+03  0.75740421968E+03  0.46999998093E+01 0. -1.
</event>
<event>
 5   0  0.9838215E-05  0.1200025E+04  0.7818609E-02  0.9112834E-01
       -2   -1    0    0    0  501  0.00000000000E+00  0.00000000000E+00  0.50852901578E+03  0.50852901579E+03  0.25500000920E-02 0. -1.
        2   -1    0    0  501    0  0.00000000000E+00  0.00000000000E+00 -0.70795421766E+03  0.70795421766E+03  0.25500000920E-02 0.  1.
    10030    2    1    2    0    0  0.00000000000E+00  0.00000000000E+00 -0.19942520187E+03  0.12164832334E+04  0.12000254356E+04 0.  0.
        4    1    3    3  502    0  0.48453423475E+03  0.56622452998E+02 -0.45383737969E+03  0.66629536013E+03  0.12699999809E+01 0.  1.
       -4    1    3    3    0  502 -0.48453423475E+03 -0.56622452998E+02  0.25441217782E+03  0.55018787332E+03  0.12699999809E+01 0. -1.
</event>
<event>
 5   0  0.5625746E-05  0.1199630E+04  0.7818609E-02  0.9113180E-01
        1   -1    0    0  501    0  0.00000000000E+00  0.00000000000E+00  0.42017665698E+03  0.42017665701E+03  0.50400001928E-02 0. -1.
       -1   -1    0    0    0  501  0.00000000000E+00  0.00000000000E+00 -0.85625472209E+03  0.85625472211E+03  0.50400001928E-02 0.  1.
    10030    2    1    2    0    0  0.00000000000E+00  0.00000000000E+00 -0.43607806511E+03  0.12764313791E+04  0.11996303542E+04 0.  0.
        5    1    3    3  502    0  0.32250522095E+03 -0.17268636089E+03 -0.72378577490E+03  0.81099823349E+03  0.46999998093E+01 0.  1.
       -5    1    3    3    0  502 -0.32250522095E+03  0.17268636089E+03  0.28770770979E+03  0.46543314562E+03  0.46999998093E+01 0. -1.
</event>
<event>
 5   0  0.9941209E-05  0.1197800E+04  0.7818609E-02  0.9114784E-01
        2   -1    0    0  501    0  0.00000000000E+00  0.00000000000E+00  0.67984996294E+03  0.67984996294E+03  0.25500000920E-02 0.  1.
       -2   -1    0    0    0  501  0.00000000000E+00  0.00000000000E+00 -0.52758875567E+03  0.52758875568E+03  0.25500000920E-02 0. -1.
    10030    2    1    2    0    0  0.00000000000E+00  0.00000000000E+00  0.15226120727E+03  0.12074387186E+04  0.11977999766E+04 0.  0.
        2    1    3    3  502    0 -0.41359098242E+03 -0.30297646415E+03 -0.23592298366E+03  0.56436857885E+03  0.25500000920E-02 0. -1.
       -2    1    3    3    0  502  0.41359098242E+03  0.30297646415E+03  0.38818419093E+03  0.64307013977E+03  0.25500000920E-02 0.  1.
</event>
<event>
 5   0  0.5447807E-05  0.1200788E+04  0.7818609E-02  0.9112167E-01
        1   -1    0    0  501    0  0.00000000000E+00  0.00000000000E+00  0.76211444501E+03  0.76211444503E+03  0.50400001928E-02 0.  1.
       -1   -1    0    0    0  501  0.00000000000E+00  0.00000000000E+00 -0.47299097320E+03  0.47299097322E+03  0.50400001928E-02 0. -1.
    10030    2    1    2    0    0  0.00000000000E+00  0.00000000000E+00  0.28912347182E+03  0.12351054183E+04  0.12007884960E+04 0.  0.
        2    1    3    3  502    0  0.36866391307E+03  0.42062707636E+03 -0.79925490847E+02  0.56500292235E+03  0.25500000920E-02 0. -1.
       -2    1    3    3    0  502 -0.36866391307E+03 -0.42062707636E+03  0.36904896266E+03  0.67010249590E+03  0.25500000920E-02 0.  1.
</event>
<event>
 5   0  0.9941209E-05  0.1200029E+04  0.7818609E-02  0.9112831E-01
        2   -1    0    0  501    0  0.00000000000E+00  0.00000000000E+00  0.20486869175E+04  0.20486869175E+04  0.25500000920E-02 0. -1.
       -2   -1    0    0    0  501  0.00000000000E+00  0.00000000000E+00 -0.17573070986E+03  0.17573070988E+03  0.25500000920E-02 0.  1.
    10030    2    1    2    0    0  0.00000000000E+00  0.00000000000E+00  0.18729562077E+04  0.22244176274E+04  0.12000286769E+04 0.  0.
        2    1    3    3  502    0  0.46160568821E+03 -0.25588522508E+03  0.40742739942E+03  0.66674893746E+03  0.25500000920E-02 0. -1.
       -2    1    3    3    0  502 -0.46160568821E+03  0.25588522508E+03  0.14655288082E+04  0.15576686899E+04  0.25500000920E-02 0.  1.
</event>
<event>
 5   0  0.5625746E-05  0.1200083E+04  0.7818609E-02  0.9112784E-01
        1   -1    0    0  501    0  0.00000000000E+00  0.00000000000E+00  0.10565714362E+04  0.10565714362E+04  0.50400001928E-02 0. -1.
       -1   -1    0    0    0  501  0.00000000000E+00  0.00000000000E+00 -0.34077162917E+03  0.34077162921E+03  0.50400001928E-02 0.  1.
    10030    2    1    2    0    0  0.00000000000E+00  0.00000000000E+00  0.71579980701E+03  0.13973430654E+04  0.12000826133E+04 0.  0.
        5    1    3    3  502    0 -0.46225586771E+03  0.38246707676E+03  0.36735412282E+03  0.70351452977E+03  0.46999998093E+01 0. -1.
       -5    1    3    3    0  502  0.46225586771E+03 -0.38246707676E+03  0.34844568419E+03  0.69382853564E+03  0.46999998093E+01 0.  1.
</event>
<event>
 5   0  0.9838215E-05  0.1199148E+04  0.7818609E-02  0.9113602E-01
       -2   -1    0    0    0  501  0.00000000000E+00  0.00000000000E+00  0.65681690408E+03  0.65681690408E+03  0.25500000920E-02 0. -1.
        2   -1    0    0  501    0  0.00000000000E+00  0.00000000000E+00 -0.54732006074E+03  0.54732006074E+03  0.25500000920E-02 0.  1.
    10030    2    1    2    0    0  0.00000000000E+00  0.00000000000E+00  0.10949684334E+03  0.12041369648E+04  0.11991481440E+04 0.  0.
        4    1    3    3  502    0 -0.10105517702E+03  0.82870291078E+02  0.64233908588E+03  0.65550037993E+03  0.12699999809E+01 0. -1.
       -4    1    3    3    0  502  0.10105517702E+03 -0.82870291078E+02 -0.53284224254E+03  0.54863658489E+03  0.12699999809E+01 0.  1.
</event>
<event>
 5   0  0.5620246E-05  0.1197521E+04  0.7818609E-02  0.9115029E-01
       -1   -1    0    0    0  501  0.00000000000E+00  0.00000000000E+00  0.48486561154E+03  0.48486561156E+03  0.50400001928E-02 0. -1.
        1   -1    0    0  501    0  0.00000000000E+00  0.00000000000E+00 -0.73940984008E+03  0.73940984010E+03  0.50400001928E-02 0.  1.
    10030    2    1    2    0    0  0.00000000000E+00  0.00000000000E+00 -0.25454422854E+03  0.12242754517E+04  0.11975214475E+04 0.  0.
        1    1    3    3  502    0 -0.46611485465E+02  0.13564030879E+03 -0.72158873678E+03  0.73570457999E+03  0.50400001928E-02 0.  1.
       -1    1    3    3    0  502  0.46611485465E+02 -0.13564030879E+03  0.46704450824E+03  0.48857087167E+03  0.50400001928E-02 0. -1.
</event>
<event>
 5   0  0.5625746E-05  0.1199862E+04  0.7818609E-02  0.9112978E-01
        1   -1    0    0  501    0  0.00000000000E+00  0.00000000000E+00  0.59752452518E+03  0.59752452521E+03  0.50400001928E-02 0.  1.
       -1   -1    0    0    0  501  0.00000000000E+00  0.00000000000E+00 -0.60234690475E+03  0.60234690477E+03  0.50400001928E-02 0. -1.
    10030    2    1    2    0    0  0.00000000000E+00  0.00000000000E+00 -0.48223795674E+01  0.11998714300E+04  0.11998617392E+04 0.  0.
        5    1    3    3  502    0  0.54470755788E+02  0.36108939871E+03  0.47355729719E+03  0.59802275944E+03  0.46999998093E+01 0.  1.
       -5    1    3    3    0  502 -0.54470755788E+02 -0.36108939871E+03 -0.47837967676E+03  0.60184867054E+03  0.46999998093E+01 0. -1.
</event>
<event>
 5   0  0.5732931E-05  0.1200641E+04  0.7818609E-02  0.9112296E-01
       -1   -1    0    0    0  501  0.00000000000E+00  0.00000000000E+00  0.26982627392E+03  0.26982627397E+03  0.50400001928E-02 0. -1.
        1   -1    0    0  501    0  0.00000000000E+00  0.00000000000E+00 -0.13356164537E+04  0.13356164537E+04  0.50400001928E-02 0.  1.
    10030    2    1    2    0    0  0.00000000000E+00  0.00000000000E+00 -0.10657901797E+04  0.16054427276E+04  0.12006405143E+04 0.  0.
        4    1    3    3  502    0 -0.47146697894E+03  0.36111740286E+03 -0.41559138244E+03  0.72484805369E+03  0.12699999809E+01 0. -1.
       -4    1    3    3    0  502  0.47146697894E+03 -0.36111740286E+03 -0.65019879730E+03  0.88059467395E+03  0.12699999809E+01 0.  1.
</event>
<event>
 5   0  0.9941209E-05  0.1200452E+04  0.7818609E-02  0.9112461E-01
        2   -1    0    0  501    0  0.00000000000E+00  0.00000000000E+00  0.49557831257E+03  0.49557831258E+03  0.25500000920E-02 0.  1.
       -2   -1    0    0    0  501  0.00000000000E+00  0.00000000000E+00 -0.72697187308E+03  0.72697187309E+03  0.25500000920E-02 0. -1.
    10030    2    1    2    0    0  0.00000000000E+00  0.00000000000E+00 -0.23139356051E+03  0.12225501857E+04  0.12004524050E+04 0.  0.
        2    1    3    3  502    0 -0.58383679620E+03  0.56184591283E+01 -0.25745141050E+03  0.63810516410E+03  0.25500000920E-02 0. -1.
       -2    1    3    3    0  502  0.58383679620E+03 -0.56184591283E+01  0.26057849992E+02  0.58444502156E+03  0.25500000920E-02 0.  1.
</event>
<event>
 5   0  0.1023063E-04  0.1199319E+04  0.7818609E-02  0.9113453E-01
        2   -1    0    0  501    0  0.00000000000E+00  0.00000000000E+00  0.89583213010E+03  0.89583213011E+03  0.25500000920E-02 0.  1.
       -2   -1    0    0    0  501  0.00000000000E+00  0.00000000000E+00 -0.40140503895E+03  0.40140503896E+03  0.25500000920E-02 0. -1.
    10030    2    1    2    0    0  0.00000000000E+00  0.00000000000E+00  0.49442709115E+03  0.12972371691E+04  0.11993190253E+04 0.  0.
        3    1    3    3  502    0  0.45222305541E+03 -0.38773005943E+03  0.17265667161E+03  0.62020208584E+03  0.10100000352E+00 0.  1.
       -3    1    3    3    0  502 -0.45222305541E+03  0.38773005943E+03  0.32177041954E+03  0.67703508323E+03  0.10100000352E+00 0. -1.
</event>
<event>
 5   0  0.5625746E-05  0.1201615E+04  0.7818609E-02  0.9111445E-01
        1   -1    0    0  501    0  0.00000000000E+00  0.00000000000E+00  0.22359555471E+04  0.22359555471E+04  0.50400001928E-02 0. -1.
       -1   -1    0    0    0  501  0.00000000000E+00  0.00000000000E+00 -0.16143852490E+03  0.16143852497E+03  0.50400001928E-02 0.  1.
    10030    2    1    2    0    0  0.00000000000E+00  0.00000000000E+00  0.20745170222E+04  0.23973940721E+04  0.12016145228E+04 0.  0.
        5    1    3    3  502    0 -0.24429906080E+02  0.41452064560E+03  0.17098201230E+03  0.44908921660E+03  0.46999998093E+01 0.  1.
       -5    1    3    3    0  502  0.24429906080E+02 -0.41452064560E+03  0.19035350099E+04  0.19483048555E+04  0.46999998093E+01 0. -1.
</event>
<event>
 5   0  0.1004006E-04  0.1199666E+04  0.7818609E-02  0.9113149E-01
       -2   -1    0    0    0  501  0.00000000000E+00  0.00000000000E+00  0.22011249311E+03  0.22011249313E+03  0.25500000920E-02 0.  1.
        2   -1    0    0  501    0  0.00000000000E+00  0.00000000000E+00 -0.16346167900E+04  0.16346167900E+04  0.25500000920E-02 0. -1.
    10030    2    1    2    0    0  0.00000000000E+00  0.00000000000E+00 -0.14145042968E+04  0.18547292831E+04  0.11996659151E+04 0.  0.
        5    1    3    3  502    0 -0.17128106340E+03  0.19856942441E+03 -0.15412684024E+04  0.15634248934E+04  0.46999998093E+01 0. -1.
       -5    1    3    3    0  502  0.17128106340E+03 -0.19856942441E+03  0.12676410558E+03  0.29130438969E+03  0.46999998093E+01 0.  1.
</event>
<event>
 5   0  0.1004006E-04  0.1199393E+04  0.7818609E-02  0.9113388E-01
       -2   -1    0    0    0  501  0.00000000000E+00  0.00000000000E+00  0.39024196200E+03  0.39024196201E+03  0.25500000920E-02 0. -1.
        2   -1    0    0  501    0  0.00000000000E+00  0.00000000000E+00 -0.92157102320E+03  0.92157102320E+03  0.25500000920E-02 0.  1.
    10030    2    1    2    0    0  0.00000000000E+00  0.00000000000E+00 -0.53132906120E+03  0.13118129852E+04  0.11993926533E+04 0.  0.
        5    1    3    3  502    0  0.45368699734E+03  0.33826814697E+03 -0.48685371243E+02  0.56802252260E+03  0.46999998093E+01 0. -1.
       -5    1    3    3    0  502 -0.45368699734E+03 -0.33826814697E+03 -0.48264368996E+03  0.74379046260E+03  0.46999998093E+01 0.  1.
</event>
<event>
 5   0  0.1004006E-04  0.1200145E+04  0.7818609E-02  0.9112730E-01
       -2   -1    0    0    0  501  0.00000000000E+00  0.00000000000E+00  0.13752797858E+03  0.13752797860E+03  0.25500000920E-02 0.  1.
        2   -1    0    0  501    0  0.00000000000E+00  0.00000000000E+00 -0.26182799620E+04  0.26182799620E+04  0.25500000920E-02 0. -1.
    10030    2    1    2    0    0  0.00000000000E+00  0.00000000000E+00 -0.24807519834E+04  0.27558079406E+04  0.12001445755E+04 0.  0.
        5    1    3    3  502    0 -0.15497162400E+03  0.91565382475E+02  0.74031125596E+02  0.19468723910E+03  0.46999998093E+01 0.  1.
       -5    1    3    3    0  502  0.15497162400E+03 -0.91565382475E+02 -0.25547831090E+04  0.25611207015E+04  0.46999998093E+01 0. -1.
</event>
<event>
 5   0  0.5732931E-05  0.1198547E+04  0.7818609E-02  0.9114129E-01
       -1   -1    0    0    0  501  0.00000000000E+00  0.00000000000E+00  0.65373061225E+03  0.65373061227E+03  0.50400001928E-02 0. -1.
        1   -1    0    0  501    0  0.00000000000E+00  0.00000000000E+00 -0.54935294915E+03  0.54935294918E+03  0.50400001928E-02 0.  1.
    10030    2    1    2    0    0  0.00000000000E+00  0.00000000000E+00  0.10437766309E+03  0.12030835614E+04  0.11985471869E+04 0.  0.
        4    1    3    3  502    0  0.34943821434E+03 -0.35526393407E+03 -0.28194897934E+03  0.57255250269E+03  0.12699999809E+01 0.  1.
       -4    1    3    3    0  502 -0.34943821434E+03  0.35526393407E+03  0.38632664243E+03  0.63053105875E+03  0.12699999809E+01 0. -1.
</event>
<event>
 5   0  0.9838215E-05  0.1197932E+04  0.7818609E-02  0.9114668E-01
       -2   -1    0    0    0  501  0.00000000000E+00  0.00000000000E+00  0.21032203241E+03  0.21032203243E+03  0.25500000920E-02 0.  1.
        2   -1    0    0  501    0  0.00000000000E+00  0.00000000000E+00 -0.17057670252E+04  0.17057670252E+04  0.25500000920E-02 0. -1.
    10030    2    1    2    0    0  0.00000000000E+00  0.00000000000E+00 -0.14954449928E+04  0.19160890577E+04  0.11979321977E+04 0.  0.
        4    1    3    3  502    0 -0.45152993099E+03  0.55938956209E+02 -0.13708088990E+04  0.14443431364E+04  0.12699999809E+01 0. -1.
       -4    1    3    3    0  502  0.45152993099E+03 -0.55938956209E+02 -0.12463609386E+03  0.47174592123E+03  0.12699999809E+01 0.  1.
</event>
<event>
 5   0  0.5620246E-05  0.1200201E+04  0.7818609E-02  0.9112681E-01
        1   -1    0    0  501    0  0.00000000000E+00  0.00000000000E+00  0.98649051499E+03  0.98649051500E+03  0.50400001928E-02 0. -1.
       -1   -1    0    0    0  501  0.00000000000E+00  0.00000000000E+00 -0.36505224901E+03  0.36505224904E+03  0.50400001928E-02 0.  1.
    10030    2    1    2    0    0  0.00000000000E+00  0.00000000000E+00  0.62143826598E+03  0.13515427640E+04  0.12002009518E+04 0.  0.
        1    1    3    3  502    0 -0.35031804880E+03 -0.19534991366E+03 -0.19192429900E+03  0.44465633994E+03  0.50400001928E-02 0.  1.
       -1    1    3    3    0  502  0.35031804880E+03  0.19534991366E+03  0.81336256498E+03  0.90688642410E+03  0.50400001928E-02 0. -1.
</event>
<event>
 5   0  0.3839750E-05  0.1199851E+04  0.7818609E-02  0.9112987E-01
        3   -1    0    0  501    0  0.00000000000E+00  0.00000000000E+00  0.58763927217E+03  0.58763928085E+03  0.10100000352E+00 0.  1.
       -3   -1    0    0    0  501  0.00000000000E+00  0.00000000000E+00 -0.61246882344E+03  0.61246883177E+03  0.10100000352E+00 0. -1.
    10030    2    1    2    0    0  0.00000000000E+00  0.00000000000E+00 -0.24829551269E+02  0.12001081126E+04  0.11998512305E+04 0.  0.
        5    1    3    3  502    0  0.25654403940E+02  0.56093820851E+03 -0.22359697633E+03  0.60442329540E+03  0.46999998093E+01 0. -1.
       -5    1    3    3    0  502 -0.25654403940E+02 -0.56093820851E+03  0.19876742506E+03  0.59568481722E+03  0.46999998093E+01 0.  1.
</event>
<event>
 5   0  0.5620246E-05  0.1200227E+04  0.7818609E-02  0.9112658E-01
       -1   -1    0    0    0  501  0.00000000000E+00  0.00000000000E+00  0.48734098156E+03  0.48734098159E+03  0.50400001928E-02 0. -1.
        1   -1    0    0  501    0  0.00000000000E+00  0.00000000000E+00 -0.73898239442E+03  0.73898239444E+03  0.50400001928E-02 0.  1.
    10030    2    1    2    0    0  0.00000000000E+00  0.00000000000E+00 -0.25164141286E+03  0.12263233760E+04  0.12002273209E+04 0.  0.
        1    1    3    3  502    0  0.10548427234E+03  0.45810300633E+02  0.47597691239E+03  0.48967288725E+03  0.50400001928E-02 0. -1.
       -1    1    3    3    0  502 -0.10548427234E+03 -0.45810300633E+02 -0.72761832525E+03  0.73665048878E+03  0.50400001928E-02 0.  1.
</event>
<event>
 5   0  0.5447807E-05  0.1199764E+04  0.7818609E-02  0.9113063E-01
        1   -1    0    0  501    0  0.00000000000E+00  0.00000000000E+00  0.41094926902E+03  0.41094926905E+03  0.50400001928E-02 0. -1.
       -1   -1    0    0    0  501  0.00000000000E+00  0.00000000000E+00 -0.87567574753E+03  0.87567574754E+03  0.50400001928E-02 0.  1.
    10030    2    1    2    0    0  0.00000000000E+00  0.00000000000E+00 -0.46472647851E+03  0.12866250166E+04  0.11997638241E+04 0.  0.
        2    1    3    3  502    0 -0.42599641675E+03 -0.21472766104E+03 -0.62239416334E+03  0.78419092705E+03  0.25500000920E-02 0.  1.
       -2    1    3    3    0  502  0.42599641675E+03  0.21472766104E+03  0.15766768483E+03  0.50243408955E+03  0.25500000920E-02 0. -1.
</event>
<event>
 5   0  0.9838215E-05  0.1200057E+04  0.7818609E-02  0.9112807E-01
        2   -1    0    0  501    0  0.00000000000E+00  0.00000000000E+00  0.35848188328E+03  0.35848188329E+03  0.25500000920E-02 0.  1.
       -2   -1    0    0    0  501  0.00000000000E+00  0.00000000000E+00 -0.10043302887E+04  0.10043302887E+04  0.25500000920E-02 0. -1.
    10030    2    1    2    0    0  0.00000000000E+00  0.00000000000E+00 -0.64584840543E+03  0.13628121720E+04  0.12000570209E+04 0.  0.
        4    1    3    3  502    0  0.27775499074E+01 -0.15241223397E+03 -0.98197242839E+03  0.99373470648E+03  0.12699999809E+01 0. -1.
       -4    1    3    3    0  502 -0.27775499074E+01  0.15241223397E+03  0.33612402296E+03  0.36907746553E+03  0.12699999809E+01 0.  1.
</event>
<event>
 5   0  0.5732931E-05  0.1199904E+04  0.7818609E-02  0.9112941E-01
        1   -1    0    0  501    0  0.00000000000E+00  0.00000000000E+00  0.36869836154E+03  0.36869836157E+03  0.50400001928E-02 0. -1.
       -1   -1    0    0    0  501  0.00000000000E+00  0.00000000000E+00 -0.97625146483E+03  0.97625146485E+03  0.50400001928E-02 0.  1.
    10030    2    1    2    0    0  0.00000000000E+00  0.00000000000E+00 -0.60755310330E+03  0.13449498264E+04  0.11999038554E+04 0.  0.
        4    1    3    3  502    0  0.47288343636E+03  0.36584661067E+03 -0.24797719521E+03  0.64726871481E+03  0.12699999809E+01 0.  1.
       -4    1    3    3    0  502 -0.47288343636E+03 -0.36584661067E+03 -0.35957590809E+03  0.69768111161E+03  0.12699999809E+01 0. -1.
</event>
<event>
 5   0  0.5620246E-05  0.1199806E+04  0.7818609E-02  0.9113027E-01
        1   -1    0    0  501    0  0.00000000000E+00  0.00000000000E+00  0.46897396317E+03  0.46897396319E+03  0.50400001928E-02 0.  1.
       -1   -1    0    0    0  501  0.00000000000E+00  0.00000000000E+00 -0.76738482866E+03  0.76738482868E+03  0.50400001928E-02 0. -1.
    10030    2    1    2    0    0  0.00000000000E+00  0.00000000000E+00 -0.29841086550E+03  0.12363587919E+04  0.11998058250E+04 0.  0.
        1    1    3    3  502    0  0.51970297373E+02 -0.49596426782E+03  0.19442366197E+03  0.53524015836E+03  0.50400001928E-02 0.  1.
       -1    1    3    3    0  502 -0.51970297373E+02  0.49596426782E+03 -0.49283452747E+03  0.70111863351E+03  0.50400001928E-02 0. -1.
</event>
<event>
 5   0  0.1012657E-04  0.1200114E+04  0.7818609E-02  0.9112757E-01
        2   -1    0    0  501    0  0.00000000000E+00  0.00000000000E+00  0.62112523505E+03  0.62112523505E+03  0.25500000920E-02 0. -1.
       -2   -1    0    0    0  501  0.00000000000E+00  0.00000000000E+00 -0.57970358296E+03  0.57970358296E+03  0.25500000920E-02 0.  1.
    10030    2    1    2    0    0  0.00000000000E+00  0.00000000000E+00  0.41421652090E+02  0.12008288180E+04  0.12001142016E+04 0.  0.
        1    1    3    3  502    0 -0.23326773997E+03  0.28591678140E+03 -0.45275829895E+03  0.58408246138E+03  0.50400001928E-02 0.  1.
       -1    1    3    3    0  502  0.23326773997E+03 -0.28591678140E+03  0.49417995104E+03  0.61674635664E+03  0.50400001928E-02 0. -1.
</event>
<event>
 5   0  0.1004006E-04  0.1200063E+04  0.7818609E-02  0.9112802E-01
       -2   -1    0    0    0  501  0.00000000000E+00  0.00000000000E+00  0.19410993503E+03  0.19410993505E+03  0.25500000920E-02 0.  1.
        2   -1    0    0  501    0  0.00000000000E+00  0.00000000000E+00 -0.18548124382E+04  0.18548124382E+04  0.25500000920E-02 0. -1.
    10030    2    1    2    0    0  0.00000000000E+00  0.00000000000E+00 -0.16607025032E+04  0.20489223732E+04  0.12000625349E+04 0.  0.
        5    1    3    3  502    0  0.21079086927E+02  0.16084244728E+03 -0.18166313239E+04  0.18238656962E+04  0.46999998093E+01 0. -1.
       -5    1    3    3    0  502 -0.21079086927E+02 -0.16084244728E+03  0.15592882074E+03  0.22505667705E+03  0.46999998093E+01 0.  1.
</event>
<event>
 5   0  0.5732931E-05  0.1199836E+04  0.7818609E-02  0.9113000E-01
       -1   -1    0    0    0  501  0.00000000000E+00  0.00000000000E+00  0.56018527254E+03  0.56018527256E+03  0.50400001928E-02 0. -1.
        1   -1    0    0  501    0  0.00000000000E+00  0.00000000000E+00 -0.64246917353E+03  0.64246917355E+03  0.50400001928E-02 0.  1.
    10030    2    1    2    0    0  0.00000000000E+00  0.00000000000E+00 -0.82283900988E+02  0.12026544461E+04  0.11998362707E+04 0.  0.
        4    1    3    3  502    0 -0.28779783486E+03 -0.26031201103E+03 -0.49972087476E+03  0.63270253865E+03  0.12699999809E+01 0.  1.
       -4    1    3    3    0  502  0.28779783486E+03  0.26031201103E+03  0.41743697378E+03  0.56995190746E+03  0.12699999809E+01 0. -1.
</event>
<event>
 5   0  0.9838215E-05  0.1200406E+04  0.7818609E-02  0.9112501E-01
        2   -1    0    0  501    0  0.00000000000E+00  0.00000000000E+00  0.15986321171E+04  0.15986321171E+04  0.25500000920E-02 0.  1.
       -2   -1    0    0    0  501  0.00000000000E+00  0.00000000000E+00 -0.22534495147E+03  0.22534495149E+03  0.25500000920E-02 0. -1.
    10030    2    1    2    0    0  0.00000000000E+00  0.00000000000E+00  0.13732871657E+04  0.18239770686E+04  0.12004060594E+04 0.  0.
        4    1    3    3  502    0  0.22280553863E+03  0.55721155806E+03  0.67034660314E+03  0.89971840579E+03  0.12699999809E+01 0.  1.
       -4    1    3    3    0  502 -0.22280553863E+03 -0.55721155806E+03  0.70294056253E+03  0.92425866284E+03  0.12699999809E+01 0. -1.
</event>
<event>
 5   0  0.9941209E-05  0.1200037E+04  0.7818609E-02  0.9112824E-01
        2   -1    0    0  501    0  0.00000000000E+00  0.00000000000E+00  0.70029131901E+03  0.70029131902E+03  0.25500000920E-02 0.  1.
       -2   -1    0    0    0  501  0.00000000000E+00  0.00000000000E+00 -0.51410386945E+03  0.51410386945E+03  0.25500000920E-02 0. -1.
    10030    2    1    2    0    0  0.00000000000E+00  0.00000000000E+00  0.18618744957E+03  0.12143951885E+04  0.12000374608E+04 0.  0.
        2    1    3    3  502    0 -0.26190876470E+02 -0.42448977241E+03  0.52141289953E+03  0.67286621307E+03  0.25500000920E-02 0.  1.
       -2    1    3    3    0  502  0.26190876470E+02  0.42448977241E+03 -0.33522544996E+03  0.54152897540E+03  0.25500000920E-02 0. -1.
</event>
<event>
 5   0  0.5620246E-05  0.1199651E+04  0.7818609E-02  0.9113162E-01
        1   -1    0    0  501    0  0.00000000000E+00  0.00000000000E+00  0.54539371864E+03  0.54539371866E+03  0.50400001928E-02 0.  1.
       -1   -1    0    0    0  501  0.00000000000E+00  0.00000000000E+00 -0.65968985342E+03  0.65968985344E+03  0.50400001928E-02 0. -1.
    10030    2    1    2    0    0  0.00000000000E+00  0.00000000000E+00 -0.11429613478E+03  0.12050835721E+04  0.11996511198E+04 0.  0.
        1    1    3    3  502    0 -0.22640176506E+03  0.52361783075E+03 -0.24334468253E+03  0.62020160145E+03  0.50400001928E-02 0. -1.
       -1    1    3    3    0  502  0.22640176506E+03 -0.52361783075E+03  0.12904854774E+03  0.58488197066E+03  0.50400001928E-02 0.  1.
</event>
<event>
 5   0  0.9941209E-05  0.1199485E+04  0.7818609E-02  0.9113308E-01
        2   -1    0    0  501    0  0.00000000000E+00  0.00000000000E+00  0.16109805177E+04  0.16109805177E+04  0.25500000920E-02 0. -1.
       -2   -1    0    0    0  501  0.00000000000E+00  0.00000000000E+00 -0.22327457031E+03  0.22327457032E+03  0.25500000920E-02 0.  1.
    10030    2    1    2    0    0  0.00000000000E+00  0.00000000000E+00  0.13877059474E+04  0.18342550880E+04  0.11994848609E+04 0.  0.
        2    1    3    3  502    0 -0.14960635258E+03  0.11212382299E+03  0.15652798748E+04  0.15764056898E+04  0.25500000920E-02 0. -1.
       -2    1    3    3    0  502  0.14960635258E+03 -0.11212382299E+03 -0.17757392746E+03  0.25784939816E+03  0.25500000920E-02 0.  1.
</event>
<event>
 5   0  0.5447807E-05  0.1199942E+04  0.7818609E-02  0.9112908E-01
        1   -1    0    0  501    0  0.00000000000E+00  0.00000000000E+00  0.66624512820E+03  0.66624512822E+03  0.50400001928E-02 0. -1.
       -1   -1    0    0    0  501  0.00000000000E+00  0.00000000000E+00 -0.54028911388E+03  0.54028911390E+03  0.50400001928E-02 0.  1.
    10030    2    1    2    0    0  0.00000000000E+00  0.00000000000E+00  0.12595601432E+03  0.12065342421E+04  0.11999416485E+04 0.  0.
        2    1    3    3  502    0  0.51785310351E+03 -0.10715635319E+03  0.34792635724E+03  0.63301427386E+03  0.25500000920E-02 0. -1.
       -2    1    3    3    0  502 -0.51785310351E+03  0.10715635319E+03 -0.22197034292E+03  0.57351996826E+03  0.25500000920E-02 0.  1.
</event>
<event>
 5   0  0.5732931E-05  0.1199940E+04  0.7818609E-02  0.9112909E-01
        1   -1    0    0  501    0  0.00000000000E+00  0.00000000000E+00  0.69677006142E+03  0.69677006144E+03  0.50400001928E-02 0.  1.
       -1   -1    0    0    0  501  0.00000000000E+00  0.00000000000E+00 -0.51661831687E+03  0.51661831690E+03  0.50400001928E-02 0. -1.
    10030    2    1    2    0    0  0.00000000000E+00  0.00000000000E+00  0.18015174455E+03  0.12133883783E+04  0.11999402925E+04 0.  0.
        4    1    3    3  502    0  0.40644402451E+03  0.74685930769E+01  0.53628080369E+03  0.67294222505E+03  0.12699999809E+01 0.  1.
       -4    1    3    3    0  502 -0.40644402451E+03 -0.74685930769E+01 -0.35612905914E+03  0.54044615329E+03  0.12699999809E+01 0. -1.
</event>
<event>
 5   0  0.1012657E-04  0.1200256E+04  0.7818609E-02  0.9112633E-01
       -2   -1    0    0    0  501  0.00000000000E+00  0.00000000000E+00  0.42911943341E+03  0.42911943342E+03  0.25500000920E-02 0.  1.
        2   -1    0    0  501    0  0.00000000000E+00  0.00000000000E+00 -0.83928501530E+03  0.83928501531E+03  0.25500000920E-02 0. -1.
    10030    2    1    2    0    0  0.00000000000E+00  0.00000000000E+00 -0.41016558189E+03  0.12684044487E+04  0.12002558231E+04 0.  0.
        1    1    3    3  502    0  0.48947293687E+03  0.34142635807E+03 -0.27190091317E+03  0.65580928669E+03  0.50400001928E-02 0. -1.
       -1    1    3    3    0  502 -0.48947293687E+03 -0.34142635807E+03 -0.13826466872E+03  0.61259516203E+03  0.50400001928E-02 0.  1.
</event>
<event>
 5   0  0.9941209E-05  0.1198238E+04  0.7818609E-02  0.9114400E-01
        2   -1    0    0  501    0  0.00000000000E+00  0.00000000000E+00  0.60865486375E+03  0.60865486376E+03  0.25500000920E-02 0.  1.
       -2   -1    0    0    0  501  0.00000000000E+00  0.00000000000E+00 -0.58973239273E+03  0.58973239274E+03  0.25500000920E-02 0. -1.
    10030    2    1    2    0    0  0.00000000000E+00  0.00000000000E+00  0.18922471018E+02  0.11983872565E+04  0.11982378548E+04 0.  0.
        2    1    3    3  502    0 -0.58498607417E+03  0.34498590772E+02 -0.11523241308E+03  0.59722472217E+03  0.25500000920E-02 0. -1.
       -2    1    3    3    0  502  0.58498607417E+03 -0.34498590772E+02  0.13415488410E+03  0.60116253432E+03  0.25500000920E-02 0.  1.
</event>
<event>
 5   0  0.5620246E-05  0.1200099E+04  0.7818609E-02  0.9112770E-01
        1   -1    0    0  501    0  0.00000000000E+00  0.00000000000E+00  0.56597623908E+03  0.56597623910E+03  0.50400001928E-02 0.  1.
       -1   -1    0    0    0  501  0.00000000000E+00  0.00000000000E+00 -0.63617419285E+03  0.63617419287E+03  0.50400001928E-02 0. -1.
    10030    2    1    2    0    0  0.00000000000E+00  0.00000000000E+00 -0.70197953772E+02  0.12021504320E+04  0.12000991244E+04 0.  0.
        1    1    3    3  502    0  0.20360819423E+03 -0.32391690205E+03 -0.49814554834E+03  0.62811419626E+03  0.50400001928E-02 0. -1.
       -1    1    3    3    0  502 -0.20360819423E+03  0.32391690205E+03  0.42794759456E+03  0.57403623571E+03  0.50400001928E-02 0.  1.
</event>
<event>
 5   0  0.5447807E-05  0.1199846E+04  0.7818609E-02  0.9112991E-01
        1   -1    0    0  501    0  0.00000000000E+00  0.00000000000E+00  0.69597123783E+03  0.69597123784E+03  0.50400001928E-02 0.  1.
       -1   -1    0    0    0  501  0.00000000000E+00  0.00000000000E+00 -0.51713022561E+03  0.51713022564E+03  0.50400001928E-02 0. -1.
    10030    2    1    2    0    0  0.00000000000E+00  0.00000000000E+00  0.17884101221E+03  0.12131014635E+04  0.11998462623E+04 0.  0.
        2    1    3    3  502    0  0.15292785249E+03 -0.35470201598E+03  0.55352025162E+03  0.67497045652E+03  0.25500000920E-02 0.  1.
       -2    1    3    3    0  502 -0.15292785249E+03  0.35470201598E+03 -0.37467923941E+03  0.53813100697E+03  0.25500000920E-02 0. -1.
</event>
<event>
 5   0  0.1012657E-04  0.1199900E+04  0.7818609E-02  0.9112944E-01
        2   -1    0    0  501    0  0.00000000000E+00  0.00000000000E+00  0.11370389865E+04  0.11370389865E+04  0.25500000920E-02 0. -1.
       -2   -1    0    0    0  501  0.00000000000E+00  0.00000000000E+00 -0.31655913498E+03  0.31655913499E+03  0.25500000920E-02 0.  1.
    10030    2    1    2    0    0  0.00000000000E+00  0.00000000000E+00  0.82047985151E+03  0.14535981215E+04  0.11999001259E+04 0.  0.
        1    1    3    3  502    0 -0.59139123993E+03 -0.12144411609E+02  0.53167957859E+03  0.79534537134E+03  0.50400001928E-02 0.  1.
       -1    1    3    3    0  502  0.59139123993E+03  0.12144411609E+02  0.28880027292E+03  0.65825275014E+03  0.50400001928E-02 0. -1.
</event>
<event>
 5   0  0.5447807E-05  0.1200656E+04  0.7818609E-02  0.9112282E-01
        1   -1    0    0  501    0  0.00000000000E+00  0.00000000000E+00  0.45842987947E+03  0.45842987950E+03  0.50400001928E-02 0.  1.
       -1   -1    0    0    0  501  0.00000000000E+00  0.00000000000E+00 -0.78614838575E+03  0.78614838577E+03  0.50400001928E-02 0. -1.
    10030    2    1    2    0    0  0.00000000000E+00  0.00000000000E+00 -0.32771850628E+03  0.12445782653E+04  0.12006563368E+04 0.  0.
        2    1    3    3  502    0  0.33674312619E+03 -0.49672989929E+03 -0.18048932586E+03  0.62666811204E+03  0.25500000920E-02 0.  1.
       -2    1    3    3    0  502 -0.33674312619E+03  0.49672989929E+03 -0.14722918042E+03  0.61791015323E+03  0.25500000920E-02 0. -1.
</event>
<event>
 5   0  0.5745487E-05  0.1199959E+04  0.7818609E-02  0.9112892E-01
       -1   -1    0    0    0  501  0.00000000000E+00  0.00000000000E+00  0.78062727406E+03  0.78062727407E+03  0.50400001928E-02 0. -1.
        1   -1    0    0  501    0  0.00000000000E+00  0.00000000000E+00 -0.46113639734E+03  0.46113639737E+03  0.50400001928E-02 0.  1.
    10030    2    1    2    0    0  0.00000000000E+00  0.00000000000E+00  0.31949087671E+03  0.12417636714E+04  0.11999594141E+04 0.  0.
        3    1    3    3  502    0 -0.42471866803E+03  0.21300540301E+03 -0.21937605409E+03  0.52333842969E+03  0.10100000352E+00 0.  1.
       -3    1    3    3    0  502  0.42471866803E+03 -0.21300540301E+03  0.53886693080E+03  0.71842524176E+03  0.10100000352E+00 0. -1.
</event>
<event>
 5   0  0.9838215E-05  0.1202498E+04  0.7818609E-02  0.9110673E-01
       -2   -1    0    0    0  501  0.00000000000E+00  0.00000000000E+00  0.11616345242E+04  0.11616345242E+04  0.25500000920E-02 0.  1.
        2   -1    0    0  501    0  0.00000000000E+00  0.00000000000E+00 -0.31119955493E+03  0.31119955494E+03  0.25500000920E-02 0. -1.
    10030    2    1    2    0    0  0.00000000000E+00  0.00000000000E+00  0.85043496927E+03  0.14728340792E+04  0.12024976456E+04 0.  0.
        4    1    3    3  502    0 -0.48682505786E+03 -0.16286017813E+03  0.41836595286E+02  0.51504755915E+03  0.12699999809E+01 0. -1.
       -4    1    3    3    0  502  0.48682505786E+03  0.16286017813E+03  0.80859837398E+03  0.95778652000E+03  0.12699999809E+01 0.  1.
</event>
<event>
 5   0  0.9838215E-05  0.1199493E+04  0.7818609E-02  0.9113300E-01
        2   -1    0    0  501    0  0.00000000000E+00  0.00000000000E+00  0.16642529081E+04  0.16642529081E+04  0.25500000920E-02 0.  1.
       -2   -1    0    0    0  501  0.00000000000E+00  0.00000000000E+00 -0.21613056216E+03  0.21613056217E+03  0.25500000920E-02 0. -1.
    10030    2    1    2    0    0  0.00000000000E+00  0.00000000000E+00  0.14481223459E+04  0.18803834703E+04  0.11994930873E+04 0.  0.
        4    1    3    3  502    0 -0.37510752850E+03  0.18322496233E+03  0.49030117181E+02  0.42033630589E+03  0.12699999809E+01 0. -1.
       -4    1    3    3    0  502  0.37510752850E+03 -0.18322496233E+03  0.13990922287E+04  0.14600471644E+04  0.12699999809E+01 0.  1.
</event>
<event>
 5   0  0.9838215E-05  0.1201097E+04  0.7818609E-02  0.9111897E-01
       -2   -1    0    0    0  501  0.00000000000E+00  0.00000000000E+00  0.49825854377E+03  0.49825854378E+03  0.25500000920E-02 0.  1.
        2   -1    0    0  501    0  0.00000000000E+00  0.00000000000E+00 -0.72383816408E+03  0.72383816408E+03  0.25500000920E-02 0. -1.
    10030    2    1    2    0    0  0.00000000000E+00  0.00000000000E+00 -0.22557962030E+03  0.12220967079E+04  0.12010970811E+04 0.  0.
        4    1    3    3  502    0 -0.47026875051E+03 -0.26800973956E+03 -0.37748232127E+03  0.65990638274E+03  0.12699999809E+01 0. -1.
       -4    1    3    3    0  502  0.47026875051E+03  0.26800973956E+03  0.15190270097E+03  0.56219032513E+03  0.12699999809E+01 0.  1.
</event>
<event>
 5   0  0.1023063E-04  0.1200173E+04  0.7818609E-02  0.9112705E-01
       -2   -1    0    0    0  501  0.00000000000E+00  0.00000000000E+00  0.73731159121E+03  0.73731159122E+03  0.25500000920E-02 0.  1.
        2   -1    0    0  501    0  0.00000000000E+00  0.00000000000E+00 -0.48840105498E+03  0.48840105498E+03  0.25500000920E-02 0. -1.
    10030    2    1    2    0    0  0.00000000000E+00  0.00000000000E+00  0.24891053624E+03  0.12257126462E+04  0.12001729192E+04 0.  0.
        3    1    3    3  502    0  0.58935931374E+03 -0.28624899280E+02  0.23605067984E+03  0.63551846488E+03  0.10100000352E+00 0.  1.
       -3    1    3    3    0  502 -0.58935931374E+03  0.28624899280E+02  0.12859856396E+02  0.59019418132E+03  0.10100000352E+00 0. -1.
</event>
<event>
 5   0  0.5620246E-05  0.1199468E+04  0.7818609E-02  0.9113322E-01
       -1   -1    0    0    0  501  0.00000000000E+00  0.00000000000E+00  0.66583135695E+03  0.66583135697E+03  0.50400001928E-02 0.  1.
        1   -1    0    0  501    0  0.00000000000E+00  0.00000000000E+00 -0.54019801267E+03  0.54019801269E+03  0.50400001928E-02 0. -1.
    10030    2    1    2    0    0  0.00000000000E+00  0.00000000000E+00  0.12563334428E+03  0.12060293697E+04  0.11994678417E+04 0.  0.
        1    1    3    3  502    0  0.39773611492E+03 -0.29218573045E+03  0.40543615095E+03  0.63870571526E+03  0.50400001928E-02 0.  1.
       -1    1    3    3    0  502 -0.39773611492E+03  0.29218573045E+03 -0.27980280666E+03  0.56732365439E+03  0.50400001928E-02 0. -1.
</event>
<event>
 5   0  0.9941209E-05  0.1200024E+04  0.7818609E-02  0.9112835E-01
       -2   -1    0    0    0  501  0.00000000000E+00  0.00000000000E+00  0.35832949102E+03  0.35832949103E+03  0.25500000920E-02 0. -1.
        2   -1    0    0  501    0  0.00000000000E+00  0.00000000000E+00 -0.10047028129E+04  0.10047028129E+04  0.25500000920E-02 0.  1.
    10030    2    1    2    0    0  0.00000000000E+00  0.00000000000E+00 -0.64637332191E+03  0.13630323040E+04  0.12000244124E+04 0.  0.
        2    1    3    3  502    0  0.53006193184E+02 -0.56418409828E+03 -0.99160831832E+02  0.57527925727E+03  0.25500000920E-02 0. -1.
       -2    1    3    3    0  502 -0.53006193184E+02  0.56418409828E+03 -0.54721249008E+03  0.78775304669E+03  0.25500000920E-02 0.  1.
</event>
<event>
 5   0  0.1012657E-04  0.1200405E+04  0.7818609E-02  0.9112502E-01
        2   -1    0    0  501    0  0.00000000000E+00  0.00000000000E+00  0.14761774139E+04  0.14761774139E+04  0.25500000920E-02 0.  1.
       -2   -1    0    0    0  501  0.00000000000E+00  0.00000000000E+00 -0.24403777407E+03  0.24403777409E+03  0.25500000920E-02 0. -1.
    10030    2    1    2    0    0  0.00000000000E+00  0.00000000000E+00  0.12321396398E+04  0.17202151880E+04  0.12004050154E+04 0.  0.
        1    1    3    3  502    0 -0.38754325027E+03 -0.45009428676E+03  0.49222748761E+03  0.77140296693E+03  0.50400001928E-02 0.  1.
       -1    1    3    3    0  502  0.38754325027E+03  0.45009428676E+03  0.73991215220E+03  0.94881222105E+03  0.50400001928E-02 0. -1.
</event>
<event>
 5   0  0.5447807E-05  0.1199814E+04  0.7818609E-02  0.9113019E-01
       -1   -1    0    0    0  501  0.00000000000E+00  0.00000000000E+00  0.78604756283E+03  0.78604756284E+03  0.50400001928E-02 0.  1.
        1   -1    0    0  501    0  0.00000000000E+00  0.00000000000E+00 -0.45784575934E+03  0.45784575937E+03  0.50400001928E-02 0. -1.
    10030    2    1    2    0    0  0.00000000000E+00  0.00000000000E+00  0.32820180348E+03  0.12438933222E+04  0.11998142245E+04 0.  0.
        2    1    3    3  502    0  0.36761320925E+03  0.40047603957E+03  0.42713023421E+03  0.69134706687E+03  0.25500000920E-02 0.  1.
       -2    1    3    3    0  502 -0.36761320925E+03 -0.40047603957E+03 -0.98928430726E+02  0.55254625535E+03  0.25500000920E-02 0. -1.
</event>
<event>
 5   0  0.5447807E-05  0.1199932E+04  0.7818609E-02  0.9112916E-01
       -1   -1    0    0    0  501  0.00000000000E+00  0.00000000000E+00  0.71511752355E+03  0.71511752357E+03  0.50400001928E-02 0. -1.
        1   -1    0    0  501    0  0.00000000000E+00  0.00000000000E+00 -0.50335677541E+03  0.50335677544E+03  0.50400001928E-02 0.  1.
    10030    2    1    2    0    0  0.00000000000E+00  0.00000000000E+00  0.21176074814E+03  0.12184742990E+04  0.11999320826E+04 0.  0.
        2    1    3    3  502    0 -0.50822014733E+03 -0.31190056903E+03  0.17315798774E+03  0.62092944192E+03  0.25500000920E-02 0. -1.
       -2    1    3    3    0  502  0.50822014733E+03  0.31190056903E+03  0.38602760391E+02  0.59754485709E+03  0.25500000920E-02 0.  1.
</event>
<event>
 5   0  0.9838215E-05  0.1199416E+04  0.7818609E-02  0.9113368E-01
        2   -1    0    0  501    0  0.00000000000E+00  0.00000000000E+00  0.58502582620E+03  0.58502582621E+03  0.25500000920E-02 0.  1.
       -2   -1    0    0    0  501  0.00000000000E+00  0.00000000000E+00 -0.61475902142E+03  0.61475902143E+03  0.25500000920E-02 0. -1.
    10030    2    1    2    0    0  0.00000000000E+00  0.00000000000E+00 -0.29733195218E+02  0.11997848476E+04  0.11994163655E+04 0.  0.
        4    1    3    3  502    0  0.39217531283E+03 -0.38669604208E+03  0.22250988100E+03  0.59400973477E+03  0.12699999809E+01 0.  1.
       -4    1    3    3    0  502 -0.39217531283E+03  0.38669604208E+03 -0.25224307622E+03  0.60577511286E+03  0.12699999809E+01 0. -1.
</event>
<event>
 5   0  0.9838215E-05  0.1200284E+04  0.7818609E-02  0.9112608E-01
       -2   -1    0    0    0  501  0.00000000000E+00  0.00000000000E+00  0.34398814748E+03  0.34398814748E+03  0.25500000920E-02 0. -1.
        2   -1    0    0  501    0  0.00000000000E+00  0.00000000000E+00 -0.10470432956E+04  0.10470432956E+04  0.25500000920E-02 0.  1.
    10030    2    1    2    0    0  0.00000000000E+00  0.00000000000E+00 -0.70305514809E+03  0.13910314431E+04  0.12002841057E+04 0.  0.
        4    1    3    3  502    0 -0.28750124190E+02  0.50950802076E+03  0.14485008974E+02  0.51052563231E+03  0.12699999809E+01 0.  1.
       -4    1    3    3    0  502  0.28750124190E+02 -0.50950802076E+03 -0.71754015706E+03  0.88050581075E+03  0.12699999809E+01 0. -1.
</event>
<event>
 5   0  0.9838215E-05  0.1199634E+04  0.7818609E-02  0.9113177E-01
       -2   -1    0    0    0  501  0.00000000000E+00  0.00000000000E+00  0.23666032915E+03  0.23666032916E+03  0.25500000920E-02 0. -1.
        2   -1    0    0  501    0  0.00000000000E+00  0.00000000000E+00 -0.15202405261E+04  0.15202405261E+04  0.25500000920E-02 0.  1.
    10030    2    1    2    0    0  0.00000000000E+00  0.00000000000E+00 -0.12835801970E+04  0.17569008553E+04  0.11996343165E+04 0.  0.
        4    1    3    3  502    0  0.31916840281E+03 -0.28619707721E+03 -0.27382049662E+02  0.42956795260E+03  0.12699999809E+01 0. -1.
       -4    1    3    3    0  502 -0.31916840281E+03  0.28619707721E+03 -0.12561981473E+04  0.13273329027E+04  0.12699999809E+01 0.  1.
</event>
<event>
 5   0  0.5745487E-05  0.1200337E+04  0.7818609E-02  0.9112561E-01
        1   -1    0    0  501    0  0.00000000000E+00  0.00000000000E+00  0.79541230898E+03  0.79541230900E+03  0.50400001928E-02 0.  1.
       -1   -1    0    0    0  501  0.00000000000E+00  0.00000000000E+00 -0.45284998906E+03  0.45284998909E+03  0.50400001928E-02 0. -1.
    10030    2    1    2    0    0  0.00000000000E+00  0.00000000000E+00  0.34256231992E+03  0.12482622981E+04  0.12003373783E+04 0.  0.
        3    1    3    3  502    0  0.25376738066E+03 -0.53594075725E+03  0.74999118794E+02  0.59770833756E+03  0.10100000352E+00 0.  1.
       -3    1    3    3    0  502 -0.25376738066E+03  0.53594075725E+03  0.26756320112E+03  0.65055396053E+03  0.10100000352E+00 0. -1.
</event>
<event>
 5   0  0.3839750E-05  0.1201089E+04  0.7818609E-02  0.9111904E-01
        3   -1    0    0  501    0  0.00000000000E+00  0.00000000000E+00  0.30149151693E+03  0.30149153385E+03  0.10100000352E+00 0.  1.
       -3   -1    0    0    0  501  0.00000000000E+00  0.00000000000E+00 -0.11962311117E+04  0.11962311160E+04  0.10100000352E+00 0. -1.
    10030    2    1    2    0    0  0.00000000000E+00  0.00000000000E+00 -0.89473959478E+03  0.14977226498E+04  0.12010887533E+04 0.  0.
        3    1    3    3  502    0  0.11475266972E+03 -0.11542859870E+03 -0.11682026455E+04  0.11794869087E+04  0.10100000352E+00 0. -1.
       -3    1    3    3    0  502 -0.11475266972E+03  0.11542859870E+03  0.27346305074E+03  0.31823574112E+03  0.10100000352E+00 0.  1.
</event>
<event>
 5   0  0.5745487E-05  0.1199103E+04  0.7818609E-02  0.9113642E-01
        1   -1    0    0  501    0  0.00000000000E+00  0.00000000000E+00  0.93045160867E+03  0.93045160869E+03  0.50400001928E-02 0.  1.
       -1   -1    0    0    0  501  0.00000000000E+00  0.00000000000E+00 -0.38633050667E+03  0.38633050670E+03  0.50400001928E-02 0. -1.
    10030    2    1    2    0    0  0.00000000000E+00  0.00000000000E+00  0.54412110200E+03  0.13167821154E+04  0.11991027336E+04 0.  0.
        3    1    3    3  502    0  0.18172684898E+02 -0.45461508437E+03  0.70083687609E+03  0.83557013979E+03  0.10100000352E+00 0.  1.
       -3    1    3    3    0  502 -0.18172684898E+02  0.45461508437E+03 -0.15671577409E+03  0.48121197561E+03  0.10100000352E+00 0. -1.
</event>
<event>
 5   0  0.9941209E-05  0.1202188E+04  0.7818609E-02  0.9110943E-01
       -2   -1    0    0    0  501  0.00000000000E+00  0.00000000000E+00  0.99725823796E+03  0.99725823796E+03  0.25500000920E-02 0. -1.
        2   -1    0    0  501    0  0.00000000000E+00  0.00000000000E+00 -0.36230753283E+03  0.36230753283E+03  0.25500000920E-02 0.  1.
    10030    2    1    2    0    0  0.00000000000E+00  0.00000000000E+00  0.63495070514E+03  0.13595657708E+04  0.12021882911E+04 0.  0.
        2    1    3    3  502    0 -0.47298542637E+03  0.78906396600E+02 -0.92426947478E+02  0.48834841416E+03  0.25500000920E-02 0.  1.
       -2    1    3    3    0  502  0.47298542637E+03 -0.78906396600E+02  0.72737765261E+03  0.87121735664E+03  0.25500000920E-02 0. -1.
</event>
<event>
 5   0  0.5447807E-05  0.1199442E+04  0.7818609E-02  0.9113345E-01
       -1   -1    0    0    0  501  0.00000000000E+00  0.00000000000E+00  0.23580893505E+03  0.23580893510E+03  0.50400001928E-02 0. -1.
        1   -1    0    0  501    0  0.00000000000E+00  0.00000000000E+00 -0.15252411856E+04  0.15252411856E+04  0.50400001928E-02 0.  1.
    10030    2    1    2    0    0  0.00000000000E+00  0.00000000000E+00 -0.12894322506E+04  0.17610501207E+04  0.11994423700E+04 0.  0.
        2    1    3    3  502    0  0.16480007882E+03  0.55026423103E+03 -0.89781218533E+03  0.10658407527E+04  0.25500000920E-02 0.  1.
       -2    1    3    3    0  502 -0.16480007882E+03 -0.55026423103E+03 -0.39162006524E+03  0.69520936806E+03  0.25500000920E-02 0. -1.
</event>
<event>
 5   0  0.5447807E-05  0.1200821E+04  0.7818609E-02  0.9112138E-01
        1   -1    0    0  501    0  0.00000000000E+00  0.00000000000E+00  0.13765224313E+04  0.13765224313E+04  0.50400001928E-02 0.  1.
       -1   -1    0    0    0  501  0.00000000000E+00  0.00000000000E+00 -0.26188666927E+03  0.26188666932E+03  0.50400001928E-02 0. -1.
    10030    2    1    2    0    0  0.00000000000E+00  0.00000000000E+00  0.11146357620E+04  0.16384091006E+04  0.12008211769E+04 0.  0.
        2    1    3    3  502    0  0.22986197864E+02 -0.52901581981E+03  0.94348796687E+03  0.10819221999E+04  0.25500000920E-02 0.  1.
       -2    1    3    3    0  502 -0.22986197864E+02  0.52901581981E+03  0.17114779512E+03  0.55648690073E+03  0.25500000920E-02 0. -1.
</event>
<event>
 5   0  0.5620246E-05  0.1200171E+04  0.7818609E-02  0.9112706E-01
       -1   -1    0    0    0  501  0.00000000000E+00  0.00000000000E+00  0.73035495285E+03  0.73035495286E+03  0.50400001928E-02 0. -1.
        1   -1    0    0  501    0  0.00000000000E+00  0.00000000000E+00 -0.49305186648E+03  0.49305186650E+03  0.50400001928E-02 0.  1.
    10030    2    1    2    0    0  0.00000000000E+00  0.00000000000E+00  0.23730308637E+03  0.12234068194E+04  0.12001714423E+04 0.  0.
        1    1    3    3  502    0 -0.59085649790E+03  0.41877618651E+02  0.20677643100E+02  0.59269950313E+03  0.50400001928E-02 0.  1.
       -1    1    3    3    0  502  0.59085649790E+03 -0.41877618651E+02  0.21662544327E+03  0.63070731624E+03  0.50400001928E-02 0. -1.
</event>
<event>
 5   0  0.9941209E-05  0.1199946E+04  0.7818609E-02  0.9112904E-01
       -2   -1    0    0    0  501  0.00000000000E+00  0.00000000000E+00  0.23355826082E+03  0.23355826084E+03  0.25500000920E-02 0. -1.
        2   -1    0    0  501    0  0.00000000000E+00  0.00000000000E+00 -0.15412323701E+04  0.15412323701E+04  0.25500000920E-02 0.  1.
    10030    2    1    2    0    0  0.00000000000E+00  0.00000000000E+00 -0.13076741093E+04  0.17747906309E+04  0.11999459186E+04 0.  0.
        2    1    3    3  502    0 -0.26889814086E+03  0.47443456833E+03 -0.10238181852E+04  0.11599991578E+04  0.25500000920E-02 0.  1.
       -2    1    3    3    0  502  0.26889814086E+03 -0.47443456833E+03 -0.28385592410E+03  0.61479147313E+03  0.25500000920E-02 0. -1.
</event>
<event>
 5   0  0.9838215E-05  0.1199943E+04  0.7818609E-02  0.9112906E-01
        2   -1    0    0  501    0  0.00000000000E+00  0.00000000000E+00  0.53141213948E+03  0.53141213948E+03  0.25500000920E-02 0. -1.
       -2   -1    0    0    0  501  0.00000000000E+00  0.00000000000E+00 -0.67737606819E+03  0.67737606819E+03  0.25500000920E-02 0.  1.
    10030    2    1    2    0    0  0.00000000000E+00  0.00000000000E+00 -0.14596392871E+03  0.12087882077E+04  0.11999431080E+04 0.  0.
        4    1    3    3  502    0  0.34953440430E+03 -0.34871619588E+03  0.27039271557E+03  0.56293082931E+03  0.12699999809E+01 0. -1.
       -4    1    3    3    0  502 -0.34953440430E+03  0.34871619588E+03 -0.41635664428E+03  0.64585737837E+03  0.12699999809E+01 0.  1.
</event>
<event>
 5   0  0.5620246E-05  0.1199923E+04  0.7818609E-02  0.9112924E-01
       -1   -1    0    0    0  501  0.00000000000E+00  0.00000000000E+00  0.38394453453E+03  0.38394453456E+03  0.50400001928E-02 0. -1.
        1   -1    0    0  501    0  0.00000000000E+00  0.00000000000E+00 -0.93751526191E+03  0.93751526193E+03  0.50400001928E-02 0.  1.
    10030    2    1    2    0    0  0.00000000000E+00  0.00000000000E+00 -0.55357072738E+03  0.13214597965E+04  0.11999230990E+04 0.  0.
        1    1    3    3  502    0  0.59074563188E+02 -0.25902923977E+03  0.31562919759E+03  0.41256240918E+03  0.50400001928E-02 0. -1.
       -1    1    3    3    0  502 -0.59074563188E+02  0.25902923977E+03 -0.86919992497E+03  0.90889738731E+03  0.50400001928E-02 0.  1.
</event>
<event>
 5   0  0.1012657E-04  0.1199539E+04  0.7818609E-02  0.9113260E-01
       -2   -1    0    0    0  501  0.00000000000E+00  0.00000000000E+00  0.12970852437E+04  0.12970852437E+04  0.25500000920E-02 0. -1.
        2   -1    0    0  501    0  0.00000000000E+00  0.00000000000E+00 -0.27733198285E+03  0.27733198286E+03  0.25500000920E-02 0.  1.
    10030    2    1    2    0    0  0.00000000000E+00  0.00000000000E+00  0.10197532608E+04  0.15744172265E+04  0.11995386156E+04 0.  0.
        1    1    3    3  502    0  0.45081461037E+03 -0.31811032728E+03  0.81851465540E+03  0.98711409390E+03  0.50400001928E-02 0.  1.
       -1    1    3    3    0  502 -0.45081461037E+03  0.31811032728E+03  0.20123860541E+03  0.58730313262E+03  0.50400001928E-02 0. -1.
</event>
<event>
 5   0  0.5447807E-05  0.1198899E+04  0.7818609E-02  0.9113821E-01
       -1   -1    0    0    0  501  0.00000000000E+00  0.00000000000E+00  0.39460573889E+03  0.39460573892E+03  0.50400001928E-02 0.  1.
        1   -1    0    0  501    0  0.00000000000E+00  0.00000000000E+00 -0.91062939400E+03  0.91062939401E+03  0.50400001928E-02 0. -1.
    10030    2    1    2    0    0  0.00000000000E+00  0.00000000000E+00 -0.51602365510E+03  0.13052351329E+04  0.11988988029E+04 0.  0.
        2    1    3    3  502    0  0.54801921348E+03  0.19008384886E+03 -0.93324776262E+02  0.58750867382E+03  0.25500000920E-02 0.  1.
       -2    1    3    3    0  502 -0.54801921348E+03 -0.19008384886E+03 -0.42269887884E+03  0.71772645912E+03  0.25500000920E-02 0. -1.
</event>
<event>
 5   0  0.5732931E-05  0.1199666E+04  0.7818609E-02  0.9113149E-01
        1   -1    0    0  501    0  0.00000000000E+00  0.00000000000E+00  0.11787926683E+04  0.11787926683E+04  0.50400001928E-02 0. -1.
       -1   -1    0    0    0  501  0.00000000000E+00  0.00000000000E+00 -0.30522708858E+03  0.30522708862E+03  0.50400001928E-02 0.  1.
    10030    2    1    2    0    0  0.00000000000E+00  0.00000000000E+00  0.87356557969E+03  0.14840197569E+04  0.11996657105E+04 0.  0.
        4    1    3    3  502    0  0.38960177371E+03  0.13716227392E+03  0.97484692649E+03  0.10587403716E+04  0.12699999809E+01 0. -1.
       -4    1    3    3    0  502 -0.38960177371E+03 -0.13716227392E+03 -0.10128134679E+03  0.42527938531E+03  0.12699999809E+01 0.  1.
</event>
<event>
 5   0  0.5620246E-05  0.1200357E+04  0.7818609E-02  0.9112544E-01
        1   -1    0    0  501    0  0.00000000000E+00  0.00000000000E+00  0.20001811748E+04  0.20001811748E+04  0.50400001928E-02 0.  1.
       -1   -1    0    0    0  501  0.00000000000E+00  0.00000000000E+00 -0.18009080158E+03  0.18009080165E+03  0.50400001928E-02 0. -1.
    10030    2    1    2    0    0  0.00000000000E+00  0.00000000000E+00  0.18200903733E+04  0.21802719765E+04  0.12003569988E+04 0.  0.
        1    1    3    3  502    0  0.30798473716E+03 -0.73575642633E+02 -0.16021002734E+02  0.31705621910E+03  0.50400001928E-02 0. -1.
       -1    1    3    3    0  502 -0.30798473716E+03  0.73575642633E+02  0.18361113760E+04  0.18632157574E+04  0.50400001928E-02 0.  1.
</event>
<event>
 5   0  0.5620246E-05  0.1199959E+04  0.7818609E-02  0.9112892E-01
        1   -1    0    0  501    0  0.00000000000E+00  0.00000000000E+00  0.32564275436E+03  0.32564275440E+03  0.50400001928E-02 0. -1.
       -1   -1    0    0    0  501  0.00000000000E+00  0.00000000000E+00 -0.11054308925E+04  0.11054308925E+04  0.50400001928E-02 0.  1.
    10030    2    1    2    0    0  0.00000000000E+00  0.00000000000E+00 -0.77978813816E+03  0.14310736469E+04  0.11999592670E+04 0.  0.
        1    1    3    3  502    0  0.22469386680E+03  0.84402963544E+02 -0.10456780209E+04  0.10728717153E+04  0.50400001928E-02 0.  1.
       -1    1    3    3    0  502 -0.22469386680E+03 -0.84402963544E+02  0.26588988277E+03  0.35820193162E+03  0.50400001928E-02 0. -1.
</event>
<event>
 5   0  0.5620246E-05  0.1200228E+04  0.7818609E-02  0.9112657E-01
       -1   -1    0    0    0  501  0.00000000000E+00  0.00000000000E+00  0.14970829222E+03  0.14970829230E+03  0.50400001928E-02 0.  1.
        1   -1    0    0  501    0  0.00000000000E+00  0.00000000000E+00 -0.24055907006E+04  0.24055907006E+04  0.50400001928E-02 0. -1.
    10030    2    1    2    0    0  0.00000000000E+00  0.00000000000E+00 -0.22558824084E+04  0.25552989929E+04  0.12002281044E+04 0.  0.
        1    1    3    3  502    0 -0.17107514836E+03 -0.42423838370E+03 -0.19549516330E+04  0.20077551643E+04  0.50400001928E-02 0. -1.
       -1    1    3    3    0  502  0.17107514836E+03  0.42423838370E+03 -0.30093077538E+03  0.54754382855E+03  0.50400001928E-02 0.  1.
</event>
<event>
 5   0  0.5447807E-05  0.1200274E+04  0.7818609E-02  0.9112617E-01
       -1   -1    0    0    0  501  0.00000000000E+00  0.00000000000E+00  0.40880699018E+03  0.40880699021E+03  0.50400001928E-02 0. -1.
        1   -1    0    0  501    0  0.00000000000E+00  0.00000000000E+00 -0.88101301255E+03  0.88101301257E+03  0.50400001928E-02 0.  1.
    10030    2    1    2    0    0  0.00000000000E+00  0.00000000000E+00 -0.47220602237E+03  0.12898200028E+04  0.12002737654E+04 0.  0.
        2    1    3    3  502    0  0.45183202903E+03 -0.36643314104E+03 -0.77662197589E+02  0.58690446092E+03  0.25500000920E-02 0. -1.
       -2    1    3    3    0  502 -0.45183202903E+03  0.36643314104E+03 -0.39454382478E+03  0.70291554186E+03  0.25500000920E-02 0.  1.
</event>
<event>
 5   0  0.5732931E-05  0.1200256E+04  0.7818609E-02  0.9112633E-01
       -1   -1    0    0    0  501  0.00000000000E+00  0.00000000000E+00  0.41015828723E+03  0.41015828726E+03  0.50400001928E-02 0. -1.
        1   -1    0    0  501    0  0.00000000000E+00  0.00000000000E+00 -0.87808374332E+03  0.87808374334E+03  0.50400001928E-02 0.  1.
    10030    2    1    2    0    0  0.00000000000E+00  0.00000000000E+00 -0.46792545610E+03  0.12882420306E+04  0.12002555132E+04 0.  0.
        4    1    3    3  502    0  0.16662762439E+03  0.55939258919E+03 -0.84210980021E+02  0.58972700134E+03  0.12699999809E+01 0. -1.
       -4    1    3    3    0  502 -0.16662762439E+03 -0.55939258919E+03 -0.38371447607E+03  0.69851502926E+03  0.12699999809E+01 0.  1.
</event>
<event>
 5   0  0.9941209E-05  0.1200348E+04  0.7818609E-02  0.9112552E-01
        2   -1    0    0  501    0  0.00000000000E+00  0.00000000000E+00  0.20806255458E+03  0.20806255460E+03  0.25500000920E-02 0.  1.
       -2   -1    0    0    0  501  0.00000000000E+00  0.00000000000E+00 -0.17312537794E+04  0.17312537794E+04  0.25500000920E-02 0. -1.
    10030    2    1    2    0    0  0.00000000000E+00  0.00000000000E+00 -0.15231912249E+04  0.19393163340E+04  0.12003484227E+04 0.  0.
        2    1    3    3  502    0  0.43725351823E+02 -0.59145378167E+03 -0.91037030349E+03  0.10865098121E+04  0.25500000920E-02 0.  1.
       -2    1    3    3    0  502 -0.43725351823E+02  0.59145378167E+03 -0.61282092137E+03  0.85280652197E+03  0.25500000920E-02 0. -1.
</event>
<event>
 5   0  0.5447807E-05  0.1199996E+04  0.7818609E-02  0.9112860E-01
       -1   -1    0    0    0  501  0.00000000000E+00  0.00000000000E+00  0.42915805614E+03  0.42915805617E+03  0.50400001928E-02 0.  1.
        1   -1    0    0  501    0  0.00000000000E+00  0.00000000000E+00 -0.83884639758E+03  0.83884639760E+03  0.50400001928E-02 0. -1.
    10030    2    1    2    0    0  0.00000000000E+00  0.00000000000E+00 -0.40968834144E+03  0.12680044538E+04  0.11999961490E+04 0.  0.
        2    1    3    3  502    0  0.20341740946E+03 -0.49804512205E+03  0.75861575718E+02  0.54330706304E+03  0.25500000920E-02 0.  1.
       -2    1    3    3    0  502 -0.20341740946E+03  0.49804512205E+03 -0.48554991716E+03  0.72469739073E+03  0.25500000920E-02 0. -1.
</event>
<event>
 5   0  0.5625746E-05  0.1200054E+04  0.7818609E-02  0.9112809E-01
       -1   -1    0    0    0  501  0.00000000000E+00  0.00000000000E+00  0.46438710256E+03  0.46438710259E+03  0.50400001928E-02 0. -1.
        1   -1    0    0  501    0  0.00000000000E+00  0.00000000000E+00 -0.77528501655E+03  0.77528501656E+03  0.50400001928E-02 0.  1.
    10030    2    1    2    0    0  0.00000000000E+00  0.00000000000E+00 -0.31089791398E+03  0.12396721192E+04  0.12000539363E+04 0.  0.
        5    1    3    3  502    0  0.54801147430E+03 -0.16455960986E+03 -0.34200399362E+03  0.66662227896E+03  0.46999998093E+01 0. -1.
       -5    1    3    3    0  502 -0.54801147430E+03  0.16455960986E+03  0.31106079636E+02  0.57304984019E+03  0.46999998093E+01 0.  1.
</event>
<event>
 5   0  0.1012657E-04  0.1200477E+04  0.7818609E-02  0.9112439E-01
        2   -1    0    0  501    0  0.00000000000E+00  0.00000000000E+00  0.88569080957E+03  0.88569080958E+03  0.25500000920E-02 0. -1.
       -2   -1    0    0    0  501  0.00000000000E+00  0.00000000000E+00 -0.40678546945E+03  0.40678546946E+03  0.25500000920E-02 0.  1.
    10030    2    1    2    0    0  0.00000000000E+00  0.00000000000E+00  0.47890534012E+03  0.12924762790E+04  0.12004768249E+04 0.  0.
        1    1    3    3  502    0 -0.29724769260E+03 -0.27774853400E+03 -0.23571551013E+03  0.47017256475E+03  0.50400001928E-02 0.  1.
       -1    1    3    3    0  502  0.29724769260E+03  0.27774853400E+03  0.71462085025E+03  0.82230371429E+03  0.50400001928E-02 0. -1.
</event>
<event>
 5   0  0.1012657E-04  0.1199909E+04  0.7818609E-02  0.9112936E-01
       -2   -1    0    0    0  501  0.00000000000E+00  0.00000000000E+00  0.20664501023E+03  0.20664501025E+03  0.25500000920E-02 0.  1.
        2   -1    0    0  501    0  0.00000000000E+00  0.00000000000E+00 -0.17418551410E+04  0.17418551410E+04  0.25500000920E-02 0. -1.
    10030    2    1    2    0    0  0.00000000000E+00  0.00000000000E+00 -0.15352101308E+04  0.19485001512E+04  0.11999094523E+04 0.  0.
        1    1    3    3  502    0  0.14797694965E+03  0.11006280908E+03 -0.16946851495E+04  0.17046902228E+04  0.50400001928E-02 0. -1.
       -1    1    3    3    0  502 -0.14797694965E+03 -0.11006280908E+03  0.15947501878E+03  0.24380992845E+03  0.50400001928E-02 0.  1.
</event>
<event>
 5   0  0.9941209E-05  0.1199592E+04  0.7818609E-02  0.9113214E-01
       -2   -1    0    0    0  501  0.00000000000E+00  0.00000000000E+00  0.32592422119E+03  0.32592422120E+03  0.25500000920E-02 0.  1.
        2   -1    0    0  501    0  0.00000000000E+00  0.00000000000E+00 -0.11038000190E+04  0.11038000190E+04  0.25500000920E-02 0. -1.
    10030    2    1    2    0    0  0.00000000000E+00  0.00000000000E+00 -0.77787579783E+03  0.14297242402E+04  0.11995918665E+04 0.  0.
        2    1    3    3  502    0 -0.11212979580E+03  0.12264059700E+03  0.29794110942E+03  0.34114910498E+03  0.25500000920E-02 0.  1.
       -2    1    3    3    0  502  0.11212979580E+03 -0.12264059700E+03 -0.10758169073E+04  0.10885751352E+04  0.25500000920E-02 0. -1.
</event>
<event>
 5   0  0.1004006E-04  0.1199815E+04  0.7818609E-02  0.9113018E-01
       -2   -1    0    0    0  501  0.00000000000E+00  0.00000000000E+00  0.28419028933E+03  0.28419028934E+03  0.25500000920E-02 0.  1.
        2   -1    0    0  501    0  0.00000000000E+00  0.00000000000E+00 -0.12663669719E+04  0.12663669719E+04  0.25500000920E-02 0. -1.
    10030    2    1    2    0    0  0.00000000000E+00  0.00000000000E+00 -0.98217668260E+03  0.15505572613E+04  0.11998153127E+04 0.  0.
        5    1    3    3  502    0 -0.22899444703E+03  0.30748003610E+03 -0.10873619806E+04  0.11529790095E+04  0.46999998093E+01 0. -1.
       -5    1    3    3    0  502  0.22899444703E+03 -0.30748003610E+03  0.10518529803E+03  0.39757825179E+03  0.46999998093E+01 0.  1.
</event>
<event>
 5   0  0.5732931E-05  0.1200249E+04  0.7818609E-02  0.9112639E-01
       -1   -1    0    0    0  501  0.00000000000E+00  0.00000000000E+00  0.11421509922E+04  0.11421509922E+04  0.50400001928E-02 0.  1.
        1   -1    0    0  501    0  0.00000000000E+00  0.00000000000E+00 -0.31532541744E+03  0.31532541748E+03  0.50400001928E-02 0. -1.
    10030    2    1    2    0    0  0.00000000000E+00  0.00000000000E+00  0.82682557477E+03  0.14574764097E+04  0.12002487049E+04 0.  0.
        4    1    3    3  502    0 -0.22465674529E+03  0.45444905310E+03  0.23406791600E+02  0.50748801549E+03  0.12699999809E+01 0. -1.
       -4    1    3    3    0  502  0.22465674529E+03 -0.45444905310E+03  0.80341878317E+03  0.94998839420E+03  0.12699999809E+01 0.  1.
</event>
<event>
 5   0  0.1012657E-04  0.1200194E+04  0.7818609E-02  0.9112687E-01
       -2   -1    0    0    0  501  0.00000000000E+00  0.00000000000E+00  0.20261529940E+03  0.20261529941E+03  0.25500000920E-02 0. -1.
        2   -1    0    0  501    0  0.00000000000E+00  0.00000000000E+00 -0.17773393360E+04  0.17773393360E+04  0.25500000920E-02 0.  1.
    10030    2    1    2    0    0  0.00000000000E+00  0.00000000000E+00 -0.15747240366E+04  0.19799546354E+04  0.12001935539E+04 0.  0.
        1    1    3    3  502    0  0.56700924057E+03 -0.61493481190E-02 -0.46317821010E+03  0.73214310982E+03  0.50400001928E-02 0.  1.
       -1    1    3    3    0  502 -0.56700924057E+03  0.61493481190E-02 -0.11115458265E+04  0.12478115256E+04  0.50400001928E-02 0. -1.
</event>
<event>
 5   0  0.5620246E-05  0.1199972E+04  0.7818609E-02  0.9112881E-01
        1   -1    0    0  501    0  0.00000000000E+00  0.00000000000E+00  0.10411092593E+04  0.10411092593E+04  0.50400001928E-02 0.  1.
       -1   -1    0    0    0  501  0.00000000000E+00  0.00000000000E+00 -0.34576902265E+03  0.34576902268E+03  0.50400001928E-02 0. -1.
    10030    2    1    2    0    0  0.00000000000E+00  0.00000000000E+00  0.69534023663E+03  0.13868782820E+04  0.11999722182E+04 0.  0.
        1    1    3    3  502    0 -0.44026936877E+03 -0.39229633796E+03  0.21975213453E+03  0.62930480255E+03  0.50400001928E-02 0. -1.
       -1    1    3    3    0  502  0.44026936877E+03  0.39229633796E+03  0.47558810210E+03  0.75757347943E+03  0.50400001928E-02 0.  1.
</event>
<event>
 5   0  0.3839750E-05  0.1199613E+04  0.7818609E-02  0.9113195E-01
       -4   -1    0    0    0  501  0.00000000000E+00  0.00000000000E+00  0.15138209772E+04  0.15138215100E+04  0.12699999809E+01 0.  1.
        4   -1    0    0  501    0  0.00000000000E+00  0.00000000000E+00 -0.23765321701E+03  0.23765661038E+03  0.12699999809E+01 0. -1.
    10030    2    1    2    0    0  0.00000000000E+00  0.00000000000E+00  0.12761677602E+04  0.17514781203E+04  0.11996130433E+04 0.  0.
        5    1    3    3  502    0 -0.58761337166E+03 -0.66660640796E+02  0.78417984649E+03  0.98218798466E+03  0.46999998093E+01 0. -1.
       -5    1    3    3    0  502  0.58761337166E+03  0.66660640796E+02  0.49198791373E+03  0.76929013567E+03  0.46999998093E+01 0.  1.
</event>
<event>
 5   0  0.5620246E-05  0.1200456E+04  0.7818609E-02  0.9112457E-01
       -1   -1    0    0    0  501  0.00000000000E+00  0.00000000000E+00  0.16419643702E+04  0.16419643702E+04  0.50400001928E-02 0.  1.
        1   -1    0    0  501    0  0.00000000000E+00  0.00000000000E+00 -0.21941631243E+03  0.21941631249E+03  0.50400001928E-02 0. -1.
    10030    2    1    2    0    0  0.00000000000E+00  0.00000000000E+00  0.14225480578E+04  0.18613806827E+04  0.12004561922E+04 0.  0.
        1    1    3    3  502    0 -0.47499831353E+03  0.98215627446E+02  0.12594890685E+04  0.13496601131E+04  0.50400001928E-02 0.  1.
       -1    1    3    3    0  502  0.47499831353E+03 -0.98215627446E+02  0.16305898932E+03  0.51172056960E+03  0.50400001928E-02 0. -1.
</event>
<event>
 5   0  0.5625746E-05  0.1200237E+04  0.7818609E-02  0.9112649E-01
       -1   -1    0    0    0  501  0.00000000000E+00  0.00000000000E+00  0.65653258689E+03  0.65653258691E+03  0.50400001928E-02 0. -1.
        1   -1    0    0  501    0  0.00000000000E+00  0.00000000000E+00 -0.54855183267E+03  0.54855183269E+03  0.50400001928E-02 0.  1.
    10030    2    1    2    0    0  0.00000000000E+00  0.00000000000E+00  0.10798075423E+03  0.12050844196E+04  0.12002368996E+04 0.  0.
        5    1    3    3  502    0 -0.45867758152E+01 -0.23361754181E+03  0.60896311354E+03  0.65227015722E+03  0.46999998093E+01 0. -1.
       -5    1    3    3    0  502  0.45867758152E+01  0.23361754181E+03 -0.50098235931E+03  0.55281426238E+03  0.46999998093E+01 0.  1.
</event>
<event>
 5   0  0.5447807E-05  0.1199547E+04  0.7818609E-02  0.9113253E-01
       -1   -1    0    0    0  501  0.00000000000E+00  0.00000000000E+00  0.16782805706E+04  0.16782805706E+04  0.50400001928E-02 0. -1.
        1   -1    0    0  501    0  0.00000000000E+00  0.00000000000E+00 -0.21434324209E+03  0.21434324215E+03  0.50400001928E-02 0.  1.
    10030    2    1    2    0    0  0.00000000000E+00  0.00000000000E+00  0.14639373285E+04  0.18926238127E+04  0.11995467456E+04 0.  0.
        2    1    3    3  502    0  0.45517310247E+03  0.28341752184E+02  0.11735750547E+03  0.47091251016E+03  0.25500000920E-02 0.  1.
       -2    1    3    3    0  502 -0.45517310247E+03 -0.28341752184E+02  0.13465798230E+04  0.14217113026E+04  0.25500000920E-02 0. -1.
</event>
<event>
 5   0  0.1012657E-04  0.1199952E+04  0.7818609E-02  0.9112899E-01
        2   -1    0    0  501    0  0.00000000000E+00  0.00000000000E+00  0.48383527628E+03  0.48383527628E+03  0.25500000920E-02 0. -1.
       -2   -1    0    0    0  501  0.00000000000E+00  0.00000000000E+00 -0.74399508346E+03  0.74399508347E+03  0.25500000920E-02 0.  1.
    10030    2    1    2    0    0  0.00000000000E+00  0.00000000000E+00 -0.26015980719E+03  0.12278303598E+04  0.11999517770E+04 0.  0.
        1    1    3    3  502    0 -0.41784013517E+03  0.49520767643E+02 -0.56771800041E+03  0.70664447426E+03  0.50400001928E-02 0.  1.
       -1    1    3    3    0  502  0.41784013517E+03 -0.49520767643E+02  0.30755819323E+03  0.52118588549E+03  0.50400001928E-02 0. -1.
</event>
<event>
 5   0  0.1023063E-04  0.1199631E+04  0.7818609E-02  0.9113180E-01
        2   -1    0    0  501    0  0.00000000000E+00  0.00000000000E+00  0.47811552405E+03  0.47811552406E+03  0.25500000920E-02 0.  1.
       -2   -1    0    0    0  501  0.00000000000E+00  0.00000000000E+00 -0.75249262058E+03  0.75249262058E+03  0.25500000920E-02 0. -1.
    10030    2    1    2    0    0  0.00000000000E+00  0.00000000000E+00 -0.27437709653E+03  0.12306081446E+04  0.11996306159E+04 0.  0.
        3    1    3    3  502    0 -0.10923815006E+03 -0.33589679919E+03 -0.63449433151E+03  0.72618365449E+03  0.10100000352E+00 0. -1.
       -3    1    3    3    0  502  0.10923815006E+03  0.33589679919E+03  0.36011723498E+03  0.50442449015E+03  0.10100000352E+00 0.  1.
</event>
<event>
 5   0  0.5620246E-05  0.1200721E+04  0.7818609E-02  0.9112226E-01
       -1   -1    0    0    0  501  0.00000000000E+00  0.00000000000E+00  0.43624180549E+03  0.43624180552E+03  0.50400001928E-02 0. -1.
        1   -1    0    0  501    0  0.00000000000E+00  0.00000000000E+00 -0.82622211694E+03  0.82622211695E+03  0.50400001928E-02 0.  1.
    10030    2    1    2    0    0  0.00000000000E+00  0.00000000000E+00 -0.38998031144E+03  0.12624639225E+04  0.12007208303E+04 0.  0.
        1    1    3    3  502    0 -0.42195256742E+03 -0.50801423774E+02  0.25085215869E+03  0.49350943188E+03  0.50400001928E-02 0. -1.
       -1    1    3    3    0  502  0.42195256742E+03  0.50801423774E+02 -0.64083247013E+03  0.76895449060E+03  0.50400001928E-02 0.  1.
</event>
<event>
 5   0  0.5447807E-05  0.1204110E+04  0.7818609E-02  0.9109267E-01
       -1   -1    0    0    0  501  0.00000000000E+00  0.00000000000E+00  0.54828567621E+03  0.54828567624E+03  0.50400001928E-02 0. -1.
        1   -1    0    0  501    0  0.00000000000E+00  0.00000000000E+00 -0.66109746482E+03  0.66109746484E+03  0.50400001928E-02 0.  1.
    10030    2    1    2    0    0  0.00000000000E+00  0.00000000000E+00 -0.11281178860E+03  0.12093831411E+04  0.12041100790E+04 0.  0.
        2    1    3    3  502    0 -0.72149597405E+02 -0.43642761575E+03  0.35378882836E+03  0.56642842731E+03  0.25500000920E-02 0. -1.
       -2    1    3    3    0  502  0.72149597405E+02  0.43642761575E+03 -0.46660061696E+03  0.64295471376E+03  0.25500000920E-02 0.  1.
</event>
<event>
 5   0  0.3839750E-05  0.1198141E+04  0.7818609E-02  0.9114485E-01
       -3   -1    0    0    0  501  0.00000000000E+00  0.00000000000E+00  0.66107289864E+03  0.66107290635E+03  0.10100000352E+00 0. -1.
        3   -1    0    0  501    0  0.00000000000E+00  0.00000000000E+00 -0.54288359629E+03  0.54288360569E+03  0.10100000352E+00 0.  1.
    10030    2    1    2    0    0  0.00000000000E+00  0.00000000000E+00  0.11818930235E+03  0.12039565120E+04  0.11981412987E+04 0.  0.
        1    1    3    3  502    0 -0.43521113904E+03  0.10202637785E+03 -0.34167379859E+03  0.56263585203E+03  0.50400001928E-02 0.  1.
       -1    1    3    3    0  502  0.43521113904E+03 -0.10202637785E+03  0.45986310094E+03  0.64132066001E+03  0.50400001928E-02 0. -1.
</event>
<event>
 5   0  0.5732931E-05  0.1200940E+04  0.7818609E-02  0.9112034E-01
       -1   -1    0    0    0  501  0.00000000000E+00  0.00000000000E+00  0.46288396718E+03  0.46288396721E+03  0.50400001928E-02 0.  1.
        1   -1    0    0  501    0  0.00000000000E+00  0.00000000000E+00 -0.77895118454E+03  0.77895118456E+03  0.50400001928E-02 0. -1.
    10030    2    1    2    0    0  0.00000000000E+00  0.00000000000E+00 -0.31606721736E+03  0.12418351518E+04  0.12009396564E+04 0.  0.
        4    1    3    3  502    0 -0.52396131123E+02  0.48396891926E+03 -0.52156039615E+03  0.71344104809E+03  0.12699999809E+01 0. -1.
       -4    1    3    3    0  502  0.52396131123E+02 -0.48396891926E+03  0.20549317880E+03  0.52839410368E+03  0.12699999809E+01 0.  1.
</event>
<event>
 5   0  0.5447807E-05  0.1199954E+04  0.7818609E-02  0.9112897E-01
       -1   -1    0    0    0  501  0.00000000000E+00  0.00000000000E+00  0.73498239267E+03  0.73498239269E+03  0.50400001928E-02 0. -1.
        1   -1    0    0  501    0  0.00000000000E+00  0.00000000000E+00 -0.48976989917E+03  0.48976989920E+03  0.50400001928E-02 0.  1.
    10030    2    1    2    0    0  0.00000000000E+00  0.00000000000E+00  0.24521249350E+03  0.12247522919E+04  0.11999537531E+04 0.  0.
        2    1    3    3  502    0  0.49436974546E+03 -0.25075932104E+03 -0.11168183739E+03  0.56546840330E+03  0.25500000920E-02 0. -1.
       -2    1    3    3    0  502 -0.49436974546E+03  0.25075932104E+03  0.35689433089E+03  0.65928388858E+03  0.25500000920E-02 0.  1.
</event>
<event>
 5   0  0.5745487E-05  0.1200079E+04  0.7818609E-02  0.9112787E-01
       -1   -1    0    0    0  501  0.00000000000E+00  0.00000000000E+00  0.40250337991E+03  0.40250337994E+03  0.50400001928E-02 0.  1.
        1   -1    0    0  501    0  0.00000000000E+00  0.00000000000E+00 -0.89452014377E+03  0.89452014378E+03  0.50400001928E-02 0. -1.
    10030    2    1    2    0    0  0.00000000000E+00  0.00000000000E+00 -0.49201676386E+03  0.12970235237E+04  0.12000789662E+04 0.  0.
        3    1    3    3  502    0 -0.58985382250E+03  0.45515608310E+02 -0.35434654935E+03  0.68960908474E+03  0.10100000352E+00 0. -1.
       -3    1    3    3    0  502  0.58985382250E+03 -0.45515608310E+02 -0.13767021451E+03  0.60741443898E+03  0.10100000352E+00 0.  1.
</event>
<event>
 5   0  0.1012657E-04  0.1199629E+04  0.7818609E-02  0.9113181E-01
       -2   -1    0    0    0  501  0.00000000000E+00  0.00000000000E+00  0.21628108791E+03  0.21628108793E+03  0.25500000920E-02 0.  1.
        2   -1    0    0  501    0  0.00000000000E+00  0.00000000000E+00 -0.16634722543E+04  0.16634722543E+04  0.25500000920E-02 0. -1.
    10030    2    1    2    0    0  0.00000000000E+00  0.00000000000E+00 -0.14471911664E+04  0.18797533422E+04  0.11996292575E+04 0.  0.
        1    1    3    3  502    0 -0.56298451785E+02 -0.65415543315E+02  0.20650076259E+03  0.22381079946E+03  0.50400001928E-02 0.  1.
       -1    1    3    3    0  502  0.56298451785E+02  0.65415543315E+02 -0.16536919290E+04  0.16559425428E+04  0.50400001928E-02 0. -1.
</event>
<event>
 5   0  0.5625746E-05  0.1199615E+04  0.7818609E-02  0.9113194E-01
        1   -1    0    0  501    0  0.00000000000E+00  0.00000000000E+00  0.32868525984E+03  0.32868525987E+03  0.50400001928E-02 0.  1.
       -1   -1    0    0    0  501  0.00000000000E+00  0.00000000000E+00 -0.10945701587E+04  0.10945701587E+04  0.50400001928E-02 0. -1.
    10030    2    1    2    0    0  0.00000000000E+00  0.00000000000E+00 -0.76588489888E+03  0.14232554186E+04  0.11996150667E+04 0.  0.
        5    1    3    3  502    0  0.17979848443E+03  0.57151797275E+03 -0.34966537012E+03  0.69372058441E+03  0.46999998093E+01 0.  1.
       -5    1    3    3    0  502 -0.17979848443E+03 -0.57151797275E+03 -0.41621952876E+03  0.72953483419E+03  0.46999998093E+01 0. -1.
</event>
<event>
 5   0  0.9941209E-05  0.1199671E+04  0.7818609E-02  0.9113144E-01
       -2   -1    0    0    0  501  0.00000000000E+00  0.00000000000E+00  0.32799100545E+03  0.32799100546E+03  0.25500000920E-02 0. -1.
        2   -1    0    0  501    0  0.00000000000E+00  0.00000000000E+00 -0.10969895978E+04  0.10969895978E+04  0.25500000920E-02 0.  1.
    10030    2    1    2    0    0  0.00000000000E+00  0.00000000000E+00 -0.76899859234E+03  0.14249806033E+04  0.11996711569E+04 0.  0.
        2    1    3    3  502    0 -0.27120769820E+03  0.18335145861E+03 -0.98152132402E+03  0.10346765110E+04  0.25500000920E-02 0.  1.
       -2    1    3    3    0  502  0.27120769820E+03 -0.18335145861E+03  0.21252273168E+03  0.39030409224E+03  0.25500000920E-02 0. -1.
</event>
<event>
 5   0  0.5447807E-05  0.1200135E+04  0.7818609E-02  0.9112739E-01
       -1   -1    0    0    0  501  0.00000000000E+00  0.00000000000E+00  0.23737025011E+03  0.23737025016E+03  0.50400001928E-02 0. -1.
        1   -1    0    0  501    0  0.00000000000E+00  0.00000000000E+00 -0.15169584539E+04  0.15169584539E+04  0.50400001928E-02 0.  1.
    10030    2    1    2    0    0  0.00000000000E+00  0.00000000000E+00 -0.12795882038E+04  0.17543287041E+04  0.12001346719E+04 0.  0.
        2    1    3    3  502    0  0.17471691343E+03 -0.34082270997E+03 -0.13150568456E+04  0.13696936251E+04  0.25500000920E-02 0.  1.
       -2    1    3    3    0  502 -0.17471691343E+03  0.34082270997E+03  0.35468641746E+02  0.38463507903E+03  0.25500000920E-02 0. -1.
</event>
<event>
 5   0  0.1023063E-04  0.1199834E+04  0.7818609E-02  0.9113002E-01
       -2   -1    0    0    0  501  0.00000000000E+00  0.00000000000E+00  0.28048857219E+03  0.28048857220E+03  0.25500000920E-02 0. -1.
        2   -1    0    0  501    0  0.00000000000E+00  0.00000000000E+00 -0.12831189014E+04  0.12831189014E+04  0.25500000920E-02 0.  1.
    10030    2    1    2    0    0  0.00000000000E+00  0.00000000000E+00 -0.10026303293E+04  0.15636074736E+04  0.11998336362E+04 0.  0.
        3    1    3    3  502    0 -0.54162592588E+03  0.11256927652E+03 -0.19884749915E+03  0.58785272281E+03  0.10100000352E+00 0. -1.
       -3    1    3    3    0  502  0.54162592588E+03 -0.11256927652E+03 -0.80378283010E+03  0.97575475083E+03  0.10100000352E+00 0.  1.
</event>
<event>
 5   0  0.5620246E-05  0.1199261E+04  0.7818609E-02  0.9113503E-01
       -1   -1    0    0    0  501  0.00000000000E+00  0.00000000000E+00  0.10211733826E+04  0.10211733826E+04  0.50400001928E-02 0.  1.
        1   -1    0    0  501    0  0.00000000000E+00  0.00000000000E+00 -0.35210168068E+03  0.35210168071E+03  0.50400001928E-02 0. -1.
    10030    2    1    2    0    0  0.00000000000E+00  0.00000000000E+00  0.66907170195E+03  0.13732750633E+04  0.11992612131E+04 0.  0.
        1    1    3    3  502    0  0.22786304563E+03  0.93372853358E+02 -0.29152841104E+03  0.38161351100E+03  0.50400001928E-02 0. -1.
       -1    1    3    3    0  502 -0.22786304563E+03 -0.93372853358E+02  0.96060011299E+03  0.99166155235E+03  0.50400001928E-02 0.  1.
</event>
<event>
 5   0  0.1023063E-04  0.1199893E+04  0.7818609E-02  0.9112950E-01
        2   -1    0    0  501    0  0.00000000000E+00  0.00000000000E+00  0.59232564827E+03  0.59232564827E+03  0.25500000920E-02 0. -1.
       -2   -1    0    0    0  501  0.00000000000E+00  0.00000000000E+00 -0.60766541538E+03  0.60766541539E+03  0.25500000920E-02 0.  1.
    10030    2    1    2    0    0  0.00000000000E+00  0.00000000000E+00 -0.15339767119E+02  0.11999910637E+04  0.11998930137E+04 0.  0.
        3    1    3    3  502    0 -0.54611787465E+03  0.23884205630E+03  0.60493884558E+02  0.59912417840E+03  0.10100000352E+00 0. -1.
       -3    1    3    3    0  502  0.54611787465E+03 -0.23884205630E+03 -0.75833651678E+02  0.60086688526E+03  0.10100000352E+00 0.  1.
</event>
<event>
 5   0  0.5745487E-05  0.1199888E+04  0.7818609E-02  0.9112955E-01
        1   -1    0    0  501    0  0.00000000000E+00  0.00000000000E+00  0.24624310186E+03  0.24624310191E+03  0.50400001928E-02 0. -1.
       -1   -1    0    0    0  501  0.00000000000E+00  0.00000000000E+00 -0.14616971467E+04  0.14616971467E+04  0.50400001928E-02 0.  1.
    10030    2    1    2    0    0  0.00000000000E+00  0.00000000000E+00 -0.12154540448E+04  0.17079402486E+04  0.11998880605E+04 0.  0.
        3    1    3    3  502    0 -0.59692933842E+03 -0.52811834926E+02 -0.56698885115E+03  0.82497884368E+03  0.10100000352E+00 0.  1.
       -3    1    3    3    0  502  0.59692933842E+03  0.52811834926E+02 -0.64846519365E+03  0.88296140491E+03  0.10100000352E+00 0. -1.
</event>
<event>
 5   0  0.5625746E-05  0.1200395E+04  0.7818609E-02  0.9112511E-01
        1   -1    0    0  501    0  0.00000000000E+00  0.00000000000E+00  0.14777609979E+04  0.14777609979E+04  0.50400001928E-02 0.  1.
       -1   -1    0    0    0  501  0.00000000000E+00  0.00000000000E+00 -0.24377212492E+03  0.24377212497E+03  0.50400001928E-02 0. -1.
    10030    2    1    2    0    0  0.00000000000E+00  0.00000000000E+00  0.12339888730E+04  0.17215331229E+04  0.12003948328E+04 0.  0.
        5    1    3    3  502    0  0.19641567242E+03 -0.37095117358E+03  0.17655612085E+01  0.41977267271E+03  0.46999998093E+01 0. -1.
       -5    1    3    3    0  502 -0.19641567242E+03  0.37095117358E+03  0.12322233118E+04  0.13017604502E+04  0.46999998093E+01 0.  1.
</event>
<event>
 5   0  0.5745487E-05  0.1200100E+04  0.7818609E-02  0.9112769E-01
        1   -1    0    0  501    0  0.00000000000E+00  0.00000000000E+00  0.47304280390E+03  0.47304280393E+03  0.50400001928E-02 0.  1.
       -1   -1    0    0    0  501  0.00000000000E+00  0.00000000000E+00 -0.76115710734E+03  0.76115710735E+03  0.50400001928E-02 0. -1.
    10030    2    1    2    0    0  0.00000000000E+00  0.00000000000E+00 -0.28811430344E+03  0.12341999113E+04  0.12000998163E+04 0.  0.
        3    1    3    3  502    0 -0.12685105966E+03 -0.33399631717E+03  0.35173581256E+03  0.50136097102E+03  0.10100000352E+00 0.  1.
       -3    1    3    3    0  502  0.12685105966E+03  0.33399631717E+03 -0.63985011600E+03  0.73283894026E+03  0.10100000352E+00 0. -1.
</event>
<event>
 5   0  0.1004006E-04  0.1199912E+04  0.7818609E-02  0.9112934E-01
       -2   -1    0    0    0  501  0.00000000000E+00  0.00000000000E+00  0.21702021770E+03  0.21702021772E+03  0.25500000920E-02 0. -1.
        2   -1    0    0  501    0  0.00000000000E+00  0.00000000000E+00 -0.16585880146E+04  0.16585880146E+04  0.25500000920E-02 0.  1.
    10030    2    1    2    0    0  0.00000000000E+00  0.00000000000E+00 -0.14415677969E+04  0.18756082323E+04  0.11999118835E+04 0.  0.
        5    1    3    3  502    0 -0.28926155678E+03 -0.99726508691E+01 -0.15422089165E+04  0.15691405718E+04  0.46999998093E+01 0.  1.
       -5    1    3    3    0  502  0.28926155678E+03  0.99726508691E+01  0.10064111958E+03  0.30646766052E+03  0.46999998093E+01 0. -1.
</event>
<event>
 5   0  0.1012657E-04  0.1199922E+04  0.7818609E-02  0.9112925E-01
       -2   -1    0    0    0  501  0.00000000000E+00  0.00000000000E+00  0.44409215387E+03  0.44409215388E+03  0.25500000920E-02 0. -1.
        2   -1    0    0  501    0  0.00000000000E+00  0.00000000000E+00 -0.81053729003E+03  0.81053729003E+03  0.25500000920E-02 0.  1.
    10030    2    1    2    0    0  0.00000000000E+00  0.00000000000E+00 -0.36644513616E+03  0.12546294439E+04  0.11999220823E+04 0.  0.
        1    1    3    3  502    0  0.25874773638E+03 -0.52717759037E+03 -0.54794837334E+02  0.58980427016E+03  0.50400001928E-02 0.  1.
       -1    1    3    3    0  502 -0.25874773638E+03  0.52717759037E+03 -0.31165029882E+03  0.66482517375E+03  0.50400001928E-02 0. -1.
</event>
<event>
 5   0  0.1012657E-04  0.1197944E+04  0.7818609E-02  0.9114658E-01
        2   -1    0    0  501    0  0.00000000000E+00  0.00000000000E+00  0.17871853622E+04  0.17871853622E+04  0.25500000920E-02 0.  1.
       -2   -1    0    0    0  501  0.00000000000E+00  0.00000000000E+00 -0.20074431960E+03  0.20074431961E+03  0.25500000920E-02 0. -1.
    10030    2    1    2    0    0  0.00000000000E+00  0.00000000000E+00  0.15864410426E+04  0.19879296818E+04  0.11979437542E+04 0.  0.
        1    1    3    3  502    0 -0.65386049130E+02 -0.57269390827E+03  0.10634292938E+04  0.12096013852E+04  0.50400001928E-02 0.  1.
       -1    1    3    3    0  502  0.65386049130E+02  0.57269390827E+03  0.52301174877E+03  0.77832829665E+03  0.50400001928E-02 0. -1.
</event>
<event>
 5   0  0.5447807E-05  0.1200237E+04  0.7818609E-02  0.9112649E-01
       -1   -1    0    0    0  501  0.00000000000E+00  0.00000000000E+00  0.18332685479E+03  0.18332685486E+03  0.50400001928E-02 0.  1.
        1   -1    0    0  501    0  0.00000000000E+00  0.00000000000E+00 -0.19644821104E+04  0.19644821104E+04  0.50400001928E-02 0. -1.
    10030    2    1    2    0    0  0.00000000000E+00  0.00000000000E+00 -0.17811552556E+04  0.21478089652E+04  0.12002371877E+04 0.  0.
        2    1    3    3  502    0 -0.46266475486E+03 -0.87228750672E+02 -0.15564851790E+04  0.16261345709E+04  0.25500000920E-02 0. -1.
       -2    1    3    3    0  502  0.46266475486E+03  0.87228750672E+02 -0.22467007656E+03  0.52167439427E+03  0.25500000920E-02 0.  1.
</event>
<event>
 5   0  0.3839750E-05  0.1198522E+04  0.7818609E-02  0.9114151E-01
        4   -1    0    0  501    0  0.00000000000E+00  0.00000000000E+00  0.19017390816E+03  0.19017814871E+03  0.12699999809E+01 0. -1.
       -4   -1    0    0    0  501  0.00000000000E+00  0.00000000000E+00 -0.18883178799E+04  0.18883183069E+04  0.12699999809E+01 0.  1.
    10030    2    1    2    0    0  0.00000000000E+00  0.00000000000E+00 -0.16981439717E+04  0.20784964556E+04  0.11985218260E+04 0.  0.
        4    1    3    3  502    0 -0.14972157857E+03 -0.51099941664E+03 -0.37231986716E+03  0.64973891009E+03  0.12699999809E+01 0. -1.
       -4    1    3    3    0  502  0.14972157857E+03  0.51099941664E+03 -0.13258241045E+04  0.14287575456E+04  0.12699999809E+01 0.  1.
</event>
<event>
 5   0  0.9941209E-05  0.1199978E+04  0.7818609E-02  0.9112875E-01
        2   -1    0    0  501    0  0.00000000000E+00  0.00000000000E+00  0.18110919250E+04  0.18110919250E+04  0.25500000920E-02 0. -1.
       -2   -1    0    0    0  501  0.00000000000E+00  0.00000000000E+00 -0.19876794793E+03  0.19876794794E+03  0.25500000920E-02 0.  1.
    10030    2    1    2    0    0  0.00000000000E+00  0.00000000000E+00  0.16123239771E+04  0.20098598730E+04  0.11999783756E+04 0.  0.
        2    1    3    3  502    0 -0.92809883038E+02 -0.57128337920E+03  0.10710348718E+04  0.12174128594E+04  0.25500000920E-02 0. -1.
       -2    1    3    3    0  502  0.92809883038E+02  0.57128337920E+03  0.54128910536E+03  0.79244701357E+03  0.25500000920E-02 0.  1.
</event>
<event>
 5   0  0.5625746E-05  0.1200126E+04  0.7818609E-02  0.9112746E-01
       -1   -1    0    0    0  501  0.00000000000E+00  0.00000000000E+00  0.53791916739E+03  0.53791916741E+03  0.50400001928E-02 0.  1.
        1   -1    0    0  501    0  0.00000000000E+00  0.00000000000E+00 -0.66938640136E+03  0.66938640137E+03  0.50400001928E-02 0. -1.
    10030    2    1    2    0    0  0.00000000000E+00  0.00000000000E+00 -0.13146723397E+03  0.12073055688E+04  0.12001262862E+04 0.  0.
        5    1    3    3  502    0 -0.23546769106E+03  0.19893280783E+03  0.45216096896E+03  0.54725764263E+03  0.46999998093E+01 0.  1.
       -5    1    3    3    0  502  0.23546769106E+03 -0.19893280783E+03 -0.58362820293E+03  0.66004792615E+03  0.46999998093E+01 0. -1.
</event>
<event>
 5   0  0.5732931E-05  0.1201935E+04  0.7818609E-02  0.9111164E-01
        1   -1    0    0  501    0  0.00000000000E+00  0.00000000000E+00  0.31003852350E+03  0.31003852354E+03  0.50400001928E-02 0.  1.
       -1   -1    0    0    0  501  0.00000000000E+00  0.00000000000E+00 -0.11648941241E+04  0.11648941241E+04  0.50400001928E-02 0. -1.
    10030    2    1    2    0    0  0.00000000000E+00  0.00000000000E+00 -0.85485560056E+03  0.14749326476E+04  0.12019351967E+04 0.  0.
        4    1    3    3  502    0  0.50414304122E+03  0.31159889073E+03 -0.30529049456E+03  0.66667681352E+03  0.12699999809E+01 0.  1.
       -4    1    3    3    0  502 -0.50414304122E+03 -0.31159889073E+03 -0.54956510599E+03  0.80825583409E+03  0.12699999809E+01 0. -1.
</event>
<event>
 5   0  0.5745487E-05  0.1199697E+04  0.7818609E-02  0.9113122E-01
        1   -1    0    0  501    0  0.00000000000E+00  0.00000000000E+00  0.10431824501E+04  0.10431824501E+04  0.50400001928E-02 0. -1.
       -1   -1    0    0    0  501  0.00000000000E+00  0.00000000000E+00 -0.34492362219E+03  0.34492362223E+03  0.50400001928E-02 0.  1.
    10030    2    1    2    0    0  0.00000000000E+00  0.00000000000E+00  0.69825882789E+03  0.13881060723E+04  0.11996970773E+04 0.  0.
        3    1    3    3  502    0  0.29655492131E+03  0.51855569384E+03  0.28603659618E+03  0.66231546375E+03  0.10100000352E+00 0.  1.
       -3    1    3    3    0  502 -0.29655492131E+03 -0.51855569384E+03  0.41222223171E+03  0.72579060856E+03  0.10100000352E+00 0. -1.
</event>
<event>
 5   0  0.5745487E-05  0.1200162E+04  0.7818609E-02  0.9112715E-01
        1   -1    0    0  501    0  0.00000000000E+00  0.00000000000E+00  0.68610250091E+03  0.68610250093E+03  0.50400001928E-02 0. -1.
       -1   -1    0    0    0  501  0.00000000000E+00  0.00000000000E+00 -0.52484419188E+03  0.52484419191E+03  0.50400001928E-02 0.  1.
    10030    2    1    2    0    0  0.00000000000E+00  0.00000000000E+00  0.16125830903E+03  0.12109466928E+04  0.12001615102E+04 0.  0.
        3    1    3    3  502    0  0.31990573890E+02 -0.11562965744E+03  0.67387825160E+03  0.68447463260E+03  0.10100000352E+00 0. -1.
       -3    1    3    3    0  502 -0.31990573890E+02  0.11562965744E+03 -0.51261994257E+03  0.52647206024E+03  0.10100000352E+00 0.  1.
</event>
<event>
 5   0  0.9941209E-05  0.1200265E+04  0.7818609E-02  0.9112625E-01
        2   -1    0    0  501    0  0.00000000000E+00  0.00000000000E+00  0.61651127824E+03  0.61651127824E+03  0.25500000920E-02 0. -1.
       -2   -1    0    0    0  501  0.00000000000E+00  0.00000000000E+00 -0.58418887721E+03  0.58418887722E+03  0.25500000920E-02 0.  1.
    10030    2    1    2    0    0  0.00000000000E+00  0.00000000000E+00  0.32322401025E+02  0.12007001555E+04  0.12002650231E+04 0.  0.
        2    1    3    3  502    0  0.52921662650E+03  0.12768301732E+03 -0.23648894836E+03  0.59354882982E+03  0.25500000920E-02 0.  1.
       -2    1    3    3    0  502 -0.52921662650E+03 -0.12768301732E+03  0.26881134938E+03  0.60715132565E+03  0.25500000920E-02 0. -1.
</event>
<event>
 5   0  0.9941209E-05  0.1199896E+04  0.7818609E-02  0.9112948E-01
       -2   -1    0    0    0  501  0.00000000000E+00  0.00000000000E+00  0.13293215242E+04  0.13293215242E+04  0.25500000920E-02 0. -1.
        2   -1    0    0  501    0  0.00000000000E+00  0.00000000000E+00 -0.27076768394E+03  0.27076768396E+03  0.25500000920E-02 0.  1.
    10030    2    1    2    0    0  0.00000000000E+00  0.00000000000E+00  0.10585538402E+04  0.16000892081E+04  0.11998955127E+04 0.  0.
        2    1    3    3  502    0  0.23372298596E+03  0.38261368994E+02 -0.20579224147E+03  0.31375278991E+03  0.25500000920E-02 0.  1.
       -2    1    3    3    0  502 -0.23372298596E+03 -0.38261368994E+02  0.12643460817E+04  0.12863364182E+04  0.25500000920E-02 0. -1.
</event>
<event>
 5   0  0.5732931E-05  0.1197802E+04  0.7818609E-02  0.9114783E-01
       -1   -1    0    0    0  501  0.00000000000E+00  0.00000000000E+00  0.58483439403E+03  0.58483439405E+03  0.50400001928E-02 0. -1.
        1   -1    0    0  501    0  0.00000000000E+00  0.00000000000E+00 -0.61330558706E+03  0.61330558708E+03  0.50400001928E-02 0.  1.
    10030    2    1    2    0    0  0.00000000000E+00  0.00000000000E+00 -0.28471193025E+02  0.11981399811E+04  0.11978016553E+04 0.  0.
        4    1    3    3  502    0  0.39781259516E+03  0.32496425350E+03 -0.32225757016E+03  0.60638946342E+03  0.12699999809E+01 0.  1.
       -4    1    3    3    0  502 -0.39781259516E+03 -0.32496425350E+03  0.29378637713E+03  0.59175051771E+03  0.12699999809E+01 0. -1.
</event>
<event>
 5   0  0.5620246E-05  0.1201868E+04  0.7818609E-02  0.9111223E-01
       -1   -1    0    0    0  501  0.00000000000E+00  0.00000000000E+00  0.51921230245E+03  0.51921230248E+03  0.50400001928E-02 0.  1.
        1   -1    0    0  501    0  0.00000000000E+00  0.00000000000E+00 -0.69551805581E+03  0.69551805583E+03  0.50400001928E-02 0. -1.
    10030    2    1    2    0    0  0.00000000000E+00  0.00000000000E+00 -0.17630575335E+03  0.12147303583E+04  0.12018677651E+04 0.  0.
        1    1    3    3  502    0  0.80545479728E+02  0.58553156546E+03 -0.19788154277E+03  0.62329117870E+03  0.50400001928E-02 0. -1.
       -1    1    3    3    0  502 -0.80545479728E+02 -0.58553156546E+03  0.21575789412E+02  0.59143917960E+03  0.50400001928E-02 0.  1.
</event>
<event>
 5   0  0.5620246E-05  0.1199958E+04  0.7818609E-02  0.9112893E-01
       -1   -1    0    0    0  501  0.00000000000E+00  0.00000000000E+00  0.45027451614E+03  0.45027451617E+03  0.50400001928E-02 0.  1.
        1   -1    0    0  501    0  0.00000000000E+00  0.00000000000E+00 -0.79945603784E+03  0.79945603785E+03  0.50400001928E-02 0. -1.
    10030    2    1    2    0    0  0.00000000000E+00  0.00000000000E+00 -0.34918152170E+03  0.12497305540E+04  0.11999578003E+04 0.  0.
        1    1    3    3  502    0  0.24148467058E+03 -0.54764832542E+03 -0.13113293161E+03  0.61272292289E+03  0.50400001928E-02 0. -1.
       -1    1    3    3    0  502 -0.24148467058E+03  0.54764832542E+03 -0.21804859008E+03  0.63700763113E+03  0.50400001928E-02 0.  1.
</event>
<event>
 5   0  0.3839750E-05  0.1200283E+04  0.7818609E-02  0.9112609E-01
        3   -1    0    0  501    0  0.00000000000E+00  0.00000000000E+00  0.65376339426E+03  0.65376340206E+03  0.10100000352E+00 0. -1.
       -3   -1    0    0    0  501  0.00000000000E+00  0.00000000000E+00 -0.55091786111E+03  0.55091787037E+03  0.10100000352E+00 0.  1.
    10030    2    1    2    0    0  0.00000000000E+00  0.00000000000E+00  0.10284553315E+03  0.12046812724E+04  0.12002832018E+04 0.  0.
        1    1    3    3  502    0 -0.11630599648E+03  0.12933611333E+03  0.62790971439E+03  0.65155623279E+03  0.50400001928E-02 0. -1.
       -1    1    3    3    0  502  0.11630599648E+03 -0.12933611333E+03 -0.52506418124E+03  0.55312503964E+03  0.50400001928E-02 0.  1.
</event>
<event>
 5   0  0.5625746E-05  0.1200759E+04  0.7818609E-02  0.9112192E-01
       -1   -1    0    0    0  501  0.00000000000E+00  0.00000000000E+00  0.60392527148E+03  0.60392527150E+03  0.50400001928E-02 0. -1.
        1   -1    0    0  501    0  0.00000000000E+00  0.00000000000E+00 -0.59685473580E+03  0.59685473582E+03  0.50400001928E-02 0.  1.
    10030    2    1    2    0    0  0.00000000000E+00  0.00000000000E+00  0.70705356809E+01  0.12007800073E+04  0.12007591905E+04 0.  0.
        5    1    3    3  502    0  0.74454466925E+02  0.35964462263E+03 -0.47138963835E+03  0.59759351015E+03  0.46999998093E+01 0.  1.
       -5    1    3    3    0  502 -0.74454466925E+02 -0.35964462263E+03  0.47846017403E+03  0.60318649717E+03  0.46999998093E+01 0. -1.
</event>
<event>
 5   0  0.9838215E-05  0.1200799E+04  0.7818609E-02  0.9112158E-01
        2   -1    0    0  501    0  0.00000000000E+00  0.00000000000E+00  0.91796198503E+03  0.91796198503E+03  0.25500000920E-02 0. -1.
       -2   -1    0    0    0  501  0.00000000000E+00  0.00000000000E+00 -0.39269538634E+03  0.39269538634E+03  0.25500000920E-02 0.  1.
    10030    2    1    2    0    0  0.00000000000E+00  0.00000000000E+00  0.52526659869E+03  0.13106573714E+04  0.12007987947E+04 0.  0.
        4    1    3    3  502    0  0.25549721939E+02  0.48865743167E+03 -0.11710246705E+03  0.50314359234E+03  0.12699999809E+01 0.  1.
       -4    1    3    3    0  502 -0.25549721939E+02 -0.48865743167E+03  0.64236906574E+03  0.80751377904E+03  0.12699999809E+01 0. -1.
</event>
<event>
 5   0  0.1023063E-04  0.1200063E+04  0.7818609E-02  0.9112802E-01
       -2   -1    0    0    0  501  0.00000000000E+00  0.00000000000E+00  0.27590868142E+03  0.27590868143E+03  0.25500000920E-02 0. -1.
        2   -1    0    0  501    0  0.00000000000E+00  0.00000000000E+00 -0.13049160911E+04  0.13049160911E+04  0.25500000920E-02 0.  1.
    10030    2    1    2    0    0  0.00000000000E+00  0.00000000000E+00 -0.10290074097E+04  0.15808247725E+04  0.12000627951E+04 0.  0.
        3    1    3    3  502    0  0.11227083395E+03 -0.78747396264E+02 -0.12839963869E+04  0.12912988130E+04  0.10100000352E+00 0.  1.
       -3    1    3    3    0  502 -0.11227083395E+03  0.78747396264E+02  0.25498897721E+03  0.28952595959E+03  0.10100000352E+00 0. -1.
</event>
<event>
 5   0  0.1012657E-04  0.1199041E+04  0.7818609E-02  0.9113697E-01
        2   -1    0    0  501    0  0.00000000000E+00  0.00000000000E+00  0.73560893551E+03  0.73560893551E+03  0.25500000920E-02 0. -1.
       -2   -1    0    0    0  501  0.00000000000E+00  0.00000000000E+00 -0.48860820927E+03  0.48860820927E+03  0.25500000920E-02 0.  1.
    10030    2    1    2    0    0  0.00000000000E+00  0.00000000000E+00  0.24700072624E+03  0.12242171448E+04  0.11990405576E+04 0.  0.
        1    1    3    3  502    0  0.53541892315E+03 -0.20338738540E+03 -0.57376769176E+02  0.57561440693E+03  0.50400001928E-02 0.  1.
       -1    1    3    3    0  502 -0.53541892315E+03  0.20338738540E+03  0.30437749542E+03  0.64860273785E+03  0.50400001928E-02 0. -1.
</event>
<event>
 5   0  0.1023063E-04  0.1199756E+04  0.7818609E-02  0.9113071E-01
       -2   -1    0    0    0  501  0.00000000000E+00  0.00000000000E+00  0.16936500339E+03  0.16936500341E+03  0.25500000920E-02 0.  1.
        2   -1    0    0  501    0  0.00000000000E+00  0.00000000000E+00 -0.21247206390E+04  0.21247206390E+04  0.25500000920E-02 0. -1.
    10030    2    1    2    0    0  0.00000000000E+00  0.00000000000E+00 -0.19553556356E+04  0.22940856424E+04  0.11997555055E+04 0.  0.
        3    1    3    3  502    0  0.34416590758E+03 -0.41461091699E+03 -0.14817725550E+04  0.15767061551E+04  0.10100000352E+00 0. -1.
       -3    1    3    3    0  502 -0.34416590758E+03  0.41461091699E+03 -0.47358308057E+03  0.71737948732E+03  0.10100000352E+00 0.  1.
</event>
<event>
 5   0  0.1004006E-04  0.1199994E+04  0.7818609E-02  0.9112862E-01
        2   -1    0    0  501    0  0.00000000000E+00  0.00000000000E+00  0.56504078011E+03  0.56504078012E+03  0.25500000920E-02 0. -1.
       -2   -1    0    0    0  501  0.00000000000E+00  0.00000000000E+00 -0.63711612101E+03  0.63711612102E+03  0.25500000920E-02 0.  1.
    10030    2    1    2    0    0  0.00000000000E+00  0.00000000000E+00 -0.72075340898E+02  0.12021569011E+04  0.11999943167E+04 0.  0.
        5    1    3    3  502    0 -0.38118268794E+03  0.22027485590E+03  0.37231592161E+03  0.57659560284E+03  0.46999998093E+01 0. -1.
       -5    1    3    3    0  502  0.38118268794E+03 -0.22027485590E+03 -0.44439126251E+03  0.62556129829E+03  0.46999998093E+01 0.  1.
</event>
<event>
 5   0  0.3839750E-05  0.1199944E+04  0.7818609E-02  0.9112906E-01
       -4   -1    0    0    0  501  0.00000000000E+00  0.00000000000E+00  0.84796861650E+03  0.84796956754E+03  0.12699999809E+01 0. -1.
        4   -1    0    0  501    0  0.00000000000E+00  0.00000000000E+00 -0.42450220743E+03  0.42450410718E+03  0.12699999809E+01 0.  1.
    10030    2    1    2    0    0  0.00000000000E+00  0.00000000000E+00  0.42346640907E+03  0.12724736747E+04  0.11999439375E+04 0.  0.
        4    1    3    3  502    0 -0.32499529605E+03 -0.13140738370E+03  0.72806711118E+03  0.80806755549E+03  0.12699999809E+01 0. -1.
       -4    1    3    3    0  502  0.32499529605E+03  0.13140738370E+03 -0.30460070211E+03  0.46440611923E+03  0.12699999809E+01 0.  1.
</event>
<event>
 5   0  0.5620246E-05  0.1200046E+04  0.7818609E-02  0.9112816E-01
        1   -1    0    0  501    0  0.00000000000E+00  0.00000000000E+00  0.11970326734E+04  0.11970326734E+04  0.50400001928E-02 0. -1.
       -1   -1    0    0    0  501  0.00000000000E+00  0.00000000000E+00 -0.30076683347E+03  0.30076683351E+03  0.50400001928E-02 0.  1.
    10030    2    1    2    0    0  0.00000000000E+00  0.00000000000E+00  0.89626583992E+03  0.14977995069E+04  0.12000462104E+04 0.  0.
        1    1    3    3  502    0  0.45530249046E+03 -0.10752602286E+02 -0.39451365740E+02  0.45713497630E+03  0.50400001928E-02 0.  1.
       -1    1    3    3    0  502 -0.45530249046E+03  0.10752602286E+02  0.93571720566E+03  0.10406645306E+04  0.50400001928E-02 0. -1.
</event>
<event>
 5   0  0.1012657E-04  0.1198678E+04  0.7818609E-02  0.9114014E-01
        2   -1    0    0  501    0  0.00000000000E+00  0.00000000000E+00  0.14400785181E+04  0.14400785181E+04  0.25500000920E-02 0.  1.
       -2   -1    0    0    0  501  0.00000000000E+00  0.00000000000E+00 -0.24943607445E+03  0.24943607446E+03  0.25500000920E-02 0. -1.
    10030    2    1    2    0    0  0.00000000000E+00  0.00000000000E+00  0.11906424437E+04  0.16895145926E+04  0.11986784931E+04 0.  0.
        1    1    3    3  502    0 -0.58600416749E+03  0.12252433807E+03  0.55559398669E+03  0.81676053761E+03  0.50400001928E-02 0. -1.
       -1    1    3    3    0  502  0.58600416749E+03 -0.12252433807E+03  0.63504845699E+03  0.87275405498E+03  0.50400001928E-02 0.  1.
</event>
<event>
 5   0  0.5745487E-05  0.1200034E+04  0.7818609E-02  0.9112826E-01
        1   -1    0    0  501    0  0.00000000000E+00  0.00000000000E+00  0.20191308103E+04  0.20191308103E+04  0.50400001928E-02 0. -1.
       -1   -1    0    0    0  501  0.00000000000E+00  0.00000000000E+00 -0.17830476235E+03  0.17830476242E+03  0.50400001928E-02 0.  1.
    10030    2    1    2    0    0  0.00000000000E+00  0.00000000000E+00  0.18408260479E+04  0.21974355727E+04  0.12000343984E+04 0.  0.
        3    1    3    3  502    0 -0.18333905675E+03 -0.36409737632E+02 -0.12363085236E+03  0.22410594945E+03  0.10100000352E+00 0.  1.
       -3    1    3    3    0  502  0.18333905675E+03  0.36409737632E+02  0.19644569003E+04  0.19733296232E+04  0.10100000352E+00 0. -1.
</event>
<event>
 5   0  0.5447807E-05  0.1199399E+04  0.7818609E-02  0.9113383E-01
        1   -1    0    0  501    0  0.00000000000E+00  0.00000000000E+00  0.56623426373E+03  0.56623426375E+03  0.50400001928E-02 0.  1.
       -1   -1    0    0    0  501  0.00000000000E+00  0.00000000000E+00 -0.63514258334E+03  0.63514258336E+03  0.50400001928E-02 0. -1.
    10030    2    1    2    0    0  0.00000000000E+00  0.00000000000E+00 -0.68908319612E+02  0.12013768471E+04  0.11993990046E+04 0.  0.
        2    1    3    3  502    0  0.71779105234E+02 -0.35854251535E+03  0.44165536211E+03  0.57337983409E+03  0.25500000920E-02 0.  1.
       -2    1    3    3    0  502 -0.71779105234E+02  0.35854251535E+03 -0.51056368172E+03  0.62799701302E+03  0.25500000920E-02 0. -1.
</event>
<event>
 5   0  0.5732931E-05  0.1199912E+04  0.7818609E-02  0.9112933E-01
        1   -1    0    0  501    0  0.00000000000E+00  0.00000000000E+00  0.13099910886E+04  0.13099910886E+04  0.50400001928E-02 0.  1.
       -1   -1    0    0    0  501  0.00000000000E+00  0.00000000000E+00 -0.27477084387E+03  0.27477084391E+03  0.50400001928E-02 0. -1.
    10030    2    1    2    0    0  0.00000000000E+00  0.00000000000E+00  0.10352202448E+04  0.15847619326E+04  0.11999122583E+04 0.  0.
        4    1    3    3  502    0 -0.24654892009E+03  0.35900825596E+03  0.10625978567E+04  0.11483854387E+04  0.12699999809E+01 0.  1.
       -4    1    3    3    0  502  0.24654892009E+03 -0.35900825596E+03 -0.27377611947E+02  0.43637649385E+03  0.12699999809E+01 0. -1.
</event>
<event>
 5   0  0.9838215E-05  0.1199939E+04  0.7818609E-02  0.9112910E-01
       -2   -1    0    0    0  501  0.00000000000E+00  0.00000000000E+00  0.11337870412E+03  0.11337870415E+03  0.25500000920E-02 0.  1.
        2   -1    0    0  501    0  0.00000000000E+00  0.00000000000E+00 -0.31748756489E+04  0.31748756489E+04  0.25500000920E-02 0. -1.
    10030    2    1    2    0    0  0.00000000000E+00  0.00000000000E+00 -0.30614969448E+04  0.32882543530E+04  0.11999388099E+04 0.  0.
        4    1    3    3  502    0 -0.15302837698E+02 -0.47439472724E+03 -0.52508367997E+03  0.70781284104E+03  0.12699999809E+01 0.  1.
       -4    1    3    3    0  502  0.15302837698E+02  0.47439472724E+03 -0.25364132648E+04  0.25804415120E+04  0.12699999809E+01 0. -1.
</event>
<event>
 5   0  0.5625746E-05  0.1199550E+04  0.7818609E-02  0.9113251E-01
       -1   -1    0    0    0  501  0.00000000000E+00  0.00000000000E+00  0.85312415302E+03  0.85312415303E+03  0.50400001928E-02 0.  1.
        1   -1    0    0  501    0  0.00000000000E+00  0.00000000000E+00 -0.42166186612E+03  0.42166186615E+03  0.50400001928E-02 0. -1.
    10030    2    1    2    0    0  0.00000000000E+00  0.00000000000E+00  0.43146228690E+03  0.12747860192E+04  0.11995497862E+04 0.  0.
        5    1    3    3  502    0 -0.42022005386E+03  0.82100338434E+01  0.67041595342E+03  0.79128499223E+03  0.46999998093E+01 0.  1.
       -5    1    3    3    0  502  0.42022005386E+03 -0.82100338434E+01 -0.23895366652E+03  0.48350102695E+03  0.46999998093E+01 0. -1.
</event>
<event>
 5   0  0.5625746E-05  0.1199793E+04  0.7818609E-02  0.9113038E-01
       -1   -1    0    0    0  501  0.00000000000E+00  0.00000000000E+00  0.25090785268E+03  0.25090785273E+03  0.50400001928E-02 0. -1.
        1   -1    0    0  501    0  0.00000000000E+00  0.00000000000E+00 -0.14342936236E+04  0.14342936236E+04  0.50400001928E-02 0.  1.
    10030    2    1    2    0    0  0.00000000000E+00  0.00000000000E+00 -0.11833857709E+04  0.16852014763E+04  0.11997925375E+04 0.  0.
        5    1    3    3  502    0 -0.73404821250E+02 -0.57130704551E+03 -0.82703164170E+03  0.10078608210E+04  0.46999998093E+01 0.  1.
       -5    1    3    3    0  502  0.73404821250E+02  0.57130704551E+03 -0.35635412921E+03  0.67734065538E+03  0.46999998093E+01 0. -1.
</event>
<event>
 5   0  0.5625746E-05  0.1200540E+04  0.7818609E-02  0.9112384E-01
        1   -1    0    0  501    0  0.00000000000E+00  0.00000000000E+00  0.27519209327E+03  0.27519209332E+03  0.50400001928E-02 0.  1.
       -1   -1    0    0    0  501  0.00000000000E+00  0.00000000000E+00 -0.13093545488E+04  0.13093545488E+04  0.50400001928E-02 0. -1.
    10030    2    1    2    0    0  0.00000000000E+00  0.00000000000E+00 -0.10341624556E+04  0.15845466422E+04  0.12005399105E+04 0.  0.
        5    1    3    3  502    0 -0.31921246799E+03 -0.50770282214E+03 -0.55055407172E+03  0.81411954357E+03  0.46999998093E+01 0. -1.
       -5    1    3    3    0  502  0.31921246799E+03  0.50770282214E+03 -0.48360838384E+03  0.77042709859E+03  0.46999998093E+01 0.  1.
</event>
<event>
 5   0  0.1004006E-04  0.1199911E+04  0.7818609E-02  0.9112935E-01
        2   -1    0    0  501    0  0.00000000000E+00  0.00000000000E+00  0.42642298332E+03  0.42642298333E+03  0.25500000920E-02 0.  1.
       -2   -1    0    0    0  501  0.00000000000E+00  0.00000000000E+00 -0.84410673830E+03  0.84410673830E+03  0.25500000920E-02 0. -1.
    10030    2    1    2    0    0  0.00000000000E+00  0.00000000000E+00 -0.41768375497E+03  0.12705297216E+04  0.11999108527E+04 0.  0.
        5    1    3    3  502    0 -0.10098972879E+03 -0.18504759694E+03  0.38589346789E+03  0.43974696931E+03  0.46999998093E+01 0.  1.
       -5    1    3    3    0  502  0.10098972879E+03  0.18504759694E+03 -0.80357722287E+03  0.83078275233E+03  0.46999998093E+01 0. -1.
</event>
<event>
 5   0  0.1012657E-04  0.1199905E+04  0.7818609E-02  0.9112940E-01
        2   -1    0    0  501    0  0.00000000000E+00  0.00000000000E+00  0.18349081102E+04  0.18349081102E+04  0.25500000920E-02 0.  1.
       -2   -1    0    0    0  501  0.00000000000E+00  0.00000000000E+00 -0.19616410534E+03  0.19616410536E+03  0.25500000920E-02 0. -1.
    10030    2    1    2    0    0  0.00000000000E+00  0.00000000000E+00  0.16387440049E+04  0.20310722156E+04  0.11999051760E+04 0.  0.
        1    1    3    3  502    0 -0.29858397341E+03 -0.40486645383E+03  0.26600378376E+03  0.56905821110E+03  0.50400001928E-02 0. -1.
       -1    1    3    3    0  502  0.29858397341E+03  0.40486645383E+03  0.13727402211E+04  0.14620140045E+04  0.50400001928E-02 0.  1.
</event>
<event>
 5   0  0.5447807E-05  0.1200328E+04  0.7818609E-02  0.9112569E-01
        1   -1    0    0  501    0  0.00000000000E+00  0.00000000000E+00  0.66989530460E+03  0.66989530462E+03  0.50400001928E-02 0. -1.
       -1   -1    0    0    0  501  0.00000000000E+00  0.00000000000E+00 -0.53769122337E+03  0.53769122340E+03  0.50400001928E-02 0.  1.
    10030    2    1    2    0    0  0.00000000000E+00  0.00000000000E+00  0.13220408123E+03  0.12075865280E+04  0.12003279983E+04 0.  0.
        2    1    3    3  502    0 -0.24226576043E+03 -0.11951327268E+03 -0.47306854934E+03  0.54476598040E+03  0.25500000920E-02 0.  1.
       -2    1    3    3    0  502  0.24226576043E+03  0.11951327268E+03  0.60527263057E+03  0.66282054762E+03  0.25500000920E-02 0. -1.
</event>
<event>
 5   0  0.3839750E-05  0.1199594E+04  0.7818609E-02  0.9113212E-01
        4   -1    0    0  501    0  0.00000000000E+00  0.00000000000E+00  0.49854816581E+03  0.49854978341E+03  0.12699999809E+01 0.  1.
       -4   -1    0    0    0  501  0.00000000000E+00  0.00000000000E+00 -0.72160510000E+03  0.72160621758E+03  0.12699999809E+01 0. -1.
    10030    2    1    2    0    0  0.00000000000E+00  0.00000000000E+00 -0.22305693419E+03  0.12201560010E+04  0.11995942109E+04 0.  0.
        2    1    3    3  502    0 -0.71760107982E+02  0.24406115857E+03 -0.66401581355E+03  0.71107830995E+03  0.25500000920E-02 0. -1.
       -2    1    3    3    0  502  0.71760107982E+02 -0.24406115857E+03  0.44095887937E+03  0.50907769104E+03  0.25500000920E-02 0.  1.
</event>
<event>
 5   0  0.1012657E-04  0.1200981E+04  0.7818609E-02  0.9111998E-01
       -2   -1    0    0    0  501  0.00000000000E+00  0.00000000000E+00  0.47129534891E+03  0.47129534892E+03  0.25500000920E-02 0. -1.
        2   -1    0    0  501    0  0.00000000000E+00  0.00000000000E+00 -0.76510178811E+03  0.76510178811E+03  0.25500000920E-02 0.  1.
    10030    2    1    2    0    0  0.00000000000E+00  0.00000000000E+00 -0.29380643919E+03  0.12363971370E+04  0.12009811226E+04 0.  0.
        1    1    3    3  502    0  0.46396871209E+03 -0.34187334584E+03  0.26725454404E+02  0.57693899186E+03  0.50400001928E-02 0.  1.
       -1    1    3    3    0  502 -0.46396871209E+03  0.34187334584E+03 -0.32053189360E+03  0.65945814517E+03  0.50400001928E-02 0. -1.
</event>
<event>
 5   0  0.3839750E-05  0.1200275E+04  0.7818609E-02  0.9112616E-01
        3   -1    0    0  501    0  0.00000000000E+00  0.00000000000E+00  0.23323040617E+03  0.23323042804E+03  0.10100000352E+00 0.  1.
       -3   -1    0    0    0  501  0.00000000000E+00  0.00000000000E+00 -0.15442460666E+04  0.15442460699E+04  0.10100000352E+00 0. -1.
    10030    2    1    2    0    0  0.00000000000E+00  0.00000000000E+00 -0.13110156604E+04  0.17774764979E+04  0.12002752346E+04 0.  0.
        4    1    3    3  502    0  0.36047998536E+03 -0.33825481046E+03 -0.15156653741E+03  0.51704561193E+03  0.12699999809E+01 0.  1.
       -4    1    3    3    0  502 -0.36047998536E+03  0.33825481046E+03 -0.11594491230E+04  0.12604308860E+04  0.12699999809E+01 0. -1.
</event>
<event>
 5   0  0.1012657E-04  0.1199859E+04  0.7818609E-02  0.9112980E-01
        2   -1    0    0  501    0  0.00000000000E+00  0.00000000000E+00  0.64176791378E+03  0.64176791378E+03  0.25500000920E-02 0. -1.
       -2   -1    0    0    0  501  0.00000000000E+00  0.00000000000E+00 -0.56081818639E+03  0.56081818640E+03  0.25500000920E-02 0.  1.
    10030    2    1    2    0    0  0.00000000000E+00  0.00000000000E+00  0.80949727385E+02  0.12025861002E+04  0.11998585208E+04 0.  0.
        1    1    3    3  502    0 -0.18684222358E+03 -0.38947485010E+03  0.45773175354E+03  0.62937988020E+03  0.50400001928E-02 0. -1.
       -1    1    3    3    0  502  0.18684222358E+03  0.38947485010E+03 -0.37678202616E+03  0.57320621998E+03  0.50400001928E-02 0.  1.
</event>
<event>
 5   0  0.1023063E-04  0.1200840E+04  0.7818609E-02  0.9112121E-01
        2   -1    0    0  501    0  0.00000000000E+00  0.00000000000E+00  0.12163181048E+04  0.12163181048E+04  0.25500000920E-02 0. -1.
       -2   -1    0    0    0  501  0.00000000000E+00  0.00000000000E+00 -0.29638990115E+03  0.29638990116E+03  0.25500000920E-02 0.  1.
    10030    2    1    2    0    0  0.00000000000E+00  0.00000000000E+00  0.91992820360E+03  0.15127080059E+04  0.12008403771E+04 0.  0.
        3    1    3    3  502    0 -0.26960234087E+03 -0.60339963468E+02  0.11314936008E+04  0.11647334941E+04  0.10100000352E+00 0. -1.
       -3    1    3    3    0  502  0.26960234087E+03  0.60339963468E+02 -0.21156539720E+03  0.34797451183E+03  0.10100000352E+00 0.  1.
</event>
<event>
 5   0  0.5732931E-05  0.1199426E+04  0.7818609E-02  0.9113359E-01
        1   -1    0    0  501    0  0.00000000000E+00  0.00000000000E+00  0.11592272241E+04  0.11592272241E+04  0.50400001928E-02 0. -1.
       -1   -1    0    0    0  501  0.00000000000E+00  0.00000000000E+00 -0.31025456351E+03  0.31025456355E+03  0.50400001928E-02 0.  1.
    10030    2    1    2    0    0  0.00000000000E+00  0.00000000000E+00  0.84897266055E+03  0.14694817876E+04  0.11994257567E+04 0.  0.
        4    1    3    3  502    0  0.37436274738E+03 -0.30212670514E+03 -0.14224881815E+02  0.48128159402E+03  0.12699999809E+01 0.  1.
       -4    1    3    3    0  502 -0.37436274738E+03  0.30212670514E+03  0.86319754236E+03  0.98820019359E+03  0.12699999809E+01 0. -1.
</event>
<event>
 5   0  0.5732931E-05  0.1198782E+04  0.7818609E-02  0.9113923E-01
       -1   -1    0    0    0  501  0.00000000000E+00  0.00000000000E+00  0.23959902383E+03  0.23959902388E+03  0.50400001928E-02 0. -1.
        1   -1    0    0  501    0  0.00000000000E+00  0.00000000000E+00 -0.14994624223E+04  0.14994624223E+04  0.50400001928E-02 0.  1.
    10030    2    1    2    0    0  0.00000000000E+00  0.00000000000E+00 -0.12598633985E+04  0.17390614462E+04  0.11987822700E+04 0.  0.
        4    1    3    3  502    0  0.31527188472E+03  0.44948933136E+03 -0.97879504437E+03  0.11222648404E+04  0.12699999809E+01 0.  1.
       -4    1    3    3    0  502 -0.31527188472E+03 -0.44948933136E+03 -0.28106835410E+03  0.61679660576E+03  0.12699999809E+01 0. -1.
</event>
<event>
 5   0  0.5620246E-05  0.1201561E+04  0.7818609E-02  0.9111492E-01
        1   -1    0    0  501    0  0.00000000000E+00  0.00000000000E+00  0.99502544844E+03  0.99502544845E+03  0.50400001928E-02 0.  1.
       -1   -1    0    0    0  501  0.00000000000E+00  0.00000000000E+00 -0.36274149056E+03  0.36274149059E+03  0.50400001928E-02 0. -1.
    10030    2    1    2    0    0  0.00000000000E+00  0.00000000000E+00  0.63228395788E+03  0.13577669390E+04  0.12015606757E+04 0.  0.
        1    1    3    3  502    0  0.53534122028E+03  0.21421736917E+03  0.12551713332E+03  0.59011342483E+03  0.50400001928E-02 0.  1.
       -1    1    3    3    0  502 -0.53534122028E+03 -0.21421736917E+03  0.50676682457E+03  0.76765351422E+03  0.50400001928E-02 0. -1.
</event>
<event>
 5   0  0.1004006E-04  0.1198409E+04  0.7818609E-02  0.9114250E-01
       -2   -1    0    0    0  501  0.00000000000E+00  0.00000000000E+00  0.17529831976E+03  0.17529831978E+03  0.25500000920E-02 0. -1.
        2   -1    0    0  501    0  0.00000000000E+00  0.00000000000E+00 -0.20481995702E+04  0.20481995702E+04  0.25500000920E-02 0.  1.
    10030    2    1    2    0    0  0.00000000000E+00  0.00000000000E+00 -0.18729012505E+04  0.22234978900E+04  0.11984088505E+04 0.  0.
        5    1    3    3  502    0 -0.31665453111E+02 -0.25987544498E+03 -0.19364373772E+04  0.19540598132E+04  0.46999998093E+01 0.  1.
       -5    1    3    3    0  502  0.31665453111E+02  0.25987544498E+03  0.63536126735E+02  0.26943807679E+03  0.46999998093E+01 0. -1.
</event>
<event>
 5   0  0.5620246E-05  0.1199552E+04  0.7818609E-02  0.9113249E-01
        1   -1    0    0  501    0  0.00000000000E+00  0.00000000000E+00  0.69779803180E+03  0.69779803182E+03  0.50400001928E-02 0. -1.
       -1   -1    0    0    0  501  0.00000000000E+00  0.00000000000E+00 -0.51552363102E+03  0.51552363104E+03  0.50400001928E-02 0.  1.
    10030    2    1    2    0    0  0.00000000000E+00  0.00000000000E+00  0.18227440078E+03  0.12133216629E+04  0.11995522083E+04 0.  0.
        1    1    3    3  502    0  0.74928448267E+01  0.59329601378E+03  0.25240785549E+01  0.59334869486E+03  0.50400001928E-02 0.  1.
       -1    1    3    3    0  502 -0.74928448267E+01 -0.59329601378E+03  0.17975032223E+03  0.61997296800E+03  0.50400001928E-02 0. -1.
</event>
<event>
 5   0  0.3839750E-05  0.1200502E+04  0.7818609E-02  0.9112417E-01
        3   -1    0    0  501    0  0.00000000000E+00  0.00000000000E+00  0.40404415231E+03  0.40404416493E+03  0.10100000352E+00 0.  1.
       -3   -1    0    0    0  501  0.00000000000E+00  0.00000000000E+00 -0.89173740832E+03  0.89173741404E+03  0.10100000352E+00 0. -1.
    10030    2    1    2    0    0  0.00000000000E+00  0.00000000000E+00 -0.48769325601E+03  0.12957815790E+04  0.12005020568E+04 0.  0.
        1    1    3    3  502    0 -0.47791349346E+03 -0.18965803051E+03 -0.57815381325E+03  0.77371397012E+03  0.50400001928E-02 0. -1.
       -1    1    3    3    0  502  0.47791349346E+03  0.18965803051E+03  0.90460557242E+02  0.52206760884E+03  0.50400001928E-02 0.  1.
</event>
<event>
 5   0  0.1004006E-04  0.1202957E+04  0.7818609E-02  0.9110272E-01
       -2   -1    0    0    0  501  0.00000000000E+00  0.00000000000E+00  0.57684733179E+03  0.57684733180E+03  0.25500000920E-02 0. -1.
        2   -1    0    0  501    0  0.00000000000E+00  0.00000000000E+00 -0.62716146091E+03  0.62716146091E+03  0.25500000920E-02 0.  1.
    10030    2    1    2    0    0  0.00000000000E+00  0.00000000000E+00 -0.50314129116E+02  0.12040087927E+04  0.12029570488E+04 0.  0.
        5    1    3    3  502    0  0.21613818812E+03  0.56103226659E+03 -0.41946855982E+02  0.60270602224E+03  0.46999998093E+01 0.  1.
       -5    1    3    3    0  502 -0.21613818812E+03 -0.56103226659E+03 -0.83672731333E+01  0.60130277047E+03  0.46999998093E+01 0. -1.
</event>
<event>
 5   0  0.1012657E-04  0.1199176E+04  0.7818609E-02  0.9113578E-01
       -2   -1    0    0    0  501  0.00000000000E+00  0.00000000000E+00  0.37708750487E+03  0.37708750488E+03  0.25500000920E-02 0.  1.
        2   -1    0    0  501    0  0.00000000000E+00  0.00000000000E+00 -0.95337553871E+03  0.95337553871E+03  0.25500000920E-02 0. -1.
    10030    2    1    2    0    0  0.00000000000E+00  0.00000000000E+00 -0.57628803384E+03  0.13304630436E+04  0.11991763892E+04 0.  0.
        1    1    3    3  502    0 -0.50627821986E+03 -0.31232225964E+03 -0.20479865428E+03  0.62913060535E+03  0.50400001928E-02 0.  1.
       -1    1    3    3    0  502  0.50627821986E+03  0.31232225964E+03 -0.37148937956E+03  0.70133243824E+03  0.50400001928E-02 0. -1.
</event>
<event>
 5   0  0.9838215E-05  0.1200082E+04  0.7818609E-02  0.9112785E-01
        2   -1    0    0  501    0  0.00000000000E+00  0.00000000000E+00  0.17921230996E+04  0.17921230996E+04  0.25500000920E-02 0. -1.
       -2   -1    0    0    0  501  0.00000000000E+00  0.00000000000E+00 -0.20090659856E+03  0.20090659857E+03  0.25500000920E-02 0.  1.
    10030    2    1    2    0    0  0.00000000000E+00  0.00000000000E+00  0.15912165010E+04  0.19930296982E+04  0.12000822574E+04 0.  0.
        4    1    3    3  502    0 -0.46267356546E+03 -0.37238316320E+03  0.65360058636E+03  0.88313724177E+03  0.12699999809E+01 0.  1.
       -4    1    3    3    0  502  0.46267356546E+03  0.37238316320E+03  0.93761591467E+03  0.11098924564E+04  0.12699999809E+01 0. -1.
</event>
<event>
 5   0  0.1004006E-04  0.1200360E+04  0.7818609E-02  0.9112542E-01
       -2   -1    0    0    0  501  0.00000000000E+00  0.00000000000E+00  0.29887674620E+03  0.29887674621E+03  0.25500000920E-02 0.  1.
        2   -1    0    0  501    0  0.00000000000E+00  0.00000000000E+00 -0.12052322091E+04  0.12052322091E+04  0.25500000920E-02 0. -1.
    10030    2    1    2    0    0  0.00000000000E+00  0.00000000000E+00 -0.90635546291E+03  0.15041089553E+04  0.12003597479E+04 0.  0.
        5    1    3    3  502    0  0.18770278717E+03  0.51686603124E+03 -0.15189588385E+03  0.57050616131E+03  0.46999998093E+01 0. -1.
       -5    1    3    3    0  502 -0.18770278717E+03 -0.51686603124E+03 -0.75445957905E+03  0.93360279401E+03  0.46999998093E+01 0.  1.
</event>
<event>
 5   0  0.5732931E-05  0.1199893E+04  0.7818609E-02  0.9112950E-01
        1   -1    0    0  501    0  0.00000000000E+00  0.00000000000E+00  0.83932935858E+03  0.83932935859E+03  0.50400001928E-02 0. -1.
       -1   -1    0    0    0  501  0.00000000000E+00  0.00000000000E+00 -0.42883763076E+03  0.42883763079E+03  0.50400001928E-02 0.  1.
    10030    2    1    2    0    0  0.00000000000E+00  0.00000000000E+00  0.41049172782E+03  0.12681669894E+04  0.11998933512E+04 0.  0.
        4    1    3    3  502    0 -0.11309651145E+03 -0.51368175638E+03 -0.99747339141E+02  0.53536054421E+03  0.12699999809E+01 0.  1.
       -4    1    3    3    0  502  0.11309651145E+03  0.51368175638E+03  0.51023906696E+03  0.73280644517E+03  0.12699999809E+01 0. -1.
</event>
<event>
 5   0  0.1012657E-04  0.1199927E+04  0.7818609E-02  0.9112920E-01
        2   -1    0    0  501    0  0.00000000000E+00  0.00000000000E+00  0.20597142311E+04  0.20597142311E+04  0.25500000920E-02 0. -1.
       -2   -1    0    0    0  501  0.00000000000E+00  0.00000000000E+00 -0.17476035156E+03  0.17476035158E+03  0.25500000920E-02 0.  1.
    10030    2    1    2    0    0  0.00000000000E+00  0.00000000000E+00  0.18849538796E+04  0.22344745827E+04  0.11999273031E+04 0.  0.
        1    1    3    3  502    0 -0.93081237571E+02 -0.23154718662E+03  0.19584775639E+04  0.19743131932E+04  0.50400001928E-02 0. -1.
       -1    1    3    3    0  502  0.93081237571E+02  0.23154718662E+03 -0.73523684333E+02  0.26016138953E+03  0.50400001928E-02 0.  1.
</event>
<event>
 5   0  0.5732931E-05  0.1199868E+04  0.7818609E-02  0.9112972E-01
        1   -1    0    0  501    0  0.00000000000E+00  0.00000000000E+00  0.59724596577E+03  0.59724596579E+03  0.50400001928E-02 0. -1.
       -1   -1    0    0    0  501  0.00000000000E+00  0.00000000000E+00 -0.60263368570E+03  0.60263368572E+03  0.50400001928E-02 0.  1.
    10030    2    1    2    0    0  0.00000000000E+00  0.00000000000E+00 -0.53877199313E+01  0.11998796515E+04  0.11998675554E+04 0.  0.
        4    1    3    3  502    0  0.23825018700E+03 -0.74139653312E+02 -0.54828077924E+03  0.60238962938E+03  0.12699999809E+01 0.  1.
       -4    1    3    3    0  502 -0.23825018700E+03  0.74139653312E+02  0.54289305931E+03  0.59749002213E+03  0.12699999809E+01 0. -1.
</event>
<event>
 5   0  0.5447807E-05  0.1196716E+04  0.7818609E-02  0.9115736E-01
        1   -1    0    0  501    0  0.00000000000E+00  0.00000000000E+00  0.21870446032E+04  0.21870446032E+04  0.50400001928E-02 0. -1.
       -1   -1    0    0    0  501  0.00000000000E+00  0.00000000000E+00 -0.16370596463E+03  0.16370596470E+03  0.50400001928E-02 0.  1.
    10030    2    1    2    0    0  0.00000000000E+00  0.00000000000E+00  0.20233386385E+04  0.23507505679E+04  0.11967159171E+04 0.  0.
        2    1    3    3  502    0  0.43808710661E+03  0.19113048755E+03  0.17187781543E+04  0.17839981838E+04  0.25500000920E-02 0. -1.
       -2    1    3    3    0  502 -0.43808710661E+03 -0.19113048755E+03  0.30456048426E+03  0.56675238406E+03  0.25500000920E-02 0.  1.
</event>
<event>
 5   0  0.3839750E-05  0.1199239E+04  0.7818609E-02  0.9113523E-01
        4   -1    0    0  501    0  0.00000000000E+00  0.00000000000E+00  0.38885143823E+03  0.38885351215E+03  0.12699999809E+01 0.  1.
       -4   -1    0    0    0  501  0.00000000000E+00  0.00000000000E+00 -0.92462457982E+03  0.92462545201E+03  0.12699999809E+01 0. -1.
    10030    2    1    2    0    0  0.00000000000E+00  0.00000000000E+00 -0.53577314159E+03  0.13134789642E+04  0.11992389795E+04 0.  0.
        3    1    3    3  502    0 -0.22284081256E+03 -0.25693227126E+03  0.27298945836E+03  0.43611406115E+03  0.10100000352E+00 0.  1.
       -3    1    3    3    0  502  0.22284081256E+03  0.25693227126E+03 -0.80876259995E+03  0.87736490301E+03  0.10100000352E+00 0. -1.
</event>
<event>
 5   0  0.5620246E-05  0.1200170E+04  0.7818609E-02  0.9112707E-01
        1   -1    0    0  501    0  0.00000000000E+00  0.00000000000E+00  0.13008665196E+04  0.13008665196E+04  0.50400001928E-02 0. -1.
       -1   -1    0    0    0  501  0.00000000000E+00  0.00000000000E+00 -0.27681723476E+03  0.27681723481E+03  0.50400001928E-02 0.  1.
    10030    2    1    2    0    0  0.00000000000E+00  0.00000000000E+00  0.10240492848E+04  0.15776837544E+04  0.12001704426E+04 0.  0.
        1    1    3    3  502    0  0.28791351829E+03 -0.50893885643E+03  0.33473423071E+03  0.67376550730E+03  0.50400001928E-02 0. -1.
       -1    1    3    3    0  502 -0.28791351829E+03  0.50893885643E+03  0.68931505413E+03  0.90391824712E+03  0.50400001928E-02 0.  1.
</event>
<event>
 5   0  0.5732931E-05  0.1200870E+04  0.7818609E-02  0.9112095E-01
        1   -1    0    0  501    0  0.00000000000E+00  0.00000000000E+00  0.14223956274E+04  0.14223956275E+04  0.50400001928E-02 0. -1.
       -1   -1    0    0    0  501  0.00000000000E+00  0.00000000000E+00 -0.25346141187E+03  0.25346141192E+03  0.50400001928E-02 0.  1.
    10030    2    1    2    0    0  0.00000000000E+00  0.00000000000E+00  0.11689342156E+04  0.16758570394E+04  0.12008703577E+04 0.  0.
        4    1    3    3  502    0  0.20287844725E+03  0.52501051276E+02 -0.20076774481E+03  0.29021599715E+03  0.12699999809E+01 0.  1.
       -4    1    3    3    0  502 -0.20287844725E+03 -0.52501051276E+02  0.13697019604E+04  0.13856410422E+04  0.12699999809E+01 0. -1.
</event>
<event>
 5   0  0.9838215E-05  0.1200054E+04  0.7818609E-02  0.9112809E-01
        2   -1    0    0  501    0  0.00000000000E+00  0.00000000000E+00  0.77940178534E+03  0.77940178535E+03  0.25500000920E-02 0.  1.
       -2   -1    0    0    0  501  0.00000000000E+00  0.00000000000E+00 -0.46193465799E+03  0.46193465800E+03  0.25500000920E-02 0. -1.
    10030    2    1    2    0    0  0.00000000000E+00  0.00000000000E+00  0.31746712735E+03  0.12413364433E+04  0.12000544940E+04 0.  0.
        4    1    3    3  502    0 -0.90280372895E+02  0.54258622907E+03  0.40673240248E+03  0.68409299210E+03  0.12699999809E+01 0.  1.
       -4    1    3    3    0  502  0.90280372895E+02 -0.54258622907E+03 -0.89265275131E+02  0.55724345124E+03  0.12699999809E+01 0. -1.
</event>
<event>
 5   0  0.9838215E-05  0.1200445E+04  0.7818609E-02  0.9112467E-01
        2   -1    0    0  501    0  0.00000000000E+00  0.00000000000E+00  0.45265495465E+03  0.45265495466E+03  0.25500000920E-02 0.  1.
       -2   -1    0    0    0  501  0.00000000000E+00  0.00000000000E+00 -0.79589822246E+03  0.79589822246E+03  0.25500000920E-02 0. -1.
    10030    2    1    2    0    0  0.00000000000E+00  0.00000000000E+00 -0.34324326781E+03  0.12485531771E+04  0.12004453737E+04 0.  0.
        4    1    3    3  502    0  0.46016366075E+03 -0.62452531179E+02 -0.56714389678E+03  0.73301072699E+03  0.12699999809E+01 0. -1.
       -4    1    3    3    0  502 -0.46016366075E+03  0.62452531179E+02  0.22390062897E+03  0.51554245013E+03  0.12699999809E+01 0.  1.
</event>
<event>
 5   0  0.5745487E-05  0.1200156E+04  0.7818609E-02  0.9112720E-01
        1   -1    0    0  501    0  0.00000000000E+00  0.00000000000E+00  0.29442865378E+04  0.29442865378E+04  0.50400001928E-02 0.  1.
       -1   -1    0    0    0  501  0.00000000000E+00  0.00000000000E+00 -0.12230246610E+03  0.12230246620E+03  0.50400001928E-02 0. -1.
    10030    2    1    2    0    0  0.00000000000E+00  0.00000000000E+00  0.28219840717E+04  0.30665890040E+04  0.12001558309E+04 0.  0.
        3    1    3    3  502    0 -0.18024135018E+03 -0.54498734217E+03  0.18579283324E+04  0.19445811493E+04  0.10100000352E+00 0.  1.
       -3    1    3    3    0  502  0.18024135018E+03  0.54498734217E+03  0.96405573923E+03  0.11220078547E+04  0.10100000352E+00 0. -1.
</event>
<event>
 5   0  0.9941209E-05  0.1199960E+04  0.7818609E-02  0.9112892E-01
       -2   -1    0    0    0  501  0.00000000000E+00  0.00000000000E+00  0.16584756576E+03  0.16584756578E+03  0.25500000920E-02 0. -1.
        2   -1    0    0  501    0  0.00000000000E+00  0.00000000000E+00 -0.21705223547E+04  0.21705223548E+04  0.25500000920E-02 0.  1.
    10030    2    1    2    0    0  0.00000000000E+00  0.00000000000E+00 -0.20046747890E+04  0.23363699205E+04  0.11999597476E+04 0.  0.
        2    1    3    3  502    0 -0.98137950278E+02 -0.57756531691E+03 -0.12544253230E+04  0.13844838907E+04  0.25500000920E-02 0.  1.
       -2    1    3    3    0  502  0.98137950278E+02  0.57756531691E+03 -0.75024946594E+03  0.95188602980E+03  0.25500000920E-02 0. -1.
</event>
<event>
 5   0  0.5625746E-05  0.1199823E+04  0.7818609E-02  0.9113011E-01
        1   -1    0    0  501    0  0.00000000000E+00  0.00000000000E+00  0.19587105638E+04  0.19587105638E+04  0.50400001928E-02 0.  1.
       -1   -1    0    0    0  501  0.00000000000E+00  0.00000000000E+00 -0.18374023546E+03  0.18374023553E+03  0.50400001928E-02 0. -1.
    10030    2    1    2    0    0  0.00000000000E+00  0.00000000000E+00  0.17749703283E+04  0.21424507993E+04  0.11998232208E+04 0.  0.
        5    1    3    3  502    0  0.41305999164E+03 -0.35143287115E+02  0.16617572270E+04  0.17126916765E+04  0.46999998093E+01 0.  1.
       -5    1    3    3    0  502 -0.41305999164E+03  0.35143287115E+02  0.11321310132E+03  0.42975912280E+03  0.46999998093E+01 0. -1.
</event>
<event>
 5   0  0.1012657E-04  0.1198537E+04  0.7818609E-02  0.9114138E-01
        2   -1    0    0  501    0  0.00000000000E+00  0.00000000000E+00  0.84001968343E+03  0.84001968343E+03  0.25500000920E-02 0.  1.
       -2   -1    0    0    0  501  0.00000000000E+00  0.00000000000E+00 -0.42751687735E+03  0.42751687735E+03  0.25500000920E-02 0. -1.
    10030    2    1    2    0    0  0.00000000000E+00  0.00000000000E+00  0.41250280608E+03  0.12675365608E+04  0.11985367612E+04 0.  0.
        1    1    3    3  502    0 -0.59138942624E+03 -0.45668031680E+02  0.29658280096E+03  0.66316542464E+03  0.50400001928E-02 0.  1.
       -1    1    3    3    0  502  0.59138942624E+03  0.45668031680E+02  0.11592000512E+03  0.60437113614E+03  0.50400001928E-02 0. -1.
</event>
<event>
 5   0  0.9838215E-05  0.1200357E+04  0.7818609E-02  0.9112544E-01
        2   -1    0    0  501    0  0.00000000000E+00  0.00000000000E+00  0.23495240743E+03  0.23495240745E+03  0.25500000920E-02 0. -1.
       -2   -1    0    0    0  501  0.00000000000E+00  0.00000000000E+00 -0.15331359111E+04  0.15331359111E+04  0.25500000920E-02 0.  1.
    10030    2    1    2    0    0  0.00000000000E+00  0.00000000000E+00 -0.12981835037E+04  0.17680883185E+04  0.12003565691E+04 0.  0.
        4    1    3    3  502    0  0.20409433512E+03  0.15403639623E+03  0.15070566526E+03  0.29680889379E+03  0.12699999809E+01 0. -1.
       -4    1    3    3    0  502 -0.20409433512E+03 -0.15403639623E+03 -0.14488891689E+04  0.14712794248E+04  0.12699999809E+01 0.  1.
</event>
<event>
 5   0  0.5745487E-05  0.1202710E+04  0.7818609E-02  0.9110488E-01
       -1   -1    0    0    0  501  0.00000000000E+00  0.00000000000E+00  0.66876432914E+03  0.66876432916E+03  0.50400001928E-02 0.  1.
        1   -1    0    0  501    0  0.00000000000E+00  0.00000000000E+00 -0.54074006217E+03  0.54074006219E+03  0.50400001928E-02 0. -1.
    10030    2    1    2    0    0  0.00000000000E+00  0.00000000000E+00  0.12802426697E+03  0.12095043913E+04  0.12027097155E+04 0.  0.
        3    1    3    3  502    0  0.35713488139E+03  0.46896746944E+02 -0.42025066808E+03  0.55349368795E+03  0.10100000352E+00 0. -1.
       -3    1    3    3    0  502 -0.35713488139E+03 -0.46896746944E+02  0.54827493505E+03  0.65601070340E+03  0.10100000352E+00 0.  1.
</event>
<event>
 5   0  0.9838215E-05  0.1203310E+04  0.7818609E-02  0.9109964E-01
       -2   -1    0    0    0  501  0.00000000000E+00  0.00000000000E+00  0.49668922910E+03  0.49668922911E+03  0.25500000920E-02 0.  1.
        2   -1    0    0  501    0  0.00000000000E+00  0.00000000000E+00 -0.72880326000E+03  0.72880326000E+03  0.25500000920E-02 0. -1.
    10030    2    1    2    0    0  0.00000000000E+00  0.00000000000E+00 -0.23211403089E+03  0.12254924891E+04  0.12033099840E+04 0.  0.
        4    1    3    3  502    0 -0.22311514064E+02  0.26633112200E+03 -0.66502730349E+03  0.71672379442E+03  0.12699999809E+01 0. -1.
       -4    1    3    3    0  502  0.22311514064E+02 -0.26633112200E+03  0.43291327260E+03  0.50876869469E+03  0.12699999809E+01 0.  1.
</event>
<event>
 5   0  0.1004006E-04  0.1199477E+04  0.7818609E-02  0.9113314E-01
       -2   -1    0    0    0  501  0.00000000000E+00  0.00000000000E+00  0.28987854612E+03  0.28987854613E+03  0.25500000920E-02 0. -1.
        2   -1    0    0  501    0  0.00000000000E+00  0.00000000000E+00 -0.12408181345E+04  0.12408181345E+04  0.25500000920E-02 0.  1.
    10030    2    1    2    0    0  0.00000000000E+00  0.00000000000E+00 -0.95093958834E+03  0.15306966806E+04  0.11994774809E+04 0.  0.
        5    1    3    3  502    0  0.39284614444E+03  0.32070053381E+03 -0.88400790715E+03  0.10191511151E+04  0.46999998093E+01 0.  1.
       -5    1    3    3    0  502 -0.39284614444E+03 -0.32070053381E+03 -0.66931681199E+02  0.51154556545E+03  0.46999998093E+01 0. -1.
</event>
<event>
 5   0  0.1012657E-04  0.1199719E+04  0.7818609E-02  0.9113102E-01
        2   -1    0    0  501    0  0.00000000000E+00  0.00000000000E+00  0.70119168689E+03  0.70119168690E+03  0.25500000920E-02 0.  1.
       -2   -1    0    0    0  501  0.00000000000E+00  0.00000000000E+00 -0.51317159375E+03  0.51317159375E+03  0.25500000920E-02 0. -1.
    10030    2    1    2    0    0  0.00000000000E+00  0.00000000000E+00  0.18802009315E+03  0.12143632807E+04  0.11997193930E+04 0.  0.
        1    1    3    3  502    0 -0.56290508419E+03 -0.11633020839E+03 -0.79655744023E+02  0.58029293359E+03  0.50400001928E-02 0. -1.
       -1    1    3    3    0  502  0.56290508419E+03  0.11633020839E+03  0.26767583717E+03  0.63407034706E+03  0.50400001928E-02 0.  1.
</event>
<event>
 5   0  0.5732931E-05  0.1199866E+04  0.7818609E-02  0.9112974E-01
        1   -1    0    0  501    0  0.00000000000E+00  0.00000000000E+00  0.71288846009E+03  0.71288846011E+03  0.50400001928E-02 0.  1.
       -1   -1    0    0    0  501  0.00000000000E+00  0.00000000000E+00 -0.50487495560E+03  0.50487495562E+03  0.50400001928E-02 0. -1.
    10030    2    1    2    0    0  0.00000000000E+00  0.00000000000E+00  0.20801350449E+03  0.12177634157E+04  0.11998658753E+04 0.  0.
        4    1    3    3  502    0 -0.29785105082E+03  0.29855737726E+03  0.53706352784E+03  0.68285474431E+03  0.12699999809E+01 0.  1.
       -4    1    3    3    0  502  0.29785105082E+03 -0.29855737726E+03 -0.32905002335E+03  0.53490867142E+03  0.12699999809E+01 0. -1.
</event>
<event>
 5   0  0.1012657E-04  0.1198798E+04  0.7818609E-02  0.9113909E-01
       -2   -1    0    0    0  501  0.00000000000E+00  0.00000000000E+00  0.59984878009E+03  0.59984878009E+03  0.25500000920E-02 0. -1.
        2   -1    0    0  501    0  0.00000000000E+00  0.00000000000E+00 -0.59894953591E+03  0.59894953592E+03  0.25500000920E-02 0.  1.
    10030    2    1    2    0    0  0.00000000000E+00  0.00000000000E+00  0.89924417240E+00  0.11987983160E+04  0.11987979787E+04 0.  0.
        1    1    3    3  502    0 -0.78321990247E+02 -0.83362426346E+02 -0.58793436389E+03  0.59895779863E+03  0.50400001928E-02 0.  1.
       -1    1    3    3    0  502  0.78321990247E+02  0.83362426346E+02  0.58883360806E+03  0.59984051738E+03  0.50400001928E-02 0. -1.
</event>
<event>
 5   0  0.5447807E-05  0.1199752E+04  0.7818609E-02  0.9113074E-01
       -1   -1    0    0    0  501  0.00000000000E+00  0.00000000000E+00  0.50202677377E+03  0.50202677379E+03  0.50400001928E-02 0. -1.
        1   -1    0    0  501    0  0.00000000000E+00  0.00000000000E+00 -0.71679672348E+03  0.71679672350E+03  0.50400001928E-02 0.  1.
    10030    2    1    2    0    0  0.00000000000E+00  0.00000000000E+00 -0.21476994971E+03  0.12188234973E+04  0.11997518853E+04 0.  0.
        2    1    3    3  502    0  0.32184327613E+03 -0.38642973845E+03  0.22483037062E+03  0.55087179335E+03  0.25500000920E-02 0. -1.
       -2    1    3    3    0  502 -0.32184327613E+03  0.38642973845E+03 -0.43960032033E+03  0.66795170394E+03  0.25500000920E-02 0.  1.
</event>
<event>
 5   0  0.1023063E-04  0.1200122E+04  0.7818609E-02  0.9112750E-01
       -2   -1    0    0    0  501  0.00000000000E+00  0.00000000000E+00  0.15481335847E+04  0.15481335847E+04  0.25500000920E-02 0. -1.
        2   -1    0    0  501    0  0.00000000000E+00  0.00000000000E+00 -0.23258528969E+03  0.23258528971E+03  0.25500000920E-02 0.  1.
    10030    2    1    2    0    0  0.00000000000E+00  0.00000000000E+00  0.13155482950E+04  0.17807188744E+04  0.12001218243E+04 0.  0.
        3    1    3    3  502    0  0.30115266804E+03  0.29202105538E+03  0.12944252239E+04  0.13607005169E+04  0.10100000352E+00 0. -1.
       -3    1    3    3    0  502 -0.30115266804E+03 -0.29202105538E+03  0.21123071050E+02  0.42001835744E+03  0.10100000352E+00 0.  1.
</event>
<event>
 5   0  0.5732931E-05  0.1198951E+04  0.7818609E-02  0.9113775E-01
       -1   -1    0    0    0  501  0.00000000000E+00  0.00000000000E+00  0.31591694759E+03  0.31591694763E+03  0.50400001928E-02 0. -1.
        1   -1    0    0  501    0  0.00000000000E+00  0.00000000000E+00 -0.11375486358E+04  0.11375486358E+04  0.50400001928E-02 0.  1.
    10030    2    1    2    0    0  0.00000000000E+00  0.00000000000E+00 -0.82163168819E+03  0.14534655834E+04  0.11989510295E+04 0.  0.
        4    1    3    3  502    0  0.69391067541E+02 -0.69641111959E+02 -0.11277079175E+04  0.11319857617E+04  0.12699999809E+01 0.  1.
       -4    1    3    3    0  502 -0.69391067541E+02  0.69641111959E+02  0.30607622928E+03  0.32147982170E+03  0.12699999809E+01 0. -1.
</event>
<event>
 5   0  0.5732931E-05  0.1199708E+04  0.7818609E-02  0.9113112E-01
        1   -1    0    0  501    0  0.00000000000E+00  0.00000000000E+00  0.15323544331E+04  0.15323544332E+04  0.50400001928E-02 0. -1.
       -1   -1    0    0    0  501  0.00000000000E+00  0.00000000000E+00 -0.23481816726E+03  0.23481816731E+03  0.50400001928E-02 0.  1.
    10030    2    1    2    0    0  0.00000000000E+00  0.00000000000E+00  0.12975362659E+04  0.17671726005E+04  0.11997077305E+04 0.  0.
        4    1    3    3  502    0 -0.26660937340E+03 -0.22044452213E+03 -0.73073330506E+02  0.35357837865E+03  0.12699999809E+01 0.  1.
       -4    1    3    3    0  502  0.26660937340E+03  0.22044452213E+03  0.13706095964E+04  0.14135942218E+04  0.12699999809E+01 0. -1.
</event>
<event>
 5   0  0.1012657E-04  0.1200889E+04  0.7818609E-02  0.9112079E-01
       -2   -1    0    0    0  501  0.00000000000E+00  0.00000000000E+00  0.64734614451E+03  0.64734614452E+03  0.25500000920E-02 0. -1.
        2   -1    0    0  501    0  0.00000000000E+00  0.00000000000E+00 -0.55694108252E+03  0.55694108253E+03  0.25500000920E-02 0.  1.
    10030    2    1    2    0    0  0.00000000000E+00  0.00000000000E+00  0.90405061989E+02  0.12042872270E+04  0.12008891081E+04 0.  0.
        1    1    3    3  502    0 -0.36086186118E+03  0.33361725131E+03 -0.30075467857E+03  0.57617282992E+03  0.50400001928E-02 0.  1.
       -1    1    3    3    0  502  0.36086186118E+03 -0.33361725131E+03  0.39115974055E+03  0.62811439713E+03  0.50400001928E-02 0. -1.
</event>
<event>
 5   0  0.9838215E-05  0.1200178E+04  0.7818609E-02  0.9112701E-01
       -2   -1    0    0    0  501  0.00000000000E+00  0.00000000000E+00  0.24882870151E+03  0.24882870152E+03  0.25500000920E-02 0. -1.
        2   -1    0    0  501    0  0.00000000000E+00  0.00000000000E+00 -0.14472075227E+04  0.14472075227E+04  0.25500000920E-02 0.  1.
    10030    2    1    2    0    0  0.00000000000E+00  0.00000000000E+00 -0.11983788212E+04  0.16960362242E+04  0.12001779346E+04 0.  0.
        4    1    3    3  502    0 -0.13269307001E+03 -0.46383085189E+03 -0.94872301364E+02  0.49167964821E+03  0.12699999809E+01 0. -1.
       -4    1    3    3    0  502  0.13269307001E+03  0.46383085189E+03 -0.11035065198E+04  0.12043565760E+04  0.12699999809E+01 0.  1.
</event>
<event>
 5   0  0.5625746E-05  0.1200090E+04  0.7818609E-02  0.9112777E-01
       -1   -1    0    0    0  501  0.00000000000E+00  0.00000000000E+00  0.32776888374E+03  0.32776888377E+03  0.50400001928E-02 0.  1.
        1   -1    0    0  501    0  0.00000000000E+00  0.00000000000E+00 -0.10985002243E+04  0.10985002243E+04  0.50400001928E-02 0. -1.
    10030    2    1    2    0    0  0.00000000000E+00  0.00000000000E+00 -0.77073134056E+03  0.14262691081E+04  0.12000903172E+04 0.  0.
        5    1    3    3  502    0  0.12494875324E+03 -0.54605465952E+03 -0.64093943741E+03  0.85124223024E+03  0.46999998093E+01 0.  1.
       -5    1    3    3    0  502 -0.12494875324E+03  0.54605465952E+03 -0.12979190315E+03  0.57502687784E+03  0.46999998093E+01 0. -1.
</event>
<event>
 5   0  0.1012657E-04  0.1199716E+04  0.7818609E-02  0.9113105E-01
        2   -1    0    0  501    0  0.00000000000E+00  0.00000000000E+00  0.59739643265E+03  0.59739643265E+03  0.25500000920E-02 0.  1.
       -2   -1    0    0    0  501  0.00000000000E+00  0.00000000000E+00 -0.60232964790E+03  0.60232964791E+03  0.25500000920E-02 0. -1.
    10030    2    1    2    0    0  0.00000000000E+00  0.00000000000E+00 -0.49332152543E+01  0.11997260806E+04  0.11997159379E+04 0.  0.
        1    1    3    3  502    0  0.29037625357E+03 -0.20023238618E+03 -0.48766984995E+03  0.60185817240E+03  0.50400001928E-02 0. -1.
       -1    1    3    3    0  502 -0.29037625357E+03  0.20023238618E+03  0.48273663469E+03  0.59786790816E+03  0.50400001928E-02 0.  1.
</event>
<event>
 5   0  0.1023063E-04  0.1200167E+04  0.7818609E-02  0.9112710E-01
       -2   -1    0    0    0  501  0.00000000000E+00  0.00000000000E+00  0.20016031934E+03  0.20016031935E+03  0.25500000920E-02 0. -1.
        2   -1    0    0  501    0  0.00000000000E+00  0.00000000000E+00 -0.17990591298E+04  0.17990591298E+04  0.25500000920E-02 0.  1.
    10030    2    1    2    0    0  0.00000000000E+00  0.00000000000E+00 -0.15988988105E+04  0.19992194491E+04  0.12001670716E+04 0.  0.
        3    1    3    3  502    0 -0.28115593828E+03  0.50913358814E+02  0.79572522213E+02  0.29660180078E+03  0.10100000352E+00 0. -1.
       -3    1    3    3    0  502  0.28115593828E+03 -0.50913358814E+02 -0.16784713327E+04  0.17026176484E+04  0.10100000352E+00 0.  1.
</event>
<event>
 5   0  0.5620246E-05  0.1199078E+04  0.7818609E-02  0.9113664E-01
       -1   -1    0    0    0  501  0.00000000000E+00  0.00000000000E+00  0.28075349124E+03  0.28075349129E+03  0.50400001928E-02 0. -1.
        1   -1    0    0  501    0  0.00000000000E+00  0.00000000000E+00 -0.12802943796E+04  0.12802943796E+04  0.50400001928E-02 0.  1.
    10030    2    1    2    0    0  0.00000000000E+00  0.00000000000E+00 -0.99954088831E+03  0.15610478709E+04  0.11990781741E+04 0.  0.
        1    1    3    3  502    0 -0.92372610720E+02  0.59223515668E+03 -0.48269966905E+03  0.76959349695E+03  0.50400001928E-02 0.  1.
       -1    1    3    3    0  502  0.92372610720E+02 -0.59223515668E+03 -0.51684121926E+03  0.79145437390E+03  0.50400001928E-02 0. -1.
</event>
<event>
 5   0  0.5732931E-05  0.1200006E+04  0.7818609E-02  0.9112851E-01
       -1   -1    0    0    0  501  0.00000000000E+00  0.00000000000E+00  0.70246737240E+03  0.70246737241E+03  0.50400001928E-02 0. -1.
        1   -1    0    0  501    0  0.00000000000E+00  0.00000000000E+00 -0.51248454412E+03  0.51248454415E+03  0.50400001928E-02 0.  1.
    10030    2    1    2    0    0  0.00000000000E+00  0.00000000000E+00  0.18998282827E+03  0.12149519166E+04  0.12000061185E+04 0.  0.
        4    1    3    3  502    0 -0.42712389161E+03 -0.23439021033E+03 -0.25955351860E+03  0.55203553455E+03  0.12699999809E+01 0.  1.
       -4    1    3    3    0  502  0.42712389161E+03  0.23439021033E+03  0.44953634687E+03  0.66291638202E+03  0.12699999809E+01 0. -1.
</event>
<event>
 5   0  0.5745487E-05  0.1200088E+04  0.7818609E-02  0.9112779E-01
        1   -1    0    0  501    0  0.00000000000E+00  0.00000000000E+00  0.61840366596E+03  0.61840366598E+03  0.50400001928E-02 0. -1.
       -1   -1    0    0    0  501  0.00000000000E+00  0.00000000000E+00 -0.58222965152E+03  0.58222965154E+03  0.50400001928E-02 0.  1.
    10030    2    1    2    0    0  0.00000000000E+00  0.00000000000E+00  0.36174014442E+02  0.12006333175E+04  0.12000882483E+04 0.  0.
        3    1    3    3  502    0  0.39303009882E+02  0.52685135347E+03 -0.26653450090E+03  0.59174126576E+03  0.10100000352E+00 0.  1.
       -3    1    3    3    0  502 -0.39303009882E+02 -0.52685135347E+03  0.30270851534E+03  0.60889205176E+03  0.10100000352E+00 0. -1.
</event>
<event>
 5   0  0.5625746E-05  0.1200706E+04  0.7818609E-02  0.9112239E-01
        1   -1    0    0  501    0  0.00000000000E+00  0.00000000000E+00  0.99188631541E+03  0.99188631542E+03  0.50400001928E-02 0. -1.
       -1   -1    0    0    0  501  0.00000000000E+00  0.00000000000E+00 -0.36337202480E+03  0.36337202484E+03  0.50400001928E-02 0.  1.
    10030    2    1    2    0    0  0.00000000000E+00  0.00000000000E+00  0.62851429061E+03  0.13552583403E+04  0.12007060237E+04 0.  0.
        5    1    3    3  502    0  0.97983080090E+00  0.60022483529E+03  0.32716781623E+03  0.68361661986E+03  0.46999998093E+01 0.  1.
       -5    1    3    3    0  502 -0.97983080090E+00 -0.60022483529E+03  0.30134647438E+03  0.67164172040E+03  0.46999998093E+01 0. -1.
</event>
<event>
 5   0  0.3839750E-05  0.1199988E+04  0.7818609E-02  0.9112867E-01
       -3   -1    0    0    0  501  0.00000000000E+00  0.00000000000E+00  0.71014682394E+03  0.71014683112E+03  0.10100000352E+00 0. -1.
        3   -1    0    0  501    0  0.00000000000E+00  0.00000000000E+00 -0.50692736244E+03  0.50692737250E+03  0.10100000352E+00 0.  1.
    10030    2    1    2    0    0  0.00000000000E+00  0.00000000000E+00  0.20321946149E+03  0.12170742036E+04  0.11999881114E+04 0.  0.
        3    1    3    3  502    0  0.30944205610E+03  0.38695380209E+03 -0.24159460646E+03  0.55123098162E+03  0.10100000352E+00 0.  1.
       -3    1    3    3    0  502 -0.30944205610E+03 -0.38695380209E+03  0.44481406795E+03  0.66584322200E+03  0.10100000352E+00 0. -1.
</event>
<event>
 5   0  0.5745487E-05  0.1199660E+04  0.7818609E-02  0.9113154E-01
       -1   -1    0    0    0  501  0.00000000000E+00  0.00000000000E+00  0.42896859815E+03  0.42896859818E+03  0.50400001928E-02 0. -1.
        1   -1    0    0  501    0  0.00000000000E+00  0.00000000000E+00 -0.83874721051E+03  0.83874721052E+03  0.50400001928E-02 0.  1.
    10030    2    1    2    0    0  0.00000000000E+00  0.00000000000E+00 -0.40977861236E+03  0.12677158087E+04  0.11996603105E+04 0.  0.
        3    1    3    3  502    0 -0.31163586298E+03 -0.25740236246E+03 -0.67322810339E+03  0.78524453306E+03  0.10100000352E+00 0.  1.
       -3    1    3    3    0  502  0.31163586298E+03  0.25740236246E+03  0.26344949103E+03  0.48247127564E+03  0.10100000352E+00 0. -1.
</event>
<event>
 5   0  0.9838215E-05  0.1199767E+04  0.7818609E-02  0.9113061E-01
       -2   -1    0    0    0  501  0.00000000000E+00  0.00000000000E+00  0.37120812139E+03  0.37120812140E+03  0.25500000920E-02 0. -1.
        2   -1    0    0  501    0  0.00000000000E+00  0.00000000000E+00 -0.96942926461E+03  0.96942926462E+03  0.25500000920E-02 0.  1.
    10030    2    1    2    0    0  0.00000000000E+00  0.00000000000E+00 -0.59822114323E+03  0.13406373860E+04  0.11997666709E+04 0.  0.
        4    1    3    3  502    0 -0.45688880794E+03 -0.38327221757E+03 -0.37164301444E+03  0.70268422400E+03  0.12699999809E+01 0.  1.
       -4    1    3    3    0  502  0.45688880794E+03  0.38327221757E+03 -0.22657812879E+03  0.63795316201E+03  0.12699999809E+01 0. -1.
</event>
<event>
 5   0  0.1012657E-04  0.1199687E+04  0.7818609E-02  0.9113131E-01
        2   -1    0    0  501    0  0.00000000000E+00  0.00000000000E+00  0.12087814344E+04  0.12087814344E+04  0.25500000920E-02 0. -1.
       -2   -1    0    0    0  501  0.00000000000E+00  0.00000000000E+00 -0.29766526761E+03  0.29766526762E+03  0.25500000920E-02 0.  1.
    10030    2    1    2    0    0  0.00000000000E+00  0.00000000000E+00  0.91111616680E+03  0.15064467020E+04  0.11996870411E+04 0.  0.
        1    1    3    3  502    0  0.23176122751E+02  0.23780856305E+03 -0.23533038108E+03  0.33536611876E+03  0.50400001928E-02 0.  1.
       -1    1    3    3    0  502 -0.23176122751E+02 -0.23780856305E+03  0.11464465479E+04  0.11710805833E+04  0.50400001928E-02 0. -1.
</event>
<event>
 5   0  0.5447807E-05  0.1199835E+04  0.7818609E-02  0.9113001E-01
       -1   -1    0    0    0  501  0.00000000000E+00  0.00000000000E+00  0.54080466610E+03  0.54080466612E+03  0.50400001928E-02 0.  1.
        1   -1    0    0  501    0  0.00000000000E+00  0.00000000000E+00 -0.66549223346E+03  0.66549223348E+03  0.50400001928E-02 0. -1.
    10030    2    1    2    0    0  0.00000000000E+00  0.00000000000E+00 -0.12468756737E+03  0.12062968996E+04  0.11998354973E+04 0.  0.
        2    1    3    3  502    0 -0.22297838163E+03 -0.46643207890E+03  0.24363553464E+03  0.57152123027E+03  0.25500000920E-02 0.  1.
       -2    1    3    3    0  502  0.22297838163E+03  0.46643207890E+03 -0.36832310201E+03  0.63477566934E+03  0.25500000920E-02 0. -1.
</event>
<event>
 5   0  0.1004006E-04  0.1199432E+04  0.7818609E-02  0.9113354E-01
        2   -1    0    0  501    0  0.00000000000E+00  0.00000000000E+00  0.66381704514E+03  0.66381704515E+03  0.25500000920E-02 0. -1.
       -2   -1    0    0    0  501  0.00000000000E+00  0.00000000000E+00 -0.54180499618E+03  0.54180499619E+03  0.25500000920E-02 0.  1.
    10030    2    1    2    0    0  0.00000000000E+00  0.00000000000E+00  0.12201204896E+03  0.12056220413E+04  0.11994321850E+04 0.  0.
        5    1    3    3  502    0  0.29574750204E+03  0.48415642597E+03 -0.13432457742E+03  0.58304306177E+03  0.46999998093E+01 0.  1.
       -5    1    3    3    0  502 -0.29574750204E+03 -0.48415642597E+03  0.25633662639E+03  0.62257897957E+03  0.46999998093E+01 0. -1.
</event>
<event>
 5   0  0.5447807E-05  0.1200105E+04  0.7818609E-02  0.9112764E-01
        1   -1    0    0  501    0  0.00000000000E+00  0.00000000000E+00  0.63539890296E+03  0.63539890298E+03  0.50400001928E-02 0.  1.
       -1   -1    0    0    0  501  0.00000000000E+00  0.00000000000E+00 -0.56667273357E+03  0.56667273359E+03  0.50400001928E-02 0. -1.
    10030    2    1    2    0    0  0.00000000000E+00  0.00000000000E+00  0.68726169394E+02  0.12020716366E+04  0.12001053842E+04 0.  0.
        2    1    3    3  502    0 -0.19922566306E+03  0.50340382091E+03 -0.22482130106E+03  0.58621744186E+03  0.25500000920E-02 0. -1.
       -2    1    3    3    0  502  0.19922566306E+03 -0.50340382091E+03  0.29354747045E+03  0.61585419471E+03  0.25500000920E-02 0.  1.
</event>
<event>
 5   0  0.9941209E-05  0.1200156E+04  0.7818609E-02  0.9112720E-01
       -2   -1    0    0    0  501  0.00000000000E+00  0.00000000000E+00  0.14797963173E+04  0.14797963173E+04  0.25500000920E-02 0.  1.
        2   -1    0    0  501    0  0.00000000000E+00  0.00000000000E+00 -0.24333987758E+03  0.24333987760E+03  0.25500000920E-02 0. -1.
    10030    2    1    2    0    0  0.00000000000E+00  0.00000000000E+00  0.12364564397E+04  0.17231361949E+04  0.12001557477E+04 0.  0.
        2    1    3    3  502    0 -0.19720592834E+03 -0.40799837602E+03  0.11830144974E+04  0.12668370669E+04  0.25500000920E-02 0.  1.
       -2    1    3    3    0  502  0.19720592834E+03  0.40799837602E+03  0.53441942318E+02  0.45629912800E+03  0.25500000920E-02 0. -1.
</event>
<event>
 5   0  0.1023063E-04  0.1199871E+04  0.7818609E-02  0.9112969E-01
        2   -1    0    0  501    0  0.00000000000E+00  0.00000000000E+00  0.69050432011E+03  0.69050432012E+03  0.25500000920E-02 0. -1.
       -2   -1    0    0    0  501  0.00000000000E+00  0.00000000000E+00 -0.52124593973E+03  0.52124593974E+03  0.25500000920E-02 0.  1.
    10030    2    1    2    0    0  0.00000000000E+00  0.00000000000E+00  0.16925838038E+03  0.12117502599E+04  0.11998709484E+04 0.  0.
        3    1    3    3  502    0 -0.59073208451E+03 -0.10157228402E+03  0.11020258441E+03  0.60944724493E+03  0.10100000352E+00 0.  1.
       -3    1    3    3    0  502  0.59073208451E+03  0.10157228402E+03  0.59055795968E+02  0.60230301492E+03  0.10100000352E+00 0. -1.
</event>
<event>
 5   0  0.3839750E-05  0.1199419E+04  0.7818609E-02  0.9113365E-01
        3   -1    0    0  501    0  0.00000000000E+00  0.00000000000E+00  0.39872471710E+03  0.39872472990E+03  0.10100000352E+00 0.  1.
       -3   -1    0    0    0  501  0.00000000000E+00  0.00000000000E+00 -0.90200462076E+03  0.90200462641E+03  0.10100000352E+00 0. -1.
    10030    2    1    2    0    0  0.00000000000E+00  0.00000000000E+00 -0.50327990365E+03  0.13007293563E+04  0.11994191081E+04 0.  0.
        4    1    3    3  502    0  0.24643888912E+03  0.14426029151E+03  0.32026224641E+03  0.42908353167E+03  0.12699999809E+01 0.  1.
       -4    1    3    3    0  502 -0.24643888912E+03 -0.14426029151E+03 -0.82354215006E+03  0.87164582464E+03  0.12699999809E+01 0. -1.
</event>
<event>
 5   0  0.1012657E-04  0.1200273E+04  0.7818609E-02  0.9112617E-01
       -2   -1    0    0    0  501  0.00000000000E+00  0.00000000000E+00  0.38854684090E+03  0.38854684091E+03  0.25500000920E-02 0. -1.
        2   -1    0    0  501    0  0.00000000000E+00  0.00000000000E+00 -0.92695152317E+03  0.92695152317E+03  0.25500000920E-02 0.  1.
    10030    2    1    2    0    0  0.00000000000E+00  0.00000000000E+00 -0.53840468227E+03  0.13154983641E+04  0.12002734455E+04 0.  0.
        1    1    3    3  502    0 -0.34644311856E+03  0.33745639892E+03  0.12024668871E+03  0.49835621973E+03  0.50400001928E-02 0. -1.
       -1    1    3    3    0  502  0.34644311856E+03 -0.33745639892E+03 -0.65865137097E+03  0.81714214436E+03  0.50400001928E-02 0.  1.
</event>
<event>
 5   0  0.9838215E-05  0.1200007E+04  0.7818609E-02  0.9112851E-01
        2   -1    0    0  501    0  0.00000000000E+00  0.00000000000E+00  0.14562341681E+04  0.14562341681E+04  0.25500000920E-02 0. -1.
       -2   -1    0    0    0  501  0.00000000000E+00  0.00000000000E+00 -0.24721579186E+03  0.24721579187E+03  0.25500000920E-02 0.  1.
    10030    2    1    2    0    0  0.00000000000E+00  0.00000000000E+00  0.12090183762E+04  0.17034499600E+04  0.12000068050E+04 0.  0.
        4    1    3    3  502    0  0.97873906683E+02  0.41709414012E+03  0.12008073244E+04  0.12749457504E+04  0.12699999809E+01 0. -1.
       -4    1    3    3    0  502 -0.97873906683E+02 -0.41709414012E+03  0.82110518623E+01  0.42850420955E+03  0.12699999809E+01 0.  1.
</event>
<event>
 5   0  0.5625746E-05  0.1199920E+04  0.7818609E-02  0.9112926E-01
       -1   -1    0    0    0  501  0.00000000000E+00  0.00000000000E+00  0.66884758554E+03  0.66884758556E+03  0.50400001928E-02 0.  1.
        1   -1    0    0  501    0  0.00000000000E+00  0.00000000000E+00 -0.53816785339E+03  0.53816785341E+03  0.50400001928E-02 0. -1.
    10030    2    1    2    0    0  0.00000000000E+00  0.00000000000E+00  0.13067973215E+03  0.12070154390E+04  0.11999204463E+04 0.  0.
        5    1    3    3  502    0 -0.82640108841E+02 -0.23521275357E+02  0.66260782435E+03  0.66817202641E+03  0.46999998093E+01 0.  1.
       -5    1    3    3    0  502  0.82640108841E+02  0.23521275357E+02 -0.53192809220E+03  0.53884341256E+03  0.46999998093E+01 0. -1.
</event>
<event>
 5   0  0.5447807E-05  0.1201429E+04  0.7818609E-02  0.9111606E-01
       -1   -1    0    0    0  501  0.00000000000E+00  0.00000000000E+00  0.54517891269E+03  0.54517891271E+03  0.50400001928E-02 0. -1.
        1   -1    0    0  501    0  0.00000000000E+00  0.00000000000E+00 -0.66190762297E+03  0.66190762299E+03  0.50400001928E-02 0.  1.
    10030    2    1    2    0    0  0.00000000000E+00  0.00000000000E+00 -0.11672871028E+03  0.12070865357E+04  0.12014292792E+04 0.  0.
        2    1    3    3  502    0  0.26206364711E+03 -0.21309058501E+03 -0.55746614235E+03  0.65180783397E+03  0.25500000920E-02 0.  1.
       -2    1    3    3    0  502 -0.26206364711E+03  0.21309058501E+03  0.44073743207E+03  0.55527870173E+03  0.25500000920E-02 0. -1.
</event>
<event>
 5   0  0.5625746E-05  0.1192965E+04  0.7818609E-02  0.9119037E-01
        1   -1    0    0  501    0  0.00000000000E+00  0.00000000000E+00  0.48860295137E+03  0.48860295139E+03  0.50400001928E-02 0.  1.
       -1   -1    0    0    0  501  0.00000000000E+00  0.00000000000E+00 -0.72818042470E+03  0.72818042471E+03  0.50400001928E-02 0. -1.
    10030    2    1    2    0    0  0.00000000000E+00  0.00000000000E+00 -0.23957747333E+03  0.12167833761E+04  0.11929645505E+04 0.  0.
        5    1    3    3  502    0  0.36895955081E+03  0.41863736932E+02  0.35631291334E+03  0.51465007998E+03  0.46999998093E+01 0.  1.
       -5    1    3    3    0  502 -0.36895955081E+03 -0.41863736932E+02 -0.59589038667E+03  0.70213329613E+03  0.46999998093E+01 0. -1.
</event>
<event>
 5   0  0.1023063E-04  0.1198432E+04  0.7818609E-02  0.9114230E-01
       -2   -1    0    0    0  501  0.00000000000E+00  0.00000000000E+00  0.92001584043E+03  0.92001584043E+03  0.25500000920E-02 0. -1.
        2   -1    0    0  501    0  0.00000000000E+00  0.00000000000E+00 -0.39027569398E+03  0.39027569398E+03  0.25500000920E-02 0.  1.
    10030    2    1    2    0    0  0.00000000000E+00  0.00000000000E+00  0.52974014645E+03  0.13102915344E+04  0.11984320099E+04 0.  0.
        3    1    3    3  502    0 -0.16987881556E+03  0.89398380209E+00  0.89313555620E+03  0.90914836146E+03  0.10100000352E+00 0. -1.
       -3    1    3    3    0  502  0.16987881556E+03 -0.89398380209E+00 -0.36339540975E+03  0.40114317296E+03  0.10100000352E+00 0.  1.
</event>
<event>
 5   0  0.9941209E-05  0.1199297E+04  0.7818609E-02  0.9113472E-01
       -2   -1    0    0    0  501  0.00000000000E+00  0.00000000000E+00  0.59355461432E+03  0.59355461432E+03  0.25500000920E-02 0.  1.
        2   -1    0    0  501    0  0.00000000000E+00  0.00000000000E+00 -0.60580502923E+03  0.60580502923E+03  0.25500000920E-02 0. -1.
    10030    2    1    2    0    0  0.00000000000E+00  0.00000000000E+00 -0.12250414912E+02  0.11993596436E+04  0.11992970783E+04 0.  0.
        2    1    3    3  502    0  0.54904779731E+03 -0.14584225859E+03 -0.19811158137E+03  0.60164079549E+03  0.25500000920E-02 0. -1.
       -2    1    3    3    0  502 -0.54904779731E+03  0.14584225859E+03  0.18586116646E+03  0.59771884806E+03  0.25500000920E-02 0.  1.
</event>
<event>
 5   0  0.1004006E-04  0.1199851E+04  0.7818609E-02  0.9112987E-01
        2   -1    0    0  501    0  0.00000000000E+00  0.00000000000E+00  0.22403895637E+04  0.22403895637E+04  0.25500000920E-02 0.  1.
       -2   -1    0    0    0  501  0.00000000000E+00  0.00000000000E+00 -0.16064641020E+03  0.16064641022E+03  0.25500000920E-02 0. -1.
    10030    2    1    2    0    0  0.00000000000E+00  0.00000000000E+00  0.20797431535E+04  0.24010359739E+04  0.11998508922E+04 0.  0.
        5    1    3    3  502    0  0.45912704981E+02  0.44005009144E+03  0.22914608507E+03  0.49827911632E+03  0.46999998093E+01 0. -1.
       -5    1    3    3    0  502 -0.45912704981E+02 -0.44005009144E+03  0.18505970684E+04  0.19027568576E+04  0.46999998093E+01 0.  1.
</event>
<event>
 5   0  0.5732931E-05  0.1200021E+04  0.7818609E-02  0.9112838E-01
        1   -1    0    0  501    0  0.00000000000E+00  0.00000000000E+00  0.92335168395E+03  0.92335168396E+03  0.50400001928E-02 0. -1.
       -1   -1    0    0    0  501  0.00000000000E+00  0.00000000000E+00 -0.38989750360E+03  0.38989750363E+03  0.50400001928E-02 0.  1.
    10030    2    1    2    0    0  0.00000000000E+00  0.00000000000E+00  0.53345418035E+03  0.13132491876E+04  0.12000208607E+04 0.  0.
        4    1    3    3  502    0 -0.52225995221E+03  0.10000354374E+02  0.58980375590E+03  0.78786137622E+03  0.12699999809E+01 0. -1.
       -4    1    3    3    0  502  0.52225995221E+03 -0.10000354374E+02 -0.56349575549E+02  0.52538781137E+03  0.12699999809E+01 0.  1.
</event>
<event>
 5   0  0.5620246E-05  0.1199651E+04  0.7818609E-02  0.9113162E-01
        1   -1    0    0  501    0  0.00000000000E+00  0.00000000000E+00  0.54777365548E+03  0.54777365550E+03  0.50400001928E-02 0. -1.
       -1   -1    0    0    0  501  0.00000000000E+00  0.00000000000E+00 -0.65682323064E+03  0.65682323066E+03  0.50400001928E-02 0.  1.
    10030    2    1    2    0    0  0.00000000000E+00  0.00000000000E+00 -0.10904957517E+03  0.12045968862E+04  0.11996507193E+04 0.  0.
        1    1    3    3  502    0  0.44851969526E+03  0.34967891516E+03 -0.24595498922E+03  0.61962820908E+03  0.50400001928E-02 0.  1.
       -1    1    3    3    0  502 -0.44851969526E+03 -0.34967891516E+03  0.13690541405E+03  0.58496867708E+03  0.50400001928E-02 0. -1.
</event>
<event>
 5   0  0.9941209E-05  0.1200132E+04  0.7818609E-02  0.9112741E-01
        2   -1    0    0  501    0  0.00000000000E+00  0.00000000000E+00  0.19140979846E+04  0.19140979846E+04  0.25500000920E-02 0.  1.
       -2   -1    0    0    0  501  0.00000000000E+00  0.00000000000E+00 -0.18811962148E+03  0.18811962150E+03  0.25500000920E-02 0. -1.
    10030    2    1    2    0    0  0.00000000000E+00  0.00000000000E+00  0.17259783631E+04  0.21022176061E+04  0.12001323066E+04 0.  0.
        2    1    3    3  502    0  0.49555508643E+03 -0.15600859128E+03  0.33700871402E+03  0.61926440038E+03  0.25500000920E-02 0.  1.
       -2    1    3    3    0  502 -0.49555508643E+03  0.15600859128E+03  0.13889696490E+04  0.14829532057E+04  0.25500000920E-02 0. -1.
</event>
<event>
 5   0  0.3839750E-05  0.1199607E+04  0.7818609E-02  0.9113200E-01
       -3   -1    0    0    0  501  0.00000000000E+00  0.00000000000E+00  0.18046430110E+03  0.18046432936E+03  0.10100000352E+00 0. -1.
        3   -1    0    0  501    0  0.00000000000E+00  0.00000000000E+00 -0.19935482378E+04  0.19935482403E+04  0.10100000352E+00 0.  1.
    10030    2    1    2    0    0  0.00000000000E+00  0.00000000000E+00 -0.18130839367E+04  0.21740125697E+04  0.11996071406E+04 0.  0.
        2    1    3    3  502    0 -0.23951678598E+03  0.70371121805E+02  0.81841719505E+02  0.26271363233E+03  0.25500000920E-02 0. -1.
       -2    1    3    3    0  502  0.23951678598E+03 -0.70371121805E+02 -0.18949256562E+04  0.19112989374E+04  0.25500000920E-02 0.  1.
</event>
<event>
 5   0  0.5732931E-05  0.1200181E+04  0.7818609E-02  0.9112698E-01
        1   -1    0    0  501    0  0.00000000000E+00  0.00000000000E+00  0.79499649719E+03  0.79499649720E+03  0.50400001928E-02 0. -1.
       -1   -1    0    0    0  501  0.00000000000E+00  0.00000000000E+00 -0.45296859004E+03  0.45296859007E+03  0.50400001928E-02 0.  1.
    10030    2    1    2    0    0  0.00000000000E+00  0.00000000000E+00  0.34202790715E+03  0.12479650873E+04  0.12001807238E+04 0.  0.
        4    1    3    3  502    0 -0.18731165610E+03 -0.22462424692E+03  0.71586585590E+03  0.77330928183E+03  0.12699999809E+01 0. -1.
       -4    1    3    3    0  502  0.18731165610E+03  0.22462424692E+03 -0.37383794875E+03  0.47465580544E+03  0.12699999809E+01 0.  1.
</event>
<event>
 5   0  0.9838215E-05  0.1199682E+04  0.7818609E-02  0.9113135E-01
        2   -1    0    0  501    0  0.00000000000E+00  0.00000000000E+00  0.84864638071E+03  0.84864638071E+03  0.25500000920E-02 0.  1.
       -2   -1    0    0    0  501  0.00000000000E+00  0.00000000000E+00 -0.42398048655E+03  0.42398048656E+03  0.25500000920E-02 0. -1.
    10030    2    1    2    0    0  0.00000000000E+00  0.00000000000E+00  0.42466589416E+03  0.12726268673E+04  0.11996824670E+04 0.  0.
        4    1    3    3  502    0 -0.38614028480E+03 -0.44482465284E+03  0.92154672324E+02  0.59621085855E+03  0.12699999809E+01 0. -1.
       -4    1    3    3    0  502  0.38614028480E+03  0.44482465284E+03  0.33251122183E+03  0.67641600873E+03  0.12699999809E+01 0.  1.
</event>
<event>
 5   0  0.5625746E-05  0.1199997E+04  0.7818609E-02  0.9112859E-01
        1   -1    0    0  501    0  0.00000000000E+00  0.00000000000E+00  0.90744560189E+03  0.90744560191E+03  0.50400001928E-02 0. -1.
       -1   -1    0    0    0  501  0.00000000000E+00  0.00000000000E+00 -0.39671622402E+03  0.39671622405E+03  0.50400001928E-02 0.  1.
    10030    2    1    2    0    0  0.00000000000E+00  0.00000000000E+00  0.51072937788E+03  0.13041618260E+04  0.11999973212E+04 0.  0.
        5    1    3    3  502    0  0.12089407293E+03 -0.46165610542E+03 -0.13984147056E+03  0.49731223937E+03  0.46999998093E+01 0.  1.
       -5    1    3    3    0  502 -0.12089407293E+03  0.46165610542E+03  0.65057084844E+03  0.80684958659E+03  0.46999998093E+01 0. -1.
</event>
<event>
 5   0  0.1004006E-04  0.1199777E+04  0.7818609E-02  0.9113052E-01
       -2   -1    0    0    0  501  0.00000000000E+00  0.00000000000E+00  0.29807343116E+03  0.29807343117E+03  0.25500000920E-02 0.  1.
        2   -1    0    0  501    0  0.00000000000E+00  0.00000000000E+00 -0.12073069791E+04  0.12073069791E+04  0.25500000920E-02 0. -1.
    10030    2    1    2    0    0  0.00000000000E+00  0.00000000000E+00 -0.90923354795E+03  0.15053804103E+04  0.11997768688E+04 0.  0.
        5    1    3    3  502    0 -0.27119120946E+03 -0.42536133482E+02  0.21461925806E+03  0.34847885254E+03  0.46999998093E+01 0.  1.
       -5    1    3    3    0  502  0.27119120946E+03  0.42536133482E+02 -0.11238528060E+04  0.11569015577E+04  0.46999998093E+01 0. -1.
</event>
<event>
 5   0  0.1012657E-04  0.1200005E+04  0.7818609E-02  0.9112852E-01
       -2   -1    0    0    0  501  0.00000000000E+00  0.00000000000E+00  0.13751500305E+03  0.13751500307E+03  0.25500000920E-02 0. -1.
        2   -1    0    0  501    0  0.00000000000E+00  0.00000000000E+00 -0.26179188150E+04  0.26179188150E+04  0.25500000920E-02 0.  1.
    10030    2    1    2    0    0  0.00000000000E+00  0.00000000000E+00 -0.24804038119E+04  0.27554338181E+04  0.12000051897E+04 0.  0.
        1    1    3    3  502    0  0.13736227598E+03 -0.20438690931E+03  0.16129626817E+02  0.24678445746E+03  0.50400001928E-02 0. -1.
       -1    1    3    3    0  502 -0.13736227598E+03  0.20438690931E+03 -0.24965334388E+04  0.25086493606E+04  0.50400001928E-02 0.  1.
</event>
<event>
 5   0  0.5620246E-05  0.1200129E+04  0.7818609E-02  0.9112744E-01
       -1   -1    0    0    0  501  0.00000000000E+00  0.00000000000E+00  0.57506759378E+03  0.57506759380E+03  0.50400001928E-02 0. -1.
        1   -1    0    0  501    0  0.00000000000E+00  0.00000000000E+00 -0.62614801376E+03  0.62614801378E+03  0.50400001928E-02 0.  1.
    10030    2    1    2    0    0  0.00000000000E+00  0.00000000000E+00 -0.51080419981E+02  0.12012156076E+04  0.12001290458E+04 0.  0.
        1    1    3    3  502    0 -0.13158029257E+02  0.90794781587E+02 -0.61908688908E+03  0.62584774694E+03  0.50400001928E-02 0.  1.
       -1    1    3    3    0  502  0.13158029257E+02 -0.90794781587E+02  0.56800646910E+03  0.57536786064E+03  0.50400001928E-02 0. -1.
</event>
<event>
 5   0  0.3839750E-05  0.1200107E+04  0.7818609E-02  0.9112763E-01
        3   -1    0    0  501    0  0.00000000000E+00  0.00000000000E+00  0.71327576323E+03  0.71327577038E+03  0.10100000352E+00 0.  1.
       -3   -1    0    0    0  501  0.00000000000E+00  0.00000000000E+00 -0.50480345832E+03  0.50480346842E+03  0.10100000352E+00 0. -1.
    10030    2    1    2    0    0  0.00000000000E+00  0.00000000000E+00  0.20847230491E+03  0.12180792388E+04  0.12001067994E+04 0.  0.
        3    1    3    3  502    0  0.24405896003E+03  0.35960313718E+03  0.52417721831E+03  0.68091185820E+03  0.10100000352E+00 0.  1.
       -3    1    3    3    0  502 -0.24405896003E+03 -0.35960313718E+03 -0.31570491340E+03  0.53716738060E+03  0.10100000352E+00 0. -1.
</event>
<event>
 5   0  0.5447807E-05  0.1199796E+04  0.7818609E-02  0.9113035E-01
       -1   -1    0    0    0  501  0.00000000000E+00  0.00000000000E+00  0.17625145200E+03  0.17625145207E+03  0.50400001928E-02 0. -1.
        1   -1    0    0  501    0  0.00000000000E+00  0.00000000000E+00 -0.20418430598E+04  0.20418430599E+04  0.50400001928E-02 0.  1.
    10030    2    1    2    0    0  0.00000000000E+00  0.00000000000E+00 -0.18655916078E+04  0.22180945119E+04  0.11997963229E+04 0.  0.
        2    1    3    3  502    0 -0.37901632189E+03 -0.32398675374E+03 -0.31614937175E+03  0.59039919895E+03  0.25500000920E-02 0. -1.
       -2    1    3    3    0  502  0.37901632189E+03  0.32398675374E+03 -0.15494422361E+04  0.16276953130E+04  0.25500000920E-02 0.  1.
</event>
<event>
 5   0  0.5732931E-05  0.1200033E+04  0.7818609E-02  0.9112827E-01
       -1   -1    0    0    0  501  0.00000000000E+00  0.00000000000E+00  0.35749745310E+03  0.35749745313E+03  0.50400001928E-02 0.  1.
        1   -1    0    0  501    0  0.00000000000E+00  0.00000000000E+00 -0.10070559116E+04  0.10070559116E+04  0.50400001928E-02 0. -1.
    10030    2    1    2    0    0  0.00000000000E+00  0.00000000000E+00 -0.64955845846E+03  0.13645533647E+04  0.12000332054E+04 0.  0.
        4    1    3    3  502    0  0.12523025236E+03 -0.59917996418E+02  0.33898270688E+03  0.36631089373E+03  0.12699999809E+01 0.  1.
       -4    1    3    3    0  502 -0.12523025236E+03  0.59917996418E+02 -0.98854116534E+03  0.99824247098E+03  0.12699999809E+01 0. -1.
</event>
<event>
 5   0  0.5732931E-05  0.1200027E+04  0.7818609E-02  0.9112833E-01
        1   -1    0    0  501    0  0.00000000000E+00  0.00000000000E+00  0.15047315371E+04  0.15047315371E+04  0.50400001928E-02 0. -1.
       -1   -1    0    0    0  501  0.00000000000E+00  0.00000000000E+00 -0.23925591284E+03  0.23925591289E+03  0.50400001928E-02 0.  1.
    10030    2    1    2    0    0  0.00000000000E+00  0.00000000000E+00  0.12654756242E+04  0.17439874500E+04  0.12000265289E+04 0.  0.
        4    1    3    3  502    0 -0.19765730146E+03 -0.51663519305E+03  0.29491734396E+03  0.62686376844E+03  0.12699999809E+01 0.  1.
       -4    1    3    3    0  502  0.19765730146E+03  0.51663519305E+03  0.97055828027E+03  0.11171236815E+04  0.12699999809E+01 0. -1.
</event>
<event>
 5   0  0.5620246E-05  0.1199878E+04  0.7818609E-02  0.9112964E-01
        1   -1    0    0  501    0  0.00000000000E+00  0.00000000000E+00  0.99751574544E+03  0.99751574545E+03  0.50400001928E-02 0.  1.
       -1   -1    0    0    0  501  0.00000000000E+00  0.00000000000E+00 -0.36082288820E+03  0.36082288823E+03  0.50400001928E-02 0. -1.
    10030    2    1    2    0    0  0.00000000000E+00  0.00000000000E+00  0.63669285724E+03  0.13583386337E+04  0.11998775143E+04 0.  0.
        1    1    3    3  502    0 -0.29734798347E+03  0.49977163533E+03  0.15143313193E+03  0.60093219603E+03  0.50400001928E-02 0. -1.
       -1    1    3    3    0  502  0.29734798347E+03 -0.49977163533E+03  0.48525972531E+03  0.75740643765E+03  0.50400001928E-02 0.  1.
</event>
<event>
 5   0  0.1004006E-04  0.1198591E+04  0.7818609E-02  0.9114091E-01
       -2   -1    0    0    0  501  0.00000000000E+00  0.00000000000E+00  0.20014035388E+03  0.20014035390E+03  0.25500000920E-02 0. -1.
        2   -1    0    0  501    0  0.00000000000E+00  0.00000000000E+00 -0.17945162523E+04  0.17945162523E+04  0.25500000920E-02 0.  1.
    10030    2    1    2    0    0  0.00000000000E+00  0.00000000000E+00 -0.15943758984E+04  0.19946566062E+04  0.11985910358E+04 0.  0.
        5    1    3    3  502    0 -0.34388387407E+03  0.49014769208E+03 -0.83902940695E+03  0.10307731635E+04  0.46999998093E+01 0. -1.
       -5    1    3    3    0  502  0.34388387407E+03 -0.49014769208E+03 -0.75534649145E+03  0.96388344266E+03  0.46999998093E+01 0.  1.
</event>
<event>
 5   0  0.9941209E-05  0.1200554E+04  0.7818609E-02  0.9112372E-01
       -2   -1    0    0    0  501  0.00000000000E+00  0.00000000000E+00  0.16065957521E+03  0.16065957523E+03  0.25500000920E-02 0. -1.
        2   -1    0    0  501    0  0.00000000000E+00  0.00000000000E+00 -0.22428319567E+04  0.22428319567E+04  0.25500000920E-02 0.  1.
    10030    2    1    2    0    0  0.00000000000E+00  0.00000000000E+00 -0.20821723815E+04  0.24034915320E+04  0.12005539213E+04 0.  0.
        2    1    3    3  502    0 -0.18145033578E+03 -0.56468690830E+03 -0.85611204063E+03  0.10415005304E+04  0.25500000920E-02 0. -1.
       -2    1    3    3    0  502  0.18145033578E+03  0.56468690830E+03 -0.12260603409E+04  0.13619910015E+04  0.25500000920E-02 0.  1.
</event>
<event>
 5   0  0.5447807E-05  0.1199528E+04  0.7818609E-02  0.9113270E-01
       -1   -1    0    0    0  501  0.00000000000E+00  0.00000000000E+00  0.63155091790E+03  0.63155091792E+03  0.50400001928E-02 0. -1.
        1   -1    0    0  501    0  0.00000000000E+00  0.00000000000E+00 -0.56957683723E+03  0.56957683725E+03  0.50400001928E-02 0.  1.
    10030    2    1    2    0    0  0.00000000000E+00  0.00000000000E+00  0.61974080667E+02  0.12011277552E+04  0.11995278644E+04 0.  0.
        2    1    3    3  502    0 -0.34610799912E+03 -0.65615801325E+01  0.52141878455E+03  0.62586847682E+03  0.25500000920E-02 0. -1.
       -2    1    3    3    0  502  0.34610799912E+03  0.65615801325E+01 -0.45944470388E+03  0.57525927835E+03  0.25500000920E-02 0.  1.
</event>
<event>
 5   0  0.5620246E-05  0.1200013E+04  0.7818609E-02  0.9112845E-01
        1   -1    0    0  501    0  0.00000000000E+00  0.00000000000E+00  0.13675019759E+04  0.13675019759E+04  0.50400001928E-02 0. -1.
       -1   -1    0    0    0  501  0.00000000000E+00  0.00000000000E+00 -0.26325931215E+03  0.26325931220E+03  0.50400001928E-02 0.  1.
    10030    2    1    2    0    0  0.00000000000E+00  0.00000000000E+00  0.11042426638E+04  0.16307612881E+04  0.12000127159E+04 0.  0.
        1    1    3    3  502    0 -0.37110690584E+03  0.46771534519E+03  0.63285791379E+03  0.87005006681E+03  0.50400001928E-02 0. -1.
       -1    1    3    3    0  502  0.37110690584E+03 -0.46771534519E+03  0.47138474998E+03  0.76071122131E+03  0.50400001928E-02 0.  1.
</event>
<event>
 5   0  0.5745487E-05  0.1199261E+04  0.7818609E-02  0.9113503E-01
        1   -1    0    0  501    0  0.00000000000E+00  0.00000000000E+00  0.85512340430E+03  0.85512340432E+03  0.50400001928E-02 0. -1.
       -1   -1    0    0    0  501  0.00000000000E+00  0.00000000000E+00 -0.42047383356E+03  0.42047383360E+03  0.50400001928E-02 0.  1.
    10030    2    1    2    0    0  0.00000000000E+00  0.00000000000E+00  0.43464957074E+03  0.12755972379E+04  0.11992614661E+04 0.  0.
        3    1    3    3  502    0 -0.16152371847E+03  0.45404906737E+03  0.59683637739E+03  0.76711416281E+03  0.10100000352E+00 0. -1.
       -3    1    3    3    0  502  0.16152371847E+03 -0.45404906737E+03 -0.16218680665E+03  0.50848307510E+03  0.10100000352E+00 0.  1.
</event>
<event>
 5   0  0.5620246E-05  0.1199190E+04  0.7818609E-02  0.9113566E-01
        1   -1    0    0  501    0  0.00000000000E+00  0.00000000000E+00  0.51763706706E+03  0.51763706708E+03  0.50400001928E-02 0.  1.
       -1   -1    0    0    0  501  0.00000000000E+00  0.00000000000E+00 -0.69452953635E+03  0.69452953637E+03  0.50400001928E-02 0. -1.
    10030    2    1    2    0    0  0.00000000000E+00  0.00000000000E+00 -0.17689246929E+03  0.12121666034E+04  0.11991901137E+04 0.  0.
        1    1    3    3  502    0 -0.33909555882E+03  0.14220222463E+03  0.39028928523E+03  0.53622103361E+03  0.50400001928E-02 0.  1.
       -1    1    3    3    0  502  0.33909555882E+03 -0.14220222463E+03 -0.56718175452E+03  0.67594556984E+03  0.50400001928E-02 0. -1.
</event>
<event>
 5   0  0.5732931E-05  0.1200063E+04  0.7818609E-02  0.9112802E-01
        1   -1    0    0  501    0  0.00000000000E+00  0.00000000000E+00  0.70196320907E+03  0.70196320908E+03  0.50400001928E-02 0.  1.
       -1   -1    0    0    0  501  0.00000000000E+00  0.00000000000E+00 -0.51290093766E+03  0.51290093769E+03  0.50400001928E-02 0. -1.
    10030    2    1    2    0    0  0.00000000000E+00  0.00000000000E+00  0.18906227140E+03  0.12148641468E+04  0.12000626453E+04 0.  0.
        4    1    3    3  502    0  0.91335753904E+02 -0.41410273686E+03 -0.33521944157E+03  0.54055247990E+03  0.12699999809E+01 0. -1.
       -4    1    3    3    0  502 -0.91335753904E+02  0.41410273686E+03  0.52428171298E+03  0.67431166687E+03  0.12699999809E+01 0.  1.
</event>
<event>
 5   0  0.5732931E-05  0.1199945E+04  0.7818609E-02  0.9112904E-01
        1   -1    0    0  501    0  0.00000000000E+00  0.00000000000E+00  0.13751204707E+04  0.13751204707E+04  0.50400001928E-02 0. -1.
       -1   -1    0    0    0  501  0.00000000000E+00  0.00000000000E+00 -0.26177141870E+03  0.26177141875E+03  0.50400001928E-02 0.  1.
    10030    2    1    2    0    0  0.00000000000E+00  0.00000000000E+00  0.11133490520E+04  0.16368918895E+04  0.11999453930E+04 0.  0.
        4    1    3    3  502    0 -0.15679781123E+03 -0.38863646615E+03  0.11423680034E+04  0.12168114580E+04  0.12699999809E+01 0. -1.
       -4    1    3    3    0  502  0.15679781123E+03  0.38863646615E+03 -0.29018951351E+02  0.42008043143E+03  0.12699999809E+01 0.  1.
</event>
<event>
 5   0  0.5745487E-05  0.1199609E+04  0.7818609E-02  0.9113199E-01
        1   -1    0    0  501    0  0.00000000000E+00  0.00000000000E+00  0.11774572917E+04  0.11774572917E+04  0.50400001928E-02 0.  1.
       -1   -1    0    0    0  501  0.00000000000E+00  0.00000000000E+00 -0.30554414549E+03  0.30554414553E+03  0.50400001928E-02 0. -1.
    10030    2    1    2    0    0  0.00000000000E+00  0.00000000000E+00  0.87191314617E+03  0.14830014372E+04  0.11996085729E+04 0.  0.
        3    1    3    3  502    0 -0.28562714471E+03 -0.36896086794E+03 -0.29975826906E+02  0.46756127756E+03  0.10100000352E+00 0. -1.
       -3    1    3    3    0  502  0.28562714471E+03  0.36896086794E+03  0.90188897308E+03  0.10154401596E+04  0.10100000352E+00 0.  1.
</event>
<event>
 5   0  0.9941209E-05  0.1200591E+04  0.7818609E-02  0.9112339E-01
        2   -1    0    0  501    0  0.00000000000E+00  0.00000000000E+00  0.12851885318E+04  0.12851885318E+04  0.25500000920E-02 0.  1.
       -2   -1    0    0    0  501  0.00000000000E+00  0.00000000000E+00 -0.28039073654E+03  0.28039073656E+03  0.25500000920E-02 0. -1.
    10030    2    1    2    0    0  0.00000000000E+00  0.00000000000E+00  0.10047977952E+04  0.15655792683E+04  0.12005914526E+04 0.  0.
        2    1    3    3  502    0 -0.59017217697E+03  0.10653363726E+03  0.53695740400E+03  0.80496948269E+03  0.25500000920E-02 0. -1.
       -2    1    3    3    0  502  0.59017217697E+03 -0.10653363726E+03  0.46784039123E+03  0.76060978564E+03  0.25500000920E-02 0.  1.
</event>
<event>
 5   0  0.5625746E-05  0.1200195E+04  0.7818609E-02  0.9112686E-01
       -1   -1    0    0    0  501  0.00000000000E+00  0.00000000000E+00  0.22761614500E+03  0.22761614506E+03  0.50400001928E-02 0.  1.
        1   -1    0    0  501    0  0.00000000000E+00  0.00000000000E+00 -0.15821252576E+04  0.15821252576E+04  0.50400001928E-02 0. -1.
    10030    2    1    2    0    0  0.00000000000E+00  0.00000000000E+00 -0.13545091126E+04  0.18097414027E+04  0.12001954043E+04 0.  0.
        5    1    3    3  502    0  0.32310841704E+03 -0.47819969581E+03 -0.42938876742E+03  0.71935443407E+03  0.46999998093E+01 0.  1.
       -5    1    3    3    0  502 -0.32310841704E+03  0.47819969581E+03 -0.92512034521E+03  0.10903869686E+04  0.46999998093E+01 0. -1.
</event>
<event>
 5   0  0.1012657E-04  0.1202002E+04  0.7818609E-02  0.9111106E-01
        2   -1    0    0  501    0  0.00000000000E+00  0.00000000000E+00  0.57526700416E+03  0.57526700417E+03  0.25500000920E-02 0.  1.
       -2   -1    0    0    0  501  0.00000000000E+00  0.00000000000E+00 -0.62788613279E+03  0.62788613280E+03  0.25500000920E-02 0. -1.
    10030    2    1    2    0    0  0.00000000000E+00  0.00000000000E+00 -0.52619128629E+02  0.12031531370E+04  0.12020019544E+04 0.  0.
        1    1    3    3  502    0  0.15913738067E+02  0.51178950767E+02 -0.62548927931E+03  0.62778130795E+03  0.50400001928E-02 0. -1.
       -1    1    3    3    0  502 -0.15913738067E+02 -0.51178950767E+02  0.57287015068E+03  0.57537182901E+03  0.50400001928E-02 0.  1.
</event>
<event>
 5   0  0.5745487E-05  0.1199980E+04  0.7818609E-02  0.9112874E-01
        1   -1    0    0  501    0  0.00000000000E+00  0.00000000000E+00  0.13895098967E+04  0.13895098968E+04  0.50400001928E-02 0.  1.
       -1   -1    0    0    0  501  0.00000000000E+00  0.00000000000E+00 -0.25907548448E+03  0.25907548452E+03  0.50400001928E-02 0. -1.
    10030    2    1    2    0    0  0.00000000000E+00  0.00000000000E+00  0.11304344123E+04  0.16485853813E+04  0.11999799161E+04 0.  0.
        3    1    3    3  502    0  0.22058661844E+03 -0.54097204067E+03  0.37745369767E+03  0.69554331936E+03  0.10100000352E+00 0. -1.
       -3    1    3    3    0  502 -0.22058661844E+03  0.54097204067E+03  0.75298071461E+03  0.95304206192E+03  0.10100000352E+00 0.  1.
</event>
<event>
 5   0  0.1012657E-04  0.1199828E+04  0.7818609E-02  0.9113007E-01
        2   -1    0    0  501    0  0.00000000000E+00  0.00000000000E+00  0.12545130617E+04  0.12545130617E+04  0.25500000920E-02 0.  1.
       -2   -1    0    0    0  501  0.00000000000E+00  0.00000000000E+00 -0.28688190109E+03  0.28688190110E+03  0.25500000920E-02 0. -1.
    10030    2    1    2    0    0  0.00000000000E+00  0.00000000000E+00  0.96763116059E+03  0.15413949628E+04  0.11998284746E+04 0.  0.
        1    1    3    3  502    0  0.29788947048E+03  0.12692594262E+03  0.11326089150E+04  0.11779861145E+04  0.50400001928E-02 0.  1.
       -1    1    3    3    0  502 -0.29788947048E+03 -0.12692594262E+03 -0.16497775443E+03  0.36340884829E+03  0.50400001928E-02 0. -1.
</event>
<event>
 5   0  0.5620246E-05  0.1199341E+04  0.7818609E-02  0.9113433E-01
        1   -1    0    0  501    0  0.00000000000E+00  0.00000000000E+00  0.56883750295E+03  0.56883750298E+03  0.50400001928E-02 0.  1.
       -1   -1    0    0    0  501  0.00000000000E+00  0.00000000000E+00 -0.63217518830E+03  0.63217518832E+03  0.50400001928E-02 0. -1.
    10030    2    1    2    0    0  0.00000000000E+00  0.00000000000E+00 -0.63337685344E+02  0.12010126913E+04  0.11993414119E+04 0.  0.
        1    1    3    3  502    0  0.56701260953E+03 -0.19287101348E+03 -0.15865364147E+01  0.59891989809E+03  0.50400001928E-02 0. -1.
       -1    1    3    3    0  502 -0.56701260953E+03  0.19287101348E+03 -0.61751148929E+02  0.60209279320E+03  0.50400001928E-02 0.  1.
</event>
<event>
 5   0  0.1004006E-04  0.1199891E+04  0.7818609E-02  0.9112952E-01
        2   -1    0    0  501    0  0.00000000000E+00  0.00000000000E+00  0.88086960997E+03  0.88086960997E+03  0.25500000920E-02 0. -1.
       -2   -1    0    0    0  501  0.00000000000E+00  0.00000000000E+00 -0.40861274010E+03  0.40861274010E+03  0.25500000920E-02 0.  1.
    10030    2    1    2    0    0  0.00000000000E+00  0.00000000000E+00  0.47225686987E+03  0.12894823501E+04  0.11998909034E+04 0.  0.
        5    1    3    3  502    0 -0.48679281240E+03 -0.18307585132E+03  0.55750298523E+03  0.76244060626E+03  0.46999998093E+01 0. -1.
       -5    1    3    3    0  502  0.48679281240E+03  0.18307585132E+03 -0.85246115357E+02  0.52704174381E+03  0.46999998093E+01 0.  1.
</event>
<event>
 5   0  0.5447807E-05  0.1197853E+04  0.7818609E-02  0.9114738E-01
        1   -1    0    0  501    0  0.00000000000E+00  0.00000000000E+00  0.14939802297E+04  0.14939802297E+04  0.50400001928E-02 0. -1.
       -1   -1    0    0    0  501  0.00000000000E+00  0.00000000000E+00 -0.24010567875E+03  0.24010567880E+03  0.50400001928E-02 0.  1.
    10030    2    1    2    0    0  0.00000000000E+00  0.00000000000E+00  0.12538745509E+04  0.17340859085E+04  0.11978533085E+04 0.  0.
        2    1    3    3  502    0 -0.36586421628E+03  0.20503709559E+03  0.79603890838E+01  0.41947610554E+03  0.25500000920E-02 0.  1.
       -2    1    3    3    0  502  0.36586421628E+03 -0.20503709559E+03  0.12459141619E+04  0.13146098030E+04  0.25500000920E-02 0. -1.
</event>
<event>
 5   0  0.1023063E-04  0.1200574E+04  0.7818609E-02  0.9112354E-01
        2   -1    0    0  501    0  0.00000000000E+00  0.00000000000E+00  0.19331008569E+04  0.19331008569E+04  0.25500000920E-02 0.  1.
       -2   -1    0    0    0  501  0.00000000000E+00  0.00000000000E+00 -0.18640754928E+03  0.18640754930E+03  0.25500000920E-02 0. -1.
    10030    2    1    2    0    0  0.00000000000E+00  0.00000000000E+00  0.17466933076E+04  0.21195084062E+04  0.12005741847E+04 0.  0.
        3    1    3    3  502    0  0.58083945927E+03  0.15154849377E+03  0.87020856001E+03  0.10571680905E+04  0.10100000352E+00 0. -1.
       -3    1    3    3    0  502 -0.58083945927E+03 -0.15154849377E+03  0.87648474764E+03  0.10623403157E+04  0.10100000352E+00 0.  1.
</event>
<event>
 5   0  0.9941209E-05  0.1200414E+04  0.7818609E-02  0.9112494E-01
       -2   -1    0    0    0  501  0.00000000000E+00  0.00000000000E+00  0.29339070734E+03  0.29339070735E+03  0.25500000920E-02 0. -1.
        2   -1    0    0  501    0  0.00000000000E+00  0.00000000000E+00 -0.12278799350E+04  0.12278799350E+04  0.25500000920E-02 0.  1.
    10030    2    1    2    0    0  0.00000000000E+00  0.00000000000E+00 -0.93448922765E+03  0.15212706423E+04  0.12004141996E+04 0.  0.
        2    1    3    3  502    0  0.19335353580E+02  0.42926601114E+03  0.63816242787E+02  0.43441417688E+03  0.25500000920E-02 0. -1.
       -2    1    3    3    0  502 -0.19335353580E+02 -0.42926601114E+03 -0.99830547043E+03  0.10868564655E+04  0.25500000920E-02 0.  1.
</event>
<event>
 5   0  0.3839750E-05  0.1199957E+04  0.7818609E-02  0.9112894E-01
       -4   -1    0    0    0  501  0.00000000000E+00  0.00000000000E+00  0.48815247103E+03  0.48815412307E+03  0.12699999809E+01 0.  1.
        4   -1    0    0  501    0  0.00000000000E+00  0.00000000000E+00 -0.73741823380E+03  0.73741932741E+03  0.12699999809E+01 0. -1.
    10030    2    1    2    0    0  0.00000000000E+00  0.00000000000E+00 -0.24926576277E+03  0.12255734505E+04  0.11999570251E+04 0.  0.
        5    1    3    3  502    0  0.21880685940E+01 -0.19089985787E+03 -0.70554959245E+03  0.73093765861E+03  0.46999998093E+01 0. -1.
       -5    1    3    3    0  502 -0.21880685940E+01  0.19089985787E+03  0.45628382968E+03  0.49463579187E+03  0.46999998093E+01 0.  1.
</event>
<event>
 5   0  0.1004006E-04  0.1198622E+04  0.7818609E-02  0.9114063E-01
        2   -1    0    0  501    0  0.00000000000E+00  0.00000000000E+00  0.93158552400E+03  0.93158552400E+03  0.25500000920E-02 0. -1.
       -2   -1    0    0    0  501  0.00000000000E+00  0.00000000000E+00 -0.38555120227E+03  0.38555120228E+03  0.25500000920E-02 0.  1.
    10030    2    1    2    0    0  0.00000000000E+00  0.00000000000E+00  0.54603432173E+03  0.13171367263E+04  0.11986224073E+04 0.  0.
        5    1    3    3  502    0 -0.11481697469E+03  0.53763122090E+03  0.53518950052E+03  0.76725495035E+03  0.46999998093E+01 0. -1.
       -5    1    3    3    0  502  0.11481697469E+03 -0.53763122090E+03  0.10844821209E+02  0.54988177594E+03  0.46999998093E+01 0.  1.
</event>
<event>
 5   0  0.1004006E-04  0.1200720E+04  0.7818609E-02  0.9112227E-01
       -2   -1    0    0    0  501  0.00000000000E+00  0.00000000000E+00  0.46098553271E+03  0.46098553272E+03  0.25500000920E-02 0. -1.
        2   -1    0    0  501    0  0.00000000000E+00  0.00000000000E+00 -0.78187289109E+03  0.78187289110E+03  0.25500000920E-02 0.  1.
    10030    2    1    2    0    0  0.00000000000E+00  0.00000000000E+00 -0.32088735838E+03  0.12428584238E+04  0.12007199361E+04 0.  0.
        5    1    3    3  502    0  0.35189375628E+03  0.23308919769E+03 -0.60233346103E+03  0.73551850967E+03  0.46999998093E+01 0.  1.
       -5    1    3    3    0  502 -0.35189375628E+03 -0.23308919769E+03  0.28144610265E+03  0.50733991415E+03  0.46999998093E+01 0. -1.
</event>
<event>
 5   0  0.1023063E-04  0.1200060E+04  0.7818609E-02  0.9112804E-01
        2   -1    0    0  501    0  0.00000000000E+00  0.00000000000E+00  0.32582767047E+03  0.32582767048E+03  0.25500000920E-02 0. -1.
       -2   -1    0    0    0  501  0.00000000000E+00  0.00000000000E+00 -0.11049891344E+04  0.11049891344E+04  0.25500000920E-02 0.  1.
    10030    2    1    2    0    0  0.00000000000E+00  0.00000000000E+00 -0.77916146388E+03  0.14308168048E+04  0.12000600577E+04 0.  0.
        3    1    3    3  502    0  0.40696941419E+03 -0.28190616892E+03 -0.79380112646E+03  0.93552949217E+03  0.10100000352E+00 0.  1.
       -3    1    3    3    0  502 -0.40696941419E+03  0.28190616892E+03  0.14639662576E+02  0.49528731266E+03  0.10100000352E+00 0. -1.
</event>
<event>
 5   0  0.1012657E-04  0.1199849E+04  0.7818609E-02  0.9112989E-01
       -2   -1    0    0    0  501  0.00000000000E+00  0.00000000000E+00  0.19739047117E+03  0.19739047118E+03  0.25500000920E-02 0. -1.
        2   -1    0    0  501    0  0.00000000000E+00  0.00000000000E+00 -0.18233378792E+04  0.18233378792E+04  0.25500000920E-02 0.  1.
    10030    2    1    2    0    0  0.00000000000E+00  0.00000000000E+00 -0.16259474081E+04  0.20207283504E+04  0.11998491957E+04 0.  0.
        1    1    3    3  502    0 -0.27090688646E+03  0.33552158649E+03 -0.11057079014E+03  0.44518667522E+03  0.50400001928E-02 0. -1.
       -1    1    3    3    0  502  0.27090688646E+03 -0.33552158649E+03 -0.15153766179E+04  0.15755416752E+04  0.50400001928E-02 0.  1.
</event>
<event>
 5   0  0.5625746E-05  0.1199971E+04  0.7818609E-02  0.9112882E-01
        1   -1    0    0  501    0  0.00000000000E+00  0.00000000000E+00  0.18224987572E+04  0.18224987573E+04  0.50400001928E-02 0. -1.
       -1   -1    0    0    0  501  0.00000000000E+00  0.00000000000E+00 -0.19752139268E+03  0.19752139274E+03  0.50400001928E-02 0.  1.
    10030    2    1    2    0    0  0.00000000000E+00  0.00000000000E+00  0.16249773646E+04  0.20200201500E+04  0.11999708209E+04 0.  0.
        5    1    3    3  502    0 -0.31896109847E+03  0.17533593375E+03  0.95949142672E+01  0.36413325085E+03  0.46999998093E+01 0.  1.
       -5    1    3    3    0  502  0.31896109847E+03 -0.17533593375E+03  0.16153824503E+04  0.16558868991E+04  0.46999998093E+01 0. -1.
</event>
<event>
 5   0  0.5620246E-05  0.1200916E+04  0.7818609E-02  0.9112055E-01
       -1   -1    0    0    0  501  0.00000000000E+00  0.00000000000E+00  0.10209986544E+04  0.10209986544E+04  0.50400001928E-02 0.  1.
        1   -1    0    0  501    0  0.00000000000E+00  0.00000000000E+00 -0.35313428513E+03  0.35313428517E+03  0.50400001928E-02 0. -1.
    10030    2    1    2    0    0  0.00000000000E+00  0.00000000000E+00  0.66786436925E+03  0.13741329396E+04  0.12009157006E+04 0.  0.
        1    1    3    3  502    0 -0.42763301109E+03 -0.40167129383E+03  0.18766741825E+03  0.61597798691E+03  0.50400001928E-02 0. -1.
       -1    1    3    3    0  502  0.42763301109E+03  0.40167129383E+03  0.48019695100E+03  0.75815495265E+03  0.50400001928E-02 0.  1.
</event>
<event>
 5   0  0.3839750E-05  0.1200123E+04  0.7818609E-02  0.9112749E-01
        3   -1    0    0  501    0  0.00000000000E+00  0.00000000000E+00  0.47558967105E+03  0.47558968178E+03  0.10100000352E+00 0.  1.
       -3   -1    0    0    0  501  0.00000000000E+00  0.00000000000E+00 -0.75711016024E+03  0.75711016698E+03  0.10100000352E+00 0. -1.
    10030    2    1    2    0    0  0.00000000000E+00  0.00000000000E+00 -0.28152048919E+03  0.12326998488E+04  0.12001229651E+04 0.  0.
        1    1    3    3  502    0  0.51093798160E+03 -0.47428975767E+02 -0.46027760411E+03  0.68932039115E+03  0.50400001928E-02 0. -1.
       -1    1    3    3    0  502 -0.51093798160E+03  0.47428975767E+02  0.17875711493E+03  0.54337945760E+03  0.50400001928E-02 0.  1.
</event>
<event>
 5   0  0.9941209E-05  0.1199778E+04  0.7818609E-02  0.9113051E-01
        2   -1    0    0  501    0  0.00000000000E+00  0.00000000000E+00  0.48021675419E+03  0.48021675419E+03  0.25500000920E-02 0. -1.
       -2   -1    0    0    0  501  0.00000000000E+00  0.00000000000E+00 -0.74938426562E+03  0.74938426562E+03  0.25500000920E-02 0.  1.
    10030    2    1    2    0    0  0.00000000000E+00  0.00000000000E+00 -0.26916751143E+03  0.12296010198E+04  0.11997781123E+04 0.  0.
        2    1    3    3  502    0  0.16881430450E+03  0.28684750413E+03  0.37690832640E+03  0.50283162842E+03  0.25500000920E-02 0. -1.
       -2    1    3    3    0  502 -0.16881430450E+03 -0.28684750413E+03 -0.64607583783E+03  0.72676939139E+03  0.25500000920E-02 0.  1.
</event>
<event>
 5   0  0.5447807E-05  0.1198651E+04  0.7818609E-02  0.9114038E-01
        1   -1    0    0  501    0  0.00000000000E+00  0.00000000000E+00  0.63966837559E+03  0.63966837561E+03  0.50400001928E-02 0. -1.
       -1   -1    0    0    0  501  0.00000000000E+00  0.00000000000E+00 -0.56152743838E+03  0.56152743840E+03  0.50400001928E-02 0.  1.
    10030    2    1    2    0    0  0.00000000000E+00  0.00000000000E+00  0.78140937212E+02  0.12011958140E+04  0.11986514829E+04 0.  0.
        2    1    3    3  502    0  0.31109667742E+03  0.34488038373E+03  0.41864580470E+03  0.62529027786E+03  0.25500000920E-02 0. -1.
       -2    1    3    3    0  502 -0.31109667742E+03 -0.34488038373E+03 -0.34050486748E+03  0.57590553615E+03  0.25500000920E-02 0.  1.
</event>
<event>
 5   0  0.1012657E-04  0.1200190E+04  0.7818609E-02  0.9112690E-01
       -2   -1    0    0    0  501  0.00000000000E+00  0.00000000000E+00  0.21749441735E+03  0.21749441737E+03  0.25500000920E-02 0. -1.
        2   -1    0    0  501    0  0.00000000000E+00  0.00000000000E+00 -0.16557388544E+04  0.16557388544E+04  0.25500000920E-02 0.  1.
    10030    2    1    2    0    0  0.00000000000E+00  0.00000000000E+00 -0.14382444370E+04  0.18732332717E+04  0.12001899140E+04 0.  0.
        1    1    3    3  502    0  0.16512970748E+03  0.50728022861E+03 -0.11480187008E+04  0.12659178441E+04  0.50400001928E-02 0.  1.
       -1    1    3    3    0  502 -0.16512970748E+03 -0.50728022861E+03 -0.29022573621E+03  0.60731542761E+03  0.50400001928E-02 0. -1.
</event>
<event>
 5   0  0.1004006E-04  0.1199240E+04  0.7818609E-02  0.9113522E-01
        2   -1    0    0  501    0  0.00000000000E+00  0.00000000000E+00  0.19149800478E+04  0.19149800478E+04  0.25500000920E-02 0.  1.
       -2   -1    0    0    0  501  0.00000000000E+00  0.00000000000E+00 -0.18775345603E+03  0.18775345605E+03  0.25500000920E-02 0. -1.
    10030    2    1    2    0    0  0.00000000000E+00  0.00000000000E+00  0.17272265918E+04  0.21027335039E+04  0.11992399630E+04 0.  0.
        5    1    3    3  502    0 -0.19065586179E+03 -0.17996928375E+03  0.18091164259E+04  0.18280215899E+04  0.46999998093E+01 0.  1.
       -5    1    3    3    0  502  0.19065586179E+03  0.17996928375E+03 -0.81889834122E+02  0.27471191394E+03  0.46999998093E+01 0. -1.
</event>
<event>
 5   0  0.3839750E-05  0.1200184E+04  0.7818609E-02  0.9112696E-01
       -3   -1    0    0    0  501  0.00000000000E+00  0.00000000000E+00  0.40902873762E+03  0.40902875009E+03  0.10100000352E+00 0. -1.
        3   -1    0    0  501    0  0.00000000000E+00  0.00000000000E+00 -0.88040330140E+03  0.88040330719E+03  0.10100000352E+00 0.  1.
    10030    2    1    2    0    0  0.00000000000E+00  0.00000000000E+00 -0.47137456377E+03  0.12894320573E+04  0.12001837572E+04 0.  0.
        3    1    3    3  502    0 -0.26385046342E+03  0.18915006387E+03  0.30653623931E+03  0.44649668523E+03  0.10100000352E+00 0. -1.
       -3    1    3    3    0  502  0.26385046342E+03 -0.18915006387E+03 -0.77791080308E+03  0.84293537206E+03  0.10100000352E+00 0.  1.
</event>
<event>
 5   0  0.5745487E-05  0.1199790E+04  0.7818609E-02  0.9113040E-01
       -1   -1    0    0    0  501  0.00000000000E+00  0.00000000000E+00  0.44984187235E+03  0.44984187238E+03  0.50400001928E-02 0.  1.
        1   -1    0    0  501    0  0.00000000000E+00  0.00000000000E+00 -0.80000171860E+03  0.80000171861E+03  0.50400001928E-02 0. -1.
    10030    2    1    2    0    0  0.00000000000E+00  0.00000000000E+00 -0.35015984625E+03  0.12498435910E+04  0.11997904334E+04 0.  0.
        3    1    3    3  502    0 -0.54942986215E+03 -0.30454795486E+01  0.75781345298E+02  0.55463976676E+03  0.10100000352E+00 0. -1.
       -3    1    3    3    0  502  0.54942986215E+03  0.30454795486E+01 -0.42594119155E+03  0.69520382423E+03  0.10100000352E+00 0.  1.
</event>
<event>
 5   0  0.5625746E-05  0.1199746E+04  0.7818609E-02  0.9113079E-01
       -1   -1    0    0    0  501  0.00000000000E+00  0.00000000000E+00  0.43867422987E+03  0.43867422990E+03  0.50400001928E-02 0.  1.
        1   -1    0    0  501    0  0.00000000000E+00  0.00000000000E+00 -0.82030744212E+03  0.82030744214E+03  0.50400001928E-02 0. -1.
    10030    2    1    2    0    0  0.00000000000E+00  0.00000000000E+00 -0.38163321226E+03  0.12589816720E+04  0.11997461989E+04 0.  0.
        5    1    3    3  502    0 -0.17902587827E+02 -0.43665466123E+03 -0.62200288389E+03  0.76019568099E+03  0.46999998093E+01 0. -1.
       -5    1    3    3    0  502  0.17902587827E+02  0.43665466123E+03  0.24036967163E+03  0.49878599105E+03  0.46999998093E+01 0.  1.
</event>
<event>
 5   0  0.1012657E-04  0.1200248E+04  0.7818609E-02  0.9112639E-01
       -2   -1    0    0    0  501  0.00000000000E+00  0.00000000000E+00  0.23183224747E+03  0.23183224749E+03  0.25500000920E-02 0. -1.
        2   -1    0    0  501    0  0.00000000000E+00  0.00000000000E+00 -0.15534896888E+04  0.15534896888E+04  0.25500000920E-02 0.  1.
    10030    2    1    2    0    0  0.00000000000E+00  0.00000000000E+00 -0.13216574413E+04  0.17853219363E+04  0.12002483176E+04 0.  0.
        1    1    3    3  502    0 -0.36950973845E+03  0.44229575615E+03 -0.41199110543E+03  0.70844876575E+03  0.50400001928E-02 0. -1.
       -1    1    3    3    0  502  0.36950973845E+03 -0.44229575615E+03 -0.90966633588E+03  0.10768731705E+04  0.50400001928E-02 0.  1.
</event>
<event>
 5   0  0.9838215E-05  0.1200129E+04  0.7818609E-02  0.9112743E-01
       -2   -1    0    0    0  501  0.00000000000E+00  0.00000000000E+00  0.10391190725E+04  0.10391190725E+04  0.25500000920E-02 0. -1.
        2   -1    0    0  501    0  0.00000000000E+00  0.00000000000E+00 -0.34652206501E+03  0.34652206502E+03  0.25500000920E-02 0.  1.
    10030    2    1    2    0    0  0.00000000000E+00  0.00000000000E+00  0.69259700749E+03  0.13856411375E+04  0.12001294710E+04 0.  0.
        4    1    3    3  502    0 -0.26073287243E+03  0.32332445225E+03 -0.15372204191E+03  0.44289096995E+03  0.12699999809E+01 0.  1.
       -4    1    3    3    0  502  0.26073287243E+03 -0.32332445225E+03  0.84631904940E+03  0.94275016758E+03  0.12699999809E+01 0. -1.
</event>
<event>
 5   0  0.3839750E-05  0.1200435E+04  0.7818609E-02  0.9112475E-01
        4   -1    0    0  501    0  0.00000000000E+00  0.00000000000E+00  0.32516499173E+03  0.32516747185E+03  0.12699999809E+01 0.  1.
       -4   -1    0    0    0  501  0.00000000000E+00  0.00000000000E+00 -0.11079268071E+04  0.11079275350E+04  0.12699999809E+01 0. -1.
    10030    2    1    2    0    0  0.00000000000E+00  0.00000000000E+00 -0.78276181540E+03  0.14330950069E+04  0.12004354373E+04 0.  0.
        1    1    3    3  502    0  0.35838763856E+03 -0.29551577086E+03  0.62409310611E+02  0.46868560078E+03  0.50400001928E-02 0.  1.
       -1    1    3    3    0  502 -0.35838763856E+03  0.29551577086E+03 -0.84517112601E+03  0.96440940610E+03  0.50400001928E-02 0. -1.
</event>
<event>
 5   0  0.5732931E-05  0.1195417E+04  0.7818609E-02  0.9116878E-01
        1   -1    0    0  501    0  0.00000000000E+00  0.00000000000E+00  0.50638947306E+03  0.50638947309E+03  0.50400001928E-02 0.  1.
       -1   -1    0    0    0  501  0.00000000000E+00  0.00000000000E+00 -0.70549500101E+03  0.70549500103E+03  0.50400001928E-02 0. -1.
    10030    2    1    2    0    0  0.00000000000E+00  0.00000000000E+00 -0.19910552795E+03  0.12118844741E+04  0.11954166501E+04 0.  0.
        4    1    3    3  502    0  0.11284029571E+03 -0.34087449217E+03  0.38486372530E+03  0.52635544235E+03  0.12699999809E+01 0.  1.
       -4    1    3    3    0  502 -0.11284029571E+03  0.34087449217E+03 -0.58396925325E+03  0.68552903176E+03  0.12699999809E+01 0. -1.
</event>
<event>
 5   0  0.1023063E-04  0.1200132E+04  0.7818609E-02  0.9112741E-01
       -2   -1    0    0    0  501  0.00000000000E+00  0.00000000000E+00  0.13490664003E+04  0.13490664003E+04  0.25500000920E-02 0.  1.
        2   -1    0    0  501    0  0.00000000000E+00  0.00000000000E+00 -0.26690974947E+03  0.26690974948E+03  0.25500000920E-02 0. -1.
    10030    2    1    2    0    0  0.00000000000E+00  0.00000000000E+00  0.10821566508E+04  0.16159761497E+04  0.12001316177E+04 0.  0.
        3    1    3    3  502    0  0.41900874668E+03 -0.20867175673E+03  0.35528009087E+02  0.46944060486E+03  0.10100000352E+00 0. -1.
       -3    1    3    3    0  502 -0.41900874668E+03  0.20867175673E+03  0.10466286417E+04  0.11465355449E+04  0.10100000352E+00 0.  1.
</event>
<event>
 5   0  0.5620246E-05  0.1200126E+04  0.7818609E-02  0.9112746E-01
        1   -1    0    0  501    0  0.00000000000E+00  0.00000000000E+00  0.13397637117E+04  0.13397637118E+04  0.50400001928E-02 0.  1.
       -1   -1    0    0    0  501  0.00000000000E+00  0.00000000000E+00 -0.26876070522E+03  0.26876070527E+03  0.50400001928E-02 0. -1.
    10030    2    1    2    0    0  0.00000000000E+00  0.00000000000E+00  0.10710030065E+04  0.16085244170E+04  0.12001263934E+04 0.  0.
        1    1    3    3  502    0  0.25805297630E+03  0.46522769116E+03  0.16346932822E+03  0.55655221183E+03  0.50400001928E-02 0. -1.
       -1    1    3    3    0  502 -0.25805297630E+03 -0.46522769116E+03  0.90753367830E+03  0.10519722052E+04  0.50400001928E-02 0.  1.
</event>
<event>
 5   0  0.1004006E-04  0.1196987E+04  0.7818609E-02  0.9115498E-01
       -2   -1    0    0    0  501  0.00000000000E+00  0.00000000000E+00  0.48081110730E+03  0.48081110731E+03  0.25500000920E-02 0.  1.
        2   -1    0    0  501    0  0.00000000000E+00  0.00000000000E+00 -0.74497958098E+03  0.74497958099E+03  0.25500000920E-02 0. -1.
    10030    2    1    2    0    0  0.00000000000E+00  0.00000000000E+00 -0.26416847368E+03  0.12257906883E+04  0.11969869795E+04 0.  0.
        5    1    3    3  502    0 -0.91161307414E+02 -0.59037945494E+03 -0.94961652498E+02  0.60489510680E+03  0.46999998093E+01 0. -1.
       -5    1    3    3    0  502  0.91161307414E+02  0.59037945494E+03 -0.16920682119E+03  0.62089558150E+03  0.46999998093E+01 0.  1.
</event>
<event>
 5   0  0.5447807E-05  0.1198190E+04  0.7818609E-02  0.9114442E-01
       -1   -1    0    0    0  501  0.00000000000E+00  0.00000000000E+00  0.27263797187E+03  0.27263797192E+03  0.50400001928E-02 0. -1.
        1   -1    0    0  501    0  0.00000000000E+00  0.00000000000E+00 -0.13164521714E+04  0.13164521714E+04  0.50400001928E-02 0.  1.
    10030    2    1    2    0    0  0.00000000000E+00  0.00000000000E+00 -0.10438141995E+04  0.15890901433E+04  0.11981900519E+04 0.  0.
        2    1    3    3  502    0 -0.17860579399E+03  0.52668598818E+03 -0.81732494086E+03  0.98859406166E+03  0.25500000920E-02 0. -1.
       -2    1    3    3    0  502  0.17860579399E+03 -0.52668598818E+03 -0.22648925866E+03  0.60049608165E+03  0.25500000920E-02 0.  1.
</event>
<event>
 5   0  0.1012657E-04  0.1200192E+04  0.7818609E-02  0.9112689E-01
        2   -1    0    0  501    0  0.00000000000E+00  0.00000000000E+00  0.20835523097E+04  0.20835523097E+04  0.25500000920E-02 0.  1.
       -2   -1    0    0    0  501  0.00000000000E+00  0.00000000000E+00 -0.17283704494E+03  0.17283704495E+03  0.25500000920E-02 0. -1.
    10030    2    1    2    0    0  0.00000000000E+00  0.00000000000E+00  0.19107152648E+04  0.22563893547E+04  0.12001916917E+04 0.  0.
        1    1    3    3  502    0  0.26991801624E+03  0.22669142828E+03  0.42296108798E+02  0.35501225330E+03  0.50400001928E-02 0. -1.
       -1    1    3    3    0  502 -0.26991801624E+03 -0.22669142828E+03  0.18684191560E+04  0.19013771014E+04  0.50400001928E-02 0.  1.
</event>
<event>
 5   0  0.9941209E-05  0.1200177E+04  0.7818609E-02  0.9112702E-01
        2   -1    0    0  501    0  0.00000000000E+00  0.00000000000E+00  0.33295770312E+03  0.33295770313E+03  0.25500000920E-02 0. -1.
       -2   -1    0    0    0  501  0.00000000000E+00  0.00000000000E+00 -0.10815372621E+04  0.10815372621E+04  0.25500000920E-02 0.  1.
    10030    2    1    2    0    0  0.00000000000E+00  0.00000000000E+00 -0.74857955898E+03  0.14144949652E+04  0.12001769247E+04 0.  0.
        2    1    3    3  502    0  0.12430951291E+03 -0.22412167714E+03 -0.10137916794E+04  0.10456849193E+04  0.25500000920E-02 0.  1.
       -2    1    3    3    0  502 -0.12430951291E+03  0.22412167714E+03  0.26521212043E+03  0.36881004595E+03  0.25500000920E-02 0. -1.
</event>
<event>
 5   0  0.5625746E-05  0.1199313E+04  0.7818609E-02  0.9113458E-01
       -1   -1    0    0    0  501  0.00000000000E+00  0.00000000000E+00  0.33425339284E+03  0.33425339288E+03  0.50400001928E-02 0. -1.
        1   -1    0    0  501    0  0.00000000000E+00  0.00000000000E+00 -0.10757941059E+04  0.10757941059E+04  0.50400001928E-02 0.  1.
    10030    2    1    2    0    0  0.00000000000E+00  0.00000000000E+00 -0.74154071302E+03  0.14100474988E+04  0.11993128531E+04 0.  0.
        5    1    3    3  502    0 -0.32571379846E+03  0.54532843608E+02 -0.95921718475E+03  0.10144865731E+04  0.46999998093E+01 0.  1.
       -5    1    3    3    0  502  0.32571379846E+03 -0.54532843608E+02  0.21767647173E+03  0.39556092563E+03  0.46999998093E+01 0. -1.
</event>
<event>
 5   0  0.5732931E-05  0.1199900E+04  0.7818609E-02  0.9112944E-01
        1   -1    0    0  501    0  0.00000000000E+00  0.00000000000E+00  0.42682844891E+03  0.42682844894E+03  0.50400001928E-02 0. -1.
       -1   -1    0    0    0  501  0.00000000000E+00  0.00000000000E+00 -0.84329003077E+03  0.84329003079E+03  0.50400001928E-02 0.  1.
    10030    2    1    2    0    0  0.00000000000E+00  0.00000000000E+00 -0.41646158187E+03  0.12701184797E+04  0.11999002889E+04 0.  0.
        4    1    3    3  502    0 -0.24314168013E+03  0.11386848194E+03  0.35968730300E+03  0.44884348791E+03  0.12699999809E+01 0. -1.
       -4    1    3    3    0  502  0.24314168013E+03 -0.11386848194E+03 -0.77614888487E+03  0.82127499181E+03  0.12699999809E+01 0.  1.
</event>
<event>
 5   0  0.3839750E-05  0.1200372E+04  0.7818609E-02  0.9112531E-01
       -3   -1    0    0    0  501  0.00000000000E+00  0.00000000000E+00  0.60349733003E+03  0.60349733849E+03  0.10100000352E+00 0.  1.
        3   -1    0    0  501    0  0.00000000000E+00  0.00000000000E+00 -0.59689329939E+03  0.59689330793E+03  0.10100000352E+00 0. -1.
    10030    2    1    2    0    0  0.00000000000E+00  0.00000000000E+00  0.66040306471E+01  0.12003906464E+04  0.12003724800E+04 0.  0.
        4    1    3    3  502    0 -0.13333655003E+03  0.66659694596E+02 -0.57808425040E+03  0.59699678719E+03  0.12699999809E+01 0. -1.
       -4    1    3    3    0  502  0.13333655003E+03 -0.66659694596E+02  0.58468828105E+03  0.60339385923E+03  0.12699999809E+01 0.  1.
</event>
<event>
 5   0  0.9838215E-05  0.1200015E+04  0.7818609E-02  0.9112843E-01
        2   -1    0    0  501    0  0.00000000000E+00  0.00000000000E+00  0.16039178846E+04  0.16039178846E+04  0.25500000920E-02 0.  1.
       -2   -1    0    0    0  501  0.00000000000E+00  0.00000000000E+00 -0.22445608714E+03  0.22445608715E+03  0.25500000920E-02 0. -1.
    10030    2    1    2    0    0  0.00000000000E+00  0.00000000000E+00  0.13794617974E+04  0.18283739717E+04  0.12000152207E+04 0.  0.
        4    1    3    3  502    0  0.51514064909E+03 -0.30020265319E+03  0.58734146103E+03  0.83693675154E+03  0.12699999809E+01 0.  1.
       -4    1    3    3    0  502 -0.51514064909E+03  0.30020265319E+03  0.79212033640E+03  0.99143722019E+03  0.12699999809E+01 0. -1.
</event>
<event>
 5   0  0.1004006E-04  0.1201686E+04  0.7818609E-02  0.9111382E-01
       -2   -1    0    0    0  501  0.00000000000E+00  0.00000000000E+00  0.18803651397E+03  0.18803651399E+03  0.25500000920E-02 0.  1.
        2   -1    0    0  501    0  0.00000000000E+00  0.00000000000E+00 -0.19199056152E+04  0.19199056152E+04  0.25500000920E-02 0. -1.
    10030    2    1    2    0    0  0.00000000000E+00  0.00000000000E+00 -0.17318691012E+04  0.21079421291E+04  0.12016860805E+04 0.  0.
        5    1    3    3  502    0  0.24199711736E+03  0.56046838910E+02 -0.18255807682E+04  0.18424090436E+04  0.46999998093E+01 0. -1.
       -5    1    3    3    0  502 -0.24199711736E+03 -0.56046838910E+02  0.93711666996E+02  0.26553308550E+03  0.46999998093E+01 0.  1.
</event>
<event>
 5   0  0.5620246E-05  0.1199448E+04  0.7818609E-02  0.9113340E-01
       -1   -1    0    0    0  501  0.00000000000E+00  0.00000000000E+00  0.50986574176E+03  0.50986574178E+03  0.50400001928E-02 0.  1.
        1   -1    0    0  501    0  0.00000000000E+00  0.00000000000E+00 -0.70541845701E+03  0.70541845703E+03  0.50400001928E-02 0. -1.
    10030    2    1    2    0    0  0.00000000000E+00  0.00000000000E+00 -0.19555271525E+03  0.12152841988E+04  0.11994477143E+04 0.  0.
        1    1    3    3  502    0 -0.18625833866E+03  0.92803703529E+02  0.47211236774E+03  0.51594067867E+03  0.50400001928E-02 0.  1.
       -1    1    3    3    0  502  0.18625833866E+03 -0.92803703529E+02 -0.66766508298E+03  0.69934352015E+03  0.50400001928E-02 0. -1.
</event>
<event>
 5   0  0.9838215E-05  0.1199525E+04  0.7818609E-02  0.9113273E-01
        2   -1    0    0  501    0  0.00000000000E+00  0.00000000000E+00  0.13115600211E+04  0.13115600211E+04  0.25500000920E-02 0. -1.
       -2   -1    0    0    0  501  0.00000000000E+00  0.00000000000E+00 -0.27426493254E+03  0.27426493256E+03  0.25500000920E-02 0.  1.
    10030    2    1    2    0    0  0.00000000000E+00  0.00000000000E+00  0.10372950885E+04  0.15858249536E+04  0.11995247738E+04 0.  0.
        4    1    3    3  502    0  0.64430665669E+02  0.88183505119E+02 -0.26100637275E+03  0.28293741493E+03  0.12699999809E+01 0.  1.
       -4    1    3    3    0  502 -0.64430665669E+02 -0.88183505119E+02  0.12983014613E+04  0.13028875387E+04  0.12699999809E+01 0. -1.
</event>
<event>
 5   0  0.3839750E-05  0.1200287E+04  0.7818609E-02  0.9112605E-01
       -3   -1    0    0    0  501  0.00000000000E+00  0.00000000000E+00  0.84431460976E+03  0.84431461580E+03  0.10100000352E+00 0. -1.
        3   -1    0    0  501    0  0.00000000000E+00  0.00000000000E+00 -0.42658530990E+03  0.42658532186E+03  0.10100000352E+00 0.  1.
    10030    2    1    2    0    0  0.00000000000E+00  0.00000000000E+00  0.41772929986E+03  0.12708999377E+04  0.12002870005E+04 0.  0.
        4    1    3    3  502    0 -0.25836537307E+03  0.48415877506E+03 -0.48342195087E+02  0.55090921774E+03  0.12699999809E+01 0. -1.
       -4    1    3    3    0  502  0.25836537307E+03 -0.48415877506E+03  0.46607149495E+03  0.71999071992E+03  0.12699999809E+01 0.  1.
</event>
<event>
 5   0  0.5745487E-05  0.1204762E+04  0.7818609E-02  0.9108699E-01
        1   -1    0    0  501    0  0.00000000000E+00  0.00000000000E+00  0.15566060563E+04  0.15566060563E+04  0.50400001928E-02 0.  1.
       -1   -1    0    0    0  501  0.00000000000E+00  0.00000000000E+00 -0.23311136940E+03  0.23311136946E+03  0.50400001928E-02 0. -1.
    10030    2    1    2    0    0  0.00000000000E+00  0.00000000000E+00  0.13234946869E+04  0.17897174258E+04  0.12047615025E+04 0.  0.
        3    1    3    3  502    0 -0.17903146829E+03 -0.35358817191E+03  0.13356403954E+04  0.13932021167E+04  0.10100000352E+00 0.  1.
       -3    1    3    3    0  502  0.17903146829E+03  0.35358817191E+03 -0.12145708424E+02  0.39651530915E+03  0.10100000352E+00 0. -1.
</event>
<event>
 5   0  0.5447807E-05  0.1200265E+04  0.7818609E-02  0.9112625E-01
       -1   -1    0    0    0  501  0.00000000000E+00  0.00000000000E+00  0.16459575202E+04  0.16459575203E+04  0.50400001928E-02 0. -1.
        1   -1    0    0  501    0  0.00000000000E+00  0.00000000000E+00 -0.21881411567E+03  0.21881411573E+03  0.50400001928E-02 0.  1.
    10030    2    1    2    0    0  0.00000000000E+00  0.00000000000E+00  0.14271434046E+04  0.18647716360E+04  0.12002645363E+04 0.  0.
        2    1    3    3  502    0  0.22512072638E+03 -0.55629792796E+03  0.71895660300E+03  0.93650697974E+03  0.25500000920E-02 0.  1.
       -2    1    3    3    0  502 -0.22512072638E+03  0.55629792796E+03  0.70818680157E+03  0.92826465624E+03  0.25500000920E-02 0. -1.
</event>
<event>
 5   0  0.5447807E-05  0.1200582E+04  0.7818609E-02  0.9112347E-01
       -1   -1    0    0    0  501  0.00000000000E+00  0.00000000000E+00  0.19275104963E+03  0.19275104969E+03  0.50400001928E-02 0.  1.
        1   -1    0    0  501    0  0.00000000000E+00  0.00000000000E+00 -0.18695069606E+04  0.18695069606E+04  0.50400001928E-02 0. -1.
    10030    2    1    2    0    0  0.00000000000E+00  0.00000000000E+00 -0.16767559110E+04  0.20622580103E+04  0.12005822404E+04 0.  0.
        2    1    3    3  502    0 -0.39231029065E+03 -0.45412485263E+03 -0.81332738824E+03  0.10107611916E+04  0.25500000920E-02 0.  1.
       -2    1    3    3    0  502  0.39231029065E+03  0.45412485263E+03 -0.86342852274E+03  0.10514968187E+04  0.25500000920E-02 0. -1.
</event>
<event>
 5   0  0.5620246E-05  0.1199518E+04  0.7818609E-02  0.9113278E-01
        1   -1    0    0  501    0  0.00000000000E+00  0.00000000000E+00  0.44066601600E+03  0.44066601603E+03  0.50400001928E-02 0.  1.
       -1   -1    0    0    0  501  0.00000000000E+00  0.00000000000E+00 -0.81628944677E+03  0.81628944679E+03  0.50400001928E-02 0. -1.
    10030    2    1    2    0    0  0.00000000000E+00  0.00000000000E+00 -0.37562343077E+03  0.12569554628E+04  0.11995182674E+04 0.  0.
        1    1    3    3  502    0  0.25701137895E+03 -0.47371741992E+03 -0.46356237779E+03  0.71088193181E+03  0.50400001928E-02 0. -1.
       -1    1    3    3    0  502 -0.25701137895E+03  0.47371741992E+03  0.87938947024E+02  0.54607353101E+03  0.50400001928E-02 0.  1.
</event>
<event>
 5   0  0.5625746E-05  0.1198956E+04  0.7818609E-02  0.9113770E-01
        1   -1    0    0  501    0  0.00000000000E+00  0.00000000000E+00  0.31086811793E+03  0.31086811797E+03  0.50400001928E-02 0.  1.
       -1   -1    0    0    0  501  0.00000000000E+00  0.00000000000E+00 -0.11560340499E+04  0.11560340499E+04  0.50400001928E-02 0. -1.
    10030    2    1    2    0    0  0.00000000000E+00  0.00000000000E+00 -0.84516593194E+03  0.14669021679E+04  0.11989564285E+04 0.  0.
        5    1    3    3  502    0  0.45292376448E+03 -0.25878060705E+03 -0.61200333213E+02  0.52523795540E+03  0.46999998093E+01 0.  1.
       -5    1    3    3    0  502 -0.45292376448E+03  0.25878060705E+03 -0.78396559873E+03  0.94166421245E+03  0.46999998093E+01 0. -1.
</event>
<event>
 5   0  0.5447807E-05  0.1200019E+04  0.7818609E-02  0.9112840E-01
       -1   -1    0    0    0  501  0.00000000000E+00  0.00000000000E+00  0.35880895340E+03  0.35880895344E+03  0.50400001928E-02 0. -1.
        1   -1    0    0  501    0  0.00000000000E+00  0.00000000000E+00 -0.10033508089E+04  0.10033508089E+04  0.50400001928E-02 0.  1.
    10030    2    1    2    0    0  0.00000000000E+00  0.00000000000E+00 -0.64454185547E+03  0.13621597623E+04  0.12000187560E+04 0.  0.
        2    1    3    3  502    0  0.43588936274E+03  0.35696837005E+03 -0.55651567887E+03  0.79191896973E+03  0.25500000920E-02 0.  1.
       -2    1    3    3    0  502 -0.43588936274E+03 -0.35696837005E+03 -0.88026176597E+02  0.57024079260E+03  0.25500000920E-02 0. -1.
</event>
<event>
 5   0  0.9838215E-05  0.1199999E+04  0.7818609E-02  0.9112857E-01
       -2   -1    0    0    0  501  0.00000000000E+00  0.00000000000E+00  0.74637443454E+03  0.74637443454E+03  0.25500000920E-02 0. -1.
        2   -1    0    0  501    0  0.00000000000E+00  0.00000000000E+00 -0.48233075728E+03  0.48233075729E+03  0.25500000920E-02 0.  1.
    10030    2    1    2    0    0  0.00000000000E+00  0.00000000000E+00  0.26404367726E+03  0.12287051918E+04  0.11999989104E+04 0.  0.
        4    1    3    3  502    0  0.42904993206E+03 -0.41388157066E+03  0.20158777983E+03  0.62930202972E+03  0.12699999809E+01 0. -1.
       -4    1    3    3    0  502 -0.42904993206E+03  0.41388157066E+03  0.62455897425E+02  0.59940316211E+03  0.12699999809E+01 0.  1.
</event>
<event>
 5   0  0.9838215E-05  0.1201299E+04  0.7818609E-02  0.9111720E-01
        2   -1    0    0  501    0  0.00000000000E+00  0.00000000000E+00  0.10041926478E+04  0.10041926478E+04  0.25500000920E-02 0.  1.
       -2   -1    0    0    0  501  0.00000000000E+00  0.00000000000E+00 -0.35927372504E+03  0.35927372505E+03  0.25500000920E-02 0. -1.
    10030    2    1    2    0    0  0.00000000000E+00  0.00000000000E+00  0.64491892279E+03  0.13634663729E+04  0.12012993520E+04 0.  0.
        4    1    3    3  502    0 -0.32441998996E+03  0.45484544911E+02  0.89387095529E+03  0.95201054160E+03  0.12699999809E+01 0.  1.
       -4    1    3    3    0  502  0.32441998996E+03 -0.45484544911E+02 -0.24895203250E+03  0.41145583128E+03  0.12699999809E+01 0. -1.
</event>
<event>
 5   0  0.1012657E-04  0.1200089E+04  0.7818609E-02  0.9112779E-01
        2   -1    0    0  501    0  0.00000000000E+00  0.00000000000E+00  0.16221719515E+04  0.16221719515E+04  0.25500000920E-02 0. -1.
       -2   -1    0    0    0  501  0.00000000000E+00  0.00000000000E+00 -0.22195756344E+03  0.22195756345E+03  0.25500000920E-02 0.  1.
    10030    2    1    2    0    0  0.00000000000E+00  0.00000000000E+00  0.14002143881E+04  0.18441295149E+04  0.12000888864E+04 0.  0.
        1    1    3    3  502    0 -0.19154184772E+03  0.46228161147E+03  0.19124095011E+03  0.53569176656E+03  0.50400001928E-02 0.  1.
       -1    1    3    3    0  502  0.19154184772E+03 -0.46228161147E+03  0.12089734379E+04  0.13084377484E+04  0.50400001928E-02 0. -1.
</event>
<event>
 5   0  0.5732931E-05  0.1200419E+04  0.7818609E-02  0.9112490E-01
        1   -1    0    0  501    0  0.00000000000E+00  0.00000000000E+00  0.55077322496E+03  0.55077322498E+03  0.50400001928E-02 0. -1.
       -1   -1    0    0    0  501  0.00000000000E+00  0.00000000000E+00 -0.65408351763E+03  0.65408351765E+03  0.50400001928E-02 0.  1.
    10030    2    1    2    0    0  0.00000000000E+00  0.00000000000E+00 -0.10331029268E+03  0.12048567426E+04  0.12004194074E+04 0.  0.
        4    1    3    3  502    0  0.31137261351E+03 -0.42968917676E+03  0.22985332801E+03  0.57829046193E+03  0.12699999809E+01 0. -1.
       -4    1    3    3    0  502 -0.31137261351E+03  0.42968917676E+03 -0.33316362069E+03  0.62656628070E+03  0.12699999809E+01 0.  1.
</event>
<event>
 5   0  0.5732931E-05  0.1198912E+04  0.7818609E-02  0.9113809E-01
        1   -1    0    0  501    0  0.00000000000E+00  0.00000000000E+00  0.55147851859E+03  0.55147851861E+03  0.50400001928E-02 0.  1.
       -1   -1    0    0    0  501  0.00000000000E+00  0.00000000000E+00 -0.65160770489E+03  0.65160770491E+03  0.50400001928E-02 0. -1.
    10030    2    1    2    0    0  0.00000000000E+00  0.00000000000E+00 -0.10012918630E+03  0.12030862235E+04  0.11989122600E+04 0.  0.
        4    1    3    3  502    0  0.45714105804E+03  0.20607368957E+03 -0.37969217857E+03  0.62897700741E+03  0.12699999809E+01 0. -1.
       -4    1    3    3    0  502 -0.45714105804E+03 -0.20607368957E+03  0.27956299227E+03  0.57410921612E+03  0.12699999809E+01 0.  1.
</event>
<event>
 5   0  0.1004006E-04  0.1199722E+04  0.7818609E-02  0.9113100E-01
       -2   -1    0    0    0  501  0.00000000000E+00  0.00000000000E+00  0.26977029452E+03  0.26977029453E+03  0.25500000920E-02 0. -1.
        2   -1    0    0  501    0  0.00000000000E+00  0.00000000000E+00 -0.13338512463E+04  0.13338512463E+04  0.25500000920E-02 0.  1.
    10030    2    1    2    0    0  0.00000000000E+00  0.00000000000E+00 -0.10640809518E+04  0.16036215409E+04  0.11997223738E+04 0.  0.
        5    1    3    3  502    0  0.31172738747E+03  0.17416547216E+02  0.15257775198E+03  0.34753325109E+03  0.46999998093E+01 0. -1.
       -5    1    3    3    0  502 -0.31172738747E+03 -0.17416547216E+02 -0.12166587038E+04  0.12560882898E+04  0.46999998093E+01 0.  1.
</event>
<event>
 5   0  0.5625746E-05  0.1199595E+04  0.7818609E-02  0.9113211E-01
       -1   -1    0    0    0  501  0.00000000000E+00  0.00000000000E+00  0.32911134553E+03  0.32911134557E+03  0.50400001928E-02 0.  1.
        1   -1    0    0  501    0  0.00000000000E+00  0.00000000000E+00 -0.10931170474E+04  0.10931170474E+04  0.50400001928E-02 0. -1.
    10030    2    1    2    0    0  0.00000000000E+00  0.00000000000E+00 -0.76400570187E+03  0.14222283930E+04  0.11995953023E+04 0.  0.
        5    1    3    3  502    0  0.16193238172E+03 -0.49919061452E+03 -0.72627701795E+03  0.89605455340E+03  0.46999998093E+01 0. -1.
       -5    1    3    3    0  502 -0.16193238172E+03  0.49919061452E+03 -0.37728683918E+02  0.52617383958E+03  0.46999998093E+01 0.  1.
</event>
<event>
 5   0  0.5625746E-05  0.1200109E+04  0.7818609E-02  0.9112761E-01
        1   -1    0    0  501    0  0.00000000000E+00  0.00000000000E+00  0.35152602029E+03  0.35152602033E+03  0.50400001928E-02 0.  1.
       -1   -1    0    0    0  501  0.00000000000E+00  0.00000000000E+00 -0.10242925889E+04  0.10242925889E+04  0.50400001928E-02 0. -1.
    10030    2    1    2    0    0  0.00000000000E+00  0.00000000000E+00 -0.67276656863E+03  0.13758186093E+04  0.12001091574E+04 0.  0.
        5    1    3    3  502    0  0.57434809616E+03  0.84184397585E+02 -0.16221682110E+03  0.60274300942E+03  0.46999998093E+01 0. -1.
       -5    1    3    3    0  502 -0.57434809616E+03 -0.84184397585E+02 -0.51054974752E+03  0.77307559983E+03  0.46999998093E+01 0.  1.
</event>
<event>
 5   0  0.9941209E-05  0.1199841E+04  0.7818609E-02  0.9112996E-01
       -2   -1    0    0    0  501  0.00000000000E+00  0.00000000000E+00  0.68373159279E+03  0.68373159280E+03  0.25500000920E-02 0. -1.
        2   -1    0    0  501    0  0.00000000000E+00  0.00000000000E+00 -0.52638264780E+03  0.52638264781E+03  0.25500000920E-02 0.  1.
    10030    2    1    2    0    0  0.00000000000E+00  0.00000000000E+00  0.15734894499E+03  0.12101142406E+04  0.11998407331E+04 0.  0.
        2    1    3    3  502    0 -0.32684623862E+03  0.24999453485E+03 -0.36161668893E+03  0.54780686457E+03  0.25500000920E-02 0.  1.
       -2    1    3    3    0  502  0.32684623862E+03 -0.24999453485E+03  0.51896563392E+03  0.66230737603E+03  0.25500000920E-02 0. -1.
</event>
<event>
 5   0  0.5745487E-05  0.1202647E+04  0.7818609E-02  0.9110542E-01
       -1   -1    0    0    0  501  0.00000000000E+00  0.00000000000E+00  0.42206087605E+03  0.42206087608E+03  0.50400001928E-02 0.  1.
        1   -1    0    0  501    0  0.00000000000E+00  0.00000000000E+00 -0.85672512781E+03  0.85672512782E+03  0.50400001928E-02 0. -1.
    10030    2    1    2    0    0  0.00000000000E+00  0.00000000000E+00 -0.43466425176E+03  0.12787860039E+04  0.12026473432E+04 0.  0.
        3    1    3    3  502    0 -0.58018299838E+03  0.13433755874E+03 -0.30585705012E+03  0.66948296215E+03  0.10100000352E+00 0. -1.
       -3    1    3    3    0  502  0.58018299838E+03 -0.13433755874E+03 -0.12880720164E+03  0.60930304175E+03  0.10100000352E+00 0.  1.
</event>
<event>
 5   0  0.1023063E-04  0.1199139E+04  0.7818609E-02  0.9113610E-01
       -2   -1    0    0    0  501  0.00000000000E+00  0.00000000000E+00  0.29810681550E+03  0.29810681551E+03  0.25500000920E-02 0.  1.
        2   -1    0    0  501    0  0.00000000000E+00  0.00000000000E+00 -0.12058888849E+04  0.12058888849E+04  0.25500000920E-02 0. -1.
    10030    2    1    2    0    0  0.00000000000E+00  0.00000000000E+00 -0.90778206937E+03  0.15039957004E+04  0.11991391834E+04 0.  0.
        3    1    3    3  502    0 -0.48404734079E+03  0.33420506919E+03 -0.30822304711E+03  0.66407553288E+03  0.10100000352E+00 0.  1.
       -3    1    3    3    0  502  0.48404734079E+03 -0.33420506919E+03 -0.59955902226E+03  0.83992016750E+03  0.10100000352E+00 0. -1.
</event>
<event>
 5   0  0.3839750E-05  0.1199102E+04  0.7818609E-02  0.9113643E-01
       -3   -1    0    0    0  501  0.00000000000E+00  0.00000000000E+00  0.15960499478E+04  0.15960499509E+04  0.10100000352E+00 0. -1.
        3   -1    0    0  501    0  0.00000000000E+00  0.00000000000E+00 -0.22521948280E+03  0.22521950545E+03  0.10100000352E+00 0.  1.
    10030    2    1    2    0    0  0.00000000000E+00  0.00000000000E+00  0.13708304650E+04  0.18212694564E+04  0.11991022764E+04 0.  0.
        1    1    3    3  502    0 -0.33154169134E+03 -0.41179053762E+03  0.11149339973E+04  0.12339242920E+04  0.50400001928E-02 0. -1.
       -1    1    3    3    0  502  0.33154169134E+03  0.41179053762E+03  0.25589646761E+03  0.58734516439E+03  0.50400001928E-02 0.  1.
</event>
<event>
 5   0  0.9838215E-05  0.1199474E+04  0.7818609E-02  0.9113317E-01
       -2   -1    0    0    0  501  0.00000000000E+00  0.00000000000E+00  0.27988467893E+03  0.27988467894E+03  0.25500000920E-02 0. -1.
        2   -1    0    0  501    0  0.00000000000E+00  0.00000000000E+00 -0.12851173154E+04  0.12851173154E+04  0.25500000920E-02 0.  1.
    10030    2    1    2    0    0  0.00000000000E+00  0.00000000000E+00 -0.10052326365E+04  0.15650019944E+04  0.11994742969E+04 0.  0.
        4    1    3    3  502    0 -0.28566317105E+03 -0.38982554904E+03 -0.39267133449E+02  0.48488238434E+03  0.12699999809E+01 0. -1.
       -4    1    3    3    0  502  0.28566317105E+03  0.38982554904E+03 -0.96596550304E+03  0.10801196100E+04  0.12699999809E+01 0.  1.
</event>
<event>
 5   0  0.9838215E-05  0.1199776E+04  0.7818609E-02  0.9113053E-01
        2   -1    0    0  501    0  0.00000000000E+00  0.00000000000E+00  0.26029971316E+04  0.26029971316E+04  0.25500000920E-02 0. -1.
       -2   -1    0    0    0  501  0.00000000000E+00  0.00000000000E+00 -0.13825045384E+03  0.13825045386E+03  0.25500000920E-02 0.  1.
    10030    2    1    2    0    0  0.00000000000E+00  0.00000000000E+00  0.24647466778E+04  0.27412475855E+04  0.11997758704E+04 0.  0.
        4    1    3    3  502    0  0.45771026686E+03  0.36685163532E+03  0.15194328638E+04  0.16287285382E+04  0.12699999809E+01 0. -1.
       -4    1    3    3    0  502 -0.45771026686E+03 -0.36685163532E+03  0.94531381402E+03  0.11125190473E+04  0.12699999809E+01 0.  1.
</event>
<event>
 5   0  0.5447807E-05  0.1199384E+04  0.7818609E-02  0.9113396E-01
        1   -1    0    0  501    0  0.00000000000E+00  0.00000000000E+00  0.63367703179E+03  0.63367703181E+03  0.50400001928E-02 0.  1.
       -1   -1    0    0    0  501  0.00000000000E+00  0.00000000000E+00 -0.56752939980E+03  0.56752939982E+03  0.50400001928E-02 0. -1.
    10030    2    1    2    0    0  0.00000000000E+00  0.00000000000E+00  0.66147631994E+02  0.12012064316E+04  0.11993837510E+04 0.  0.
        2    1    3    3  502    0  0.41018697014E+03  0.43146617742E+03  0.10539111596E+03  0.60458556058E+03  0.25500000920E-02 0.  1.
       -2    1    3    3    0  502 -0.41018697014E+03 -0.43146617742E+03 -0.39243483967E+02  0.59662087105E+03  0.25500000920E-02 0. -1.
</event>
<event>
 5   0  0.1012657E-04  0.1199856E+04  0.7818609E-02  0.9112982E-01
       -2   -1    0    0    0  501  0.00000000000E+00  0.00000000000E+00  0.22655893858E+03  0.22655893859E+03  0.25500000920E-02 0. -1.
        2   -1    0    0  501    0  0.00000000000E+00  0.00000000000E+00 -0.15886098228E+04  0.15886098228E+04  0.25500000920E-02 0.  1.
    10030    2    1    2    0    0  0.00000000000E+00  0.00000000000E+00 -0.13620508842E+04  0.18151687614E+04  0.11998562502E+04 0.  0.
        1    1    3    3  502    0  0.31471352110E+03  0.69085360810E+02  0.84552655410E+02  0.33311640458E+03  0.50400001928E-02 0. -1.
       -1    1    3    3    0  502 -0.31471352110E+03 -0.69085360810E+02 -0.14466035396E+04  0.14820523568E+04  0.50400001928E-02 0.  1.
</event>
<event>
 5   0  0.5620246E-05  0.1199907E+04  0.7818609E-02  0.9112938E-01
        1   -1    0    0  501    0  0.00000000000E+00  0.00000000000E+00  0.20185937150E+04  0.20185937150E+04  0.50400001928E-02 0. -1.
       -1   -1    0    0    0  501  0.00000000000E+00  0.00000000000E+00 -0.17831420834E+03  0.17831420841E+03  0.50400001928E-02 0.  1.
    10030    2    1    2    0    0  0.00000000000E+00  0.00000000000E+00  0.18402795067E+04  0.21969079234E+04  0.11999065636E+04 0.  0.
        1    1    3    3  502    0 -0.39980245702E+03 -0.90249997033E+00  0.10112978586E+03  0.41239550526E+03  0.50400001928E-02 0.  1.
       -1    1    3    3    0  502  0.39980245702E+03  0.90249997033E+00  0.17391497208E+04  0.17845124182E+04  0.50400001928E-02 0. -1.
</event>
<event>
 5   0  0.5625746E-05  0.1200785E+04  0.7818609E-02  0.9112170E-01
       -1   -1    0    0    0  501  0.00000000000E+00  0.00000000000E+00  0.23705409127E+03  0.23705409132E+03  0.50400001928E-02 0. -1.
        1   -1    0    0  501    0  0.00000000000E+00  0.00000000000E+00 -0.15206271499E+04  0.15206271499E+04  0.50400001928E-02 0.  1.
    10030    2    1    2    0    0  0.00000000000E+00  0.00000000000E+00 -0.12835730587E+04  0.17576812413E+04  0.12007845556E+04 0.  0.
        5    1    3    3  502    0  0.14020031232E+03  0.25511710592E+03  0.12681218682E+03  0.31755989361E+03  0.46999998093E+01 0. -1.
       -5    1    3    3    0  502 -0.14020031232E+03 -0.25511710592E+03 -0.14103852455E+04  0.14401213476E+04  0.46999998093E+01 0.  1.
</event>
<event>
 5   0  0.1012657E-04  0.1199993E+04  0.7818609E-02  0.9112862E-01
        2   -1    0    0  501    0  0.00000000000E+00  0.00000000000E+00  0.94666848141E+03  0.94666848141E+03  0.25500000920E-02 0.  1.
       -2   -1    0    0    0  501  0.00000000000E+00  0.00000000000E+00 -0.38027675050E+03  0.38027675051E+03  0.25500000920E-02 0. -1.
    10030    2    1    2    0    0  0.00000000000E+00  0.00000000000E+00  0.56639173091E+03  0.13269452319E+04  0.11999933565E+04 0.  0.
        1    1    3    3  502    0  0.39837375811E+03 -0.14241750579E+03 -0.18726920004E+03  0.46265986472E+03  0.50400001928E-02 0. -1.
       -1    1    3    3    0  502 -0.39837375811E+03  0.14241750579E+03  0.75366093095E+03  0.86428536721E+03  0.50400001928E-02 0.  1.
</event>
<event>
 5   0  0.5625746E-05  0.1199965E+04  0.7818609E-02  0.9112887E-01
        1   -1    0    0  501    0  0.00000000000E+00  0.00000000000E+00  0.77605962783E+03  0.77605962784E+03  0.50400001928E-02 0. -1.
       -1   -1    0    0    0  501  0.00000000000E+00  0.00000000000E+00 -0.46385488338E+03  0.46385488341E+03  0.50400001928E-02 0.  1.
    10030    2    1    2    0    0  0.00000000000E+00  0.00000000000E+00  0.31220474444E+03  0.12399145113E+04  0.11999650798E+04 0.  0.
        5    1    3    3  502    0 -0.14368379528E+03 -0.57876974269E+03  0.88049981751E+02  0.60282197817E+03  0.46999998093E+01 0.  1.
       -5    1    3    3    0  502  0.14368379528E+03  0.57876974269E+03  0.22415476269E+03  0.63709253309E+03  0.46999998093E+01 0. -1.
</event>
<event>
 5   0  0.5745487E-05  0.1199684E+04  0.7818609E-02  0.9113133E-01
       -1   -1    0    0    0  501  0.00000000000E+00  0.00000000000E+00  0.38403462441E+03  0.38403462444E+03  0.50400001928E-02 0.  1.
        1   -1    0    0  501    0  0.00000000000E+00  0.00000000000E+00 -0.93692236453E+03  0.93692236455E+03  0.50400001928E-02 0. -1.
    10030    2    1    2    0    0  0.00000000000E+00  0.00000000000E+00 -0.55288774012E+03  0.13209569890E+04  0.11996843391E+04 0.  0.
        3    1    3    3  502    0  0.11879088006E+03 -0.46518641138E+03  0.11948989650E+03  0.49476005910E+03  0.10100000352E+00 0.  1.
       -3    1    3    3    0  502 -0.11879088006E+03  0.46518641138E+03 -0.67237763663E+03  0.82619692989E+03  0.10100000352E+00 0. -1.
</event>
<event>
 5   0  0.5732931E-05  0.1199233E+04  0.7818609E-02  0.9113528E-01
        1   -1    0    0  501    0  0.00000000000E+00  0.00000000000E+00  0.10035029647E+04  0.10035029647E+04  0.50400001928E-02 0.  1.
       -1   -1    0    0    0  501  0.00000000000E+00  0.00000000000E+00 -0.35828493163E+03  0.35828493166E+03  0.50400001928E-02 0. -1.
    10030    2    1    2    0    0  0.00000000000E+00  0.00000000000E+00  0.64521803307E+03  0.13617878964E+04  0.11992330735E+04 0.  0.
        4    1    3    3  502    0 -0.18728895413E+03  0.55840626042E+03  0.45029479276E+03  0.74139174348E+03  0.12699999809E+01 0. -1.
       -4    1    3    3    0  502  0.18728895413E+03 -0.55840626042E+03  0.19492324031E+03  0.62039615290E+03  0.12699999809E+01 0.  1.
</event>
<event>
 5   0  0.1004006E-04  0.1200222E+04  0.7818609E-02  0.9112662E-01
       -2   -1    0    0    0  501  0.00000000000E+00  0.00000000000E+00  0.38018014957E+03  0.38018014958E+03  0.25500000920E-02 0.  1.
        2   -1    0    0  501    0  0.00000000000E+00  0.00000000000E+00 -0.94726946917E+03  0.94726946917E+03  0.25500000920E-02 0. -1.
    10030    2    1    2    0    0  0.00000000000E+00  0.00000000000E+00 -0.56708931960E+03  0.13274496188E+04  0.12002217270E+04 0.  0.
        5    1    3    3  502    0  0.10249381449E+02  0.32440955894E+03 -0.84179100423E+03  0.90220884309E+03  0.46999998093E+01 0. -1.
       -5    1    3    3    0  502 -0.10249381449E+02 -0.32440955894E+03  0.27470168463E+03  0.42524077567E+03  0.46999998093E+01 0.  1.
</event>
<event>
 5   0  0.1012657E-04  0.1199914E+04  0.7818609E-02  0.9112932E-01
       -2   -1    0    0    0  501  0.00000000000E+00  0.00000000000E+00  0.53806386837E+03  0.53806386838E+03  0.25500000920E-02 0. -1.
        2   -1    0    0  501    0  0.00000000000E+00  0.00000000000E+00 -0.66896948438E+03  0.66896948438E+03  0.25500000920E-02 0.  1.
    10030    2    1    2    0    0  0.00000000000E+00  0.00000000000E+00 -0.13090561600E+03  0.12070333528E+04  0.11999138446E+04 0.  0.
        1    1    3    3  502    0 -0.45125856160E+03 -0.34497362036E+03  0.12884399420E+03  0.58244472959E+03  0.50400001928E-02 0. -1.
       -1    1    3    3    0  502  0.45125856160E+03  0.34497362036E+03 -0.25974961020E+03  0.62458862317E+03  0.50400001928E-02 0.  1.
</event>
<event>
 5   0  0.5447807E-05  0.1198513E+04  0.7818609E-02  0.9114159E-01
        1   -1    0    0  501    0  0.00000000000E+00  0.00000000000E+00  0.53939286973E+03  0.53939286975E+03  0.50400001928E-02 0.  1.
       -1   -1    0    0    0  501  0.00000000000E+00  0.00000000000E+00 -0.66576437029E+03  0.66576437031E+03  0.50400001928E-02 0. -1.
    10030    2    1    2    0    0  0.00000000000E+00  0.00000000000E+00 -0.12637150056E+03  0.12051572401E+04  0.11985133362E+04 0.  0.
        2    1    3    3  502    0 -0.24428552561E+03 -0.19374078168E+03  0.45141052747E+03  0.54861860416E+03  0.25500000920E-02 0.  1.
       -2    1    3    3    0  502  0.24428552561E+03  0.19374078168E+03 -0.57778202804E+03  0.65653863591E+03  0.25500000920E-02 0. -1.
</event>
<event>
 5   0  0.5625746E-05  0.1199675E+04  0.7818609E-02  0.9113141E-01
        1   -1    0    0  501    0  0.00000000000E+00  0.00000000000E+00  0.72198357012E+03  0.72198357014E+03  0.50400001928E-02 0. -1.
       -1   -1    0    0    0  501  0.00000000000E+00  0.00000000000E+00 -0.49835614403E+03  0.49835614405E+03  0.50400001928E-02 0.  1.
    10030    2    1    2    0    0  0.00000000000E+00  0.00000000000E+00  0.22362742610E+03  0.12203397142E+04  0.11996748694E+04 0.  0.
        5    1    3    3  502    0 -0.20532580744E+03  0.21982409983E+03  0.63969540354E+03  0.70690425192E+03  0.46999998093E+01 0. -1.
       -5    1    3    3    0  502  0.20532580744E+03 -0.21982409983E+03 -0.41606797745E+03  0.51343546227E+03  0.46999998093E+01 0.  1.
</event>
<event>
 5   0  0.1023063E-04  0.1205628E+04  0.7818609E-02  0.9107945E-01
       -2   -1    0    0    0  501  0.00000000000E+00  0.00000000000E+00  0.12937419671E+04  0.12937419671E+04  0.25500000920E-02 0.  1.
        2   -1    0    0  501    0  0.00000000000E+00  0.00000000000E+00 -0.28087877183E+03  0.28087877184E+03  0.25500000920E-02 0. -1.
    10030    2    1    2    0    0  0.00000000000E+00  0.00000000000E+00  0.10128631952E+04  0.15746207389E+04  0.12056278941E+04 0.  0.
        3    1    3    3  502    0 -0.15999636693E+03 -0.42749119858E+03 -0.78257113640E+01  0.45651814230E+03  0.10100000352E+00 0. -1.
       -3    1    3    3    0  502  0.15999636693E+03  0.42749119858E+03  0.10206889066E+04  0.11181025966E+04  0.10100000352E+00 0.  1.
</event>
<event>
 5   0  0.1012657E-04  0.1200433E+04  0.7818609E-02  0.9112478E-01
        2   -1    0    0  501    0  0.00000000000E+00  0.00000000000E+00  0.94856449839E+03  0.94856449840E+03  0.25500000920E-02 0.  1.
       -2   -1    0    0    0  501  0.00000000000E+00  0.00000000000E+00 -0.37979475367E+03  0.37979475368E+03  0.25500000920E-02 0. -1.
    10030    2    1    2    0    0  0.00000000000E+00  0.00000000000E+00  0.56876974473E+03  0.13283592521E+04  0.12004329553E+04 0.  0.
        1    1    3    3  502    0  0.98244921124E+02 -0.10290477155E+02  0.93950780151E+03  0.94468665047E+03  0.50400001928E-02 0.  1.
       -1    1    3    3    0  502 -0.98244921124E+02  0.10290477155E+02 -0.37073805679E+03  0.38367260160E+03  0.50400001928E-02 0. -1.
</event>
<event>
 5   0  0.3839750E-05  0.1200953E+04  0.7818609E-02  0.9112022E-01
        3   -1    0    0  501    0  0.00000000000E+00  0.00000000000E+00  0.25629029658E+03  0.25629031648E+03  0.10100000352E+00 0. -1.
       -3   -1    0    0    0  501  0.00000000000E+00  0.00000000000E+00 -0.14068899838E+04  0.14068899874E+04  0.10100000352E+00 0.  1.
    10030    2    1    2    0    0  0.00000000000E+00  0.00000000000E+00 -0.11505996872E+04  0.16631803039E+04  0.12009534059E+04 0.  0.
        3    1    3    3  502    0  0.52180376774E+03  0.66691570070E+02 -0.17429225039E+03  0.55417031343E+03  0.10100000352E+00 0.  1.
       -3    1    3    3    0  502 -0.52180376774E+03 -0.66691570070E+02 -0.97630743679E+03  0.11090099904E+04  0.10100000352E+00 0. -1.
</event>
<event>
 5   0  0.5625746E-05  0.1199939E+04  0.7818609E-02  0.9112910E-01
       -1   -1    0    0    0  501  0.00000000000E+00  0.00000000000E+00  0.59255428997E+03  0.59255428999E+03  0.50400001928E-02 0. -1.
        1   -1    0    0  501    0  0.00000000000E+00  0.00000000000E+00 -0.60747744064E+03  0.60747744066E+03  0.50400001928E-02 0.  1.
    10030    2    1    2    0    0  0.00000000000E+00  0.00000000000E+00 -0.14923150669E+02  0.12000317307E+04  0.11999389377E+04 0.  0.
        5    1    3    3  502    0  0.40860186750E+03 -0.38691096067E+03 -0.21552981142E+03  0.60260332494E+03  0.46999998093E+01 0.  1.
       -5    1    3    3    0  502 -0.40860186750E+03  0.38691096067E+03  0.20060666075E+03  0.59742840571E+03  0.46999998093E+01 0. -1.
</event>
<event>
 5   0  0.5447807E-05  0.1200177E+04  0.7818609E-02  0.9112702E-01
        1   -1    0    0  501    0  0.00000000000E+00  0.00000000000E+00  0.11681935756E+04  0.11681935756E+04  0.50400001928E-02 0. -1.
       -1   -1    0    0    0  501  0.00000000000E+00  0.00000000000E+00 -0.30825892705E+03  0.30825892709E+03  0.50400001928E-02 0.  1.
    10030    2    1    2    0    0  0.00000000000E+00  0.00000000000E+00  0.85993464850E+03  0.14764525027E+04  0.12001768174E+04 0.  0.
        2    1    3    3  502    0  0.13985077871E+03 -0.31909803647E+03 -0.17109922876E+03  0.38814526054E+03  0.25500000920E-02 0.  1.
       -2    1    3    3    0  502 -0.13985077871E+03  0.31909803647E+03  0.10310338773E+04  0.10883072421E+04  0.25500000920E-02 0. -1.
</event>
<event>
 5   0  0.5625746E-05  0.1198950E+04  0.7818609E-02  0.9113776E-01
       -1   -1    0    0    0  501  0.00000000000E+00  0.00000000000E+00  0.15270957699E+03  0.15270957707E+03  0.50400001928E-02 0.  1.
        1   -1    0    0  501    0  0.00000000000E+00  0.00000000000E+00 -0.23532937491E+04  0.23532937491E+04  0.50400001928E-02 0. -1.
    10030    2    1    2    0    0  0.00000000000E+00  0.00000000000E+00 -0.22005841721E+04  0.25060033262E+04  0.11989503627E+04 0.  0.
        5    1    3    3  502    0  0.57089891661E+03 -0.34925089164E+01 -0.71823981279E+03  0.91751201043E+03  0.46999998093E+01 0.  1.
       -5    1    3    3    0  502 -0.57089891661E+03  0.34925089164E+01 -0.14823443593E+04  0.15884913158E+04  0.46999998093E+01 0. -1.
</event>
<event>
 5   0  0.5447807E-05  0.1199314E+04  0.7818609E-02  0.9113458E-01
       -1   -1    0    0    0  501  0.00000000000E+00  0.00000000000E+00  0.17401160416E+03  0.17401160423E+03  0.50400001928E-02 0.  1.
        1   -1    0    0  501    0  0.00000000000E+00  0.00000000000E+00 -0.20664615970E+04  0.20664615970E+04  0.50400001928E-02 0. -1.
    10030    2    1    2    0    0  0.00000000000E+00  0.00000000000E+00 -0.18924499928E+04  0.22404732012E+04  0.11993136329E+04 0.  0.
        2    1    3    3  502    0 -0.61359634101E+02  0.48119253949E+03 -0.16047957206E+04  0.16765084460E+04  0.25500000920E-02 0. -1.
       -2    1    3    3    0  502  0.61359634101E+02 -0.48119253949E+03 -0.28765427221E+03  0.56396475518E+03  0.25500000920E-02 0.  1.
</event>
<event>
 5   0  0.5625746E-05  0.1198299E+04  0.7818609E-02  0.9114347E-01
       -1   -1    0    0    0  501  0.00000000000E+00  0.00000000000E+00  0.25163436771E+03  0.25163436776E+03  0.50400001928E-02 0. -1.
        1   -1    0    0  501    0  0.00000000000E+00  0.00000000000E+00 -0.14265933550E+04  0.14265933550E+04  0.50400001928E-02 0.  1.
    10030    2    1    2    0    0  0.00000000000E+00  0.00000000000E+00 -0.11749589873E+04  0.16782277228E+04  0.11982986555E+04 0.  0.
        5    1    3    3  502    0  0.29004541881E+03 -0.40814085057E+02  0.14449996892E+03  0.32664118774E+03  0.46999998093E+01 0. -1.
       -5    1    3    3    0  502 -0.29004541881E+03  0.40814085057E+02 -0.13194589562E+04  0.13515865350E+04  0.46999998093E+01 0.  1.
</event>
<event>
 5   0  0.3839750E-05  0.1199651E+04  0.7818609E-02  0.9113162E-01
        4   -1    0    0  501    0  0.00000000000E+00  0.00000000000E+00  0.13192330678E+04  0.13192336791E+04  0.12699999809E+01 0. -1.
       -4   -1    0    0    0  501  0.00000000000E+00  0.00000000000E+00 -0.27272510239E+03  0.27272805938E+03  0.12699999809E+01 0.  1.
    10030    2    1    2    0    0  0.00000000000E+00  0.00000000000E+00  0.10465079654E+04  0.15919617385E+04  0.11996513056E+04 0.  0.
        5    1    3    3  502    0 -0.43632794212E+03 -0.27284332669E+03  0.11436118760E+03  0.52718699265E+03  0.46999998093E+01 0.  1.
       -5    1    3    3    0  502  0.43632794212E+03  0.27284332669E+03  0.93214677781E+03  0.10647747458E+04  0.46999998093E+01 0. -1.
</event>
<event>
 5   0  0.1023063E-04  0.1200193E+04  0.7818609E-02  0.9112688E-01
       -2   -1    0    0    0  501  0.00000000000E+00  0.00000000000E+00  0.28280254868E+03  0.28280254869E+03  0.25500000920E-02 0. -1.
        2   -1    0    0  501    0  0.00000000000E+00  0.00000000000E+00 -0.12733815692E+04  0.12733815692E+04  0.25500000920E-02 0.  1.
    10030    2    1    2    0    0  0.00000000000E+00  0.00000000000E+00 -0.99057902051E+03  0.15561841179E+04  0.12001925732E+04 0.  0.
        3    1    3    3  502    0 -0.38999023614E+03 -0.44965523136E+03 -0.39625914574E+03  0.71505491549E+03  0.10100000352E+00 0.  1.
       -3    1    3    3    0  502  0.38999023614E+03  0.44965523136E+03 -0.59431987477E+03  0.84112920239E+03  0.10100000352E+00 0. -1.
</event>
<event>
 5   0  0.9941209E-05  0.1200323E+04  0.7818609E-02  0.9112574E-01
       -2   -1    0    0    0  501  0.00000000000E+00  0.00000000000E+00  0.43070403681E+03  0.43070403682E+03  0.25500000920E-02 0. -1.
        2   -1    0    0  501    0  0.00000000000E+00  0.00000000000E+00 -0.83629115399E+03  0.83629115399E+03  0.25500000920E-02 0.  1.
    10030    2    1    2    0    0  0.00000000000E+00  0.00000000000E+00 -0.40558711718E+03  0.12669951908E+04  0.12003232498E+04 0.  0.
        2    1    3    3  502    0  0.19760504761E+02  0.58707167460E+03 -0.72869959574E+02  0.59190679983E+03  0.25500000920E-02 0. -1.
       -2    1    3    3    0  502 -0.19760504761E+02 -0.58707167460E+03 -0.33271715760E+03  0.67508839098E+03  0.25500000920E-02 0.  1.
</event>
<event>
 5   0  0.1012657E-04  0.1200114E+04  0.7818609E-02  0.9112756E-01
        2   -1    0    0  501    0  0.00000000000E+00  0.00000000000E+00  0.49356883439E+03  0.49356883440E+03  0.25500000920E-02 0.  1.
       -2   -1    0    0    0  501  0.00000000000E+00  0.00000000000E+00 -0.72952061913E+03  0.72952061913E+03  0.25500000920E-02 0. -1.
    10030    2    1    2    0    0  0.00000000000E+00  0.00000000000E+00 -0.23595178474E+03  0.12230894535E+04  0.12001143973E+04 0.  0.
        1    1    3    3  502    0  0.12824010590E+03  0.12287085580E+03  0.46616870227E+03  0.49885471930E+03  0.50400001928E-02 0.  1.
       -1    1    3    3    0  502 -0.12824010590E+03 -0.12287085580E+03 -0.70212048701E+03  0.72423473423E+03  0.50400001928E-02 0. -1.
</event>
<event>
 5   0  0.5447807E-05  0.1205512E+04  0.7818609E-02  0.9108046E-01
       -1   -1    0    0    0  501  0.00000000000E+00  0.00000000000E+00  0.30813927763E+03  0.30813927767E+03  0.50400001928E-02 0. -1.
        1   -1    0    0  501    0  0.00000000000E+00  0.00000000000E+00 -0.11790598305E+04  0.11790598305E+04  0.50400001928E-02 0.  1.
    10030    2    1    2    0    0  0.00000000000E+00  0.00000000000E+00 -0.87092055288E+03  0.14871991082E+04  0.12055117494E+04 0.  0.
        2    1    3    3  502    0  0.33327956201E+03 -0.23860265503E+03 -0.98066279465E+03  0.10628762911E+04  0.25500000920E-02 0.  1.
       -2    1    3    3    0  502 -0.33327956201E+03  0.23860265503E+03  0.10974224177E+03  0.42432281706E+03  0.25500000920E-02 0. -1.
</event>
<event>
 5   0  0.9838215E-05  0.1200256E+04  0.7818609E-02  0.9112632E-01
        2   -1    0    0  501    0  0.00000000000E+00  0.00000000000E+00  0.75113647383E+03  0.75113647383E+03  0.25500000920E-02 0. -1.
       -2   -1    0    0    0  501  0.00000000000E+00  0.00000000000E+00 -0.47947840136E+03  0.47947840137E+03  0.25500000920E-02 0.  1.
    10030    2    1    2    0    0  0.00000000000E+00  0.00000000000E+00  0.27165807246E+03  0.12306148752E+04  0.12002561655E+04 0.  0.
        4    1    3    3  502    0 -0.58619763734E+03 -0.99359673748E+02  0.52205754424E+02  0.59684760910E+03  0.12699999809E+01 0.  1.
       -4    1    3    3    0  502  0.58619763734E+03  0.99359673748E+02  0.21945231804E+03  0.63376726610E+03  0.12699999809E+01 0. -1.
</event>
<event>
 5   0  0.5620246E-05  0.1200176E+04  0.7818609E-02  0.9112703E-01
        1   -1    0    0  501    0  0.00000000000E+00  0.00000000000E+00  0.47441189199E+03  0.47441189202E+03  0.50400001928E-02 0. -1.
       -1   -1    0    0    0  501  0.00000000000E+00  0.00000000000E+00 -0.75905668977E+03  0.75905668979E+03  0.50400001928E-02 0.  1.
    10030    2    1    2    0    0  0.00000000000E+00  0.00000000000E+00 -0.28464479778E+03  0.12334685818E+04  0.12001758544E+04 0.  0.
        1    1    3    3  502    0 -0.39101816482E+03 -0.25990902827E+03 -0.52639693331E+03  0.70536631591E+03  0.50400001928E-02 0.  1.
       -1    1    3    3    0  502  0.39101816482E+03  0.25990902827E+03  0.24175213552E+03  0.52810226590E+03  0.50400001928E-02 0. -1.
</event>
<event>
 5   0  0.5447807E-05  0.1200897E+04  0.7818609E-02  0.9112072E-01
       -1   -1    0    0    0  501  0.00000000000E+00  0.00000000000E+00  0.81444139013E+03  0.81444139015E+03  0.50400001928E-02 0.  1.
        1   -1    0    0  501    0  0.00000000000E+00  0.00000000000E+00 -0.44268164870E+03  0.44268164873E+03  0.50400001928E-02 0. -1.
    10030    2    1    2    0    0  0.00000000000E+00  0.00000000000E+00  0.37175974143E+03  0.12571230389E+04  0.12008967606E+04 0.  0.
        2    1    3    3  502    0 -0.21513091692E+03 -0.16426226805E+03 -0.37519512919E+03  0.46263894031E+03  0.25500000920E-02 0. -1.
       -2    1    3    3    0  502  0.21513091692E+03  0.16426226805E+03  0.74695487062E+03  0.79448409856E+03  0.25500000920E-02 0.  1.
</event>
<event>
 5   0  0.1023063E-04  0.1199489E+04  0.7818609E-02  0.9113304E-01
        2   -1    0    0  501    0  0.00000000000E+00  0.00000000000E+00  0.15299410500E+04  0.15299410500E+04  0.25500000920E-02 0. -1.
       -2   -1    0    0    0  501  0.00000000000E+00  0.00000000000E+00 -0.23510287311E+03  0.23510287312E+03  0.25500000920E-02 0.  1.
    10030    2    1    2    0    0  0.00000000000E+00  0.00000000000E+00  0.12948381769E+04  0.17650439231E+04  0.11994891188E+04 0.  0.
        3    1    3    3  502    0  0.35652231836E+03  0.48121680342E+03  0.60052124982E+03  0.84811765521E+03  0.10100000352E+00 0.  1.
       -3    1    3    3    0  502 -0.35652231836E+03 -0.48121680342E+03  0.69431692705E+03  0.91692626791E+03  0.10100000352E+00 0. -1.
</event>
<event>
 5   0  0.5625746E-05  0.1199738E+04  0.7818609E-02  0.9113086E-01
        1   -1    0    0  501    0  0.00000000000E+00  0.00000000000E+00  0.96321298381E+03  0.96321298382E+03  0.50400001928E-02 0. -1.
       -1   -1    0    0    0  501  0.00000000000E+00  0.00000000000E+00 -0.37358584269E+03  0.37358584272E+03  0.50400001928E-02 0.  1.
    10030    2    1    2    0    0  0.00000000000E+00  0.00000000000E+00  0.58962714112E+03  0.13367988265E+04  0.11997378618E+04 0.  0.
        5    1    3    3  502    0 -0.37282881110E+03 -0.46990929832E+03  0.29719639422E+03  0.66945041472E+03  0.46999998093E+01 0.  1.
       -5    1    3    3    0  502  0.37282881110E+03  0.46990929832E+03  0.29243074689E+03  0.66734841182E+03  0.46999998093E+01 0. -1.
</event>
<event>
 5   0  0.1023063E-04  0.1194166E+04  0.7818609E-02  0.9117978E-01
       -2   -1    0    0    0  501  0.00000000000E+00  0.00000000000E+00  0.65192564459E+03  0.65192564460E+03  0.25500000920E-02 0.  1.
        2   -1    0    0  501    0  0.00000000000E+00  0.00000000000E+00 -0.54685438702E+03  0.54685438702E+03  0.25500000920E-02 0. -1.
    10030    2    1    2    0    0  0.00000000000E+00  0.00000000000E+00  0.10507125758E+03  0.11987800316E+04  0.11941664855E+04 0.  0.
        3    1    3    3  502    0 -0.57912386973E+03 -0.14433649689E+03  0.69657540436E+02  0.60089072548E+03  0.10100000352E+00 0. -1.
       -3    1    3    3    0  502  0.57912386973E+03  0.14433649689E+03  0.35413717142E+02  0.59788930614E+03  0.10100000352E+00 0.  1.
</event>
<event>
 5   0  0.5732931E-05  0.1199697E+04  0.7818609E-02  0.9113122E-01
        1   -1    0    0  501    0  0.00000000000E+00  0.00000000000E+00  0.43937286993E+03  0.43937286996E+03  0.50400001928E-02 0. -1.
       -1   -1    0    0    0  501  0.00000000000E+00  0.00000000000E+00 -0.81893524146E+03  0.81893524147E+03  0.50400001928E-02 0.  1.
    10030    2    1    2    0    0  0.00000000000E+00  0.00000000000E+00 -0.37956237153E+03  0.12583081114E+04  0.11996965072E+04 0.  0.
        4    1    3    3  502    0  0.35148061258E+03 -0.13532291957E+03 -0.67945782071E+03  0.77686257254E+03  0.12699999809E+01 0.  1.
       -4    1    3    3    0  502 -0.35148061258E+03  0.13532291957E+03  0.29989544919E+03  0.48144553889E+03  0.12699999809E+01 0. -1.
</event>
<event>
 5   0  0.5625746E-05  0.1200610E+04  0.7818609E-02  0.9112323E-01
       -1   -1    0    0    0  501  0.00000000000E+00  0.00000000000E+00  0.43573893672E+03  0.43573893675E+03  0.50400001928E-02 0. -1.
        1   -1    0    0  501    0  0.00000000000E+00  0.00000000000E+00 -0.82702279186E+03  0.82702279188E+03  0.50400001928E-02 0.  1.
    10030    2    1    2    0    0  0.00000000000E+00  0.00000000000E+00 -0.39128385514E+03  0.12627617286E+04  0.12006098983E+04 0.  0.
        5    1    3    3  502    0  0.54694576411E+02  0.39622075785E+03  0.27514748728E+03  0.48550037631E+03  0.46999998093E+01 0. -1.
       -5    1    3    3    0  502 -0.54694576411E+02 -0.39622075785E+03 -0.66643134242E+03  0.77726135232E+03  0.46999998093E+01 0.  1.
</event>
<event>
 5   0  0.1004006E-04  0.1200010E+04  0.7818609E-02  0.9112847E-01
       -2   -1    0    0    0  501  0.00000000000E+00  0.00000000000E+00  0.42857420921E+03  0.42857420921E+03  0.25500000920E-02 0. -1.
        2   -1    0    0  501    0  0.00000000000E+00  0.00000000000E+00 -0.84000915317E+03  0.84000915317E+03  0.25500000920E-02 0.  1.
    10030    2    1    2    0    0  0.00000000000E+00  0.00000000000E+00 -0.41143494396E+03  0.12685833624E+04  0.12000104309E+04 0.  0.
        5    1    3    3  502    0 -0.53488033134E+03  0.17539659870E+03  0.13810389121E+02  0.56309302298E+03  0.46999998093E+01 0. -1.
       -5    1    3    3    0  502  0.53488033134E+03 -0.17539659870E+03 -0.42524533308E+03  0.70549033940E+03  0.46999998093E+01 0.  1.
</event>
<event>
 5   0  0.5620246E-05  0.1199486E+04  0.7818609E-02  0.9113307E-01
       -1   -1    0    0    0  501  0.00000000000E+00  0.00000000000E+00  0.39248030531E+03  0.39248030535E+03  0.50400001928E-02 0.  1.
        1   -1    0    0  501    0  0.00000000000E+00  0.00000000000E+00 -0.91645792909E+03  0.91645792910E+03  0.50400001928E-02 0. -1.
    10030    2    1    2    0    0  0.00000000000E+00  0.00000000000E+00 -0.52397762378E+03  0.13089382344E+04  0.11994860363E+04 0.  0.
        1    1    3    3  502    0  0.47374449325E+03 -0.18205305091E+03 -0.61070148234E+03  0.79406136966E+03  0.50400001928E-02 0. -1.
       -1    1    3    3    0  502 -0.47374449325E+03  0.18205305091E+03  0.86723858564E+02  0.51487686479E+03  0.50400001928E-02 0.  1.
</event>
<event>
 5   0  0.1004006E-04  0.1199884E+04  0.7818609E-02  0.9112958E-01
        2   -1    0    0  501    0  0.00000000000E+00  0.00000000000E+00  0.65943598248E+03  0.65943598248E+03  0.25500000920E-02 0. -1.
       -2   -1    0    0    0  501  0.00000000000E+00  0.00000000000E+00 -0.54581524565E+03  0.54581524565E+03  0.25500000920E-02 0.  1.
    10030    2    1    2    0    0  0.00000000000E+00  0.00000000000E+00  0.11362073683E+03  0.12052512281E+04  0.11998836823E+04 0.  0.
        5    1    3    3  502    0 -0.51506482858E+03 -0.18441286501E+03 -0.19047833251E+03  0.57931335870E+03  0.46999998093E+01 0.  1.
       -5    1    3    3    0  502  0.51506482858E+03  0.18441286501E+03  0.30409906934E+03  0.62593786943E+03  0.46999998093E+01 0. -1.
</event>
<event>
 5   0  0.5447807E-05  0.1200033E+04  0.7818609E-02  0.9112827E-01
       -1   -1    0    0    0  501  0.00000000000E+00  0.00000000000E+00  0.20975991355E+03  0.20975991361E+03  0.50400001928E-02 0.  1.
        1   -1    0    0  501    0  0.00000000000E+00  0.00000000000E+00 -0.17163436047E+04  0.17163436047E+04  0.50400001928E-02 0. -1.
    10030    2    1    2    0    0  0.00000000000E+00  0.00000000000E+00 -0.15065836912E+04  0.19261035183E+04  0.12000334766E+04 0.  0.
        2    1    3    3  502    0  0.57647140626E+03  0.41474426811E+02 -0.49458287630E+03  0.76069154843E+03  0.25500000920E-02 0.  1.
       -2    1    3    3    0  502 -0.57647140626E+03 -0.41474426811E+02 -0.10120008149E+04  0.11654119699E+04  0.25500000920E-02 0. -1.
</event>
<event>
 5   0  0.5745487E-05  0.1200566E+04  0.7818609E-02  0.9112361E-01
        1   -1    0    0  501    0  0.00000000000E+00  0.00000000000E+00  0.12625736102E+04  0.12625736102E+04  0.50400001928E-02 0. -1.
       -1   -1    0    0    0  501  0.00000000000E+00  0.00000000000E+00 -0.28540093117E+03  0.28540093121E+03  0.50400001928E-02 0.  1.
    10030    2    1    2    0    0  0.00000000000E+00  0.00000000000E+00  0.97717267907E+03  0.15479745415E+04  0.12005660066E+04 0.  0.
        3    1    3    3  502    0  0.59028547543E+02  0.36554360541E+03 -0.12060979850E+03  0.38942679745E+03  0.10100000352E+00 0.  1.
       -3    1    3    3    0  502 -0.59028547543E+02 -0.36554360541E+03  0.10977824776E+04  0.11585477440E+04  0.10100000352E+00 0. -1.
</event>
<event>
 5   0  0.3839750E-05  0.1200144E+04  0.7818609E-02  0.9112731E-01
        3   -1    0    0  501    0  0.00000000000E+00  0.00000000000E+00  0.97048577540E+03  0.97048578065E+03  0.10100000352E+00 0. -1.
       -3   -1    0    0    0  501  0.00000000000E+00  0.00000000000E+00 -0.37103696448E+03  0.37103697822E+03  0.10100000352E+00 0.  1.
    10030    2    1    2    0    0  0.00000000000E+00  0.00000000000E+00  0.59944881092E+03  0.13415227589E+04  0.12001435063E+04 0.  0.
        5    1    3    3  502    0 -0.16435773731E+03 -0.34908668268E+03 -0.21396493570E+03  0.44122336922E+03  0.46999998093E+01 0.  1.
       -5    1    3    3    0  502  0.16435773731E+03  0.34908668268E+03  0.81341374661E+03  0.90029938966E+03  0.46999998093E+01 0. -1.
</event>
<event>
 5   0  0.5625746E-05  0.1199723E+04  0.7818609E-02  0.9113099E-01
        1   -1    0    0  501    0  0.00000000000E+00  0.00000000000E+00  0.87964641354E+03  0.87964641355E+03  0.50400001928E-02 0. -1.
       -1   -1    0    0    0  501  0.00000000000E+00  0.00000000000E+00 -0.40906622835E+03  0.40906622838E+03  0.50400001928E-02 0.  1.
    10030    2    1    2    0    0  0.00000000000E+00  0.00000000000E+00  0.47058018519E+03  0.12887126419E+04  0.11997227024E+04 0.  0.
        5    1    3    3  502    0  0.32580961369E+03  0.40902549320E+01 -0.30569659783E+03  0.44681219151E+03  0.46999998093E+01 0.  1.
       -5    1    3    3    0  502 -0.32580961369E+03 -0.40902549320E+01  0.77627678302E+03  0.84190045042E+03  0.46999998093E+01 0. -1.
</event>
<event>
 5   0  0.9941209E-05  0.1198746E+04  0.7818609E-02  0.9113955E-01
        2   -1    0    0  501    0  0.00000000000E+00  0.00000000000E+00  0.34191613641E+03  0.34191613642E+03  0.25500000920E-02 0. -1.
       -2   -1    0    0    0  501  0.00000000000E+00  0.00000000000E+00 -0.10506901453E+04  0.10506901453E+04  0.25500000920E-02 0.  1.
    10030    2    1    2    0    0  0.00000000000E+00  0.00000000000E+00 -0.70877400889E+03  0.13926062817E+04  0.11987458697E+04 0.  0.
        2    1    3    3  502    0 -0.51492629440E+03  0.30230682764E+03 -0.41485679399E+03  0.72707954601E+03  0.25500000920E-02 0.  1.
       -2    1    3    3    0  502  0.51492629440E+03 -0.30230682764E+03 -0.29391721490E+03  0.66552673570E+03  0.25500000920E-02 0. -1.
</event>
<event>
 5   0  0.1012657E-04  0.1201115E+04  0.7818609E-02  0.9111881E-01
        2   -1    0    0  501    0  0.00000000000E+00  0.00000000000E+00  0.20317000802E+04  0.20317000802E+04  0.25500000920E-02 0. -1.
       -2   -1    0    0    0  501  0.00000000000E+00  0.00000000000E+00 -0.17752093109E+03  0.17752093111E+03  0.25500000920E-02 0.  1.
    10030    2    1    2    0    0  0.00000000000E+00  0.00000000000E+00  0.18541791491E+04  0.22092210113E+04  0.12011149653E+04 0.  0.
        1    1    3    3  502    0 -0.23809285982E+03 -0.22556515341E+03  0.18524307685E+04  0.18812409735E+04  0.50400001928E-02 0. -1.
       -1    1    3    3    0  502  0.23809285982E+03  0.22556515341E+03  0.17483805952E+01  0.32798003779E+03  0.50400001928E-02 0.  1.
</event>
<event>
 5   0  0.5620246E-05  0.1200412E+04  0.7818609E-02  0.9112496E-01
        1   -1    0    0  501    0  0.00000000000E+00  0.00000000000E+00  0.87336096063E+03  0.87336096064E+03  0.50400001928E-02 0. -1.
       -1   -1    0    0    0  501  0.00000000000E+00  0.00000000000E+00 -0.41248359937E+03  0.41248359940E+03  0.50400001928E-02 0.  1.
    10030    2    1    2    0    0  0.00000000000E+00  0.00000000000E+00  0.46087736126E+03  0.12858445600E+04  0.12004117171E+04 0.  0.
        1    1    3    3  502    0  0.46620144643E+03 -0.28125107876E+03  0.50100415598E+03  0.73989940012E+03  0.50400001928E-02 0. -1.
       -1    1    3    3    0  502 -0.46620144643E+03  0.28125107876E+03 -0.40126794717E+02  0.54594515992E+03  0.50400001928E-02 0.  1.
</event>
<event>
 5   0  0.5745487E-05  0.1200153E+04  0.7818609E-02  0.9112723E-01
       -1   -1    0    0    0  501  0.00000000000E+00  0.00000000000E+00  0.58110910275E+03  0.58110910277E+03  0.50400001928E-02 0.  1.
        1   -1    0    0  501    0  0.00000000000E+00  0.00000000000E+00 -0.61966265007E+03  0.61966265009E+03  0.50400001928E-02 0. -1.
    10030    2    1    2    0    0  0.00000000000E+00  0.00000000000E+00 -0.38553547319E+02  0.12007717529E+04  0.12001526680E+04 0.  0.
        3    1    3    3  502    0  0.78688120836E+02  0.78156579005E+02 -0.60931933655E+03  0.61933055415E+03  0.10100000352E+00 0. -1.
       -3    1    3    3    0  502 -0.78688120836E+02 -0.78156579005E+02  0.57076578923E+03  0.58144119871E+03  0.10100000352E+00 0.  1.
</event>
<event>
 5   0  0.5745487E-05  0.1200042E+04  0.7818609E-02  0.9112819E-01
        1   -1    0    0  501    0  0.00000000000E+00  0.00000000000E+00  0.72348119114E+03  0.72348119116E+03  0.50400001928E-02 0. -1.
       -1   -1    0    0    0  501  0.00000000000E+00  0.00000000000E+00 -0.49762932138E+03  0.49762932141E+03  0.50400001928E-02 0.  1.
    10030    2    1    2    0    0  0.00000000000E+00  0.00000000000E+00  0.22585186976E+03  0.12211105126E+04  0.12000424229E+04 0.  0.
        3    1    3    3  502    0 -0.15319050425E+03  0.57522813251E+03  0.18955209293E+03  0.62472773362E+03  0.10100000352E+00 0. -1.
       -3    1    3    3    0  502  0.15319050425E+03 -0.57522813251E+03  0.36299776827E+02  0.59638277894E+03  0.10100000352E+00 0.  1.
</event>
<event>
 5   0  0.5447807E-05  0.1199950E+04  0.7818609E-02  0.9112901E-01
       -1   -1    0    0    0  501  0.00000000000E+00  0.00000000000E+00  0.48611064668E+03  0.48611064671E+03  0.50400001928E-02 0.  1.
        1   -1    0    0  501    0  0.00000000000E+00  0.00000000000E+00 -0.74050997730E+03  0.74050997732E+03  0.50400001928E-02 0. -1.
    10030    2    1    2    0    0  0.00000000000E+00  0.00000000000E+00 -0.25439933062E+03  0.12266206240E+04  0.11999496389E+04 0.  0.
        2    1    3    3  502    0  0.84913153715E+02  0.55837267857E+03 -0.33413303457E+03  0.65622799136E+03  0.25500000920E-02 0. -1.
       -2    1    3    3    0  502 -0.84913153715E+02 -0.55837267857E+03  0.79733703950E+02  0.57039263267E+03  0.25500000920E-02 0.  1.
</event>
<event>
 5   0  0.1012657E-04  0.1200556E+04  0.7818609E-02  0.9112370E-01
       -2   -1    0    0    0  501  0.00000000000E+00  0.00000000000E+00  0.25794199411E+03  0.25794199412E+03  0.25500000920E-02 0.  1.
        2   -1    0    0  501    0  0.00000000000E+00  0.00000000000E+00 -0.13969566514E+04  0.13969566514E+04  0.25500000920E-02 0. -1.
    10030    2    1    2    0    0  0.00000000000E+00  0.00000000000E+00 -0.11390146573E+04  0.16548986455E+04  0.12005561784E+04 0.  0.
        1    1    3    3  502    0  0.57307425358E+03  0.10096096938E+02 -0.81538759036E+03  0.99668096893E+03  0.50400001928E-02 0. -1.
       -1    1    3    3    0  502 -0.57307425358E+03 -0.10096096938E+02 -0.32362706692E+03  0.65821767658E+03  0.50400001928E-02 0.  1.
</event>
<event>
 5   0  0.1023063E-04  0.1199953E+04  0.7818609E-02  0.9112898E-01
        2   -1    0    0  501    0  0.00000000000E+00  0.00000000000E+00  0.10860973809E+04  0.10860973809E+04  0.25500000920E-02 0. -1.
       -2   -1    0    0    0  501  0.00000000000E+00  0.00000000000E+00 -0.33143598264E+03  0.33143598265E+03  0.25500000920E-02 0.  1.
    10030    2    1    2    0    0  0.00000000000E+00  0.00000000000E+00  0.75466139822E+03  0.14175333635E+04  0.11999529202E+04 0.  0.
        3    1    3    3  502    0 -0.34165066384E+03 -0.33388175547E+03 -0.51490845581E+02  0.48047218454E+03  0.10100000352E+00 0.  1.
       -3    1    3    3    0  502  0.34165066384E+03  0.33388175547E+03  0.80615224381E+03  0.93706117897E+03  0.10100000352E+00 0. -1.
</event>
<event>
 5   0  0.5745487E-05  0.1200432E+04  0.7818609E-02  0.9112479E-01
        1   -1    0    0  501    0  0.00000000000E+00  0.00000000000E+00  0.50610335101E+03  0.50610335104E+03  0.50400001928E-02 0.  1.
       -1   -1    0    0    0  501  0.00000000000E+00  0.00000000000E+00 -0.71182928750E+03  0.71182928752E+03  0.50400001928E-02 0. -1.
    10030    2    1    2    0    0  0.00000000000E+00  0.00000000000E+00 -0.20572593649E+03  0.12179326386E+04  0.12004319019E+04 0.  0.
        3    1    3    3  502    0 -0.35872579611E+03  0.26058966571E+03 -0.51331994069E+03  0.67829826948E+03  0.10100000352E+00 0. -1.
       -3    1    3    3    0  502  0.35872579611E+03 -0.26058966571E+03  0.30759400420E+03  0.53963436908E+03  0.10100000352E+00 0.  1.
</event>
<event>
 5   0  0.9838215E-05  0.1200057E+04  0.7818609E-02  0.9112807E-01
       -2   -1    0    0    0  501  0.00000000000E+00  0.00000000000E+00  0.18950598495E+03  0.18950598496E+03  0.25500000920E-02 0. -1.
        2   -1    0    0  501    0  0.00000000000E+00  0.00000000000E+00 -0.18998551593E+04  0.18998551593E+04  0.25500000920E-02 0.  1.
    10030    2    1    2    0    0  0.00000000000E+00  0.00000000000E+00 -0.17103491743E+04  0.20893611442E+04  0.12000565374E+04 0.  0.
        4    1    3    3  502    0 -0.16213438537E+03 -0.27639179570E+03  0.28059570305E+02  0.32166587639E+03  0.12699999809E+01 0. -1.
       -4    1    3    3    0  502  0.16213438537E+03  0.27639179570E+03 -0.17384087446E+04  0.17676952678E+04  0.12699999809E+01 0.  1.
</event>
<event>
 5   0  0.5745487E-05  0.1200333E+04  0.7818609E-02  0.9112565E-01
        1   -1    0    0  501    0  0.00000000000E+00  0.00000000000E+00  0.18354029877E+04  0.18354029877E+04  0.50400001928E-02 0.  1.
       -1   -1    0    0    0  501  0.00000000000E+00  0.00000000000E+00 -0.19625097179E+03  0.19625097185E+03  0.50400001928E-02 0. -1.
    10030    2    1    2    0    0  0.00000000000E+00  0.00000000000E+00  0.16391520159E+04  0.20316539596E+04  0.12003326539E+04 0.  0.
        3    1    3    3  502    0  0.34999470208E+03  0.33046407888E+03  0.14263043642E+04  0.15053394795E+04  0.10100000352E+00 0.  1.
       -3    1    3    3    0  502 -0.34999470208E+03 -0.33046407888E+03  0.21284765171E+03  0.52631448009E+03  0.10100000352E+00 0. -1.
</event>
<event>
 5   0  0.5745487E-05  0.1199759E+04  0.7818609E-02  0.9113067E-01
        1   -1    0    0  501    0  0.00000000000E+00  0.00000000000E+00  0.14196649770E+04  0.14196649770E+04  0.50400001928E-02 0.  1.
       -1   -1    0    0    0  501  0.00000000000E+00  0.00000000000E+00 -0.25347918161E+03  0.25347918166E+03  0.50400001928E-02 0. -1.
    10030    2    1    2    0    0  0.00000000000E+00  0.00000000000E+00  0.11661857954E+04  0.16731441586E+04  0.11997591701E+04 0.  0.
        3    1    3    3  502    0  0.36502113360E+03  0.45875203342E+03  0.40580375690E+03  0.71300109078E+03  0.10100000352E+00 0. -1.
       -3    1    3    3    0  502 -0.36502113360E+03 -0.45875203342E+03  0.76038203845E+03  0.96014306785E+03  0.10100000352E+00 0.  1.
</event>
<event>
 5   0  0.1004006E-04  0.1199742E+04  0.7818609E-02  0.9113082E-01
        2   -1    0    0  501    0  0.00000000000E+00  0.00000000000E+00  0.17179840756E+04  0.17179840756E+04  0.25500000920E-02 0. -1.
       -2   -1    0    0    0  501  0.00000000000E+00  0.00000000000E+00 -0.20945782113E+03  0.20945782115E+03  0.25500000920E-02 0.  1.
    10030    2    1    2    0    0  0.00000000000E+00  0.00000000000E+00  0.15085262545E+04  0.19274418968E+04  0.11997419743E+04 0.  0.
        5    1    3    3  502    0  0.36905038094E+03  0.45888389186E+02  0.15103977290E+04  0.15555151293E+04  0.46999998093E+01 0. -1.
       -5    1    3    3    0  502 -0.36905038094E+03 -0.45888389186E+02 -0.18714744601E+01  0.37192676745E+03  0.46999998093E+01 0.  1.
</event>
<event>
 5   0  0.5732931E-05  0.1199107E+04  0.7818609E-02  0.9113639E-01
        1   -1    0    0  501    0  0.00000000000E+00  0.00000000000E+00  0.48387016825E+03  0.48387016828E+03  0.50400001928E-02 0.  1.
       -1   -1    0    0    0  501  0.00000000000E+00  0.00000000000E+00 -0.74289403338E+03  0.74289403340E+03  0.50400001928E-02 0. -1.
    10030    2    1    2    0    0  0.00000000000E+00  0.00000000000E+00 -0.25902386513E+03  0.12267642017E+04  0.11991067691E+04 0.  0.
        4    1    3    3  502    0 -0.18134723930E+01 -0.37569099431E+03 -0.60753148459E+03  0.71431304731E+03  0.12699999809E+01 0. -1.
       -4    1    3    3    0  502  0.18134723930E+01  0.37569099431E+03  0.34850761947E+03  0.51245115437E+03  0.12699999809E+01 0.  1.
</event>
<event>
 5   0  0.5745487E-05  0.1200047E+04  0.7818609E-02  0.9112815E-01
        1   -1    0    0  501    0  0.00000000000E+00  0.00000000000E+00  0.84423897839E+03  0.84423897841E+03  0.50400001928E-02 0. -1.
       -1   -1    0    0    0  501  0.00000000000E+00  0.00000000000E+00 -0.42645288181E+03  0.42645288184E+03  0.50400001928E-02 0.  1.
    10030    2    1    2    0    0  0.00000000000E+00  0.00000000000E+00  0.41778609658E+03  0.12706918602E+04  0.12000469079E+04 0.  0.
        3    1    3    3  502    0  0.48837900440E+03  0.34838791538E+03  0.22141922464E+03  0.63946436551E+03  0.10100000352E+00 0.  1.
       -3    1    3    3    0  502 -0.48837900440E+03 -0.34838791538E+03  0.19636687194E+03  0.63122749474E+03  0.10100000352E+00 0. -1.
</event>
<event>
 5   0  0.9941209E-05  0.1199967E+04  0.7818609E-02  0.9112886E-01
        2   -1    0    0  501    0  0.00000000000E+00  0.00000000000E+00  0.27872341844E+04  0.27872341844E+04  0.25500000920E-02 0. -1.
       -2   -1    0    0    0  501  0.00000000000E+00  0.00000000000E+00 -0.12915310604E+03  0.12915310607E+03  0.25500000920E-02 0.  1.
    10030    2    1    2    0    0  0.00000000000E+00  0.00000000000E+00  0.26580810784E+04  0.29163872905E+04  0.11999665866E+04 0.  0.
        2    1    3    3  502    0 -0.36306466969E+03  0.12465809665E+03  0.20835814265E+03  0.43677077633E+03  0.25500000920E-02 0.  1.
       -2    1    3    3    0  502  0.36306466969E+03 -0.12465809665E+03  0.24497229357E+04  0.24796165141E+04  0.25500000920E-02 0. -1.
</event>
<event>
 5   0  0.5732931E-05  0.1200226E+04  0.7818609E-02  0.9112658E-01
       -1   -1    0    0    0  501  0.00000000000E+00  0.00000000000E+00  0.34206172082E+03  0.34206172086E+03  0.50400001928E-02 0.  1.
        1   -1    0    0  501    0  0.00000000000E+00  0.00000000000E+00 -0.10528387278E+04  0.10528387278E+04  0.50400001928E-02 0. -1.
    10030    2    1    2    0    0  0.00000000000E+00  0.00000000000E+00 -0.71077700701E+03  0.13949004487E+04  0.12002263570E+04 0.  0.
        4    1    3    3  502    0  0.47264008957E+02 -0.10570978183E+03 -0.10397303775E+04  0.10461593164E+04  0.12699999809E+01 0. -1.
       -4    1    3    3    0  502 -0.47264008957E+02  0.10570978183E+03  0.32895337047E+03  0.34874113231E+03  0.12699999809E+01 0.  1.
</event>
<event>
 5   0  0.1012657E-04  0.1198076E+04  0.7818609E-02  0.9114542E-01
       -2   -1    0    0    0  501  0.00000000000E+00  0.00000000000E+00  0.58855844017E+03  0.58855844017E+03  0.25500000920E-02 0. -1.
        2   -1    0    0  501    0  0.00000000000E+00  0.00000000000E+00 -0.60970419868E+03  0.60970419868E+03  0.25500000920E-02 0.  1.
    10030    2    1    2    0    0  0.00000000000E+00  0.00000000000E+00 -0.21145758510E+02  0.11982626389E+04  0.11980760446E+04 0.  0.
        1    1    3    3  502    0 -0.19103831783E+02  0.43153224468E+03 -0.42568151495E+03  0.60645674766E+03  0.50400001928E-02 0.  1.
       -1    1    3    3    0  502  0.19103831783E+02 -0.43153224468E+03  0.40453575644E+03  0.59180589119E+03  0.50400001928E-02 0. -1.
</event>
<event>
 5   0  0.5447807E-05  0.1199839E+04  0.7818609E-02  0.9112997E-01
        1   -1    0    0  501    0  0.00000000000E+00  0.00000000000E+00  0.51849490721E+03  0.51849490724E+03  0.50400001928E-02 0.  1.
       -1   -1    0    0    0  501  0.00000000000E+00  0.00000000000E+00 -0.69413135566E+03  0.69413135567E+03  0.50400001928E-02 0. -1.
    10030    2    1    2    0    0  0.00000000000E+00  0.00000000000E+00 -0.17563644844E+03  0.12126262629E+04  0.11998392774E+04 0.  0.
        2    1    3    3  502    0 -0.56099442168E+03 -0.20379483724E+03 -0.26704823987E+02  0.59746148367E+03  0.25500000920E-02 0. -1.
       -2    1    3    3    0  502  0.56099442168E+03  0.20379483724E+03 -0.14893162446E+03  0.61516477924E+03  0.25500000920E-02 0.  1.
</event>
<event>
 5   0  0.5732931E-05  0.1199743E+04  0.7818609E-02  0.9113082E-01
        1   -1    0    0  501    0  0.00000000000E+00  0.00000000000E+00  0.18306712992E+04  0.18306712992E+04  0.50400001928E-02 0.  1.
       -1   -1    0    0    0  501  0.00000000000E+00  0.00000000000E+00 -0.19656488833E+03  0.19656488839E+03  0.50400001928E-02 0. -1.
    10030    2    1    2    0    0  0.00000000000E+00  0.00000000000E+00  0.16341064109E+04  0.20272361876E+04  0.11997428051E+04 0.  0.
        4    1    3    3  502    0  0.13325452789E+03 -0.15341086675E+03 -0.13663552931E+03  0.24487250562E+03  0.12699999809E+01 0. -1.
       -4    1    3    3    0  502 -0.13325452789E+03  0.15341086675E+03  0.17707419402E+04  0.17823636820E+04  0.12699999809E+01 0.  1.
</event>
<event>
 5   0  0.1023063E-04  0.1200685E+04  0.7818609E-02  0.9112257E-01
        2   -1    0    0  501    0  0.00000000000E+00  0.00000000000E+00  0.12271999724E+04  0.12271999724E+04  0.25500000920E-02 0. -1.
       -2   -1    0    0    0  501  0.00000000000E+00  0.00000000000E+00 -0.29368575406E+03  0.29368575407E+03  0.25500000920E-02 0.  1.
    10030    2    1    2    0    0  0.00000000000E+00  0.00000000000E+00  0.93351421833E+03  0.15208857265E+04  0.12006850533E+04 0.  0.
        3    1    3    3  502    0 -0.22545526400E+03 -0.28255179537E+03  0.10739001619E+04  0.11331050971E+04  0.10100000352E+00 0. -1.
       -3    1    3    3    0  502  0.22545526400E+03  0.28255179537E+03 -0.14038594360E+03  0.38778062934E+03  0.10100000352E+00 0.  1.
</event>
<event>
 5   0  0.5745487E-05  0.1199920E+04  0.7818609E-02  0.9112927E-01
        1   -1    0    0  501    0  0.00000000000E+00  0.00000000000E+00  0.31738087101E+03  0.31738087105E+03  0.50400001928E-02 0.  1.
       -1   -1    0    0    0  501  0.00000000000E+00  0.00000000000E+00 -0.11341321916E+04  0.11341321916E+04  0.50400001928E-02 0. -1.
    10030    2    1    2    0    0  0.00000000000E+00  0.00000000000E+00 -0.81675132062E+03  0.14515130627E+04  0.11999197688E+04 0.  0.
        3    1    3    3  502    0  0.59162539853E+03  0.49611222119E+02 -0.51292663475E+03  0.78458627849E+03  0.10100000352E+00 0. -1.
       -3    1    3    3    0  502 -0.59162539853E+03 -0.49611222119E+02 -0.30382468586E+03  0.66692678421E+03  0.10100000352E+00 0.  1.
</event>
<event>
 5   0  0.9941209E-05  0.1199896E+04  0.7818609E-02  0.9112948E-01
       -2   -1    0    0    0  501  0.00000000000E+00  0.00000000000E+00  0.60215107633E+03  0.60215107634E+03  0.25500000920E-02 0. -1.
        2   -1    0    0  501    0  0.00000000000E+00  0.00000000000E+00 -0.59775283847E+03  0.59775283847E+03  0.25500000920E-02 0.  1.
    10030    2    1    2    0    0  0.00000000000E+00  0.00000000000E+00  0.43982378684E+01  0.11999039148E+04  0.11998958539E+04 0.  0.
        2    1    3    3  502    0 -0.17024455821E+03 -0.27135341515E+03  0.50947132094E+03  0.60181135946E+03  0.25500000920E-02 0. -1.
       -2    1    3    3    0  502  0.17024455821E+03  0.27135341515E+03 -0.50507308307E+03  0.59809255535E+03  0.25500000920E-02 0.  1.
</event>
<event>
 5   0  0.1023063E-04  0.1200044E+04  0.7818609E-02  0.9112818E-01
       -2   -1    0    0    0  501  0.00000000000E+00  0.00000000000E+00  0.58304494805E+03  0.58304494805E+03  0.25500000920E-02 0. -1.
        2   -1    0    0  501    0  0.00000000000E+00  0.00000000000E+00 -0.61749316116E+03  0.61749316116E+03  0.25500000920E-02 0.  1.
    10030    2    1    2    0    0  0.00000000000E+00  0.00000000000E+00 -0.34448213108E+02  0.12005381092E+04  0.12000437793E+04 0.  0.
        3    1    3    3  502    0  0.42637828904E+03 -0.35785111952E+03 -0.24130384752E+03  0.60669879358E+03  0.10100000352E+00 0. -1.
       -3    1    3    3    0  502 -0.42637828904E+03  0.35785111952E+03  0.20685563441E+03  0.59383931563E+03  0.10100000352E+00 0.  1.
</event>
<event>
 5   0  0.9941209E-05  0.1200181E+04  0.7818609E-02  0.9112698E-01
        2   -1    0    0  501    0  0.00000000000E+00  0.00000000000E+00  0.13508830185E+04  0.13508830185E+04  0.25500000920E-02 0. -1.
       -2   -1    0    0    0  501  0.00000000000E+00  0.00000000000E+00 -0.26657279185E+03  0.26657279186E+03  0.25500000920E-02 0.  1.
    10030    2    1    2    0    0  0.00000000000E+00  0.00000000000E+00  0.10843102267E+04  0.16174558104E+04  0.12001810825E+04 0.  0.
        2    1    3    3  502    0 -0.77361142978E+02  0.30616931314E+02 -0.25876224068E+03  0.27180883013E+03  0.25500000920E-02 0.  1.
       -2    1    3    3    0  502  0.77361142978E+02 -0.30616931314E+02  0.13430724673E+04  0.13456469802E+04  0.25500000920E-02 0. -1.
</event>
<event>
 5   0  0.9941209E-05  0.1199834E+04  0.7818609E-02  0.9113002E-01
        2   -1    0    0  501    0  0.00000000000E+00  0.00000000000E+00  0.22717497866E+04  0.22717497866E+04  0.25500000920E-02 0. -1.
       -2   -1    0    0    0  501  0.00000000000E+00  0.00000000000E+00 -0.15842424693E+03  0.15842424695E+03  0.25500000920E-02 0.  1.
    10030    2    1    2    0    0  0.00000000000E+00  0.00000000000E+00  0.21133255396E+04  0.24301740335E+04  0.11998337371E+04 0.  0.
        2    1    3    3  502    0 -0.52449272682E+03 -0.14177585984E+03  0.15718827842E+04  0.16631321362E+04  0.25500000920E-02 0. -1.
       -2    1    3    3    0  502  0.52449272682E+03  0.14177585984E+03  0.54144275538E+03  0.76704189735E+03  0.25500000920E-02 0.  1.
</event>
<event>
 5   0  0.5625746E-05  0.1199490E+04  0.7818609E-02  0.9113303E-01
        1   -1    0    0  501    0  0.00000000000E+00  0.00000000000E+00  0.12307453539E+04  0.12307453539E+04  0.50400001928E-02 0.  1.
       -1   -1    0    0    0  501  0.00000000000E+00  0.00000000000E+00 -0.29225706005E+03  0.29225706010E+03  0.50400001928E-02 0. -1.
    10030    2    1    2    0    0  0.00000000000E+00  0.00000000000E+00  0.93848829383E+03  0.15230024140E+04  0.11994899230E+04 0.  0.
        5    1    3    3  502    0  0.10393370986E+03  0.18711277324E+03 -0.24208556797E+03  0.32317320151E+03  0.46999998093E+01 0. -1.
       -5    1    3    3    0  502 -0.10393370986E+03 -0.18711277324E+03  0.11805738618E+04  0.11998292125E+04  0.46999998093E+01 0.  1.
</event>
<event>
 5   0  0.5732931E-05  0.1199868E+04  0.7818609E-02  0.9112972E-01
        1   -1    0    0  501    0  0.00000000000E+00  0.00000000000E+00  0.88765115972E+03  0.88765115974E+03  0.50400001928E-02 0. -1.
       -1   -1    0    0    0  501  0.00000000000E+00  0.00000000000E+00 -0.40547569786E+03  0.40547569789E+03  0.50400001928E-02 0.  1.
    10030    2    1    2    0    0  0.00000000000E+00  0.00000000000E+00  0.48217546186E+03  0.12931268576E+04  0.11998682819E+04 0.  0.
        4    1    3    3  502    0  0.55841298732E+02  0.59711284975E+03  0.25837687620E+03  0.65301012935E+03  0.12699999809E+01 0.  1.
       -4    1    3    3    0  502 -0.55841298732E+02 -0.59711284975E+03  0.22379858566E+03  0.64011672828E+03  0.12699999809E+01 0. -1.
</event>
<event>
 5   0  0.9941209E-05  0.1200473E+04  0.7818609E-02  0.9112442E-01
       -2   -1    0    0    0  501  0.00000000000E+00  0.00000000000E+00  0.10149288789E+04  0.10149288789E+04  0.25500000920E-02 0. -1.
        2   -1    0    0  501    0  0.00000000000E+00  0.00000000000E+00 -0.35498450128E+03  0.35498450129E+03  0.25500000920E-02 0.  1.
    10030    2    1    2    0    0  0.00000000000E+00  0.00000000000E+00  0.65994437757E+03  0.13699133801E+04  0.12004732765E+04 0.  0.
        2    1    3    3  502    0  0.45174035317E+03 -0.37404663573E+03  0.47568068990E+03  0.75515054866E+03  0.25500000920E-02 0. -1.
       -2    1    3    3    0  502 -0.45174035317E+03  0.37404663573E+03  0.18426368767E+03  0.61476283149E+03  0.25500000920E-02 0.  1.
</event>
<event>
 5   0  0.9941209E-05  0.1200176E+04  0.7818609E-02  0.9112702E-01
       -2   -1    0    0    0  501  0.00000000000E+00  0.00000000000E+00  0.46384511396E+03  0.46384511397E+03  0.25500000920E-02 0.  1.
        2   -1    0    0  501    0  0.00000000000E+00  0.00000000000E+00 -0.77634885894E+03  0.77634885894E+03  0.25500000920E-02 0. -1.
    10030    2    1    2    0    0  0.00000000000E+00  0.00000000000E+00 -0.31250374497E+03  0.12401939729E+04  0.12001760287E+04 0.  0.
        2    1    3    3  502    0  0.32293109875E+03 -0.28515102663E+03 -0.58792484244E+03  0.72886982575E+03  0.25500000920E-02 0. -1.
       -2    1    3    3    0  502 -0.32293109875E+03  0.28515102663E+03  0.27542109747E+03  0.51132414716E+03  0.25500000920E-02 0.  1.
</event>
<event>
 5   0  0.3839750E-05  0.1199937E+04  0.7818609E-02  0.9112912E-01
       -3   -1    0    0    0  501  0.00000000000E+00  0.00000000000E+00  0.11519830503E+04  0.11519830548E+04  0.10100000352E+00 0. -1.
        3   -1    0    0  501    0  0.00000000000E+00  0.00000000000E+00 -0.31247161836E+03  0.31247163468E+03  0.10100000352E+00 0.  1.
    10030    2    1    2    0    0  0.00000000000E+00  0.00000000000E+00  0.83951143198E+03  0.14644546894E+04  0.11999367037E+04 0.  0.
        4    1    3    3  502    0  0.58311302345E+03  0.91963461332E+02  0.28897831885E+03  0.65725806043E+03  0.12699999809E+01 0.  1.
       -4    1    3    3    0  502 -0.58311302345E+03 -0.91963461332E+02  0.55053311313E+03  0.80719662901E+03  0.12699999809E+01 0. -1.
</event>
<event>
 5   0  0.1023063E-04  0.1199495E+04  0.7818609E-02  0.9113299E-01
       -2   -1    0    0    0  501  0.00000000000E+00  0.00000000000E+00  0.31035182462E+03  0.31035182463E+03  0.25500000920E-02 0. -1.
        2   -1    0    0  501    0  0.00000000000E+00  0.00000000000E+00 -0.11589974933E+04  0.11589974933E+04  0.25500000920E-02 0.  1.
    10030    2    1    2    0    0  0.00000000000E+00  0.00000000000E+00 -0.84864566868E+03  0.14693493179E+04  0.11994948717E+04 0.  0.
        3    1    3    3  502    0 -0.21051595142E+03 -0.31851504373E+03  0.14225640376E+03  0.40743796276E+03  0.10100000352E+00 0. -1.
       -3    1    3    3    0  502  0.21051595142E+03  0.31851504373E+03 -0.99090207245E+03  0.10619113552E+04  0.10100000352E+00 0.  1.
</event>
<event>
 5   0  0.3839750E-05  0.1200208E+04  0.7818609E-02  0.9112674E-01
       -4   -1    0    0    0  501  0.00000000000E+00  0.00000000000E+00  0.46518509487E+03  0.46518682848E+03  0.12699999809E+01 0.  1.
        4   -1    0    0  501    0  0.00000000000E+00  0.00000000000E+00 -0.77415067831E+03  0.77415172003E+03  0.12699999809E+01 0. -1.
    10030    2    1    2    0    0  0.00000000000E+00  0.00000000000E+00 -0.30896558344E+03  0.12393385485E+04  0.12002084428E+04 0.  0.
        3    1    3    3  502    0 -0.21084432270E+03  0.19611204095E+03  0.38918996942E+03  0.48413232025E+03  0.10100000352E+00 0.  1.
       -3    1    3    3    0  502  0.21084432270E+03 -0.19611204095E+03 -0.69815555285E+03  0.75520622826E+03  0.10100000352E+00 0. -1.
</event>
<event>
 5   0  0.5620246E-05  0.1200638E+04  0.7818609E-02  0.9112298E-01
       -1   -1    0    0    0  501  0.00000000000E+00  0.00000000000E+00  0.41991637690E+03  0.41991637693E+03  0.50400001928E-02 0.  1.
        1   -1    0    0  501    0  0.00000000000E+00  0.00000000000E+00 -0.85822563767E+03  0.85822563769E+03  0.50400001928E-02 0. -1.
    10030    2    1    2    0    0  0.00000000000E+00  0.00000000000E+00 -0.43830926077E+03  0.12781420146E+04  0.12006381642E+04 0.  0.
        1    1    3    3  502    0  0.10026583821E+03 -0.38799307821E+03 -0.69498819385E+03  0.80224712942E+03  0.50400001928E-02 0. -1.
       -1    1    3    3    0  502 -0.10026583821E+03  0.38799307821E+03  0.25667893307E+03  0.47589488520E+03  0.50400001928E-02 0.  1.
</event>
<event>
 5   0  0.9941209E-05  0.1200106E+04  0.7818609E-02  0.9112764E-01
        2   -1    0    0  501    0  0.00000000000E+00  0.00000000000E+00  0.12897454220E+04  0.12897454220E+04  0.25500000920E-02 0.  1.
       -2   -1    0    0    0  501  0.00000000000E+00  0.00000000000E+00 -0.27917405173E+03  0.27917405174E+03  0.25500000920E-02 0. -1.
    10030    2    1    2    0    0  0.00000000000E+00  0.00000000000E+00  0.10105713703E+04  0.15689194738E+04  0.12001057540E+04 0.  0.
        2    1    3    3  502    0 -0.17073842129E+02  0.18041086069E+03  0.12531169494E+04  0.12661523146E+04  0.25500000920E-02 0.  1.
       -2    1    3    3    0  502  0.17073842129E+02 -0.18041086069E+03 -0.24254557912E+03  0.30276715921E+03  0.25500000920E-02 0. -1.
</event>
<event>
 5   0  0.1004006E-04  0.1199567E+04  0.7818609E-02  0.9113236E-01
       -2   -1    0    0    0  501  0.00000000000E+00  0.00000000000E+00  0.16107382609E+03  0.16107382611E+03  0.25500000920E-02 0. -1.
        2   -1    0    0  501    0  0.00000000000E+00  0.00000000000E+00 -0.22333875070E+04  0.22333875070E+04  0.25500000920E-02 0.  1.
    10030    2    1    2    0    0  0.00000000000E+00  0.00000000000E+00 -0.20723136809E+04  0.23944613331E+04  0.11995670401E+04 0.  0.
        5    1    3    3  502    0  0.16745423432E+03  0.51965973416E+03 -0.15317017111E+04  0.16261055875E+04  0.46999998093E+01 0.  1.
       -5    1    3    3    0  502 -0.16745423432E+03 -0.51965973416E+03 -0.54061196977E+03  0.76835574557E+03  0.46999998093E+01 0. -1.
</event>
<event>
 5   0  0.3839750E-05  0.1200063E+04  0.7818609E-02  0.9112801E-01
       -4   -1    0    0    0  501  0.00000000000E+00  0.00000000000E+00  0.13150885305E+04  0.13150891437E+04  0.12699999809E+01 0. -1.
        4   -1    0    0  501    0  0.00000000000E+00  0.00000000000E+00 -0.27377238868E+03  0.27377533436E+03  0.12699999809E+01 0.  1.
    10030    2    1    2    0    0  0.00000000000E+00  0.00000000000E+00  0.10413161418E+04  0.15888644781E+04  0.12000629244E+04 0.  0.
        1    1    3    3  502    0 -0.27802637088E+03  0.19321787209E+03 -0.13522342463E+03  0.36457808984E+03  0.50400001928E-02 0.  1.
       -1    1    3    3    0  502  0.27802637088E+03 -0.19321787209E+03  0.11765395664E+04  0.12242863882E+04  0.50400001928E-02 0. -1.
</event>
<event>
 5   0  0.5625746E-05  0.1199857E+04  0.7818609E-02  0.9112982E-01
        1   -1    0    0  501    0  0.00000000000E+00  0.00000000000E+00  0.50175012192E+03  0.50175012194E+03  0.50400001928E-02 0. -1.
       -1   -1    0    0    0  501  0.00000000000E+00  0.00000000000E+00 -0.71731771627E+03  0.71731771629E+03  0.50400001928E-02 0.  1.
    10030    2    1    2    0    0  0.00000000000E+00  0.00000000000E+00 -0.21556759435E+03  0.12190678382E+04  0.11998570775E+04 0.  0.
        5    1    3    3  502    0 -0.20890290678E+03 -0.33103671495E+03 -0.56966823023E+03  0.69120887844E+03  0.46999998093E+01 0.  1.
       -5    1    3    3    0  502  0.20890290678E+03  0.33103671495E+03  0.35410063587E+03  0.52785895979E+03  0.46999998093E+01 0. -1.
</event>
<event>
 5   0  0.9838215E-05  0.1199596E+04  0.7818609E-02  0.9113210E-01
       -2   -1    0    0    0  501  0.00000000000E+00  0.00000000000E+00  0.33970318086E+03  0.33970318087E+03  0.25500000920E-02 0.  1.
        2   -1    0    0  501    0  0.00000000000E+00  0.00000000000E+00 -0.10590357927E+04  0.10590357928E+04  0.25500000920E-02 0. -1.
    10030    2    1    2    0    0  0.00000000000E+00  0.00000000000E+00 -0.71933261189E+03  0.13987389736E+04  0.11995963112E+04 0.  0.
        4    1    3    3  502    0 -0.18551500722E+03  0.52045165574E+03 -0.87532736328E+02  0.55941874896E+03  0.12699999809E+01 0.  1.
       -4    1    3    3    0  502  0.18551500722E+03 -0.52045165574E+03 -0.63179987556E+03  0.83932022466E+03  0.12699999809E+01 0. -1.
</event>
<event>
 5   0  0.5745487E-05  0.1199142E+04  0.7818609E-02  0.9113608E-01
       -1   -1    0    0    0  501  0.00000000000E+00  0.00000000000E+00  0.29298906470E+03  0.29298906474E+03  0.50400001928E-02 0.  1.
        1   -1    0    0  501    0  0.00000000000E+00  0.00000000000E+00 -0.12269578708E+04  0.12269578708E+04  0.50400001928E-02 0. -1.
    10030    2    1    2    0    0  0.00000000000E+00  0.00000000000E+00 -0.93396880611E+03  0.15199469356E+04  0.11991417582E+04 0.  0.
        3    1    3    3  502    0 -0.19542428967E+03  0.38338092375E+03  0.62220170852E+02  0.43479069165E+03  0.10100000352E+00 0.  1.
       -3    1    3    3    0  502  0.19542428967E+03 -0.38338092375E+03 -0.99618897697E+03  0.10851562439E+04  0.10100000352E+00 0. -1.
</event>
<event>
 5   0  0.5447807E-05  0.1200020E+04  0.7818609E-02  0.9112839E-01
        1   -1    0    0  501    0  0.00000000000E+00  0.00000000000E+00  0.15823645618E+04  0.15823645618E+04  0.50400001928E-02 0. -1.
       -1   -1    0    0    0  501  0.00000000000E+00  0.00000000000E+00 -0.22751536336E+03  0.22751536342E+03  0.50400001928E-02 0.  1.
    10030    2    1    2    0    0  0.00000000000E+00  0.00000000000E+00  0.13548491985E+04  0.18098799253E+04  0.12000204137E+04 0.  0.
        2    1    3    3  502    0 -0.26922373118E+03  0.44545206602E+03  0.22722200467E+03  0.56792499501E+03  0.25500000920E-02 0. -1.
       -2    1    3    3    0  502  0.26922373118E+03 -0.44545206602E+03  0.11276271938E+04  0.12419549302E+04  0.25500000920E-02 0.  1.
</event>
<event>
 5   0  0.9941209E-05  0.1202410E+04  0.7818609E-02  0.9110750E-01
       -2   -1    0    0    0  501  0.00000000000E+00  0.00000000000E+00  0.37344701254E+03  0.37344701254E+03  0.25500000920E-02 0.  1.
        2   -1    0    0  501    0  0.00000000000E+00  0.00000000000E+00 -0.96786787358E+03  0.96786787358E+03  0.25500000920E-02 0. -1.
    10030    2    1    2    0    0  0.00000000000E+00  0.00000000000E+00 -0.59442086104E+03  0.13413148861E+04  0.12024098568E+04 0.  0.
        2    1    3    3  502    0 -0.15477401136E+03  0.11450154833E+03 -0.93255077503E+03  0.95221664929E+03  0.25500000920E-02 0. -1.
       -2    1    3    3    0  502  0.15477401136E+03 -0.11450154833E+03  0.33812991399E+03  0.38909823683E+03  0.25500000920E-02 0.  1.
</event>
<event>
 5   0  0.1004006E-04  0.1201775E+04  0.7818609E-02  0.9111304E-01
       -2   -1    0    0    0  501  0.00000000000E+00  0.00000000000E+00  0.42968647152E+03  0.42968647153E+03  0.25500000920E-02 0.  1.
        2   -1    0    0  501    0  0.00000000000E+00  0.00000000000E+00 -0.84030041617E+03  0.84030041618E+03  0.25500000920E-02 0. -1.
    10030    2    1    2    0    0  0.00000000000E+00  0.00000000000E+00 -0.41061394465E+03  0.12699868877E+04  0.12017748888E+04 0.  0.
        5    1    3    3  502    0  0.59990770642E+03 -0.78820040172E+01 -0.17038193586E+03  0.62370143200E+03  0.46999998093E+01 0.  1.
       -5    1    3    3    0  502 -0.59990770642E+03  0.78820040172E+01 -0.24023200880E+03  0.64628545571E+03  0.46999998093E+01 0. -1.
</event>
<event>
 5   0  0.5732931E-05  0.1197823E+04  0.7818609E-02  0.9114764E-01
        1   -1    0    0  501    0  0.00000000000E+00  0.00000000000E+00  0.12167809153E+04  0.12167809153E+04  0.50400001928E-02 0.  1.
       -1   -1    0    0    0  501  0.00000000000E+00  0.00000000000E+00 -0.29478996607E+03  0.29478996612E+03  0.50400001928E-02 0. -1.
    10030    2    1    2    0    0  0.00000000000E+00  0.00000000000E+00  0.92199094919E+03  0.15115708814E+04  0.11978226994E+04 0.  0.
        4    1    3    3  502    0  0.66855364598E+02  0.19844369011E+03 -0.24708635554E+03  0.32388704499E+03  0.12699999809E+01 0.  1.
       -4    1    3    3    0  502 -0.66855364598E+02 -0.19844369011E+03  0.11690773047E+04  0.11876838364E+04  0.12699999809E+01 0. -1.
</event>
<event>
 5   0  0.1004006E-04  0.1199509E+04  0.7818609E-02  0.9113286E-01
       -2   -1    0    0    0  501  0.00000000000E+00  0.00000000000E+00  0.12952593588E+03  0.12952593590E+03  0.25500000920E-02 0.  1.
        2   -1    0    0  501    0  0.00000000000E+00  0.00000000000E+00 -0.27770925003E+04  0.27770925003E+04  0.25500000920E-02 0. -1.
    10030    2    1    2    0    0  0.00000000000E+00  0.00000000000E+00 -0.26475665644E+04  0.29066184362E+04  0.11995090748E+04 0.  0.
        5    1    3    3  502    0  0.13193744845E+03 -0.51859880289E+03 -0.19799722146E+04  0.20510154240E+04  0.46999998093E+01 0. -1.
       -5    1    3    3    0  502 -0.13193744845E+03  0.51859880289E+03 -0.66759434979E+03  0.85560301223E+03  0.46999998093E+01 0.  1.
</event>
<event>
 5   0  0.5745487E-05  0.1198928E+04  0.7818609E-02  0.9113796E-01
       -1   -1    0    0    0  501  0.00000000000E+00  0.00000000000E+00  0.32342000819E+03  0.32342000823E+03  0.50400001928E-02 0.  1.
        1   -1    0    0  501    0  0.00000000000E+00  0.00000000000E+00 -0.11111153699E+04  0.11111153699E+04  0.50400001928E-02 0. -1.
    10030    2    1    2    0    0  0.00000000000E+00  0.00000000000E+00 -0.78769536167E+03  0.14345353781E+04  0.11989277577E+04 0.  0.
        3    1    3    3  502    0 -0.79893755543E+01  0.56333124427E+03 -0.63891729308E+03  0.85183404398E+03  0.10100000352E+00 0. -1.
       -3    1    3    3    0  502  0.79893755543E+01 -0.56333124427E+03 -0.14877806860E+03  0.58270133412E+03  0.10100000352E+00 0.  1.
</event>
<event>
 5   0  0.9941209E-05  0.1200124E+04  0.7818609E-02  0.9112748E-01
       -2   -1    0    0    0  501  0.00000000000E+00  0.00000000000E+00  0.22351000398E+03  0.22351000399E+03  0.25500000920E-02 0. -1.
        2   -1    0    0  501    0  0.00000000000E+00  0.00000000000E+00 -0.16109980436E+04  0.16109980436E+04  0.25500000920E-02 0.  1.
    10030    2    1    2    0    0  0.00000000000E+00  0.00000000000E+00 -0.13874880396E+04  0.18345080476E+04  0.12001236255E+04 0.  0.
        2    1    3    3  502    0  0.33016230159E+03 -0.22510331293E+03 -0.13780300176E+04  0.14347980263E+04  0.25500000920E-02 0.  1.
       -2    1    3    3    0  502 -0.33016230159E+03  0.22510331293E+03 -0.94580219612E+01  0.39971002123E+03  0.25500000920E-02 0. -1.
</event>
<event>
 5   0  0.1023063E-04  0.1200674E+04  0.7818609E-02  0.9112267E-01
        2   -1    0    0  501    0  0.00000000000E+00  0.00000000000E+00  0.33195576797E+04  0.33195576797E+04  0.25500000920E-02 0.  1.
       -2   -1    0    0    0  501  0.00000000000E+00  0.00000000000E+00 -0.10856996481E+03  0.10856996484E+03  0.25500000920E-02 0. -1.
    10030    2    1    2    0    0  0.00000000000E+00  0.00000000000E+00  0.32109877149E+04  0.34281276446E+04  0.12006735785E+04 0.  0.
        3    1    3    3  502    0  0.36786697093E+03 -0.53190870394E+02  0.25947292300E+03  0.45330076656E+03  0.10100000352E+00 0. -1.
       -3    1    3    3    0  502 -0.36786697093E+03  0.53190870394E+02  0.29515147919E+04  0.29748268780E+04  0.10100000352E+00 0.  1.
</event>
<event>
 5   0  0.1012657E-04  0.1200118E+04  0.7818609E-02  0.9112753E-01
       -2   -1    0    0    0  501  0.00000000000E+00  0.00000000000E+00  0.10933474862E+04  0.10933474862E+04  0.25500000920E-02 0. -1.
        2   -1    0    0  501    0  0.00000000000E+00  0.00000000000E+00 -0.32932891244E+03  0.32932891245E+03  0.25500000920E-02 0.  1.
    10030    2    1    2    0    0  0.00000000000E+00  0.00000000000E+00  0.76401857376E+03  0.14226763986E+04  0.12001182251E+04 0.  0.
        1    1    3    3  502    0 -0.47887925101E+03 -0.30180692499E+03  0.14593510465E+03  0.58455950237E+03  0.50400001928E-02 0.  1.
       -1    1    3    3    0  502  0.47887925101E+03  0.30180692499E+03  0.61808346911E+03  0.83811689628E+03  0.50400001928E-02 0. -1.
</event>
<event>
 5   0  0.5620246E-05  0.1198829E+04  0.7818609E-02  0.9113882E-01
        1   -1    0    0  501    0  0.00000000000E+00  0.00000000000E+00  0.29987998435E+03  0.29987998439E+03  0.50400001928E-02 0. -1.
       -1   -1    0    0    0  501  0.00000000000E+00  0.00000000000E+00 -0.11981391873E+04  0.11981391873E+04  0.50400001928E-02 0.  1.
    10030    2    1    2    0    0  0.00000000000E+00  0.00000000000E+00 -0.89825920296E+03  0.14980191717E+04  0.11988293636E+04 0.  0.
        1    1    3    3  502    0  0.22196852562E+03 -0.35206946913E+03  0.89889357182E+02  0.42579693989E+03  0.50400001928E-02 0. -1.
       -1    1    3    3    0  502 -0.22196852562E+03  0.35206946913E+03 -0.98814856014E+03  0.10722222318E+04  0.50400001928E-02 0.  1.
</event>
<event>
 5   0  0.1023063E-04  0.1199237E+04  0.7818609E-02  0.9113524E-01
       -2   -1    0    0    0  501  0.00000000000E+00  0.00000000000E+00  0.73359403691E+03  0.73359403692E+03  0.25500000920E-02 0.  1.
        2   -1    0    0  501    0  0.00000000000E+00  0.00000000000E+00 -0.49011107334E+03  0.49011107334E+03  0.25500000920E-02 0. -1.
    10030    2    1    2    0    0  0.00000000000E+00  0.00000000000E+00  0.24348296358E+03  0.12237051103E+04  0.11992373590E+04 0.  0.
        3    1    3    3  502    0  0.88819570749E+02 -0.15085635552E+02  0.72664847438E+03  0.73221206496E+03  0.10100000352E+00 0.  1.
       -3    1    3    3    0  502 -0.88819570749E+02  0.15085635552E+02 -0.48316551080E+03  0.49149304530E+03  0.10100000352E+00 0. -1.
</event>
<event>
 5   0  0.5732931E-05  0.1200000E+04  0.7818609E-02  0.9112857E-01
       -1   -1    0    0    0  501  0.00000000000E+00  0.00000000000E+00  0.48303771641E+03  0.48303771644E+03  0.50400001928E-02 0.  1.
        1   -1    0    0  501    0  0.00000000000E+00  0.00000000000E+00 -0.74528303749E+03  0.74528303751E+03  0.50400001928E-02 0. -1.
    10030    2    1    2    0    0  0.00000000000E+00  0.00000000000E+00 -0.26224532108E+03  0.12283207539E+04  0.11999996942E+04 0.  0.
        4    1    3    3  502    0 -0.44425612545E+03  0.38116302443E+03  0.37032861052E+01  0.58537516468E+03  0.12699999809E+01 0.  1.
       -4    1    3    3    0  502  0.44425612545E+03 -0.38116302443E+03 -0.26594860718E+03  0.64294558927E+03  0.12699999809E+01 0. -1.
</event>
<event>
 5   0  0.1004006E-04  0.1199714E+04  0.7818609E-02  0.9113107E-01
       -2   -1    0    0    0  501  0.00000000000E+00  0.00000000000E+00  0.49591991896E+03  0.49591991897E+03  0.25500000920E-02 0. -1.
        2   -1    0    0  501    0  0.00000000000E+00  0.00000000000E+00 -0.72557795173E+03  0.72557795174E+03  0.25500000920E-02 0.  1.
    10030    2    1    2    0    0  0.00000000000E+00  0.00000000000E+00 -0.22965803277E+03  0.12214978707E+04  0.11997142310E+04 0.  0.
        5    1    3    3  502    0  0.57118411238E+03  0.18081553625E+03 -0.14470322877E+03  0.61636568919E+03  0.46999998093E+01 0. -1.
       -5    1    3    3    0  502 -0.57118411238E+03 -0.18081553625E+03 -0.84954803994E+02  0.60513218152E+03  0.46999998093E+01 0.  1.
</event>
<event>
 5   0  0.5732931E-05  0.1199833E+04  0.7818609E-02  0.9113002E-01
        1   -1    0    0  501    0  0.00000000000E+00  0.00000000000E+00  0.20485649344E+04  0.20485649344E+04  0.50400001928E-02 0. -1.
       -1   -1    0    0    0  501  0.00000000000E+00  0.00000000000E+00 -0.17568398919E+03  0.17568398927E+03  0.50400001928E-02 0.  1.
    10030    2    1    2    0    0  0.00000000000E+00  0.00000000000E+00  0.18728809452E+04  0.22242489237E+04  0.11998334216E+04 0.  0.
        4    1    3    3  502    0 -0.53059616298E+02  0.48221623738E+03  0.15906779049E+04  0.16630110139E+04  0.12699999809E+01 0. -1.
       -4    1    3    3    0  502  0.53059616298E+02 -0.48221623738E+03  0.28220304035E+03  0.56123790976E+03  0.12699999809E+01 0.  1.
</event>
<event>
 5   0  0.5745487E-05  0.1200825E+04  0.7818609E-02  0.9112135E-01
        1   -1    0    0  501    0  0.00000000000E+00  0.00000000000E+00  0.12672813056E+04  0.12672813056E+04  0.50400001928E-02 0. -1.
       -1   -1    0    0    0  501  0.00000000000E+00  0.00000000000E+00 -0.28446336039E+03  0.28446336044E+03  0.50400001928E-02 0.  1.
    10030    2    1    2    0    0  0.00000000000E+00  0.00000000000E+00  0.98281794517E+03  0.15517446660E+04  0.12008248811E+04 0.  0.
        3    1    3    3  502    0  0.58547140285E+03 -0.70480980947E+02  0.34549107723E+03  0.68345330994E+03  0.10100000352E+00 0.  1.
       -3    1    3    3    0  502 -0.58547140285E+03  0.70480980947E+02  0.63732686794E+03  0.86829135607E+03  0.10100000352E+00 0. -1.
</event>
<event>
 5   0  0.1012657E-04  0.1200863E+04  0.7818609E-02  0.9112102E-01
        2   -1    0    0  501    0  0.00000000000E+00  0.00000000000E+00  0.99460166683E+03  0.99460166683E+03  0.25500000920E-02 0.  1.
       -2   -1    0    0    0  501  0.00000000000E+00  0.00000000000E+00 -0.36247464554E+03  0.36247464555E+03  0.25500000920E-02 0. -1.
    10030    2    1    2    0    0  0.00000000000E+00  0.00000000000E+00  0.63212702128E+03  0.13570763124E+04  0.12008628342E+04 0.  0.
        1    1    3    3  502    0  0.88559571757E+02  0.25175474568E+03 -0.29176498628E+03  0.39541125043E+03  0.50400001928E-02 0. -1.
       -1    1    3    3    0  502 -0.88559571757E+02 -0.25175474568E+03  0.92389200756E+03  0.96166506195E+03  0.50400001928E-02 0.  1.
</event>
<event>
 5   0  0.9838215E-05  0.1199967E+04  0.7818609E-02  0.9112885E-01
       -2   -1    0    0    0  501  0.00000000000E+00  0.00000000000E+00  0.33621109633E+03  0.33621109634E+03  0.25500000920E-02 0.  1.
        2   -1    0    0  501    0  0.00000000000E+00  0.00000000000E+00 -0.10706970615E+04  0.10706970615E+04  0.25500000920E-02 0. -1.
    10030    2    1    2    0    0  0.00000000000E+00  0.00000000000E+00 -0.73448596513E+03  0.14069081578E+04  0.11999670544E+04 0.  0.
        4    1    3    3  502    0  0.50673670632E+02 -0.58458896804E+03 -0.22049135141E+03  0.62684139254E+03  0.12699999809E+01 0.  1.
       -4    1    3    3    0  502 -0.50673670632E+02  0.58458896804E+03 -0.51399461372E+03  0.78006676527E+03  0.12699999809E+01 0. -1.
</event>
<event>
 5   0  0.1023063E-04  0.1199842E+04  0.7818609E-02  0.9112995E-01
       -2   -1    0    0    0  501  0.00000000000E+00  0.00000000000E+00  0.75011226867E+03  0.75011226868E+03  0.25500000920E-02 0.  1.
        2   -1    0    0  501    0  0.00000000000E+00  0.00000000000E+00 -0.47980151153E+03  0.47980151154E+03  0.25500000920E-02 0. -1.
    10030    2    1    2    0    0  0.00000000000E+00  0.00000000000E+00  0.27031075714E+03  0.12299137802E+04  0.11998416568E+04 0.  0.
        3    1    3    3  502    0 -0.30190161539E+03  0.53000002827E+02 -0.39347470623E+03  0.49877443832E+03  0.10100000352E+00 0. -1.
       -3    1    3    3    0  502  0.30190161539E+03 -0.53000002827E+02  0.66378546338E+03  0.73113934189E+03  0.10100000352E+00 0.  1.
</event>
<event>
 5   0  0.5447807E-05  0.1200016E+04  0.7818609E-02  0.9112843E-01
       -1   -1    0    0    0  501  0.00000000000E+00  0.00000000000E+00  0.43725917695E+03  0.43725917698E+03  0.50400001928E-02 0.  1.
        1   -1    0    0  501    0  0.00000000000E+00  0.00000000000E+00 -0.82333218975E+03  0.82333218977E+03  0.50400001928E-02 0. -1.
    10030    2    1    2    0    0  0.00000000000E+00  0.00000000000E+00 -0.38607301280E+03  0.12605913667E+04  0.12000159260E+04 0.  0.
        2    1    3    3  502    0  0.25324107998E+03  0.24279255298E+03  0.31828917903E+03  0.47369533443E+03  0.25500000920E-02 0.  1.
       -2    1    3    3    0  502 -0.25324107998E+03 -0.24279255298E+03 -0.70436219183E+03  0.78689603231E+03  0.25500000920E-02 0. -1.
</event>
<event>
 5   0  0.5447807E-05  0.1200281E+04  0.7818609E-02  0.9112611E-01
        1   -1    0    0  501    0  0.00000000000E+00  0.00000000000E+00  0.15611225578E+04  0.15611225578E+04  0.50400001928E-02 0. -1.
       -1   -1    0    0    0  501  0.00000000000E+00  0.00000000000E+00 -0.23071121578E+03  0.23071121583E+03  0.50400001928E-02 0.  1.
    10030    2    1    2    0    0  0.00000000000E+00  0.00000000000E+00  0.13304113420E+04  0.17918337737E+04  0.12002807727E+04 0.  0.
        2    1    3    3  502    0  0.40211024054E+03 -0.21439815080E+03  0.82213139571E+02  0.46305314267E+03  0.25500000920E-02 0.  1.
       -2    1    3    3    0  502 -0.40211024054E+03  0.21439815080E+03  0.12481982025E+04  0.13287806310E+04  0.25500000920E-02 0. -1.
</event>
<event>
 5   0  0.1004006E-04  0.1199865E+04  0.7818609E-02  0.9112975E-01
       -2   -1    0    0    0  501  0.00000000000E+00  0.00000000000E+00  0.26684887516E+03  0.26684887517E+03  0.25500000920E-02 0. -1.
        2   -1    0    0  501    0  0.00000000000E+00  0.00000000000E+00 -0.13487750007E+04  0.13487750007E+04  0.25500000920E-02 0.  1.
    10030    2    1    2    0    0  0.00000000000E+00  0.00000000000E+00 -0.10819261255E+04  0.16156238759E+04  0.11998651454E+04 0.  0.
        5    1    3    3  502    0 -0.53579274098E+03  0.22168449109E+03 -0.33376262555E+03  0.66905713888E+03  0.46999998093E+01 0. -1.
       -5    1    3    3    0  502  0.53579274098E+03 -0.22168449109E+03 -0.74816349999E+03  0.94656673700E+03  0.46999998093E+01 0.  1.
</event>
<event>
 5   0  0.5620246E-05  0.1199626E+04  0.7818609E-02  0.9113184E-01
        1   -1    0    0  501    0  0.00000000000E+00  0.00000000000E+00  0.80891989765E+03  0.80891989767E+03  0.50400001928E-02 0.  1.
       -1   -1    0    0    0  501  0.00000000000E+00  0.00000000000E+00 -0.44476070065E+03  0.44476070068E+03  0.50400001928E-02 0. -1.
    10030    2    1    2    0    0  0.00000000000E+00  0.00000000000E+00  0.36415919700E+03  0.12536805983E+04  0.11996262426E+04 0.  0.
        1    1    3    3  502    0  0.47224981186E+03 -0.17504707855E+03  0.52250984655E+03  0.72572577760E+03  0.50400001928E-02 0.  1.
       -1    1    3    3    0  502 -0.47224981186E+03  0.17504707855E+03 -0.15835064955E+03  0.52795482074E+03  0.50400001928E-02 0. -1.
</event>
<event>
 5   0  0.1023063E-04  0.1197384E+04  0.7818609E-02  0.9115149E-01
       -2   -1    0    0    0  501  0.00000000000E+00  0.00000000000E+00  0.86569946854E+03  0.86569946854E+03  0.25500000920E-02 0.  1.
        2   -1    0    0  501    0  0.00000000000E+00  0.00000000000E+00 -0.41403780574E+03  0.41403780575E+03  0.25500000920E-02 0. -1.
    10030    2    1    2    0    0  0.00000000000E+00  0.00000000000E+00  0.45166166280E+03  0.12797372743E+04  0.11973843299E+04 0.  0.
        3    1    3    3  502    0 -0.41679252128E+03  0.25745449443E+03  0.59364163945E+03  0.76968125142E+03  0.10100000352E+00 0.  1.
       -3    1    3    3    0  502  0.41679252128E+03 -0.25745449443E+03 -0.14197997665E+03  0.51005602287E+03  0.10100000352E+00 0. -1.
</event>
<event>
 5   0  0.5447807E-05  0.1200415E+04  0.7818609E-02  0.9112494E-01
        1   -1    0    0  501    0  0.00000000000E+00  0.00000000000E+00  0.72300917491E+03  0.72300917493E+03  0.50400001928E-02 0.  1.
       -1   -1    0    0    0  501  0.00000000000E+00  0.00000000000E+00 -0.49826322110E+03  0.49826322113E+03  0.50400001928E-02 0. -1.
    10030    2    1    2    0    0  0.00000000000E+00  0.00000000000E+00  0.22474595381E+03  0.12212723961E+04  0.12004147290E+04 0.  0.
        2    1    3    3  502    0 -0.51015609954E+03  0.93643703131E+02 -0.19490216585E+03  0.55408956252E+03  0.25500000920E-02 0. -1.
       -2    1    3    3    0  502  0.51015609954E+03 -0.93643703131E+02  0.41964811966E+03  0.66718283354E+03  0.25500000920E-02 0.  1.
</event>
<event>
 5   0  0.5732931E-05  0.1199939E+04  0.7818609E-02  0.9112910E-01
       -1   -1    0    0    0  501  0.00000000000E+00  0.00000000000E+00  0.57849382898E+03  0.57849382900E+03  0.50400001928E-02 0.  1.
        1   -1    0    0  501    0  0.00000000000E+00  0.00000000000E+00 -0.62224264714E+03  0.62224264716E+03  0.50400001928E-02 0. -1.
    10030    2    1    2    0    0  0.00000000000E+00  0.00000000000E+00 -0.43748818158E+02  0.12007364762E+04  0.11999392177E+04 0.  0.
        4    1    3    3  502    0 -0.85172938865E+02  0.59277174025E+03  0.14607365446E+02  0.59903902509E+03  0.12699999809E+01 0.  1.
       -4    1    3    3    0  502  0.85172938865E+02 -0.59277174025E+03 -0.58356183604E+02  0.60169745107E+03  0.12699999809E+01 0. -1.
</event>
<event>
 5   0  0.5625746E-05  0.1200036E+04  0.7818609E-02  0.9112825E-01
        1   -1    0    0  501    0  0.00000000000E+00  0.00000000000E+00  0.15703559702E+04  0.15703559702E+04  0.50400001928E-02 0.  1.
       -1   -1    0    0    0  501  0.00000000000E+00  0.00000000000E+00 -0.22926120540E+03  0.22926120545E+03  0.50400001928E-02 0. -1.
    10030    2    1    2    0    0  0.00000000000E+00  0.00000000000E+00  0.13410947648E+04  0.17996171757E+04  0.12000361706E+04 0.  0.
        5    1    3    3  502    0 -0.32268751911E+03 -0.50459335749E+03  0.61735952147E+03  0.86017240141E+03  0.46999998093E+01 0. -1.
       -5    1    3    3    0  502  0.32268751911E+03  0.50459335749E+03  0.72373524333E+03  0.93944477424E+03  0.46999998093E+01 0.  1.
</event>
<event>
 5   0  0.9838215E-05  0.1199746E+04  0.7818609E-02  0.9113079E-01
       -2   -1    0    0    0  501  0.00000000000E+00  0.00000000000E+00  0.17746096721E+03  0.17746096723E+03  0.25500000920E-02 0.  1.
        2   -1    0    0  501    0  0.00000000000E+00  0.00000000000E+00 -0.20277550227E+04  0.20277550227E+04  0.25500000920E-02 0. -1.
    10030    2    1    2    0    0  0.00000000000E+00  0.00000000000E+00 -0.18502940555E+04  0.22052159899E+04  0.11997455857E+04 0.  0.
        4    1    3    3  502    0  0.15073067389E+03  0.44994039451E+03 -0.25059884297E+03  0.53662602216E+03  0.12699999809E+01 0.  1.
       -4    1    3    3    0  502 -0.15073067389E+03 -0.44994039451E+03 -0.15996952125E+04  0.16685899678E+04  0.12699999809E+01 0. -1.
</event>
<event>
 5   0  0.5625746E-05  0.1200123E+04  0.7818609E-02  0.9112749E-01
       -1   -1    0    0    0  501  0.00000000000E+00  0.00000000000E+00  0.58769896098E+03  0.58769896100E+03  0.50400001928E-02 0.  1.
        1   -1    0    0  501    0  0.00000000000E+00  0.00000000000E+00 -0.61268432605E+03  0.61268432607E+03  0.50400001928E-02 0. -1.
    10030    2    1    2    0    0  0.00000000000E+00  0.00000000000E+00 -0.24985365067E+02  0.12003832871E+04  0.12001232301E+04 0.  0.
        5    1    3    3  502    0  0.39790132867E+03  0.44880722080E+03  0.47871443134E+01  0.59983197276E+03  0.46999998093E+01 0.  1.
       -5    1    3    3    0  502 -0.39790132867E+03 -0.44880722080E+03 -0.29772509381E+02  0.60055131430E+03  0.46999998093E+01 0. -1.
</event>
<event>
 5   0  0.9941209E-05  0.1200487E+04  0.7818609E-02  0.9112430E-01
        2   -1    0    0  501    0  0.00000000000E+00  0.00000000000E+00  0.13191825494E+04  0.13191825494E+04  0.25500000920E-02 0. -1.
       -2   -1    0    0    0  501  0.00000000000E+00  0.00000000000E+00 -0.27311797561E+03  0.27311797562E+03  0.25500000920E-02 0.  1.
    10030    2    1    2    0    0  0.00000000000E+00  0.00000000000E+00  0.10460645738E+04  0.15923005251E+04  0.12004873467E+04 0.  0.
        2    1    3    3  502    0  0.51957213080E+02 -0.89918007734E+02 -0.26111167954E+03  0.28100553251E+03  0.25500000920E-02 0.  1.
       -2    1    3    3    0  502 -0.51957213080E+02  0.89918007734E+02  0.13071762534E+04  0.13112949925E+04  0.25500000920E-02 0. -1.
</event>
<event>
 5   0  0.5447807E-05  0.1200485E+04  0.7818609E-02  0.9112432E-01
       -1   -1    0    0    0  501  0.00000000000E+00  0.00000000000E+00  0.31660785533E+03  0.31660785537E+03  0.50400001928E-02 0.  1.
        1   -1    0    0  501    0  0.00000000000E+00  0.00000000000E+00 -0.11379719467E+04  0.11379719467E+04  0.50400001928E-02 0. -1.
    10030    2    1    2    0    0  0.00000000000E+00  0.00000000000E+00 -0.82136409137E+03  0.14545798021E+04  0.12004846646E+04 0.  0.
        2    1    3    3  502    0 -0.37805978508E+03 -0.12870706908E+01 -0.97558097127E+03  0.10462739073E+04  0.25500000920E-02 0. -1.
       -2    1    3    3    0  502  0.37805978508E+03  0.12870706908E+01  0.15421687990E+03  0.40830589476E+03  0.25500000920E-02 0.  1.
</event>
<event>
 5   0  0.5620246E-05  0.1199197E+04  0.7818609E-02  0.9113560E-01
       -1   -1    0    0    0  501  0.00000000000E+00  0.00000000000E+00  0.94831373382E+03  0.94831373383E+03  0.50400001928E-02 0.  1.
        1   -1    0    0  501    0  0.00000000000E+00  0.00000000000E+00 -0.37911328463E+03  0.37911328466E+03  0.50400001928E-02 0. -1.
    10030    2    1    2    0    0  0.00000000000E+00  0.00000000000E+00  0.56920044919E+03  0.13274270185E+04  0.11991969555E+04 0.  0.
        1    1    3    3  502    0  0.59294147648E+03 -0.60102186504E+02  0.21179092709E+03  0.63249289654E+03  0.50400001928E-02 0.  1.
       -1    1    3    3    0  502 -0.59294147648E+03  0.60102186504E+02  0.35740952209E+03  0.69493412195E+03  0.50400001928E-02 0. -1.
</event>
<event>
 5   0  0.9941209E-05  0.1200058E+04  0.7818609E-02  0.9112806E-01
        2   -1    0    0  501    0  0.00000000000E+00  0.00000000000E+00  0.85751571874E+03  0.85751571875E+03  0.25500000920E-02 0.  1.
       -2   -1    0    0    0  501  0.00000000000E+00  0.00000000000E+00 -0.41985770637E+03  0.41985770638E+03  0.25500000920E-02 0. -1.
    10030    2    1    2    0    0  0.00000000000E+00  0.00000000000E+00  0.43765801237E+03  0.12773734251E+04  0.12000576367E+04 0.  0.
        2    1    3    3  502    0 -0.37576657686E+03  0.54871182082E+02 -0.27566934920E+03  0.46926001002E+03  0.25500000920E-02 0. -1.
       -2    1    3    3    0  502  0.37576657686E+03 -0.54871182082E+02  0.71332736157E+03  0.80811341511E+03  0.25500000920E-02 0.  1.
</event>
<event>
 5   0  0.9838215E-05  0.1199776E+04  0.7818609E-02  0.9113052E-01
        2   -1    0    0  501    0  0.00000000000E+00  0.00000000000E+00  0.12606215879E+04  0.12606215879E+04  0.25500000920E-02 0.  1.
       -2   -1    0    0    0  501  0.00000000000E+00  0.00000000000E+00 -0.28546687505E+03  0.28546687506E+03  0.25500000920E-02 0. -1.
    10030    2    1    2    0    0  0.00000000000E+00  0.00000000000E+00  0.97515471289E+03  0.15460884630E+04  0.11997761547E+04 0.  0.
        4    1    3    3  502    0  0.28291937397E+03 -0.50290789965E+03  0.27620631643E+03  0.63972749655E+03  0.12699999809E+01 0. -1.
       -4    1    3    3    0  502 -0.28291937397E+03  0.50290789965E+03  0.69894839645E+03  0.90636096645E+03  0.12699999809E+01 0.  1.
</event>
<event>
 5   0  0.5447807E-05  0.1200165E+04  0.7818609E-02  0.9112712E-01
       -1   -1    0    0    0  501  0.00000000000E+00  0.00000000000E+00  0.40756933841E+03  0.40756933844E+03  0.50400001928E-02 0.  1.
        1   -1    0    0  501    0  0.00000000000E+00  0.00000000000E+00 -0.88352759453E+03  0.88352759454E+03  0.50400001928E-02 0. -1.
    10030    2    1    2    0    0  0.00000000000E+00  0.00000000000E+00 -0.47595825612E+03  0.12910969330E+04  0.12001645840E+04 0.  0.
        2    1    3    3  502    0 -0.40663012460E+03 -0.23202761744E+03  0.16584748344E+03  0.49667923377E+03  0.25500000920E-02 0.  1.
       -2    1    3    3    0  502  0.40663012460E+03  0.23202761744E+03 -0.64180573956E+03  0.79441769921E+03  0.25500000920E-02 0. -1.
</event>
<event>
 5   0  0.5620246E-05  0.1200501E+04  0.7818609E-02  0.9112418E-01
        1   -1    0    0  501    0  0.00000000000E+00  0.00000000000E+00  0.12124059591E+04  0.12124059591E+04  0.50400001928E-02 0. -1.
       -1   -1    0    0    0  501  0.00000000000E+00  0.00000000000E+00 -0.29717844676E+03  0.29717844680E+03  0.50400001928E-02 0.  1.
    10030    2    1    2    0    0  0.00000000000E+00  0.00000000000E+00  0.91522751236E+03  0.15095844059E+04  0.12005014283E+04 0.  0.
        1    1    3    3  502    0 -0.34867949218E+03  0.34755032732E+03  0.88944206244E+03  0.10166001184E+04  0.50400001928E-02 0. -1.
       -1    1    3    3    0  502  0.34867949218E+03 -0.34755032732E+03  0.25785449919E+02  0.49298428752E+03  0.50400001928E-02 0.  1.
</event>
<event>
 5   0  0.5732931E-05  0.1199649E+04  0.7818609E-02  0.9113164E-01
        1   -1    0    0  501    0  0.00000000000E+00  0.00000000000E+00  0.25579211796E+03  0.25579211801E+03  0.50400001928E-02 0. -1.
       -1   -1    0    0    0  501  0.00000000000E+00  0.00000000000E+00 -0.14065687374E+04  0.14065687374E+04  0.50400001928E-02 0.  1.
    10030    2    1    2    0    0  0.00000000000E+00  0.00000000000E+00 -0.11507766194E+04  0.16623608554E+04  0.11996486093E+04 0.  0.
        4    1    3    3  502    0  0.47170790457E+03 -0.24168280887E+03 -0.18623254386E+03  0.56178563583E+03  0.12699999809E+01 0.  1.
       -4    1    3    3    0  502 -0.47170790457E+03  0.24168280887E+03 -0.96454407555E+03  0.11005752196E+04  0.12699999809E+01 0. -1.
</event>
<event>
 5   0  0.9838215E-05  0.1200139E+04  0.7818609E-02  0.9112735E-01
        2   -1    0    0  501    0  0.00000000000E+00  0.00000000000E+00  0.21634110456E+04  0.21634110456E+04  0.25500000920E-02 0. -1.
       -2   -1    0    0    0  501  0.00000000000E+00  0.00000000000E+00 -0.16644252753E+03  0.16644252755E+03  0.25500000920E-02 0.  1.
    10030    2    1    2    0    0  0.00000000000E+00  0.00000000000E+00  0.19969685181E+04  0.23298535732E+04  0.12001393295E+04 0.  0.
        4    1    3    3  502    0 -0.19439198033E+03 -0.21050274048E+03  0.20220260168E+04  0.20422268413E+04  0.12699999809E+01 0. -1.
       -4    1    3    3    0  502  0.19439198033E+03  0.21050274048E+03 -0.25057498689E+02  0.28762673191E+03  0.12699999809E+01 0.  1.
</event>
<event>
 5   0  0.5745487E-05  0.1199873E+04  0.7818609E-02  0.9112968E-01
        1   -1    0    0  501    0  0.00000000000E+00  0.00000000000E+00  0.91654163353E+03  0.91654163354E+03  0.50400001928E-02 0.  1.
       -1   -1    0    0    0  501  0.00000000000E+00  0.00000000000E+00 -0.39269770341E+03  0.39269770344E+03  0.50400001928E-02 0. -1.
    10030    2    1    2    0    0  0.00000000000E+00  0.00000000000E+00  0.52384393012E+03  0.13092393370E+04  0.11998729843E+04 0.  0.
        3    1    3    3  502    0 -0.11250956077E+03 -0.44730554796E+03 -0.15669110845E+03  0.48712705547E+03  0.10100000352E+00 0. -1.
       -3    1    3    3    0  502  0.11250956077E+03  0.44730554796E+03  0.68053503857E+03  0.82211228151E+03  0.10100000352E+00 0.  1.
</event>
<event>
 5   0  0.5620246E-05  0.1199485E+04  0.7818609E-02  0.9113307E-01
       -1   -1    0    0    0  501  0.00000000000E+00  0.00000000000E+00  0.81206282223E+03  0.81206282224E+03  0.50400001928E-02 0.  1.
        1   -1    0    0  501    0  0.00000000000E+00  0.00000000000E+00 -0.44293531677E+03  0.44293531680E+03  0.50400001928E-02 0. -1.
    10030    2    1    2    0    0  0.00000000000E+00  0.00000000000E+00  0.36912750545E+03  0.12549981390E+04  0.11994853954E+04 0.  0.
        1    1    3    3  502    0  0.18447074909E+03 -0.15976366721E+03  0.75776640006E+03  0.79609283612E+03  0.50400001928E-02 0.  1.
       -1    1    3    3    0  502 -0.18447074909E+03  0.15976366721E+03 -0.38863889461E+03  0.45890530293E+03  0.50400001928E-02 0. -1.
</event>
<event>
 5   0  0.5620246E-05  0.1200231E+04  0.7818609E-02  0.9112655E-01
        1   -1    0    0  501    0  0.00000000000E+00  0.00000000000E+00  0.59173380328E+03  0.59173380330E+03  0.50400001928E-02 0. -1.
       -1   -1    0    0    0  501  0.00000000000E+00  0.00000000000E+00 -0.60861560909E+03  0.60861560912E+03  0.50400001928E-02 0.  1.
    10030    2    1    2    0    0  0.00000000000E+00  0.00000000000E+00 -0.16881805817E+02  0.12003494124E+04  0.12002306930E+04 0.  0.
        1    1    3    3  502    0  0.22637615596E+03 -0.13779887741E+03  0.53003944798E+03  0.59260147742E+03  0.50400001928E-02 0. -1.
       -1    1    3    3    0  502 -0.22637615596E+03  0.13779887741E+03 -0.54692125380E+03  0.60774793499E+03  0.50400001928E-02 0.  1.
</event>
<event>
 5   0  0.9838215E-05  0.1199438E+04  0.7818609E-02  0.9113349E-01
       -2   -1    0    0    0  501  0.00000000000E+00  0.00000000000E+00  0.17602839846E+03  0.17602839848E+03  0.25500000920E-02 0. -1.
        2   -1    0    0  501    0  0.00000000000E+00  0.00000000000E+00 -0.20432079134E+04  0.20432079134E+04  0.25500000920E-02 0.  1.
    10030    2    1    2    0    0  0.00000000000E+00  0.00000000000E+00 -0.18671795150E+04  0.22192363119E+04  0.11994375628E+04 0.  0.
        4    1    3    3  502    0  0.47885260165E+02 -0.59161345216E+03 -0.77484115320E+03  0.97605322627E+03  0.12699999809E+01 0.  1.
       -4    1    3    3    0  502 -0.47885260165E+02  0.59161345216E+03 -0.10923383618E+04  0.12431830857E+04  0.12699999809E+01 0. -1.
</event>
<event>
 5   0  0.1023063E-04  0.1200372E+04  0.7818609E-02  0.9112531E-01
        2   -1    0    0  501    0  0.00000000000E+00  0.00000000000E+00  0.23369859754E+04  0.23369859754E+04  0.25500000920E-02 0. -1.
       -2   -1    0    0    0  501  0.00000000000E+00  0.00000000000E+00 -0.15414013028E+03  0.15414013030E+03  0.25500000920E-02 0.  1.
    10030    2    1    2    0    0  0.00000000000E+00  0.00000000000E+00  0.21828458451E+04  0.24911261057E+04  0.12003721468E+04 0.  0.
        3    1    3    3  502    0 -0.76054827022E+01 -0.23090897295E+03 -0.58160258322E+02  0.23824236190E+03  0.10100000352E+00 0.  1.
       -3    1    3    3    0  502  0.76054827022E+01  0.23090897295E+03  0.22410061034E+04  0.22528837438E+04  0.10100000352E+00 0. -1.
</event>
<event>
 5   0  0.1004006E-04  0.1199853E+04  0.7818609E-02  0.9112985E-01
       -2   -1    0    0    0  501  0.00000000000E+00  0.00000000000E+00  0.16979598359E+04  0.16979598359E+04  0.25500000920E-02 0.  1.
        2   -1    0    0  501    0  0.00000000000E+00  0.00000000000E+00 -0.21196720726E+03  0.21196720728E+03  0.25500000920E-02 0. -1.
    10030    2    1    2    0    0  0.00000000000E+00  0.00000000000E+00  0.14859926287E+04  0.19099270432E+04  0.11998529985E+04 0.  0.
        5    1    3    3  502    0 -0.33981276091E+03  0.37727270841E+03  0.23441081695E+03  0.55926552735E+03  0.46999998093E+01 0. -1.
       -5    1    3    3    0  502  0.33981276091E+03 -0.37727270841E+03  0.12515818117E+04  0.13506615159E+04  0.46999998093E+01 0.  1.
</event>
<event>
 5   0  0.1023063E-04  0.1199915E+04  0.7818609E-02  0.9112931E-01
        2   -1    0    0  501    0  0.00000000000E+00  0.00000000000E+00  0.10075743845E+04  0.10075743845E+04  0.25500000920E-02 0.  1.
       -2   -1    0    0    0  501  0.00000000000E+00  0.00000000000E+00 -0.35724326797E+03  0.35724326798E+03  0.25500000920E-02 0. -1.
    10030    2    1    2    0    0  0.00000000000E+00  0.00000000000E+00  0.65033111648E+03  0.13648176524E+04  0.11999152734E+04 0.  0.
        3    1    3    3  502    0  0.37767699147E+03  0.32061455901E+03  0.71007297698E+03  0.86581594359E+03  0.10100000352E+00 0.  1.
       -3    1    3    3    0  502 -0.37767699147E+03 -0.32061455901E+03 -0.59741860495E+02  0.49900170885E+03  0.10100000352E+00 0. -1.
</event>
<event>
 5   0  0.5625746E-05  0.1199502E+04  0.7818609E-02  0.9113293E-01
        1   -1    0    0  501    0  0.00000000000E+00  0.00000000000E+00  0.15758181599E+04  0.15758181599E+04  0.50400001928E-02 0. -1.
       -1   -1    0    0    0  501  0.00000000000E+00  0.00000000000E+00 -0.22826305859E+03  0.22826305864E+03  0.50400001928E-02 0.  1.
    10030    2    1    2    0    0  0.00000000000E+00  0.00000000000E+00  0.13475551013E+04  0.18040812186E+04  0.11995016849E+04 0.  0.
        5    1    3    3  502    0  0.36152631126E+03 -0.20162076849E+03  0.13264740113E+04  0.13895710132E+04  0.46999998093E+01 0. -1.
       -5    1    3    3    0  502 -0.36152631126E+03  0.20162076849E+03  0.21081090030E+02  0.41451020539E+03  0.46999998093E+01 0.  1.
</event>
<event>
 5   0  0.1004006E-04  0.1199627E+04  0.7818609E-02  0.9113183E-01
        2   -1    0    0  501    0  0.00000000000E+00  0.00000000000E+00  0.15831011886E+04  0.15831011886E+04  0.25500000920E-02 0. -1.
       -2   -1    0    0    0  501  0.00000000000E+00  0.00000000000E+00 -0.22726031433E+03  0.22726031434E+03  0.25500000920E-02 0.  1.
    10030    2    1    2    0    0  0.00000000000E+00  0.00000000000E+00  0.13558408743E+04  0.18103615030E+04  0.11996267315E+04 0.  0.
        5    1    3    3  502    0  0.55951455282E+03  0.20138688385E+03  0.55966240289E+03  0.81661331548E+03  0.46999998093E+01 0.  1.
       -5    1    3    3    0  502 -0.55951455282E+03 -0.20138688385E+03  0.79617847140E+03  0.99374818749E+03  0.46999998093E+01 0. -1.
</event>
<event>
 5   0  0.9941209E-05  0.1199912E+04  0.7818609E-02  0.9112934E-01
        2   -1    0    0  501    0  0.00000000000E+00  0.00000000000E+00  0.23998215361E+04  0.23998215361E+04  0.25500000920E-02 0. -1.
       -2   -1    0    0    0  501  0.00000000000E+00  0.00000000000E+00 -0.14998909873E+03  0.14998909875E+03  0.25500000920E-02 0.  1.
    10030    2    1    2    0    0  0.00000000000E+00  0.00000000000E+00  0.22498324374E+04  0.25498106349E+04  0.11999117790E+04 0.  0.
        2    1    3    3  502    0 -0.37541343724E+03  0.65496556318E+02  0.21096002732E+04  0.21437440053E+04  0.25500000920E-02 0. -1.
       -2    1    3    3    0  502  0.37541343724E+03 -0.65496556318E+02  0.14023216422E+03  0.40606662955E+03  0.25500000920E-02 0.  1.
</event>
<event>
 5   0  0.1004006E-04  0.1199805E+04  0.7818609E-02  0.9113028E-01
        2   -1    0    0  501    0  0.00000000000E+00  0.00000000000E+00  0.46126021862E+03  0.46126021863E+03  0.25500000920E-02 0. -1.
       -2   -1    0    0    0  501  0.00000000000E+00  0.00000000000E+00 -0.78021643870E+03  0.78021643870E+03  0.25500000920E-02 0.  1.
    10030    2    1    2    0    0  0.00000000000E+00  0.00000000000E+00 -0.31895622008E+03  0.12414766573E+04  0.11998046593E+04 0.  0.
        5    1    3    3  502    0 -0.58015442667E+03  0.77555592312E+02 -0.23511423223E+02  0.58580620149E+03  0.46999998093E+01 0.  1.
       -5    1    3    3    0  502  0.58015442667E+03 -0.77555592312E+02 -0.29544479685E+03  0.65567045584E+03  0.46999998093E+01 0. -1.
</event>
<event>
 5   0  0.5620246E-05  0.1197179E+04  0.7818609E-02  0.9115329E-01
        1   -1    0    0  501    0  0.00000000000E+00  0.00000000000E+00  0.64900348643E+03  0.64900348645E+03  0.50400001928E-02 0. -1.
       -1   -1    0    0    0  501  0.00000000000E+00  0.00000000000E+00 -0.55209183372E+03  0.55209183374E+03  0.50400001928E-02 0.  1.
    10030    2    1    2    0    0  0.00000000000E+00  0.00000000000E+00  0.96911652711E+02  0.12010953202E+04  0.11971792262E+04 0.  0.
        1    1    3    3  502    0  0.10042841202E+03 -0.53003317708E+03 -0.21179294891E+03  0.57954921101E+03  0.50400001928E-02 0.  1.
       -1    1    3    3    0  502 -0.10042841202E+03  0.53003317708E+03  0.30870460163E+03  0.62154610918E+03  0.50400001928E-02 0. -1.
</event>
<event>
 5   0  0.9941209E-05  0.1200289E+04  0.7818609E-02  0.9112604E-01
       -2   -1    0    0    0  501  0.00000000000E+00  0.00000000000E+00  0.42154130651E+03  0.42154130652E+03  0.25500000920E-02 0.  1.
        2   -1    0    0  501    0  0.00000000000E+00  0.00000000000E+00 -0.85441989426E+03  0.85441989427E+03  0.25500000920E-02 0. -1.
    10030    2    1    2    0    0  0.00000000000E+00  0.00000000000E+00 -0.43287858775E+03  0.12759612008E+04  0.12002887628E+04 0.  0.
        2    1    3    3  502    0  0.28279187646E+03 -0.52459982325E+03 -0.29158582705E+03  0.66347457712E+03  0.25500000920E-02 0. -1.
       -2    1    3    3    0  502 -0.28279187646E+03  0.52459982325E+03 -0.14129276070E+03  0.61248662367E+03  0.25500000920E-02 0.  1.
</event>
<event>
 5   0  0.5625746E-05  0.1199988E+04  0.7818609E-02  0.9112867E-01
       -1   -1    0    0    0  501  0.00000000000E+00  0.00000000000E+00  0.72781611527E+03  0.72781611528E+03  0.50400001928E-02 0. -1.
        1   -1    0    0  501    0  0.00000000000E+00  0.00000000000E+00 -0.49462085260E+03  0.49462085263E+03  0.50400001928E-02 0.  1.
    10030    2    1    2    0    0  0.00000000000E+00  0.00000000000E+00  0.23319526266E+03  0.12224369679E+04  0.11999883791E+04 0.  0.
        5    1    3    3  502    0 -0.15814349922E+03 -0.56475611711E+03  0.24550376201E+03  0.63580895348E+03  0.46999998093E+01 0.  1.
       -5    1    3    3    0  502  0.15814349922E+03  0.56475611711E+03 -0.12308499352E+02  0.58662801443E+03  0.46999998093E+01 0. -1.
</event>
<event>
 5   0  0.5745487E-05  0.1200555E+04  0.7818609E-02  0.9112371E-01
        1   -1    0    0  501    0  0.00000000000E+00  0.00000000000E+00  0.81049084765E+03  0.81049084767E+03  0.50400001928E-02 0. -1.
       -1   -1    0    0    0  501  0.00000000000E+00  0.00000000000E+00 -0.44458637740E+03  0.44458637743E+03  0.50400001928E-02 0.  1.
    10030    2    1    2    0    0  0.00000000000E+00  0.00000000000E+00  0.36590447025E+03  0.12550772251E+04  0.12005551881E+04 0.  0.
        3    1    3    3  502    0  0.24713870725E+03  0.54593250011E+03  0.14653723076E+03  0.61692220376E+03  0.10100000352E+00 0. -1.
       -3    1    3    3    0  502 -0.24713870725E+03 -0.54593250011E+03  0.21936723949E+03  0.63815502134E+03  0.10100000352E+00 0.  1.
</event>
<event>
 5   0  0.9838215E-05  0.1202938E+04  0.7818609E-02  0.9110289E-01
       -2   -1    0    0    0  501  0.00000000000E+00  0.00000000000E+00  0.35684744554E+03  0.35684744555E+03  0.25500000920E-02 0. -1.
        2   -1    0    0  501    0  0.00000000000E+00  0.00000000000E+00 -0.10137803622E+04  0.10137803622E+04  0.25500000920E-02 0.  1.
    10030    2    1    2    0    0  0.00000000000E+00  0.00000000000E+00 -0.65693291666E+03  0.13706278077E+04  0.12029379578E+04 0.  0.
        4    1    3    3  502    0  0.17737023711E+03 -0.52655777905E+03 -0.66057797007E+02  0.55954315395E+03  0.12699999809E+01 0.  1.
       -4    1    3    3    0  502 -0.17737023711E+03  0.52655777905E+03 -0.59087511965E+03  0.81108465379E+03  0.12699999809E+01 0. -1.
</event>
<event>
 5   0  0.5745487E-05  0.1199783E+04  0.7818609E-02  0.9113046E-01
       -1   -1    0    0    0  501  0.00000000000E+00  0.00000000000E+00  0.35841577516E+03  0.35841577520E+03  0.50400001928E-02 0.  1.
        1   -1    0    0  501    0  0.00000000000E+00  0.00000000000E+00 -0.10040569611E+04  0.10040569611E+04  0.50400001928E-02 0. -1.
    10030    2    1    2    0    0  0.00000000000E+00  0.00000000000E+00 -0.64564118590E+03  0.13624727363E+04  0.11997830705E+04 0.  0.
        3    1    3    3  502    0 -0.58119272195E+03 -0.14280617328E+03 -0.27611914305E+03  0.65910573851E+03  0.10100000352E+00 0.  1.
       -3    1    3    3    0  502  0.58119272195E+03  0.14280617328E+03 -0.36952204284E+03  0.70336699775E+03  0.10100000352E+00 0. -1.
</event>
<event>
 5   0  0.5732931E-05  0.1201026E+04  0.7818609E-02  0.9111959E-01
       -1   -1    0    0    0  501  0.00000000000E+00  0.00000000000E+00  0.62735376565E+03  0.62735376567E+03  0.50400001928E-02 0.  1.
        1   -1    0    0  501    0  0.00000000000E+00  0.00000000000E+00 -0.57482059794E+03  0.57482059796E+03  0.50400001928E-02 0. -1.
    10030    2    1    2    0    0  0.00000000000E+00  0.00000000000E+00  0.52533167714E+02  0.12021743636E+04  0.12010260059E+04 0.  0.
        4    1    3    3  502    0 -0.20703372814E+03 -0.40853946201E+03 -0.36249478077E+03  0.58409890908E+03  0.12699999809E+01 0. -1.
       -4    1    3    3    0  502  0.20703372814E+03  0.40853946201E+03  0.41502794848E+03  0.61807545455E+03  0.12699999809E+01 0.  1.
</event>
<event>
 5   0  0.5745487E-05  0.1199841E+04  0.7818609E-02  0.9112995E-01
       -1   -1    0    0    0  501  0.00000000000E+00  0.00000000000E+00  0.41672045719E+03  0.41672045722E+03  0.50400001928E-02 0.  1.
        1   -1    0    0  501    0  0.00000000000E+00  0.00000000000E+00 -0.86365998490E+03  0.86365998492E+03  0.50400001928E-02 0. -1.
    10030    2    1    2    0    0  0.00000000000E+00  0.00000000000E+00 -0.44693952771E+03  0.12803804421E+04  0.11998412958E+04 0.  0.
        3    1    3    3  502    0 -0.39874559299E+03 -0.78696146836E+02 -0.69435320285E+03  0.80456044644E+03  0.10100000352E+00 0. -1.
       -3    1    3    3    0  502  0.39874559299E+03  0.78696146836E+02  0.24741367515E+03  0.47581999570E+03  0.10100000352E+00 0.  1.
</event>
<event>
 5   0  0.1004006E-04  0.1200079E+04  0.7818609E-02  0.9112788E-01
       -2   -1    0    0    0  501  0.00000000000E+00  0.00000000000E+00  0.42855622467E+03  0.42855622468E+03  0.25500000920E-02 0.  1.
        2   -1    0    0  501    0  0.00000000000E+00  0.00000000000E+00 -0.84013988402E+03  0.84013988402E+03  0.25500000920E-02 0. -1.
    10030    2    1    2    0    0  0.00000000000E+00  0.00000000000E+00 -0.41158365935E+03  0.12686961087E+04  0.12000786256E+04 0.  0.
        5    1    3    3  502    0 -0.48794527657E+03  0.56113862917E+02  0.15856762185E+03  0.51614449453E+03  0.46999998093E+01 0. -1.
       -5    1    3    3    0  502  0.48794527657E+03 -0.56113862917E+02 -0.57015128119E+03  0.75255161417E+03  0.46999998093E+01 0.  1.
</event>
<event>
 5   0  0.5732931E-05  0.1198888E+04  0.7818609E-02  0.9113830E-01
       -1   -1    0    0    0  501  0.00000000000E+00  0.00000000000E+00  0.41263853018E+03  0.41263853021E+03  0.50400001928E-02 0.  1.
        1   -1    0    0  501    0  0.00000000000E+00  0.00000000000E+00 -0.87081833055E+03  0.87081833056E+03  0.50400001928E-02 0. -1.
    10030    2    1    2    0    0  0.00000000000E+00  0.00000000000E+00 -0.45817980037E+03  0.12834568608E+04  0.11988881449E+04 0.  0.
        4    1    3    3  502    0  0.43370565745E+03 -0.34295076438E+03  0.18794296035E+02  0.55323653400E+03  0.12699999809E+01 0.  1.
       -4    1    3    3    0  502 -0.43370565745E+03  0.34295076438E+03 -0.47697409640E+03  0.73022032677E+03  0.12699999809E+01 0. -1.
</event>
<event>
 5   0  0.5625746E-05  0.1199034E+04  0.7818609E-02  0.9113702E-01
        1   -1    0    0  501    0  0.00000000000E+00  0.00000000000E+00  0.20516322207E+04  0.20516322207E+04  0.50400001928E-02 0. -1.
       -1   -1    0    0    0  501  0.00000000000E+00  0.00000000000E+00 -0.17518774286E+03  0.17518774293E+03  0.50400001928E-02 0.  1.
    10030    2    1    2    0    0  0.00000000000E+00  0.00000000000E+00  0.18764444778E+04  0.22268199636E+04  0.11990343081E+04 0.  0.
        5    1    3    3  502    0 -0.37661608154E+03  0.37154672068E+03  0.41453730524E+03  0.67212343059E+03  0.46999998093E+01 0.  1.
       -5    1    3    3    0  502  0.37661608154E+03 -0.37154672068E+03  0.14619071726E+04  0.15546965330E+04  0.46999998093E+01 0. -1.
</event>
<event>
 5   0  0.1004006E-04  0.1201028E+04  0.7818609E-02  0.9111957E-01
       -2   -1    0    0    0  501  0.00000000000E+00  0.00000000000E+00  0.12095493446E+04  0.12095493446E+04  0.25500000920E-02 0.  1.
        2   -1    0    0  501    0  0.00000000000E+00  0.00000000000E+00 -0.29814165323E+03  0.29814165324E+03  0.25500000920E-02 0. -1.
    10030    2    1    2    0    0  0.00000000000E+00  0.00000000000E+00  0.91140769138E+03  0.15076909979E+04  0.12010279618E+04 0.  0.
        5    1    3    3  502    0 -0.27061157610E+02 -0.26294898756E+02  0.12080366346E+04  0.12086349029E+04  0.46999998093E+01 0.  1.
       -5    1    3    3    0  502  0.27061157610E+02  0.26294898756E+02 -0.29662894324E+03  0.29905609494E+03  0.46999998093E+01 0. -1.
</event>
<event>
 5   0  0.5625746E-05  0.1200277E+04  0.7818609E-02  0.9112614E-01
        1   -1    0    0  501    0  0.00000000000E+00  0.00000000000E+00  0.84338091441E+03  0.84338091442E+03  0.50400001928E-02 0.  1.
       -1   -1    0    0    0  501  0.00000000000E+00  0.00000000000E+00 -0.42705054468E+03  0.42705054471E+03  0.50400001928E-02 0. -1.
    10030    2    1    2    0    0  0.00000000000E+00  0.00000000000E+00  0.41633036973E+03  0.12704314591E+04  0.12002770995E+04 0.  0.
        5    1    3    3  502    0  0.12505300683E+03  0.13858116158E+03  0.81185319355E+03  0.83304903261E+03  0.46999998093E+01 0.  1.
       -5    1    3    3    0  502 -0.12505300683E+03 -0.13858116158E+03 -0.39552282383E+03  0.43738242652E+03  0.46999998093E+01 0. -1.
</event>
<event>
 5   0  0.9838215E-05  0.1199555E+04  0.7818609E-02  0.9113246E-01
        2   -1    0    0  501    0  0.00000000000E+00  0.00000000000E+00  0.11325847628E+04  0.11325847628E+04  0.25500000920E-02 0.  1.
       -2   -1    0    0    0  501  0.00000000000E+00  0.00000000000E+00 -0.31762155412E+03  0.31762155413E+03  0.25500000920E-02 0. -1.
    10030    2    1    2    0    0  0.00000000000E+00  0.00000000000E+00  0.81496320867E+03  0.14502063169E+04  0.11995554719E+04 0.  0.
        4    1    3    3  502    0 -0.15074019126E+03 -0.52439432226E+03  0.10640686502E+03  0.55591010452E+03  0.12699999809E+01 0.  1.
       -4    1    3    3    0  502  0.15074019126E+03  0.52439432226E+03  0.70855634365E+03  0.89429621240E+03  0.12699999809E+01 0. -1.
</event>
<event>
 5   0  0.5447807E-05  0.1199919E+04  0.7818609E-02  0.9112927E-01
        1   -1    0    0  501    0  0.00000000000E+00  0.00000000000E+00  0.16887712807E+04  0.16887712807E+04  0.50400001928E-02 0.  1.
       -1   -1    0    0    0  501  0.00000000000E+00  0.00000000000E+00 -0.21314393805E+03  0.21314393811E+03  0.50400001928E-02 0. -1.
    10030    2    1    2    0    0  0.00000000000E+00  0.00000000000E+00  0.14756273427E+04  0.19019152188E+04  0.11999189328E+04 0.  0.
        2    1    3    3  502    0  0.23228332062E+03  0.23482862947E+03  0.15316801354E+04  0.15668899335E+04  0.25500000920E-02 0.  1.
       -2    1    3    3    0  502 -0.23228332062E+03 -0.23482862947E+03 -0.56052792775E+02  0.33502528537E+03  0.25500000920E-02 0. -1.
</event>
<event>
 5   0  0.5447807E-05  0.1200790E+04  0.7818609E-02  0.9112165E-01
       -1   -1    0    0    0  501  0.00000000000E+00  0.00000000000E+00  0.18596307684E+03  0.18596307691E+03  0.50400001928E-02 0.  1.
        1   -1    0    0  501    0  0.00000000000E+00  0.00000000000E+00 -0.19384193762E+04  0.19384193762E+04  0.50400001928E-02 0. -1.
    10030    2    1    2    0    0  0.00000000000E+00  0.00000000000E+00 -0.17524562994E+04  0.21243824532E+04  0.12007904588E+04 0.  0.
        2    1    3    3  502    0  0.12801696534E+03 -0.16443000671E+03 -0.18723869496E+04  0.18839475734E+04  0.25500000920E-02 0. -1.
       -2    1    3    3    0  502 -0.12801696534E+03  0.16443000671E+03  0.11993065019E+03  0.24043487971E+03  0.25500000920E-02 0.  1.
</event>
<event>
 5   0  0.5620246E-05  0.1200142E+04  0.7818609E-02  0.9112732E-01
        1   -1    0    0  501    0  0.00000000000E+00  0.00000000000E+00  0.38876859656E+03  0.38876859659E+03  0.50400001928E-02 0. -1.
       -1   -1    0    0    0  501  0.00000000000E+00  0.00000000000E+00 -0.92621992038E+03  0.92621992039E+03  0.50400001928E-02 0.  1.
    10030    2    1    2    0    0  0.00000000000E+00  0.00000000000E+00 -0.53745132382E+03  0.13149885170E+04  0.12001420226E+04 0.  0.
        1    1    3    3  502    0  0.39255120959E+01  0.31435092708E+03  0.29131584195E+03  0.42859868735E+03  0.50400001928E-02 0. -1.
       -1    1    3    3    0  502 -0.39255120959E+01 -0.31435092708E+03 -0.82876716577E+03  0.88638982963E+03  0.50400001928E-02 0.  1.
</event>
<event>
 5   0  0.1023063E-04  0.1198016E+04  0.7818609E-02  0.9114595E-01
       -2   -1    0    0    0  501  0.00000000000E+00  0.00000000000E+00  0.37864031526E+03  0.37864031526E+03  0.25500000920E-02 0. -1.
        2   -1    0    0  501    0  0.00000000000E+00  0.00000000000E+00 -0.94762960846E+03  0.94762960846E+03  0.25500000920E-02 0.  1.
    10030    2    1    2    0    0  0.00000000000E+00  0.00000000000E+00 -0.56898929320E+03  0.13262699237E+04  0.11980163166E+04 0.  0.
        3    1    3    3  502    0 -0.56259810012E+03  0.80021503733E+02 -0.49422445182E+03  0.75311213129E+03  0.10100000352E+00 0. -1.
       -3    1    3    3    0  502  0.56259810012E+03 -0.80021503733E+02 -0.74764841386E+02  0.57315779244E+03  0.10100000352E+00 0.  1.
</event>
<event>
 5   0  0.5447807E-05  0.1200266E+04  0.7818609E-02  0.9112624E-01
        1   -1    0    0  501    0  0.00000000000E+00  0.00000000000E+00  0.66821079864E+03  0.66821079866E+03  0.50400001928E-02 0.  1.
       -1   -1    0    0    0  501  0.00000000000E+00  0.00000000000E+00 -0.53899122697E+03  0.53899122700E+03  0.50400001928E-02 0. -1.
    10030    2    1    2    0    0  0.00000000000E+00  0.00000000000E+00  0.12921957167E+03  0.12072020257E+04  0.12002662342E+04 0.  0.
        2    1    3    3  502    0  0.18742354801E+03  0.37479950016E+03 -0.36747425304E+03  0.55735049863E+03  0.25500000920E-02 0. -1.
       -2    1    3    3    0  502 -0.18742354801E+03 -0.37479950016E+03  0.49669382471E+03  0.64985152703E+03  0.25500000920E-02 0.  1.
</event>
<event>
 5   0  0.3839750E-05  0.1199880E+04  0.7818609E-02  0.9112962E-01
        3   -1    0    0  501    0  0.00000000000E+00  0.00000000000E+00  0.71581408815E+03  0.71581409528E+03  0.10100000352E+00 0. -1.
       -3   -1    0    0    0  501  0.00000000000E+00  0.00000000000E+00 -0.50282331644E+03  0.50282332658E+03  0.10100000352E+00 0.  1.
    10030    2    1    2    0    0  0.00000000000E+00  0.00000000000E+00  0.21299077171E+03  0.12186374219E+04  0.11998800345E+04 0.  0.
        3    1    3    3  502    0  0.12604844516E+03  0.57592870541E+03 -0.63538404010E+01  0.58959517105E+03  0.10100000352E+00 0. -1.
       -3    1    3    3    0  502 -0.12604844516E+03 -0.57592870541E+03  0.21934461211E+03  0.62904225081E+03  0.10100000352E+00 0.  1.
</event>
<event>
 5   0  0.5447807E-05  0.1200400E+04  0.7818609E-02  0.9112506E-01
       -1   -1    0    0    0  501  0.00000000000E+00  0.00000000000E+00  0.33992533606E+03  0.33992533609E+03  0.50400001928E-02 0.  1.
        1   -1    0    0  501    0  0.00000000000E+00  0.00000000000E+00 -0.10597630592E+04  0.10597630593E+04  0.50400001928E-02 0. -1.
    10030    2    1    2    0    0  0.00000000000E+00  0.00000000000E+00 -0.71983772318E+03  0.13996883953E+04  0.12004004567E+04 0.  0.
        2    1    3    3  502    0 -0.39398483443E+03 -0.38978423352E+02  0.16607921830E+03  0.42933165968E+03  0.25500000920E-02 0.  1.
       -2    1    3    3    0  502  0.39398483443E+03  0.38978423352E+02 -0.88591694148E+03  0.97035673567E+03  0.25500000920E-02 0. -1.
</event>
<event>
 5   0  0.1004006E-04  0.1200023E+04  0.7818609E-02  0.9112836E-01
       -2   -1    0    0    0  501  0.00000000000E+00  0.00000000000E+00  0.32477746838E+03  0.32477746839E+03  0.25500000920E-02 0. -1.
        2   -1    0    0  501    0  0.00000000000E+00  0.00000000000E+00 -0.11084939728E+04  0.11084939728E+04  0.25500000920E-02 0.  1.
    10030    2    1    2    0    0  0.00000000000E+00  0.00000000000E+00 -0.78371650441E+03  0.14332714412E+04  0.12000231101E+04 0.  0.
        5    1    3    3  502    0 -0.43339614299E+03  0.15452365483E+02 -0.88708378610E+03  0.98742631417E+03  0.46999998093E+01 0.  1.
       -5    1    3    3    0  502  0.43339614299E+03 -0.15452365483E+02  0.10336728169E+03  0.44584512701E+03  0.46999998093E+01 0. -1.
</event>
<event>
 5   0  0.9838215E-05  0.1200569E+04  0.7818609E-02  0.9112358E-01
        2   -1    0    0  501    0  0.00000000000E+00  0.00000000000E+00  0.58814232101E+03  0.58814232101E+03  0.25500000920E-02 0. -1.
       -2   -1    0    0    0  501  0.00000000000E+00  0.00000000000E+00 -0.61267761677E+03  0.61267761678E+03  0.25500000920E-02 0.  1.
    10030    2    1    2    0    0  0.00000000000E+00  0.00000000000E+00 -0.24535295765E+02  0.12008199378E+04  0.12005692576E+04 0.  0.
        4    1    3    3  502    0 -0.35103822008E+03  0.46160547623E+03 -0.16732445076E+03  0.60357810793E+03  0.12699999809E+01 0.  1.
       -4    1    3    3    0  502  0.35103822008E+03 -0.46160547623E+03  0.14278915500E+03  0.59724182986E+03  0.12699999809E+01 0. -1.
</event>
<event>
 5   0  0.5447807E-05  0.1199727E+04  0.7818609E-02  0.9113096E-01
        1   -1    0    0  501    0  0.00000000000E+00  0.00000000000E+00  0.55213069027E+03  0.55213069029E+03  0.50400001928E-02 0.  1.
       -1   -1    0    0    0  501  0.00000000000E+00  0.00000000000E+00 -0.65172278797E+03  0.65172278799E+03  0.50400001928E-02 0. -1.
    10030    2    1    2    0    0  0.00000000000E+00  0.00000000000E+00 -0.99592097707E+02  0.12038534783E+04  0.11997268903E+04 0.  0.
        2    1    3    3  502    0  0.50761564549E+03  0.36067300191E+02  0.26888357266E+03  0.57556308893E+03  0.25500000920E-02 0.  1.
       -2    1    3    3    0  502 -0.50761564549E+03 -0.36067300191E+02 -0.36847567036E+03  0.62829038935E+03  0.25500000920E-02 0. -1.
</event>
<event>
 5   0  0.5620246E-05  0.1199670E+04  0.7818609E-02  0.9113145E-01
        1   -1    0    0  501    0  0.00000000000E+00  0.00000000000E+00  0.17926370492E+04  0.17926370492E+04  0.50400001928E-02 0.  1.
       -1   -1    0    0    0  501  0.00000000000E+00  0.00000000000E+00 -0.20071107523E+03  0.20071107529E+03  0.50400001928E-02 0. -1.
    10030    2    1    2    0    0  0.00000000000E+00  0.00000000000E+00  0.15919259740E+04  0.19933481245E+04  0.11996701375E+04 0.  0.
        1    1    3    3  502    0 -0.43462075146E+03 -0.21149351130E+03  0.13861805140E+04  0.14680330788E+04  0.50400001928E-02 0.  1.
       -1    1    3    3    0  502  0.43462075146E+03  0.21149351130E+03  0.20574545992E+03  0.52531504569E+03  0.50400001928E-02 0. -1.
</event>
<event>
 5   0  0.5745487E-05  0.1199530E+04  0.7818609E-02  0.9113268E-01
       -1   -1    0    0    0  501  0.00000000000E+00  0.00000000000E+00  0.66739865439E+03  0.66739865441E+03  0.50400001928E-02 0. -1.
        1   -1    0    0  501    0  0.00000000000E+00  0.00000000000E+00 -0.53898512031E+03  0.53898512034E+03  0.50400001928E-02 0.  1.
    10030    2    1    2    0    0  0.00000000000E+00  0.00000000000E+00  0.12841353408E+03  0.12063837747E+04  0.11995298147E+04 0.  0.
        3    1    3    3  502    0  0.50827679051E+03  0.20520758375E+03 -0.18062308617E+03  0.57713097097E+03  0.10100000352E+00 0.  1.
       -3    1    3    3    0  502 -0.50827679051E+03 -0.20520758375E+03  0.30903662025E+03  0.62925280377E+03  0.10100000352E+00 0. -1.
</event>
<event>
 5   0  0.9941209E-05  0.1200172E+04  0.7818609E-02  0.9112706E-01
       -2   -1    0    0    0  501  0.00000000000E+00  0.00000000000E+00  0.58156549512E+03  0.58156549513E+03  0.25500000920E-02 0.  1.
        2   -1    0    0  501    0  0.00000000000E+00  0.00000000000E+00 -0.61919640009E+03  0.61919640010E+03  0.25500000920E-02 0. -1.
    10030    2    1    2    0    0  0.00000000000E+00  0.00000000000E+00 -0.37630904973E+02  0.12007618952E+04  0.12001720893E+04 0.  0.
        2    1    3    3  502    0 -0.54659048710E+03 -0.18488035804E+03 -0.18370346366E+03  0.60554840430E+03  0.25500000920E-02 0. -1.
       -2    1    3    3    0  502  0.54659048710E+03  0.18488035804E+03  0.14607255869E+03  0.59521349093E+03  0.25500000920E-02 0.  1.
</event>
<event>
 5   0  0.5620246E-05  0.1200701E+04  0.7818609E-02  0.9112243E-01
        1   -1    0    0  501    0  0.00000000000E+00  0.00000000000E+00  0.60156559428E+03  0.60156559430E+03  0.50400001928E-02 0.  1.
       -1   -1    0    0    0  501  0.00000000000E+00  0.00000000000E+00 -0.59913762970E+03  0.59913762972E+03  0.50400001928E-02 0. -1.
    10030    2    1    2    0    0  0.00000000000E+00  0.00000000000E+00  0.24279645838E+01  0.12007032240E+04  0.12007007692E+04 0.  0.
        1    1    3    3  502    0 -0.40221523466E+03  0.15916766295E+03 -0.41509101768E+03  0.59950979384E+03  0.50400001928E-02 0. -1.
       -1    1    3    3    0  502  0.40221523466E+03 -0.15916766295E+03  0.41751898226E+03  0.60119343019E+03  0.50400001928E-02 0.  1.
</event>
<event>
 5   0  0.1004006E-04  0.1199172E+04  0.7818609E-02  0.9113581E-01
       -2   -1    0    0    0  501  0.00000000000E+00  0.00000000000E+00  0.76330162312E+03  0.76330162312E+03  0.25500000920E-02 0. -1.
        2   -1    0    0  501    0  0.00000000000E+00  0.00000000000E+00 -0.47098483930E+03  0.47098483931E+03  0.25500000920E-02 0.  1.
    10030    2    1    2    0    0  0.00000000000E+00  0.00000000000E+00  0.29231678381E+03  0.12342864624E+04  0.11991722017E+04 0.  0.
        5    1    3    3  502    0  0.44606854287E+03 -0.16095653641E+03 -0.23145945169E+03  0.52771177676E+03  0.46999998093E+01 0.  1.
       -5    1    3    3    0  502 -0.44606854287E+03  0.16095653641E+03  0.52377623551E+03  0.70657468567E+03  0.46999998093E+01 0. -1.
</event>
<event>
 5   0  0.5745487E-05  0.1200428E+04  0.7818609E-02  0.9112482E-01
       -1   -1    0    0    0  501  0.00000000000E+00  0.00000000000E+00  0.62636103803E+03  0.62636103805E+03  0.50400001928E-02 0.  1.
        1   -1    0    0  501    0  0.00000000000E+00  0.00000000000E+00 -0.57515878048E+03  0.57515878050E+03  0.50400001928E-02 0. -1.
    10030    2    1    2    0    0  0.00000000000E+00  0.00000000000E+00  0.51202257546E+02  0.12015198186E+04  0.12004283415E+04 0.  0.
        3    1    3    3  502    0 -0.10912543515E+03 -0.44939623723E+03  0.40856070008E+03  0.61707956901E+03  0.10100000352E+00 0.  1.
       -3    1    3    3    0  502  0.10912543515E+03  0.44939623723E+03 -0.35735844254E+03  0.58444024954E+03  0.10100000352E+00 0. -1.
</event>
<event>
 5   0  0.9941209E-05  0.1199991E+04  0.7818609E-02  0.9112864E-01
        2   -1    0    0  501    0  0.00000000000E+00  0.00000000000E+00  0.50363591839E+03  0.50363591839E+03  0.25500000920E-02 0.  1.
       -2   -1    0    0    0  501  0.00000000000E+00  0.00000000000E+00 -0.71479194665E+03  0.71479194665E+03  0.25500000920E-02 0. -1.
    10030    2    1    2    0    0  0.00000000000E+00  0.00000000000E+00 -0.21115602826E+03  0.12184278650E+04  0.11999914975E+04 0.  0.
        2    1    3    3  502    0  0.90407294322E+02  0.22981306660E+03 -0.66079481986E+03  0.70543413471E+03  0.25500000920E-02 0. -1.
       -2    1    3    3    0  502 -0.90407294322E+02 -0.22981306660E+03  0.44963879160E+03  0.51299373034E+03  0.25500000920E-02 0.  1.
</event>
<event>
 5   0  0.3839750E-05  0.1201087E+04  0.7818609E-02  0.9111906E-01
       -3   -1    0    0    0  501  0.00000000000E+00  0.00000000000E+00  0.38502976014E+03  0.38502977338E+03  0.10100000352E+00 0. -1.
        3   -1    0    0  501    0  0.00000000000E+00  0.00000000000E+00 -0.93668745962E+03  0.93668746506E+03  0.10100000352E+00 0.  1.
    10030    2    1    2    0    0  0.00000000000E+00  0.00000000000E+00 -0.55165769948E+03  0.13217172384E+04  0.12010871080E+04 0.  0.
        2    1    3    3  502    0  0.46668076674E+03  0.33003944693E+03 -0.73111124957E+02  0.57624839364E+03  0.25500000920E-02 0.  1.
       -2    1    3    3    0  502 -0.46668076674E+03 -0.33003944693E+03 -0.47854657452E+03  0.74546884480E+03  0.25500000920E-02 0. -1.
</event>
<event>
 5   0  0.1004006E-04  0.1200272E+04  0.7818609E-02  0.9112619E-01
        2   -1    0    0  501    0  0.00000000000E+00  0.00000000000E+00  0.14055382430E+04  0.14055382430E+04  0.25500000920E-02 0.  1.
       -2   -1    0    0    0  501  0.00000000000E+00  0.00000000000E+00 -0.25624558630E+03  0.25624558632E+03  0.25500000920E-02 0. -1.
    10030    2    1    2    0    0  0.00000000000E+00  0.00000000000E+00  0.11492926567E+04  0.16617838293E+04  0.12002715879E+04 0.  0.
        5    1    3    3  502    0 -0.51097365806E+03  0.12898845964E+03  0.17719702232E+03  0.55601526658E+03  0.46999998093E+01 0. -1.
       -5    1    3    3    0  502  0.51097365806E+03 -0.12898845964E+03  0.97209563436E+03  0.11057685627E+04  0.46999998093E+01 0.  1.
</event>
<event>
 5   0  0.5620246E-05  0.1198817E+04  0.7818609E-02  0.9113893E-01
       -1   -1    0    0    0  501  0.00000000000E+00  0.00000000000E+00  0.46249296122E+03  0.46249296124E+03  0.50400001928E-02 0.  1.
        1   -1    0    0  501    0  0.00000000000E+00  0.00000000000E+00 -0.77685601299E+03  0.77685601301E+03  0.50400001928E-02 0. -1.
    10030    2    1    2    0    0  0.00000000000E+00  0.00000000000E+00 -0.31436305177E+03  0.12393489742E+04  0.11988168132E+04 0.  0.
        1    1    3    3  502    0  0.56425065176E+03  0.20040972225E+03 -0.12891512429E+03  0.61250466454E+03  0.50400001928E-02 0. -1.
       -1    1    3    3    0  502 -0.56425065176E+03 -0.20040972225E+03 -0.18544792749E+03  0.62684430971E+03  0.50400001928E-02 0.  1.
</event>
<event>
 5   0  0.5447807E-05  0.1199981E+04  0.7818609E-02  0.9112873E-01
       -1   -1    0    0    0  501  0.00000000000E+00  0.00000000000E+00  0.19580415692E+03  0.19580415698E+03  0.50400001928E-02 0. -1.
        1   -1    0    0  501    0  0.00000000000E+00  0.00000000000E+00 -0.18385127507E+04  0.18385127507E+04  0.50400001928E-02 0.  1.
    10030    2    1    2    0    0  0.00000000000E+00  0.00000000000E+00 -0.16427085937E+04  0.20343169076E+04  0.11999807318E+04 0.  0.
        2    1    3    3  502    0  0.50235493576E+03  0.27945648770E+03 -0.11126881686E+04  0.12524102245E+04  0.25500000920E-02 0.  1.
       -2    1    3    3    0  502 -0.50235493576E+03 -0.27945648770E+03 -0.53002042517E+03  0.78190668312E+03  0.25500000920E-02 0. -1.
</event>
<event>
 5   0  0.1023063E-04  0.1199883E+04  0.7818609E-02  0.9112959E-01
       -2   -1    0    0    0  501  0.00000000000E+00  0.00000000000E+00  0.72514045628E+03  0.72514045628E+03  0.25500000920E-02 0. -1.
        2   -1    0    0  501    0  0.00000000000E+00  0.00000000000E+00 -0.49635906753E+03  0.49635906753E+03  0.25500000920E-02 0.  1.
    10030    2    1    2    0    0  0.00000000000E+00  0.00000000000E+00  0.22878138875E+03  0.12214995238E+04  0.11998833955E+04 0.  0.
        3    1    3    3  502    0 -0.15123906966E+03 -0.50291003184E+03 -0.18090088212E+03  0.55544297247E+03  0.10100000352E+00 0.  1.
       -3    1    3    3    0  502  0.15123906966E+03  0.50291003184E+03  0.40968227087E+03  0.66605655134E+03  0.10100000352E+00 0. -1.
</event>
<event>
 5   0  0.5745487E-05  0.1200033E+04  0.7818609E-02  0.9112827E-01
        1   -1    0    0  501    0  0.00000000000E+00  0.00000000000E+00  0.13888443365E+04  0.13888443365E+04  0.50400001928E-02 0.  1.
       -1   -1    0    0    0  501  0.00000000000E+00  0.00000000000E+00 -0.25922275750E+03  0.25922275754E+03  0.50400001928E-02 0. -1.
    10030    2    1    2    0    0  0.00000000000E+00  0.00000000000E+00  0.11296215790E+04  0.16480670940E+04  0.12000334307E+04 0.  0.
        3    1    3    3  502    0  0.31618775406E+03  0.20415067621E+03  0.12065755947E+04  0.12639133160E+04  0.10100000352E+00 0.  1.
       -3    1    3    3    0  502 -0.31618775406E+03 -0.20415067621E+03 -0.76954015756E+02  0.38415377800E+03  0.10100000352E+00 0. -1.
</event>
<event>
 5   0  0.1012657E-04  0.1199848E+04  0.7818609E-02  0.9112989E-01
        2   -1    0    0  501    0  0.00000000000E+00  0.00000000000E+00  0.62937427323E+03  0.62937427323E+03  0.25500000920E-02 0.  1.
       -2   -1    0    0    0  501  0.00000000000E+00  0.00000000000E+00 -0.57185208424E+03  0.57185208424E+03  0.25500000920E-02 0. -1.
    10030    2    1    2    0    0  0.00000000000E+00  0.00000000000E+00  0.57522188988E+02  0.12012263575E+04  0.11998483069E+04 0.  0.
        1    1    3    3  502    0 -0.25477069343E+02  0.44243873084E+03 -0.37606439669E+03  0.58122761642E+03  0.50400001928E-02 0. -1.
       -1    1    3    3    0  502  0.25477069343E+02 -0.44243873084E+03  0.43358658567E+03  0.61999874106E+03  0.50400001928E-02 0.  1.
</event>
<event>
 5   0  0.5620246E-05  0.1200636E+04  0.7818609E-02  0.9112300E-01
       -1   -1    0    0    0  501  0.00000000000E+00  0.00000000000E+00  0.58593237376E+03  0.58593237378E+03  0.50400001928E-02 0. -1.
        1   -1    0    0  501    0  0.00000000000E+00  0.00000000000E+00 -0.61505634381E+03  0.61505634383E+03  0.50400001928E-02 0.  1.
    10030    2    1    2    0    0  0.00000000000E+00  0.00000000000E+00 -0.29123970056E+02  0.12009887176E+04  0.12006355376E+04 0.  0.
        1    1    3    3  502    0  0.55115457250E+03 -0.21353109629E+03 -0.11954299616E+03  0.60304014777E+03  0.50400001928E-02 0.  1.
       -1    1    3    3    0  502 -0.55115457250E+03  0.21353109629E+03  0.90419026104E+02  0.59794856984E+03  0.50400001928E-02 0. -1.
</event>
<event>
 5   0  0.9941209E-05  0.1202594E+04  0.7818609E-02  0.9110589E-01
       -2   -1    0    0    0  501  0.00000000000E+00  0.00000000000E+00  0.19717023302E+03  0.19717023303E+03  0.25500000920E-02 0. -1.
        2   -1    0    0  501    0  0.00000000000E+00  0.00000000000E+00 -0.18337344683E+04  0.18337344683E+04  0.25500000920E-02 0.  1.
    10030    2    1    2    0    0  0.00000000000E+00  0.00000000000E+00 -0.16365642353E+04  0.20309047013E+04  0.12025936178E+04 0.  0.
        2    1    3    3  502    0 -0.13850962977E+03  0.78987064697E+02 -0.17973816838E+04  0.18044402986E+04  0.25500000920E-02 0.  1.
       -2    1    3    3    0  502  0.13850962977E+03 -0.78987064697E+02  0.16081744855E+03  0.22646440271E+03  0.25500000920E-02 0. -1.
</event>
<event>
 5   0  0.5745487E-05  0.1199702E+04  0.7818609E-02  0.9113118E-01
        1   -1    0    0  501    0  0.00000000000E+00  0.00000000000E+00  0.23555150390E+03  0.23555150396E+03  0.50400001928E-02 0. -1.
       -1   -1    0    0    0  501  0.00000000000E+00  0.00000000000E+00 -0.15275681207E+04  0.15275681207E+04  0.50400001928E-02 0.  1.
    10030    2    1    2    0    0  0.00000000000E+00  0.00000000000E+00 -0.12920166168E+04  0.17631196247E+04  0.11997015766E+04 0.  0.
        3    1    3    3  502    0 -0.32692801610E+03  0.62279185058E+02  0.87425343082E+02  0.34409856933E+03  0.10100000352E+00 0. -1.
       -3    1    3    3    0  502  0.32692801610E+03 -0.62279185058E+02 -0.13794419599E+04  0.14190210553E+04  0.10100000352E+00 0.  1.
</event>
<event>
 5   0  0.9838215E-05  0.1200020E+04  0.7818609E-02  0.9112839E-01
        2   -1    0    0  501    0  0.00000000000E+00  0.00000000000E+00  0.39820902192E+03  0.39820902193E+03  0.25500000920E-02 0.  1.
       -2   -1    0    0    0  501  0.00000000000E+00  0.00000000000E+00 -0.90407845532E+03  0.90407845533E+03  0.25500000920E-02 0. -1.
    10030    2    1    2    0    0  0.00000000000E+00  0.00000000000E+00 -0.50586943341E+03  0.13022874773E+04  0.12000203289E+04 0.  0.
        4    1    3    3  502    0 -0.51328945647E+03  0.65235389367E+02 -0.58261494896E+03  0.77920697751E+03  0.12699999809E+01 0. -1.
       -4    1    3    3    0  502  0.51328945647E+03 -0.65235389367E+02  0.76745515555E+02  0.52308049974E+03  0.12699999809E+01 0.  1.
</event>
<event>
 5   0  0.1012657E-04  0.1200231E+04  0.7818609E-02  0.9112654E-01
        2   -1    0    0  501    0  0.00000000000E+00  0.00000000000E+00  0.80803168293E+03  0.80803168293E+03  0.25500000920E-02 0.  1.
       -2   -1    0    0    0  501  0.00000000000E+00  0.00000000000E+00 -0.44569855865E+03  0.44569855866E+03  0.25500000920E-02 0. -1.
    10030    2    1    2    0    0  0.00000000000E+00  0.00000000000E+00  0.36233312428E+03  0.12537302416E+04  0.12002309052E+04 0.  0.
        1    1    3    3  502    0  0.32793133739E+03 -0.35230542752E+03  0.55558555587E+03  0.73507372843E+03  0.50400001928E-02 0.  1.
       -1    1    3    3    0  502 -0.32793133739E+03  0.35230542752E+03 -0.19325243159E+03  0.51865651316E+03  0.50400001928E-02 0. -1.
</event>
<event>
 5   0  0.5745487E-05  0.1193054E+04  0.7818609E-02  0.9118958E-01
        1   -1    0    0  501    0  0.00000000000E+00  0.00000000000E+00  0.11072211082E+04  0.11072211082E+04  0.50400001928E-02 0. -1.
       -1   -1    0    0    0  501  0.00000000000E+00  0.00000000000E+00 -0.32138522175E+03  0.32138522179E+03  0.50400001928E-02 0.  1.
    10030    2    1    2    0    0  0.00000000000E+00  0.00000000000E+00  0.78583588646E+03  0.14286063300E+04  0.11930540665E+04 0.  0.
        3    1    3    3  502    0  0.47722590835E+03  0.33797861417E+03  0.25189277574E+03  0.63672921396E+03  0.10100000352E+00 0.  1.
       -3    1    3    3    0  502 -0.47722590835E+03 -0.33797861417E+03  0.53394311071E+03  0.79187711605E+03  0.10100000352E+00 0. -1.
</event>
<event>
 5   0  0.5625746E-05  0.1199762E+04  0.7818609E-02  0.9113064E-01
       -1   -1    0    0    0  501  0.00000000000E+00  0.00000000000E+00  0.33689922294E+03  0.33689922297E+03  0.50400001928E-02 0.  1.
        1   -1    0    0  501    0  0.00000000000E+00  0.00000000000E+00 -0.10681458456E+04  0.10681458456E+04  0.50400001928E-02 0. -1.
    10030    2    1    2    0    0  0.00000000000E+00  0.00000000000E+00 -0.73124662269E+03  0.14050450686E+04  0.11997624855E+04 0.  0.
        5    1    3    3  502    0  0.63103458403E+02 -0.10060372453E+03 -0.10542199987E+04  0.10608982286E+04  0.46999998093E+01 0. -1.
       -5    1    3    3    0  502 -0.63103458403E+02  0.10060372453E+03  0.32297337602E+03  0.34414683998E+03  0.46999998093E+01 0.  1.
</event>
<event>
 5   0  0.5745487E-05  0.1200687E+04  0.7818609E-02  0.9112255E-01
        1   -1    0    0  501    0  0.00000000000E+00  0.00000000000E+00  0.73966445325E+03  0.73966445327E+03  0.50400001928E-02 0. -1.
       -1   -1    0    0    0  501  0.00000000000E+00  0.00000000000E+00 -0.48726490199E+03  0.48726490201E+03  0.50400001928E-02 0.  1.
    10030    2    1    2    0    0  0.00000000000E+00  0.00000000000E+00  0.25239955127E+03  0.12269293553E+04  0.12006873487E+04 0.  0.
        3    1    3    3  502    0  0.33402817872E+03 -0.44472245243E+03 -0.10470263574E+03  0.56596425330E+03  0.10100000352E+00 0.  1.
       -3    1    3    3    0  502 -0.33402817872E+03  0.44472245243E+03  0.35710218701E+03  0.66096510199E+03  0.10100000352E+00 0. -1.
</event>
<event>
 5   0  0.5625746E-05  0.1199957E+04  0.7818609E-02  0.9112894E-01
        1   -1    0    0  501    0  0.00000000000E+00  0.00000000000E+00  0.72831772694E+03  0.72831772696E+03  0.50400001928E-02 0.  1.
       -1   -1    0    0    0  501  0.00000000000E+00  0.00000000000E+00 -0.49425404658E+03  0.49425404661E+03  0.50400001928E-02 0. -1.
    10030    2    1    2    0    0  0.00000000000E+00  0.00000000000E+00  0.23406368036E+03  0.12225717736E+04  0.11999566388E+04 0.  0.
        5    1    3    3  502    0 -0.44664639725E+02 -0.12693913600E+03  0.71272474029E+03  0.72533242015E+03  0.46999998093E+01 0.  1.
       -5    1    3    3    0  502  0.44664639725E+02  0.12693913600E+03 -0.47866105994E+03  0.49723935342E+03  0.46999998093E+01 0. -1.
</event>
<event>
 5   0  0.9941209E-05  0.1201038E+04  0.7818609E-02  0.9111948E-01
       -2   -1    0    0    0  501  0.00000000000E+00  0.00000000000E+00  0.41032872453E+03  0.41032872453E+03  0.25500000920E-02 0.  1.
        2   -1    0    0  501    0  0.00000000000E+00  0.00000000000E+00 -0.87886407084E+03  0.87886407085E+03  0.25500000920E-02 0. -1.
    10030    2    1    2    0    0  0.00000000000E+00  0.00000000000E+00 -0.46853534632E+03  0.12891927954E+04  0.12010381730E+04 0.  0.
        2    1    3    3  502    0 -0.44691693526E+03  0.16875068296E+03 -0.62486038014E+03  0.78655071972E+03  0.25500000920E-02 0. -1.
       -2    1    3    3    0  502  0.44691693526E+03 -0.16875068296E+03  0.15632503382E+03  0.50264207566E+03  0.25500000920E-02 0.  1.
</event>
<event>
 5   0  0.5745487E-05  0.1198607E+04  0.7818609E-02  0.9114077E-01
       -1   -1    0    0    0  501  0.00000000000E+00  0.00000000000E+00  0.10783348709E+04  0.10783348709E+04  0.50400001928E-02 0. -1.
        1   -1    0    0  501    0  0.00000000000E+00  0.00000000000E+00 -0.33307336545E+03  0.33307336549E+03  0.50400001928E-02 0.  1.
    10030    2    1    2    0    0  0.00000000000E+00  0.00000000000E+00  0.74526150548E+03  0.14114082364E+04  0.11986068990E+04 0.  0.
        3    1    3    3  502    0 -0.48828217817E+02 -0.60803433804E+02 -0.32707347976E+03  0.33624146648E+03  0.10100000352E+00 0.  1.
       -3    1    3    3    0  502  0.48828217817E+02  0.60803433804E+02  0.10723349852E+04  0.10751667699E+04  0.10100000352E+00 0. -1.
</event>
<event>
 5   0  0.1012657E-04  0.1200503E+04  0.7818609E-02  0.9112416E-01
        2   -1    0    0  501    0  0.00000000000E+00  0.00000000000E+00  0.10396995458E+04  0.10396995458E+04  0.25500000920E-02 0.  1.
       -2   -1    0    0    0  501  0.00000000000E+00  0.00000000000E+00 -0.34654448401E+03  0.34654448402E+03  0.25500000920E-02 0. -1.
    10030    2    1    2    0    0  0.00000000000E+00  0.00000000000E+00  0.69315506176E+03  0.13862440298E+04  0.12005034654E+04 0.  0.
        1    1    3    3  502    0 -0.20879381266E+03  0.35717807686E+03  0.84875561319E+03  0.94422302754E+03  0.50400001928E-02 0.  1.
       -1    1    3    3    0  502  0.20879381266E+03 -0.35717807686E+03 -0.15560055143E+03  0.44202100224E+03  0.50400001928E-02 0. -1.
</event>
<event>
 5   0  0.9838215E-05  0.1209319E+04  0.7818609E-02  0.9104739E-01
        2   -1    0    0  501    0  0.00000000000E+00  0.00000000000E+00  0.20219313315E+04  0.20219313315E+04  0.25500000920E-02 0.  1.
       -2   -1    0    0    0  501  0.00000000000E+00  0.00000000000E+00 -0.18082356721E+03  0.18082356723E+03  0.25500000920E-02 0. -1.
    10030    2    1    2    0    0  0.00000000000E+00  0.00000000000E+00  0.18411077643E+04  0.22027548987E+04  0.12093185454E+04 0.  0.
        4    1    3    3  502    0  0.36217326027E+03  0.11267959701E+03  0.17782875168E+04  0.18182888294E+04  0.12699999809E+01 0.  1.
       -4    1    3    3    0  502 -0.36217326027E+03 -0.11267959701E+03  0.62820247511E+02  0.38446606929E+03  0.12699999809E+01 0. -1.
</event>
<event>
 5   0  0.5745487E-05  0.1200036E+04  0.7818609E-02  0.9112825E-01
       -1   -1    0    0    0  501  0.00000000000E+00  0.00000000000E+00  0.43149838113E+03  0.43149838116E+03  0.50400001928E-02 0.  1.
        1   -1    0    0  501    0  0.00000000000E+00  0.00000000000E+00 -0.83435203365E+03  0.83435203367E+03  0.50400001928E-02 0. -1.
    10030    2    1    2    0    0  0.00000000000E+00  0.00000000000E+00 -0.40285365252E+03  0.12658504148E+04  0.12000359192E+04 0.  0.
        3    1    3    3  502    0 -0.19384674486E+03 -0.47354409180E+03  0.12912993223E+03  0.52772636562E+03  0.10100000352E+00 0.  1.
       -3    1    3    3    0  502  0.19384674486E+03  0.47354409180E+03 -0.53198358475E+03  0.73812404921E+03  0.10100000352E+00 0. -1.
</event>
<event>
 5   0  0.1023063E-04  0.1200595E+04  0.7818609E-02  0.9112336E-01
       -2   -1    0    0    0  501  0.00000000000E+00  0.00000000000E+00  0.32882984494E+03  0.32882984495E+03  0.25500000920E-02 0.  1.
        2   -1    0    0  501    0  0.00000000000E+00  0.00000000000E+00 -0.10958771267E+04  0.10958771267E+04  0.25500000920E-02 0. -1.
    10030    2    1    2    0    0  0.00000000000E+00  0.00000000000E+00 -0.76704728176E+03  0.14247069717E+04  0.12005950286E+04 0.  0.
        3    1    3    3  502    0  0.55127251161E+03  0.23164398862E+03 -0.44628001539E+03  0.74614085926E+03  0.10100000352E+00 0. -1.
       -3    1    3    3    0  502 -0.55127251161E+03 -0.23164398862E+03 -0.32076726637E+03  0.67856611240E+03  0.10100000352E+00 0.  1.
</event>
<event>
 5   0  0.1023063E-04  0.1199885E+04  0.7818609E-02  0.9112958E-01
        2   -1    0    0  501    0  0.00000000000E+00  0.00000000000E+00  0.13098210838E+04  0.13098210838E+04  0.25500000920E-02 0. -1.
       -2   -1    0    0    0  501  0.00000000000E+00  0.00000000000E+00 -0.27479380075E+03  0.27479380076E+03  0.25500000920E-02 0.  1.
    10030    2    1    2    0    0  0.00000000000E+00  0.00000000000E+00  0.10350272830E+04  0.15846148845E+04  0.11998845176E+04 0.  0.
        3    1    3    3  502    0 -0.58860097002E+02  0.48392588541E+03  0.97932586513E+03  0.10939506085E+04  0.10100000352E+00 0. -1.
       -3    1    3    3    0  502  0.58860097002E+02 -0.48392588541E+03  0.55701417880E+02  0.49066427600E+03  0.10100000352E+00 0.  1.
</event>
<event>
 5   0  0.5447807E-05  0.1199580E+04  0.7818609E-02  0.9113224E-01
        1   -1    0    0  501    0  0.00000000000E+00  0.00000000000E+00  0.14301247304E+04  0.14301247304E+04  0.50400001928E-02 0.  1.
       -1   -1    0    0    0  501  0.00000000000E+00  0.00000000000E+00 -0.25155030076E+03  0.25155030081E+03  0.50400001928E-02 0. -1.
    10030    2    1    2    0    0  0.00000000000E+00  0.00000000000E+00  0.11785744296E+04  0.16816750312E+04  0.11995804368E+04 0.  0.
        2    1    3    3  502    0  0.47358538538E+03  0.33710851619E+03  0.38219188865E+03  0.69569814481E+03  0.25500000920E-02 0. -1.
       -2    1    3    3    0  502 -0.47358538538E+03 -0.33710851619E+03  0.79638254098E+03  0.98597688640E+03  0.25500000920E-02 0.  1.
</event>
<event>
 5   0  0.5625746E-05  0.1200438E+04  0.7818609E-02  0.9112473E-01
       -1   -1    0    0    0  501  0.00000000000E+00  0.00000000000E+00  0.15568790957E+03  0.15568790965E+03  0.50400001928E-02 0.  1.
        1   -1    0    0  501    0  0.00000000000E+00  0.00000000000E+00 -0.23140068630E+04  0.23140068630E+04  0.50400001928E-02 0. -1.
    10030    2    1    2    0    0  0.00000000000E+00  0.00000000000E+00 -0.21583189534E+04  0.24696947726E+04  0.12004380723E+04 0.  0.
        5    1    3    3  502    0 -0.33784472889E+03 -0.21409287465E+02 -0.59497894717E+02  0.34374337506E+03  0.46999998093E+01 0.  1.
       -5    1    3    3    0  502  0.33784472889E+03  0.21409287465E+02 -0.20988210587E+04  0.21259513976E+04  0.46999998093E+01 0. -1.
</event>
<event>
 5   0  0.5620246E-05  0.1200057E+04  0.7818609E-02  0.9112806E-01
        1   -1    0    0  501    0  0.00000000000E+00  0.00000000000E+00  0.75985442141E+03  0.75985442142E+03  0.50400001928E-02 0.  1.
       -1   -1    0    0    0  501  0.00000000000E+00  0.00000000000E+00 -0.47382022906E+03  0.47382022909E+03  0.50400001928E-02 0. -1.
    10030    2    1    2    0    0  0.00000000000E+00  0.00000000000E+00  0.28603419234E+03  0.12336746505E+04  0.12000573254E+04 0.  0.
        1    1    3    3  502    0 -0.19947844555E+03  0.29641907151E+03  0.63857750416E+03  0.73173570709E+03  0.50400001928E-02 0.  1.
       -1    1    3    3    0  502  0.19947844555E+03 -0.29641907151E+03 -0.35254331181E+03  0.50193894342E+03  0.50400001928E-02 0. -1.
</event>
<event>
 5   0  0.1004006E-04  0.1200154E+04  0.7818609E-02  0.9112722E-01
        2   -1    0    0  501    0  0.00000000000E+00  0.00000000000E+00  0.17642840539E+03  0.17642840541E+03  0.25500000920E-02 0.  1.
       -2   -1    0    0    0  501  0.00000000000E+00  0.00000000000E+00 -0.20410123793E+04  0.20410123793E+04  0.25500000920E-02 0. -1.
    10030    2    1    2    0    0  0.00000000000E+00  0.00000000000E+00 -0.18645839739E+04  0.22174407847E+04  0.12001542559E+04 0.  0.
        5    1    3    3  502    0 -0.26301552474E+03  0.24344112907E+03 -0.43066089151E+02  0.36099519056E+03  0.46999998093E+01 0.  1.
       -5    1    3    3    0  502  0.26301552474E+03 -0.24344112907E+03 -0.18215178847E+04  0.18564455941E+04  0.46999998093E+01 0. -1.
</event>
<event>
 5   0  0.1023063E-04  0.1199951E+04  0.7818609E-02  0.9112899E-01
       -2   -1    0    0    0  501  0.00000000000E+00  0.00000000000E+00  0.47107926634E+03  0.47107926634E+03  0.25500000920E-02 0.  1.
        2   -1    0    0  501    0  0.00000000000E+00  0.00000000000E+00 -0.76414049309E+03  0.76414049310E+03  0.25500000920E-02 0. -1.
    10030    2    1    2    0    0  0.00000000000E+00  0.00000000000E+00 -0.29306122676E+03  0.12352197594E+04  0.11999512371E+04 0.  0.
        3    1    3    3  502    0  0.36972511209E+03  0.45104100672E+03 -0.15504427901E+01  0.58321270762E+03  0.10100000352E+00 0.  1.
       -3    1    3    3    0  502 -0.36972511209E+03 -0.45104100672E+03 -0.29151078397E+03  0.65200705182E+03  0.10100000352E+00 0. -1.
</event>
<event>
 5   0  0.9838215E-05  0.1199410E+04  0.7818609E-02  0.9113373E-01
        2   -1    0    0  501    0  0.00000000000E+00  0.00000000000E+00  0.57090873593E+03  0.57090873594E+03  0.25500000920E-02 0.  1.
       -2   -1    0    0    0  501  0.00000000000E+00  0.00000000000E+00 -0.62995364363E+03  0.62995364363E+03  0.25500000920E-02 0. -1.
    10030    2    1    2    0    0  0.00000000000E+00  0.00000000000E+00 -0.59044907697E+02  0.12008623796E+04  0.11994099189E+04 0.  0.
        4    1    3    3  502    0 -0.16692883320E+02  0.58556710751E+03 -0.15804041507E+03  0.60675025789E+03  0.12699999809E+01 0. -1.
       -4    1    3    3    0  502  0.16692883320E+02 -0.58556710751E+03  0.98995507373E+02  0.59411212168E+03  0.12699999809E+01 0.  1.
</event>
<event>
 5   0  0.1023063E-04  0.1201040E+04  0.7818609E-02  0.9111947E-01
       -2   -1    0    0    0  501  0.00000000000E+00  0.00000000000E+00  0.21428921618E+03  0.21428921620E+03  0.25500000920E-02 0. -1.
        2   -1    0    0  501    0  0.00000000000E+00  0.00000000000E+00 -0.16828860265E+04  0.16828860265E+04  0.25500000920E-02 0.  1.
    10030    2    1    2    0    0  0.00000000000E+00  0.00000000000E+00 -0.14685968103E+04  0.18971752427E+04  0.12010400952E+04 0.  0.
        3    1    3    3  502    0 -0.35789408211E+03 -0.33153054638E+03 -0.18115588403E+03  0.52040190402E+03  0.10100000352E+00 0. -1.
       -3    1    3    3    0  502  0.35789408211E+03  0.33153054638E+03 -0.12874409263E+04  0.13767733387E+04  0.10100000352E+00 0.  1.
</event>
<event>
 5   0  0.5625746E-05  0.1200323E+04  0.7818609E-02  0.9112574E-01
        1   -1    0    0  501    0  0.00000000000E+00  0.00000000000E+00  0.95931617244E+03  0.95931617246E+03  0.50400001928E-02 0. -1.
       -1   -1    0    0    0  501  0.00000000000E+00  0.00000000000E+00 -0.37546948724E+03  0.37546948727E+03  0.50400001928E-02 0.  1.
    10030    2    1    2    0    0  0.00000000000E+00  0.00000000000E+00  0.58384668521E+03  0.13347856597E+04  0.12003232088E+04 0.  0.
        5    1    3    3  502    0  0.42303401327E+03 -0.29975863432E+03 -0.44192227972E+02  0.52037299915E+03  0.46999998093E+01 0.  1.
       -5    1    3    3    0  502 -0.42303401327E+03  0.29975863432E+03  0.62803891318E+03  0.81441266057E+03  0.46999998093E+01 0. -1.
</event>
<event>
 5   0  0.5732931E-05  0.1200163E+04  0.7818609E-02  0.9112714E-01
       -1   -1    0    0    0  501  0.00000000000E+00  0.00000000000E+00  0.38790300096E+03  0.38790300099E+03  0.50400001928E-02 0.  1.
        1   -1    0    0  501    0  0.00000000000E+00  0.00000000000E+00 -0.92831868445E+03  0.92831868446E+03  0.50400001928E-02 0. -1.
    10030    2    1    2    0    0  0.00000000000E+00  0.00000000000E+00 -0.54041568348E+03  0.13162216855E+04  0.12001626616E+04 0.  0.
        4    1    3    3  502    0  0.49933566453E+03 -0.25432147250E+03 -0.50563003246E+03  0.75477073331E+03  0.12699999809E+01 0. -1.
       -4    1    3    3    0  502 -0.49933566453E+03  0.25432147250E+03 -0.34785651029E+02  0.56145095214E+03  0.12699999809E+01 0.  1.
</event>
<event>
 5   0  0.5625746E-05  0.1200036E+04  0.7818609E-02  0.9112825E-01
        1   -1    0    0  501    0  0.00000000000E+00  0.00000000000E+00  0.17543003627E+04  0.17543003627E+04  0.50400001928E-02 0.  1.
       -1   -1    0    0    0  501  0.00000000000E+00  0.00000000000E+00 -0.20522242774E+03  0.20522242780E+03  0.50400001928E-02 0. -1.
    10030    2    1    2    0    0  0.00000000000E+00  0.00000000000E+00  0.15490779349E+04  0.19595227905E+04  0.12000362986E+04 0.  0.
        5    1    3    3  502    0  0.14732390058E+03 -0.42668490132E+03  0.12911425134E+03  0.46952839807E+03  0.46999998093E+01 0. -1.
       -5    1    3    3    0  502 -0.14732390058E+03  0.42668490132E+03  0.14199636836E+04  0.14899943924E+04  0.46999998093E+01 0.  1.
</event>
<event>
 5   0  0.5732931E-05  0.1199736E+04  0.7818609E-02  0.9113088E-01
       -1   -1    0    0    0  501  0.00000000000E+00  0.00000000000E+00  0.34332913727E+03  0.34332913730E+03  0.50400001928E-02 0.  1.
        1   -1    0    0  501    0  0.00000000000E+00  0.00000000000E+00 -0.10480945297E+04  0.10480945297E+04  0.50400001928E-02 0. -1.
    10030    2    1    2    0    0  0.00000000000E+00  0.00000000000E+00 -0.70476539241E+03  0.13914236670E+04  0.11997356220E+04 0.  0.
        4    1    3    3  502    0  0.59223548705E+03  0.16044855025E+02 -0.24334242996E+03  0.64048220944E+03  0.12699999809E+01 0.  1.
       -4    1    3    3    0  502 -0.59223548705E+03 -0.16044855025E+02 -0.46142296245E+03  0.75094145755E+03  0.12699999809E+01 0. -1.
</event>
<event>
 5   0  0.1023063E-04  0.1199056E+04  0.7818609E-02  0.9113684E-01
       -2   -1    0    0    0  501  0.00000000000E+00  0.00000000000E+00  0.64995884479E+03  0.64995884480E+03  0.25500000920E-02 0. -1.
        2   -1    0    0  501    0  0.00000000000E+00  0.00000000000E+00 -0.55300966655E+03  0.55300966655E+03  0.25500000920E-02 0.  1.
    10030    2    1    2    0    0  0.00000000000E+00  0.00000000000E+00  0.96949178248E+02  0.12029685114E+04  0.11990555017E+04 0.  0.
        3    1    3    3  502    0  0.39140694168E+03  0.38054255415E+03  0.29711695362E+03  0.62152274603E+03  0.10100000352E+00 0. -1.
       -3    1    3    3    0  502 -0.39140694168E+03 -0.38054255415E+03 -0.20016777537E+03  0.58144576532E+03  0.10100000352E+00 0.  1.
</event>
<event>
 5   0  0.5745487E-05  0.1199754E+04  0.7818609E-02  0.9113072E-01
       -1   -1    0    0    0  501  0.00000000000E+00  0.00000000000E+00  0.30216120155E+03  0.30216120159E+03  0.50400001928E-02 0.  1.
        1   -1    0    0  501    0  0.00000000000E+00  0.00000000000E+00 -0.11909283633E+04  0.11909283633E+04  0.50400001928E-02 0. -1.
    10030    2    1    2    0    0  0.00000000000E+00  0.00000000000E+00 -0.88876716174E+03  0.14930895649E+04  0.11997538835E+04 0.  0.
        3    1    3    3  502    0  0.30479983907E+02  0.26731634757E+03  0.22286305352E+03  0.34936372153E+03  0.10100000352E+00 0.  1.
       -3    1    3    3    0  502 -0.30479983907E+02 -0.26731634757E+03 -0.11116302153E+04  0.11437258434E+04  0.10100000352E+00 0. -1.
</event>
<event>
 5   0  0.1004006E-04  0.1190540E+04  0.7818609E-02  0.9121178E-01
        2   -1    0    0  501    0  0.00000000000E+00  0.00000000000E+00  0.11964673138E+04  0.11964673138E+04  0.25500000920E-02 0.  1.
       -2   -1    0    0    0  501  0.00000000000E+00  0.00000000000E+00 -0.29616028337E+03  0.29616028339E+03  0.25500000920E-02 0. -1.
    10030    2    1    2    0    0  0.00000000000E+00  0.00000000000E+00  0.90030703046E+03  0.14926275972E+04  0.11905395394E+04 0.  0.
        5    1    3    3  502    0  0.22856489049E+03 -0.21688765613E+02  0.11386975715E+04  0.11616223831E+04  0.46999998093E+01 0.  1.
       -5    1    3    3    0  502 -0.22856489049E+03  0.21688765613E+02 -0.23839054101E+03  0.33100521410E+03  0.46999998093E+01 0. -1.
</event>
<event>
 5   0  0.1023063E-04  0.1198419E+04  0.7818609E-02  0.9114241E-01
        2   -1    0    0  501    0  0.00000000000E+00  0.00000000000E+00  0.13899311804E+04  0.13899311804E+04  0.25500000920E-02 0.  1.
       -2   -1    0    0    0  501  0.00000000000E+00  0.00000000000E+00 -0.25832361341E+03  0.25832361342E+03  0.25500000920E-02 0. -1.
    10030    2    1    2    0    0  0.00000000000E+00  0.00000000000E+00  0.11316075670E+04  0.16482547939E+04  0.11984190335E+04 0.  0.
        3    1    3    3  502    0  0.10458513400E+03 -0.56135455613E+03  0.31597640900E+03  0.65260867998E+03  0.10100000352E+00 0. -1.
       -3    1    3    3    0  502 -0.10458513400E+03  0.56135455613E+03  0.81563115803E+03  0.99564611389E+03  0.10100000352E+00 0.  1.
</event>
<event>
 5   0  0.5745487E-05  0.1194397E+04  0.7818609E-02  0.9117775E-01
        1   -1    0    0  501    0  0.00000000000E+00  0.00000000000E+00  0.98472952678E+03  0.98472952680E+03  0.50400001928E-02 0.  1.
       -1   -1    0    0    0  501  0.00000000000E+00  0.00000000000E+00 -0.36217675862E+03  0.36217675866E+03  0.50400001928E-02 0. -1.
    10030    2    1    2    0    0  0.00000000000E+00  0.00000000000E+00  0.62255276816E+03  0.13469062855E+04  0.11943971670E+04 0.  0.
        3    1    3    3  502    0 -0.53127233022E+02 -0.49380513266E+03 -0.62701328957E+02  0.50059712223E+03  0.10100000352E+00 0. -1.
       -3    1    3    3    0  502  0.53127233022E+02  0.49380513266E+03  0.68525409712E+03  0.84630916322E+03  0.10100000352E+00 0.  1.
</event>
<event>
 5   0  0.9838215E-05  0.1197484E+04  0.7818609E-02  0.9115062E-01
        2   -1    0    0  501    0  0.00000000000E+00  0.00000000000E+00  0.11717364568E+04  0.11717364568E+04  0.25500000920E-02 0.  1.
       -2   -1    0    0    0  501  0.00000000000E+00  0.00000000000E+00 -0.30594929065E+03  0.30594929066E+03  0.25500000920E-02 0. -1.
    10030    2    1    2    0    0  0.00000000000E+00  0.00000000000E+00  0.86578716615E+03  0.14776857475E+04  0.11974839252E+04 0.  0.
        4    1    3    3  502    0 -0.21398347676E+03 -0.55480076468E+03  0.51925106542E+03  0.78944037055E+03  0.12699999809E+01 0. -1.
       -4    1    3    3    0  502  0.21398347676E+03  0.55480076468E+03  0.34653610073E+03  0.68824537690E+03  0.12699999809E+01 0.  1.
</event>
<event>
 5   0  0.3839750E-05  0.1198931E+04  0.7818609E-02  0.9113792E-01
        4   -1    0    0  501    0  0.00000000000E+00  0.00000000000E+00  0.32607321039E+03  0.32607568360E+03  0.12699999809E+01 0. -1.
       -4   -1    0    0    0  501  0.00000000000E+00  0.00000000000E+00 -0.11020739406E+04  0.11020746723E+04  0.12699999809E+01 0.  1.
    10030    2    1    2    0    0  0.00000000000E+00  0.00000000000E+00 -0.77600073018E+03  0.14281503559E+04  0.11989313183E+04 0.  0.
        2    1    3    3  502    0 -0.56527487607E+03 -0.91961931116E+02 -0.17703462890E+03  0.59944469480E+03  0.25500000920E-02 0. -1.
       -2    1    3    3    0  502  0.56527487607E+03  0.91961931116E+02 -0.59896610128E+03  0.82870566112E+03  0.25500000920E-02 0.  1.
</event>
<event>
 5   0  0.5447807E-05  0.1199813E+04  0.7818609E-02  0.9113020E-01
       -1   -1    0    0    0  501  0.00000000000E+00  0.00000000000E+00  0.41839766650E+03  0.41839766653E+03  0.50400001928E-02 0.  1.
        1   -1    0    0  501    0  0.00000000000E+00  0.00000000000E+00 -0.86015765442E+03  0.86015765443E+03  0.50400001928E-02 0. -1.
    10030    2    1    2    0    0  0.00000000000E+00  0.00000000000E+00 -0.44175998791E+03  0.12785553210E+04  0.11998132446E+04 0.  0.
        2    1    3    3  502    0 -0.48076615669E+03 -0.15943605695E+03 -0.56342945899E+03  0.75763362448E+03  0.25500000920E-02 0. -1.
       -2    1    3    3    0  502  0.48076615669E+03  0.15943605695E+03  0.12166947107E+03  0.52092169649E+03  0.25500000920E-02 0.  1.
</event>
<event>
 5   0  0.5732931E-05  0.1202678E+04  0.7818609E-02  0.9110516E-01
       -1   -1    0    0    0  501  0.00000000000E+00  0.00000000000E+00  0.30641938689E+03  0.30641938693E+03  0.50400001928E-02 0. -1.
        1   -1    0    0  501    0  0.00000000000E+00  0.00000000000E+00 -0.11801091838E+04  0.11801091838E+04  0.50400001928E-02 0.  1.
    10030    2    1    2    0    0  0.00000000000E+00  0.00000000000E+00 -0.87368979694E+03  0.14865285708E+04  0.12026775671E+04 0.  0.
        4    1    3    3  502    0 -0.37233689920E+03 -0.46918329697E+03 -0.50270247654E+03  0.78197130733E+03  0.12699999809E+01 0. -1.
       -4    1    3    3    0  502  0.37233689920E+03  0.46918329697E+03 -0.37098732039E+03  0.70455726343E+03  0.12699999809E+01 0.  1.
</event>
<event>
 5   0  0.5745487E-05  0.1199952E+04  0.7818609E-02  0.9112898E-01
       -1   -1    0    0    0  501  0.00000000000E+00  0.00000000000E+00  0.12024441203E+03  0.12024441213E+03  0.50400001928E-02 0. -1.
        1   -1    0    0  501    0  0.00000000000E+00  0.00000000000E+00 -0.29936645791E+04  0.29936645791E+04  0.50400001928E-02 0.  1.
    10030    2    1    2    0    0  0.00000000000E+00  0.00000000000E+00 -0.28734201671E+04  0.31139089913E+04  0.11999523945E+04 0.  0.
        3    1    3    3  502    0  0.21694086169E+03 -0.13923709290E+03 -0.30786947141E+02  0.25961154024E+03  0.10100000352E+00 0. -1.
       -3    1    3    3    0  502 -0.21694086169E+03  0.13923709290E+03 -0.28426332200E+04  0.28542974510E+04  0.10100000352E+00 0.  1.
</event>
<event>
 5   0  0.5625746E-05  0.1200488E+04  0.7818609E-02  0.9112430E-01
        1   -1    0    0  501    0  0.00000000000E+00  0.00000000000E+00  0.74938288785E+03  0.74938288787E+03  0.50400001928E-02 0. -1.
       -1   -1    0    0    0  501  0.00000000000E+00  0.00000000000E+00 -0.48078599163E+03  0.48078599165E+03  0.50400001928E-02 0.  1.
    10030    2    1    2    0    0  0.00000000000E+00  0.00000000000E+00  0.26859689622E+03  0.12301688795E+04  0.12004878923E+04 0.  0.
        5    1    3    3  502    0  0.38817778870E+03  0.21427422910E+03 -0.28027212976E+03  0.52456648541E+03  0.46999998093E+01 0.  1.
       -5    1    3    3    0  502 -0.38817778870E+03 -0.21427422910E+03  0.54886902598E+03  0.70560239411E+03  0.46999998093E+01 0. -1.
</event>
<event>
 5   0  0.1023063E-04  0.1200468E+04  0.7818609E-02  0.9112447E-01
        2   -1    0    0  501    0  0.00000000000E+00  0.00000000000E+00  0.64197347696E+03  0.64197347696E+03  0.25500000920E-02 0. -1.
       -2   -1    0    0    0  501  0.00000000000E+00  0.00000000000E+00 -0.56120838772E+03  0.56120838773E+03  0.25500000920E-02 0.  1.
    10030    2    1    2    0    0  0.00000000000E+00  0.00000000000E+00  0.80765089236E+02  0.12031818647E+04  0.12004680753E+04 0.  0.
        3    1    3    3  502    0  0.46408286409E+03 -0.27536898145E+02 -0.34014626279E+03  0.57604745967E+03  0.10100000352E+00 0.  1.
       -3    1    3    3    0  502 -0.46408286409E+03  0.27536898145E+02  0.42091135202E+03  0.62713440502E+03  0.10100000352E+00 0. -1.
</event>
<event>
 5   0  0.5620246E-05  0.1199944E+04  0.7818609E-02  0.9112905E-01
       -1   -1    0    0    0  501  0.00000000000E+00  0.00000000000E+00  0.26025073148E+03  0.26025073153E+03  0.50400001928E-02 0.  1.
        1   -1    0    0  501    0  0.00000000000E+00  0.00000000000E+00 -0.13831529432E+04  0.13831529432E+04  0.50400001928E-02 0. -1.
    10030    2    1    2    0    0  0.00000000000E+00  0.00000000000E+00 -0.11229022117E+04  0.16434036748E+04  0.11999442741E+04 0.  0.
        1    1    3    3  502    0 -0.18200884733E+03  0.45383564375E+02 -0.13419595369E+04  0.13550063790E+04  0.50400001928E-02 0. -1.
       -1    1    3    3    0  502  0.18200884733E+03 -0.45383564375E+02  0.21905732521E+03  0.28839729571E+03  0.50400001928E-02 0.  1.
</event>
<event>
 5   0  0.1012657E-04  0.1200042E+04  0.7818609E-02  0.9112820E-01
       -2   -1    0    0    0  501  0.00000000000E+00  0.00000000000E+00  0.34942689992E+03  0.34942689992E+03  0.25500000920E-02 0. -1.
        2   -1    0    0  501    0  0.00000000000E+00  0.00000000000E+00 -0.10303303420E+04  0.10303303420E+04  0.25500000920E-02 0.  1.
    10030    2    1    2    0    0  0.00000000000E+00  0.00000000000E+00 -0.68090344210E+03  0.13797572419E+04  0.12000418948E+04 0.  0.
        1    1    3    3  502    0  0.45623904641E+03  0.12410554963E+03 -0.76519165153E+03  0.89948569667E+03  0.50400001928E-02 0.  1.
       -1    1    3    3    0  502 -0.45623904641E+03 -0.12410554963E+03  0.84288209437E+02  0.48027154527E+03  0.50400001928E-02 0. -1.
</event>
<event>
 5   0  0.5745487E-05  0.1199522E+04  0.7818609E-02  0.9113275E-01
       -1   -1    0    0    0  501  0.00000000000E+00  0.00000000000E+00  0.34742895861E+03  0.34742895865E+03  0.50400001928E-02 0. -1.
        1   -1    0    0  501    0  0.00000000000E+00  0.00000000000E+00 -0.10353584057E+04  0.10353584057E+04  0.50400001928E-02 0.  1.
    10030    2    1    2    0    0  0.00000000000E+00  0.00000000000E+00 -0.68792944707E+03  0.13827873643E+04  0.11995223928E+04 0.  0.
        3    1    3    3  502    0 -0.14670789645E+03 -0.53607472613E+03 -0.84104723947E+02  0.56211469797E+03  0.10100000352E+00 0. -1.
       -3    1    3    3    0  502  0.14670789645E+03  0.53607472613E+03 -0.60382472312E+03  0.82067266637E+03  0.10100000352E+00 0.  1.
</event>
<event>
 5   0  0.5447807E-05  0.1199450E+04  0.7818609E-02  0.9113338E-01
       -1   -1    0    0    0  501  0.00000000000E+00  0.00000000000E+00  0.38025166172E+03  0.38025166175E+03  0.50400001928E-02 0.  1.
        1   -1    0    0  501    0  0.00000000000E+00  0.00000000000E+00 -0.94587406979E+03  0.94587406981E+03  0.50400001928E-02 0. -1.
    10030    2    1    2    0    0  0.00000000000E+00  0.00000000000E+00 -0.56562240808E+03  0.13261257316E+04  0.11994501855E+04 0.  0.
        2    1    3    3  502    0 -0.46132360330E+03 -0.31746599133E+02 -0.70503731983E+03  0.84315178698E+03  0.25500000920E-02 0. -1.
       -2    1    3    3    0  502  0.46132360330E+03  0.31746599133E+02  0.13941491176E+03  0.48297394458E+03  0.25500000920E-02 0.  1.
</event>
<event>
 5   0  0.5625746E-05  0.1200144E+04  0.7818609E-02  0.9112730E-01
       -1   -1    0    0    0  501  0.00000000000E+00  0.00000000000E+00  0.12276079433E+04  0.12276079434E+04  0.50400001928E-02 0. -1.
        1   -1    0    0  501    0  0.00000000000E+00  0.00000000000E+00 -0.29332363741E+03  0.29332363746E+03  0.50400001928E-02 0.  1.
    10030    2    1    2    0    0  0.00000000000E+00  0.00000000000E+00  0.93428430594E+03  0.15209315808E+04  0.12001440369E+04 0.  0.
        5    1    3    3  502    0 -0.52574962180E+03  0.87253192988E+02  0.11768556888E+03  0.54580011692E+03  0.46999998093E+01 0.  1.
       -5    1    3    3    0  502  0.52574962180E+03 -0.87253192988E+02  0.81659873705E+03  0.97513146389E+03  0.46999998093E+01 0. -1.
</event>
<event>
 5   0  0.1004006E-04  0.1201206E+04  0.7818609E-02  0.9111801E-01
       -2   -1    0    0    0  501  0.00000000000E+00  0.00000000000E+00  0.27349758791E+03  0.27349758793E+03  0.25500000920E-02 0.  1.
        2   -1    0    0  501    0  0.00000000000E+00  0.00000000000E+00 -0.13189297957E+04  0.13189297957E+04  0.25500000920E-02 0. -1.
    10030    2    1    2    0    0  0.00000000000E+00  0.00000000000E+00 -0.10454322078E+04  0.15924273836E+04  0.12012062567E+04 0.  0.
        5    1    3    3  502    0 -0.25814642113E+03  0.78953156609E+02 -0.12339447074E+04  0.12631368915E+04  0.46999998093E+01 0. -1.
       -5    1    3    3    0  502  0.25814642113E+03 -0.78953156609E+02  0.18851249965E+03  0.32929049212E+03  0.46999998093E+01 0.  1.
</event>
<event>
 5   0  0.1004006E-04  0.1199888E+04  0.7818609E-02  0.9112954E-01
       -2   -1    0    0    0  501  0.00000000000E+00  0.00000000000E+00  0.40358822433E+03  0.40358822434E+03  0.25500000920E-02 0. -1.
        2   -1    0    0  501    0  0.00000000000E+00  0.00000000000E+00 -0.89183222805E+03  0.89183222805E+03  0.25500000920E-02 0.  1.
    10030    2    1    2    0    0  0.00000000000E+00  0.00000000000E+00 -0.48824400372E+03  0.12954204524E+04  0.11998883037E+04 0.  0.
        5    1    3    3  502    0 -0.41502166674E+03 -0.33465904223E+03 -0.54110757040E+03  0.75964409505E+03  0.46999998093E+01 0.  1.
       -5    1    3    3    0  502  0.41502166674E+03  0.33465904223E+03  0.52863566684E+02  0.53577635734E+03  0.46999998093E+01 0. -1.
</event>
<event>
 5   0  0.1004006E-04  0.1200183E+04  0.7818609E-02  0.9112696E-01
        2   -1    0    0  501    0  0.00000000000E+00  0.00000000000E+00  0.21278770924E+04  0.21278770924E+04  0.25500000920E-02 0.  1.
       -2   -1    0    0    0  501  0.00000000000E+00  0.00000000000E+00 -0.16923442967E+03  0.16923442969E+03  0.25500000920E-02 0. -1.
    10030    2    1    2    0    0  0.00000000000E+00  0.00000000000E+00  0.19586426628E+04  0.22971115221E+04  0.12001834296E+04 0.  0.
        5    1    3    3  502    0  0.41740596235E+03  0.83520868480E+00  0.15418276877E+03  0.44499758557E+03  0.46999998093E+01 0. -1.
       -5    1    3    3    0  502 -0.41740596235E+03 -0.83520868480E+00  0.18044598940E+04  0.18521139366E+04  0.46999998093E+01 0.  1.
</event>
<event>
 5   0  0.5732931E-05  0.1199988E+04  0.7818609E-02  0.9112867E-01
       -1   -1    0    0    0  501  0.00000000000E+00  0.00000000000E+00  0.58119179300E+03  0.58119179302E+03  0.50400001928E-02 0. -1.
        1   -1    0    0  501    0  0.00000000000E+00  0.00000000000E+00 -0.61940409926E+03  0.61940409928E+03  0.50400001928E-02 0.  1.
    10030    2    1    2    0    0  0.00000000000E+00  0.00000000000E+00 -0.38212306266E+02  0.12005958923E+04  0.11999876317E+04 0.  0.
        4    1    3    3  502    0  0.11254645391E+02 -0.15142549589E+03 -0.59986107720E+03  0.61878208821E+03  0.12699999809E+01 0.  1.
       -4    1    3    3    0  502 -0.11254645391E+02  0.15142549589E+03  0.56164877093E+03  0.58181380410E+03  0.12699999809E+01 0. -1.
</event>
<event>
 5   0  0.9941209E-05  0.1199482E+04  0.7818609E-02  0.9113310E-01
        2   -1    0    0  501    0  0.00000000000E+00  0.00000000000E+00  0.16291118879E+03  0.16291118881E+03  0.25500000920E-02 0.  1.
       -2   -1    0    0    0  501  0.00000000000E+00  0.00000000000E+00 -0.22078850138E+04  0.22078850138E+04  0.25500000920E-02 0. -1.
    10030    2    1    2    0    0  0.00000000000E+00  0.00000000000E+00 -0.20449738250E+04  0.23707962026E+04  0.11994818420E+04 0.  0.
        2    1    3    3  502    0 -0.51534700606E+03  0.36742096122E+02 -0.42051936037E+03  0.66615992880E+03  0.25500000920E-02 0.  1.
       -2    1    3    3    0  502  0.51534700606E+03 -0.36742096122E+02 -0.16244544647E+04  0.17046362738E+04  0.25500000920E-02 0. -1.
</event>
<event>
 5   0  0.1023063E-04  0.1200399E+04  0.7818609E-02  0.9112507E-01
        2   -1    0    0  501    0  0.00000000000E+00  0.00000000000E+00  0.10643059001E+04  0.10643059001E+04  0.25500000920E-02 0. -1.
       -2   -1    0    0    0  501  0.00000000000E+00  0.00000000000E+00 -0.33847364961E+03  0.33847364962E+03  0.25500000920E-02 0.  1.
    10030    2    1    2    0    0  0.00000000000E+00  0.00000000000E+00  0.72583225045E+03  0.14027795497E+04  0.12003991041E+04 0.  0.
        3    1    3    3  502    0 -0.46113372389E+03  0.71164686851E+02 -0.78266170384E+02  0.47311132685E+03  0.10100000352E+00 0. -1.
       -3    1    3    3    0  502  0.46113372389E+03 -0.71164686851E+02  0.80409842084E+03  0.92966822284E+03  0.10100000352E+00 0.  1.
</event>
<event>
 5   0  0.5620246E-05  0.1199513E+04  0.7818609E-02  0.9113283E-01
        1   -1    0    0  501    0  0.00000000000E+00  0.00000000000E+00  0.14106065504E+04  0.14106065504E+04  0.50400001928E-02 0. -1.
       -1   -1    0    0    0  501  0.00000000000E+00  0.00000000000E+00 -0.25500231702E+03  0.25500231707E+03  0.50400001928E-02 0.  1.
    10030    2    1    2    0    0  0.00000000000E+00  0.00000000000E+00  0.11556042334E+04  0.16656088675E+04  0.11995131326E+04 0.  0.
        1    1    3    3  502    0  0.83658994028E+02  0.15553396499E+03 -0.21807826356E+03  0.28062033179E+03  0.50400001928E-02 0.  1.
       -1    1    3    3    0  502 -0.83658994028E+02 -0.15553396499E+03  0.13736824969E+04  0.13849885357E+04  0.50400001928E-02 0. -1.
</event>
<event>
 5   0  0.1023063E-04  0.1199914E+04  0.7818609E-02  0.9112932E-01
       -2   -1    0    0    0  501  0.00000000000E+00  0.00000000000E+00  0.67066243436E+03  0.67066243436E+03  0.25500000920E-02 0. -1.
        2   -1    0    0  501    0  0.00000000000E+00  0.00000000000E+00 -0.53670584529E+03  0.53670584529E+03  0.25500000920E-02 0.  1.
    10030    2    1    2    0    0  0.00000000000E+00  0.00000000000E+00  0.13395658907E+03  0.12073682797E+04  0.11999140782E+04 0.  0.
        3    1    3    3  502    0  0.16826250853E+03  0.49854281133E+01  0.64641270341E+03  0.66797194522E+03  0.10100000352E+00 0. -1.
       -3    1    3    3    0  502 -0.16826250853E+03 -0.49854281133E+01 -0.51245611434E+03  0.53939633443E+03  0.10100000352E+00 0.  1.
</event>
<event>
 5   0  0.5732931E-05  0.1199143E+04  0.7818609E-02  0.9113607E-01
       -1   -1    0    0    0  501  0.00000000000E+00  0.00000000000E+00  0.42302909392E+03  0.42302909395E+03  0.50400001928E-02 0.  1.
        1   -1    0    0  501    0  0.00000000000E+00  0.00000000000E+00 -0.84979050536E+03  0.84979050537E+03  0.50400001928E-02 0. -1.
    10030    2    1    2    0    0  0.00000000000E+00  0.00000000000E+00 -0.42676141144E+03  0.12728195993E+04  0.11991432067E+04 0.  0.
        4    1    3    3  502    0  0.79305005860E+01  0.23360367084E+03 -0.79943730743E+03  0.83290767152E+03  0.12699999809E+01 0. -1.
       -4    1    3    3    0  502 -0.79305005860E+01 -0.23360367084E+03  0.37267589599E+03  0.43991192780E+03  0.12699999809E+01 0.  1.
</event>
<event>
 5   0  0.1004006E-04  0.1199736E+04  0.7818609E-02  0.9113088E-01
        2   -1    0    0  501    0  0.00000000000E+00  0.00000000000E+00  0.16174710894E+04  0.16174710894E+04  0.25500000920E-02 0.  1.
       -2   -1    0    0    0  501  0.00000000000E+00  0.00000000000E+00 -0.22247173446E+03  0.22247173447E+03  0.25500000920E-02 0. -1.
    10030    2    1    2    0    0  0.00000000000E+00  0.00000000000E+00  0.13949993550E+04  0.18399428239E+04  0.11997359688E+04 0.  0.
        5    1    3    3  502    0  0.39139833831E+03 -0.86968937195E+02  0.13817487179E+04  0.14387521901E+04  0.46999998093E+01 0.  1.
       -5    1    3    3    0  502 -0.39139833831E+03  0.86968937195E+02  0.13250637132E+02  0.40119063380E+03  0.46999998093E+01 0. -1.
</event>
<event>
 5   0  0.5745487E-05  0.1198505E+04  0.7818609E-02  0.9114166E-01
        1   -1    0    0  501    0  0.00000000000E+00  0.00000000000E+00  0.96014461259E+03  0.96014461261E+03  0.50400001928E-02 0. -1.
       -1   -1    0    0    0  501  0.00000000000E+00  0.00000000000E+00 -0.37400980415E+03  0.37400980419E+03  0.50400001928E-02 0.  1.
    10030    2    1    2    0    0  0.00000000000E+00  0.00000000000E+00  0.58613480844E+03  0.13341544168E+04  0.11985048995E+04 0.  0.
        3    1    3    3  502    0 -0.38756575828E+03 -0.23690497046E+03  0.72816692206E+03  0.85822972368E+03  0.10100000352E+00 0. -1.
       -3    1    3    3    0  502  0.38756575828E+03  0.23690497046E+03 -0.14203211362E+03  0.47592469312E+03  0.10100000352E+00 0.  1.
</event>
<event>
 5   0  0.9941209E-05  0.1201301E+04  0.7818609E-02  0.9111719E-01
       -2   -1    0    0    0  501  0.00000000000E+00  0.00000000000E+00  0.43178999172E+03  0.43178999173E+03  0.25500000920E-02 0. -1.
        2   -1    0    0  501    0  0.00000000000E+00  0.00000000000E+00 -0.83554739909E+03  0.83554739910E+03  0.25500000920E-02 0.  1.
    10030    2    1    2    0    0  0.00000000000E+00  0.00000000000E+00 -0.40375740738E+03  0.12673373908E+04  0.12013009690E+04 0.  0.
        2    1    3    3  502    0 -0.38783730415E+03 -0.21376974723E+03 -0.62997554798E+03  0.77005484894E+03  0.25500000920E-02 0.  1.
       -2    1    3    3    0  502  0.38783730415E+03  0.21376974723E+03  0.22621814061E+03  0.49728254188E+03  0.25500000920E-02 0. -1.
</event>
<event>
 5   0  0.5625746E-05  0.1200911E+04  0.7818609E-02  0.9112060E-01
       -1   -1    0    0    0  501  0.00000000000E+00  0.00000000000E+00  0.23926523259E+03  0.23926523264E+03  0.50400001928E-02 0. -1.
        1   -1    0    0  501    0  0.00000000000E+00  0.00000000000E+00 -0.15068915769E+04  0.15068915769E+04  0.50400001928E-02 0.  1.
    10030    2    1    2    0    0  0.00000000000E+00  0.00000000000E+00 -0.12676263443E+04  0.17461568096E+04  0.12009109271E+04 0.  0.
        5    1    3    3  502    0  0.13737328038E+03 -0.55212415920E+03 -0.35483633566E+03  0.67055456187E+03  0.46999998093E+01 0. -1.
       -5    1    3    3    0  502 -0.13737328038E+03  0.55212415920E+03 -0.91279000867E+03  0.10756022477E+04  0.46999998093E+01 0.  1.
</event>
<event>
 5   0  0.5447807E-05  0.1199859E+04  0.7818609E-02  0.9112980E-01
        1   -1    0    0  501    0  0.00000000000E+00  0.00000000000E+00  0.55012178320E+03  0.55012178322E+03  0.50400001928E-02 0.  1.
       -1   -1    0    0    0  501  0.00000000000E+00  0.00000000000E+00 -0.65424722358E+03  0.65424722360E+03  0.50400001928E-02 0. -1.
    10030    2    1    2    0    0  0.00000000000E+00  0.00000000000E+00 -0.10412544038E+03  0.12043690068E+04  0.11998594073E+04 0.  0.
        2    1    3    3  502    0  0.36722813018E+03  0.20877558891E+02 -0.52778839372E+03  0.64331404509E+03  0.25500000920E-02 0. -1.
       -2    1    3    3    0  502 -0.36722813018E+03 -0.20877558891E+02  0.42366295333E+03  0.56105496174E+03  0.25500000920E-02 0.  1.
</event>
<event>
 5   0  0.5625746E-05  0.1200019E+04  0.7818609E-02  0.9112840E-01
       -1   -1    0    0    0  501  0.00000000000E+00  0.00000000000E+00  0.21562156617E+03  0.21562156622E+03  0.50400001928E-02 0.  1.
        1   -1    0    0  501    0  0.00000000000E+00  0.00000000000E+00 -0.16696456452E+04  0.16696456452E+04  0.50400001928E-02 0. -1.
    10030    2    1    2    0    0  0.00000000000E+00  0.00000000000E+00 -0.14540240790E+04  0.18852672114E+04  0.12000193482E+04 0.  0.
        5    1    3    3  502    0 -0.25425540677E+03 -0.31820032977E+03 -0.34880290387E+02  0.40882268332E+03  0.46999998093E+01 0.  1.
       -5    1    3    3    0  502  0.25425540677E+03  0.31820032977E+03 -0.14191437887E+04  0.14764445281E+04  0.46999998093E+01 0. -1.
</event>
<event>
 5   0  0.1004006E-04  0.1199850E+04  0.7818609E-02  0.9112988E-01
       -2   -1    0    0    0  501  0.00000000000E+00  0.00000000000E+00  0.54229307003E+03  0.54229307004E+03  0.25500000920E-02 0. -1.
        2   -1    0    0  501    0  0.00000000000E+00  0.00000000000E+00 -0.66368136916E+03  0.66368136916E+03  0.25500000920E-02 0.  1.
    10030    2    1    2    0    0  0.00000000000E+00  0.00000000000E+00 -0.12138829913E+03  0.12059744392E+04  0.11998496693E+04 0.  0.
        5    1    3    3  502    0 -0.20131703475E+03  0.56429651853E+03 -0.91322771321E+02  0.60607016745E+03  0.46999998093E+01 0. -1.
       -5    1    3    3    0  502  0.20131703475E+03 -0.56429651853E+03 -0.30065527806E+02  0.59990427175E+03  0.46999998093E+01 0.  1.
</event>
<event>
 5   0  0.5625746E-05  0.1198638E+04  0.7818609E-02  0.9114050E-01
        1   -1    0    0  501    0  0.00000000000E+00  0.00000000000E+00  0.60421924170E+03  0.60421924172E+03  0.50400001928E-02 0.  1.
       -1   -1    0    0    0  501  0.00000000000E+00  0.00000000000E+00 -0.59445838380E+03  0.59445838383E+03  0.50400001928E-02 0. -1.
    10030    2    1    2    0    0  0.00000000000E+00  0.00000000000E+00  0.97608578936E+01  0.11986776255E+04  0.11986378834E+04 0.  0.
        5    1    3    3  502    0 -0.21980961561E+03 -0.30614099197E+03 -0.46109910700E+03  0.59554433131E+03  0.46999998093E+01 0. -1.
       -5    1    3    3    0  502  0.21980961561E+03  0.30614099197E+03  0.47085996489E+03  0.60313329424E+03  0.46999998093E+01 0.  1.
</event>
<event>
 5   0  0.1012657E-04  0.1200239E+04  0.7818609E-02  0.9112648E-01
       -2   -1    0    0    0  501  0.00000000000E+00  0.00000000000E+00  0.25613225122E+03  0.25613225123E+03  0.25500000920E-02 0. -1.
        2   -1    0    0  501    0  0.00000000000E+00  0.00000000000E+00 -0.14060826503E+04  0.14060826503E+04  0.25500000920E-02 0.  1.
    10030    2    1    2    0    0  0.00000000000E+00  0.00000000000E+00 -0.11499503991E+04  0.16622149016E+04  0.12002385007E+04 0.  0.
        1    1    3    3  502    0 -0.51844496459E+03  0.11691410011E+03 -0.96098600100E+03  0.10981567203E+04  0.50400001928E-02 0.  1.
       -1    1    3    3    0  502  0.51844496459E+03 -0.11691410011E+03 -0.18896439812E+03  0.56405818130E+03  0.50400001928E-02 0. -1.
</event>
<event>
 5   0  0.1004006E-04  0.1200386E+04  0.7818609E-02  0.9112519E-01
        2   -1    0    0  501    0  0.00000000000E+00  0.00000000000E+00  0.49272947024E+03  0.49272947025E+03  0.25500000920E-02 0.  1.
       -2   -1    0    0    0  501  0.00000000000E+00  0.00000000000E+00 -0.73109383195E+03  0.73109383196E+03  0.25500000920E-02 0. -1.
    10030    2    1    2    0    0  0.00000000000E+00  0.00000000000E+00 -0.23836436171E+03  0.12238233022E+04  0.12003857322E+04 0.  0.
        5    1    3    3  502    0  0.17094744320E+02  0.25098972802E+03 -0.67472633157E+03  0.72011512022E+03  0.46999998093E+01 0. -1.
       -5    1    3    3    0  502 -0.17094744320E+02 -0.25098972802E+03  0.43636196986E+03  0.50370818198E+03  0.46999998093E+01 0.  1.
</event>
<event>
 5   0  0.1004006E-04  0.1199752E+04  0.7818609E-02  0.9113073E-01
        2   -1    0    0  501    0  0.00000000000E+00  0.00000000000E+00  0.51661212695E+03  0.51661212696E+03  0.25500000920E-02 0.  1.
       -2   -1    0    0    0  501  0.00000000000E+00  0.00000000000E+00 -0.69656003078E+03  0.69656003079E+03  0.25500000920E-02 0. -1.
    10030    2    1    2    0    0  0.00000000000E+00  0.00000000000E+00 -0.17994790383E+03  0.12131721577E+04  0.11997522395E+04 0.  0.
        5    1    3    3  502    0 -0.51353818358E+03 -0.27757683875E+03  0.49624242134E+02  0.58587969995E+03  0.46999998093E+01 0.  1.
       -5    1    3    3    0  502  0.51353818358E+03  0.27757683875E+03 -0.22957214596E+03  0.62729245780E+03  0.46999998093E+01 0. -1.
</event>
<event>
 5   0  0.5625746E-05  0.1200117E+04  0.7818609E-02  0.9112754E-01
        1   -1    0    0  501    0  0.00000000000E+00  0.00000000000E+00  0.18760663626E+04  0.18760663626E+04  0.50400001928E-02 0. -1.
       -1   -1    0    0    0  501  0.00000000000E+00  0.00000000000E+00 -0.19192823141E+03  0.19192823147E+03  0.50400001928E-02 0.  1.
    10030    2    1    2    0    0  0.00000000000E+00  0.00000000000E+00  0.16841381312E+04  0.20679945941E+04  0.12001168261E+04 0.  0.
        5    1    3    3  502    0 -0.22589048751E+03 -0.30745959720E+03  0.16401179465E+04  0.16839141560E+04  0.46999998093E+01 0. -1.
       -5    1    3    3    0  502  0.22589048751E+03  0.30745959720E+03  0.44020184662E+02  0.38408043808E+03  0.46999998093E+01 0.  1.
</event>
<event>
 5   0  0.5625746E-05  0.1199749E+04  0.7818609E-02  0.9113077E-01
       -1   -1    0    0    0  501  0.00000000000E+00  0.00000000000E+00  0.28939665600E+03  0.28939665604E+03  0.50400001928E-02 0.  1.
        1   -1    0    0  501    0  0.00000000000E+00  0.00000000000E+00 -0.12434462117E+04  0.12434462117E+04  0.50400001928E-02 0. -1.
    10030    2    1    2    0    0  0.00000000000E+00  0.00000000000E+00 -0.95404955566E+03  0.15328428677E+04  0.11997485997E+04 0.  0.
        5    1    3    3  502    0 -0.15389677254E+02 -0.58663469658E+03 -0.31821717387E+03  0.66757873628E+03  0.46999998093E+01 0.  1.
       -5    1    3    3    0  502  0.15389677254E+02  0.58663469658E+03 -0.63583238179E+03  0.86526413142E+03  0.46999998093E+01 0. -1.
</event>
<event>
 5   0  0.1004006E-04  0.1199500E+04  0.7818609E-02  0.9113294E-01
        2   -1    0    0  501    0  0.00000000000E+00  0.00000000000E+00  0.19019255260E+04  0.19019255260E+04  0.25500000920E-02 0.  1.
       -2   -1    0    0    0  501  0.00000000000E+00  0.00000000000E+00 -0.18912412582E+03  0.18912412584E+03  0.25500000920E-02 0. -1.
    10030    2    1    2    0    0  0.00000000000E+00  0.00000000000E+00  0.17128014002E+04  0.20910496518E+04  0.11994999000E+04 0.  0.
        5    1    3    3  502    0 -0.20721823750E+03  0.40456525554E+03  0.17437185641E+03  0.48686761881E+03  0.46999998093E+01 0. -1.
       -5    1    3    3    0  502  0.20721823750E+03 -0.40456525554E+03  0.15384295437E+04  0.16041820330E+04  0.46999998093E+01 0.  1.
</event>
<event>
 5   0  0.5447807E-05  0.1201144E+04  0.7818609E-02  0.9111855E-01
        1   -1    0    0  501    0  0.00000000000E+00  0.00000000000E+00  0.82548858714E+03  0.82548858715E+03  0.50400001928E-02 0.  1.
       -1   -1    0    0    0  501  0.00000000000E+00  0.00000000000E+00 -0.43693750538E+03  0.43693750541E+03  0.50400001928E-02 0. -1.
    10030    2    1    2    0    0  0.00000000000E+00  0.00000000000E+00  0.38855108175E+03  0.12624260926E+04  0.12011443277E+04 0.  0.
        2    1    3    3  502    0 -0.49664840925E+03 -0.20168829548E+03 -0.90372501171E+02  0.54360371588E+03  0.25500000920E-02 0.  1.
       -2    1    3    3    0  502  0.49664840925E+03  0.20168829548E+03  0.47892358293E+03  0.71882237669E+03  0.25500000920E-02 0. -1.
</event>
<event>
 5   0  0.1012657E-04  0.1200416E+04  0.7818609E-02  0.9112492E-01
        2   -1    0    0  501    0  0.00000000000E+00  0.00000000000E+00  0.49276755093E+03  0.49276755093E+03  0.25500000920E-02 0. -1.
       -2   -1    0    0    0  501  0.00000000000E+00  0.00000000000E+00 -0.73107443152E+03  0.73107443153E+03  0.25500000920E-02 0.  1.
    10030    2    1    2    0    0  0.00000000000E+00  0.00000000000E+00 -0.23830688060E+03  0.12238419825E+04  0.12004161898E+04 0.  0.
        1    1    3    3  502    0 -0.60471364111E+02  0.45520623823E+03  0.27488636594E+03  0.53519344110E+03  0.50400001928E-02 0.  1.
       -1    1    3    3    0  502  0.60471364111E+02 -0.45520623823E+03 -0.51319324654E+03  0.68864854136E+03  0.50400001928E-02 0. -1.
</event>
<event>
 5   0  0.5625746E-05  0.1199943E+04  0.7818609E-02  0.9112906E-01
        1   -1    0    0  501    0  0.00000000000E+00  0.00000000000E+00  0.46389898456E+03  0.46389898459E+03  0.50400001928E-02 0.  1.
       -1   -1    0    0    0  501  0.00000000000E+00  0.00000000000E+00 -0.77595765717E+03  0.77595765719E+03  0.50400001928E-02 0. -1.
    10030    2    1    2    0    0  0.00000000000E+00  0.00000000000E+00 -0.31205867261E+03  0.12398566418E+04  0.11999432807E+04 0.  0.
        5    1    3    3  502    0  0.31823672948E+03 -0.50806817511E+03 -0.17995093467E+03  0.62594913167E+03  0.46999998093E+01 0.  1.
       -5    1    3    3    0  502 -0.31823672948E+03  0.50806817511E+03 -0.13210773794E+03  0.61390751011E+03  0.46999998093E+01 0. -1.
</event>
<event>
 5   0  0.5620246E-05  0.1200111E+04  0.7818609E-02  0.9112759E-01
       -1   -1    0    0    0  501  0.00000000000E+00  0.00000000000E+00  0.63430574457E+03  0.63430574459E+03  0.50400001928E-02 0. -1.
        1   -1    0    0  501    0  0.00000000000E+00  0.00000000000E+00 -0.56765506744E+03  0.56765506746E+03  0.50400001928E-02 0.  1.
    10030    2    1    2    0    0  0.00000000000E+00  0.00000000000E+00  0.66650677129E+02  0.12019608120E+04  0.12001114452E+04 0.  0.
        1    1    3    3  502    0 -0.24811413517E+03 -0.17351146460E+03 -0.48554638143E+03  0.57220812732E+03  0.50400001928E-02 0.  1.
       -1    1    3    3    0  502  0.24811413517E+03  0.17351146460E+03  0.55219705856E+03  0.62975268473E+03  0.50400001928E-02 0. -1.
</event>
<event>
 5   0  0.5620246E-05  0.1205601E+04  0.7818609E-02  0.9107968E-01
        1   -1    0    0  501    0  0.00000000000E+00  0.00000000000E+00  0.96895138558E+03  0.96895138559E+03  0.50400001928E-02 0.  1.
       -1   -1    0    0    0  501  0.00000000000E+00  0.00000000000E+00 -0.37501212160E+03  0.37501212163E+03  0.50400001928E-02 0. -1.
    10030    2    1    2    0    0  0.00000000000E+00  0.00000000000E+00  0.59393926398E+03  0.13439635072E+04  0.12056011195E+04 0.  0.
        1    1    3    3  502    0  0.54127798007E+03 -0.26269479497E+03  0.33835296184E+03  0.69027033387E+03  0.50400001928E-02 0.  1.
       -1    1    3    3    0  502 -0.54127798007E+03  0.26269479497E+03  0.25558630214E+03  0.65369317335E+03  0.50400001928E-02 0. -1.
</event>
<event>
 5   0  0.5732931E-05  0.1199971E+04  0.7818609E-02  0.9112882E-01
        1   -1    0    0  501    0  0.00000000000E+00  0.00000000000E+00  0.43561184141E+03  0.43561184144E+03  0.50400001928E-02 0.  1.
       -1   -1    0    0    0  501  0.00000000000E+00  0.00000000000E+00 -0.82638342367E+03  0.82638342369E+03  0.50400001928E-02 0. -1.
    10030    2    1    2    0    0  0.00000000000E+00  0.00000000000E+00 -0.39077158227E+03  0.12619952651E+04  0.11999706745E+04 0.  0.
        4    1    3    3  502    0  0.29023080948E+03  0.39637795572E+03 -0.55761785809E+03  0.74316128473E+03  0.12699999809E+01 0. -1.
       -4    1    3    3    0  502 -0.29023080948E+03 -0.39637795572E+03  0.16684627583E+03  0.51883398040E+03  0.12699999809E+01 0.  1.
</event>
<event>
 5   0  0.9838215E-05  0.1201298E+04  0.7818609E-02  0.9111721E-01
       -2   -1    0    0    0  501  0.00000000000E+00  0.00000000000E+00  0.54183049828E+03  0.54183049829E+03  0.25500000920E-02 0.  1.
        2   -1    0    0  501    0  0.00000000000E+00  0.00000000000E+00 -0.66585234804E+03  0.66585234805E+03  0.25500000920E-02 0. -1.
    10030    2    1    2    0    0  0.00000000000E+00  0.00000000000E+00 -0.12402184976E+03  0.12076828463E+04  0.12012978141E+04 0.  0.
        4    1    3    3  502    0  0.25849925977E+03  0.28691113246E+03 -0.52449699561E+03  0.65133599358E+03  0.12699999809E+01 0. -1.
       -4    1    3    3    0  502 -0.25849925977E+03 -0.28691113246E+03  0.40047514585E+03  0.55634685276E+03  0.12699999809E+01 0.  1.
</event>
<event>
 5   0  0.1023063E-04  0.1200369E+04  0.7818609E-02  0.9112534E-01
       -2   -1    0    0    0  501  0.00000000000E+00  0.00000000000E+00  0.75278417053E+03  0.75278417053E+03  0.25500000920E-02 0. -1.
        2   -1    0    0  501    0  0.00000000000E+00  0.00000000000E+00 -0.47851884530E+03  0.47851884531E+03  0.25500000920E-02 0.  1.
    10030    2    1    2    0    0  0.00000000000E+00  0.00000000000E+00  0.27426532523E+03  0.12313030158E+04  0.12003689634E+04 0.  0.
        3    1    3    3  502    0 -0.30367840703E+03  0.18601653128E+03 -0.35843091593E+03  0.50526770776E+03  0.10100000352E+00 0.  1.
       -3    1    3    3    0  502  0.30367840703E+03 -0.18601653128E+03  0.63269624116E+03  0.72603530808E+03  0.10100000352E+00 0. -1.
</event>
<event>
 5   0  0.5732931E-05  0.1199954E+04  0.7818609E-02  0.9112896E-01
        1   -1    0    0  501    0  0.00000000000E+00  0.00000000000E+00  0.77314544907E+03  0.77314544908E+03  0.50400001928E-02 0.  1.
       -1   -1    0    0    0  501  0.00000000000E+00  0.00000000000E+00 -0.46559505606E+03  0.46559505609E+03  0.50400001928E-02 0. -1.
    10030    2    1    2    0    0  0.00000000000E+00  0.00000000000E+00  0.30755039301E+03  0.12387405052E+04  0.11999544970E+04 0.  0.
        4    1    3    3  502    0  0.19523758168E+03 -0.17424274781E+03 -0.40357672771E+03  0.48099276140E+03  0.12699999809E+01 0. -1.
       -4    1    3    3    0  502 -0.19523758168E+03  0.17424274781E+03  0.71112712072E+03  0.75774774377E+03  0.12699999809E+01 0.  1.
</event>
<event>
 5   0  0.1004006E-04  0.1199469E+04  0.7818609E-02  0.9113322E-01
        2   -1    0    0  501    0  0.00000000000E+00  0.00000000000E+00  0.88492832599E+03  0.88492832599E+03  0.25500000920E-02 0. -1.
       -2   -1    0    0    0  501  0.00000000000E+00  0.00000000000E+00 -0.40645242591E+03  0.40645242592E+03  0.25500000920E-02 0.  1.
    10030    2    1    2    0    0  0.00000000000E+00  0.00000000000E+00  0.47847590008E+03  0.12913807519E+04  0.11994686571E+04 0.  0.
        5    1    3    3  502    0 -0.39957525737E+03 -0.21258750676E+02 -0.24169867074E+03  0.46749615851E+03  0.46999998093E+01 0.  1.
       -5    1    3    3    0  502  0.39957525737E+03  0.21258750676E+02  0.72017457082E+03  0.82388459340E+03  0.46999998093E+01 0. -1.
</event>
<event>
 5   0  0.1023063E-04  0.1200398E+04  0.7818609E-02  0.9112508E-01
       -2   -1    0    0    0  501  0.00000000000E+00  0.00000000000E+00  0.26441505387E+03  0.26441505388E+03  0.25500000920E-02 0. -1.
        2   -1    0    0  501    0  0.00000000000E+00  0.00000000000E+00 -0.13623995371E+04  0.13623995371E+04  0.25500000920E-02 0.  1.
    10030    2    1    2    0    0  0.00000000000E+00  0.00000000000E+00 -0.10979844833E+04  0.16268145910E+04  0.12003981790E+04 0.  0.
        3    1    3    3  502    0  0.26018603442E+03 -0.32141611300E+03 -0.11385306978E+04  0.12113039463E+04  0.10100000352E+00 0.  1.
       -3    1    3    3    0  502 -0.26018603442E+03  0.32141611300E+03  0.40546214525E+02  0.41551064476E+03  0.10100000352E+00 0. -1.
</event>
<event>
 5   0  0.9838215E-05  0.1200457E+04  0.7818609E-02  0.9112457E-01
       -2   -1    0    0    0  501  0.00000000000E+00  0.00000000000E+00  0.44154281985E+03  0.44154281985E+03  0.25500000920E-02 0. -1.
        2   -1    0    0  501    0  0.00000000000E+00  0.00000000000E+00 -0.81594369621E+03  0.81594369621E+03  0.25500000920E-02 0.  1.
    10030    2    1    2    0    0  0.00000000000E+00  0.00000000000E+00 -0.37440087636E+03  0.12574865161E+04  0.12004567139E+04 0.  0.
        4    1    3    3  502    0 -0.17466877156E+03  0.51012507433E+03  0.89023133181E+02  0.54650114580E+03  0.12699999809E+01 0. -1.
       -4    1    3    3    0  502  0.17466877156E+03 -0.51012507433E+03 -0.46342400954E+03  0.71098537027E+03  0.12699999809E+01 0.  1.
</event>
<event>
 5   0  0.9941209E-05  0.1200234E+04  0.7818609E-02  0.9112652E-01
        2   -1    0    0  501    0  0.00000000000E+00  0.00000000000E+00  0.14552532687E+04  0.14552532687E+04  0.25500000920E-02 0. -1.
       -2   -1    0    0    0  501  0.00000000000E+00  0.00000000000E+00 -0.24747613996E+03  0.24747613997E+03  0.25500000920E-02 0.  1.
    10030    2    1    2    0    0  0.00000000000E+00  0.00000000000E+00  0.12077771287E+04  0.17027294086E+04  0.12002340798E+04 0.  0.
        2    1    3    3  502    0  0.57418618286E+03 -0.13862023372E+03  0.75426110478E+03  0.95802669899E+03  0.25500000920E-02 0. -1.
       -2    1    3    3    0  502 -0.57418618286E+03  0.13862023372E+03  0.45351602392E+03  0.74470270964E+03  0.25500000920E-02 0.  1.
</event>
<event>
 5   0  0.9941209E-05  0.1200206E+04  0.7818609E-02  0.9112676E-01
       -2   -1    0    0    0  501  0.00000000000E+00  0.00000000000E+00  0.69760431810E+03  0.69760431810E+03  0.25500000920E-02 0.  1.
        2   -1    0    0  501    0  0.00000000000E+00  0.00000000000E+00 -0.51622915054E+03  0.51622915055E+03  0.25500000920E-02 0. -1.
    10030    2    1    2    0    0  0.00000000000E+00  0.00000000000E+00  0.18137516756E+03  0.12138334686E+04  0.12002061232E+04 0.  0.
        2    1    3    3  502    0  0.59417291255E+03 -0.76261803980E+02  0.12667775259E+03  0.61229450901E+03  0.25500000920E-02 0.  1.
       -2    1    3    3    0  502 -0.59417291255E+03  0.76261803980E+02  0.54697414967E+02  0.60153895964E+03  0.25500000920E-02 0. -1.
</event>
<event>
 5   0  0.9941209E-05  0.1200042E+04  0.7818609E-02  0.9112820E-01
       -2   -1    0    0    0  501  0.00000000000E+00  0.00000000000E+00  0.18639374901E+03  0.18639374902E+03  0.25500000920E-02 0.  1.
        2   -1    0    0  501    0  0.00000000000E+00  0.00000000000E+00 -0.19315301515E+04  0.19315301515E+04  0.25500000920E-02 0. -1.
    10030    2    1    2    0    0  0.00000000000E+00  0.00000000000E+00 -0.17451364025E+04  0.21179239005E+04  0.12000419097E+04 0.  0.
        2    1    3    3  502    0 -0.26729348790E+03 -0.26259022290E+03 -0.16996634568E+04  0.17404755959E+04  0.25500000920E-02 0. -1.
       -2    1    3    3    0  502  0.26729348790E+03  0.26259022290E+03 -0.45472945746E+02  0.37744830459E+03  0.25500000920E-02 0.  1.
</event>
<event>
 5   0  0.1023063E-04  0.1199208E+04  0.7818609E-02  0.9113550E-01
        2   -1    0    0  501    0  0.00000000000E+00  0.00000000000E+00  0.28298660918E+03  0.28298660919E+03  0.25500000920E-02 0. -1.
       -2   -1    0    0    0  501  0.00000000000E+00  0.00000000000E+00 -0.12704652844E+04  0.12704652844E+04  0.25500000920E-02 0.  1.
    10030    2    1    2    0    0  0.00000000000E+00  0.00000000000E+00 -0.98747867524E+03  0.15534518936E+04  0.11992075099E+04 0.  0.
        3    1    3    3  502    0  0.52238473187E+03 -0.17357933637E+03 -0.80167678507E+03  0.97247173328E+03  0.10100000352E+00 0.  1.
       -3    1    3    3    0  502 -0.52238473187E+03  0.17357933637E+03 -0.18580189017E+03  0.58098016033E+03  0.10100000352E+00 0. -1.
</event>
<event>
 5   0  0.9838215E-05  0.1200988E+04  0.7818609E-02  0.9111992E-01
        2   -1    0    0  501    0  0.00000000000E+00  0.00000000000E+00  0.39285203512E+03  0.39285203513E+03  0.25500000920E-02 0. -1.
       -2   -1    0    0    0  501  0.00000000000E+00  0.00000000000E+00 -0.91788513776E+03  0.91788513776E+03  0.25500000920E-02 0.  1.
    10030    2    1    2    0    0  0.00000000000E+00  0.00000000000E+00 -0.52503310264E+03  0.13107371729E+04  0.12009880006E+04 0.  0.
        4    1    3    3  502    0 -0.17418745499E+03 -0.47238007190E+03  0.94662797609E+02  0.51229567630E+03  0.12699999809E+01 0. -1.
       -4    1    3    3    0  502  0.17418745499E+03  0.47238007190E+03 -0.61969590025E+03  0.79844149660E+03  0.12699999809E+01 0.  1.
</event>
<event>
 5   0  0.1012657E-04  0.1200265E+04  0.7818609E-02  0.9112625E-01
        2   -1    0    0  501    0  0.00000000000E+00  0.00000000000E+00  0.20628008862E+04  0.20628008862E+04  0.25500000920E-02 0.  1.
       -2   -1    0    0    0  501  0.00000000000E+00  0.00000000000E+00 -0.17459696176E+03  0.17459696178E+03  0.25500000920E-02 0. -1.
    10030    2    1    2    0    0  0.00000000000E+00  0.00000000000E+00  0.18882039244E+04  0.22373978480E+04  0.12002645833E+04 0.  0.
        1    1    3    3  502    0  0.59532816161E+03  0.74045344263E+02  0.97418456623E+03  0.11440864924E+04  0.50400001928E-02 0.  1.
       -1    1    3    3    0  502 -0.59532816161E+03 -0.74045344263E+02  0.91401935821E+03  0.10933113556E+04  0.50400001928E-02 0. -1.
</event>
<event>
 5   0  0.5620246E-05  0.1199295E+04  0.7818609E-02  0.9113474E-01
       -1   -1    0    0    0  501  0.00000000000E+00  0.00000000000E+00  0.22486130677E+03  0.22486130682E+03  0.50400001928E-02 0.  1.
        1   -1    0    0  501    0  0.00000000000E+00  0.00000000000E+00 -0.15991066999E+04  0.15991066999E+04  0.50400001928E-02 0. -1.
    10030    2    1    2    0    0  0.00000000000E+00  0.00000000000E+00 -0.13742453931E+04  0.18239680067E+04  0.11992951634E+04 0.  0.
        1    1    3    3  502    0 -0.24459132088E+02 -0.17968658463E+03 -0.15564036968E+04  0.15669326678E+04  0.50400001928E-02 0. -1.
       -1    1    3    3    0  502  0.24459132088E+02  0.17968658463E+03  0.18215830369E+03  0.25703533895E+03  0.50400001928E-02 0.  1.
</event>
<event>
 5   0  0.5745487E-05  0.1200216E+04  0.7818609E-02  0.9112667E-01
       -1   -1    0    0    0  501  0.00000000000E+00  0.00000000000E+00  0.90125236050E+03  0.90125236052E+03  0.50400001928E-02 0. -1.
        1   -1    0    0  501    0  0.00000000000E+00  0.00000000000E+00 -0.39958810513E+03  0.39958810516E+03  0.50400001928E-02 0.  1.
    10030    2    1    2    0    0  0.00000000000E+00  0.00000000000E+00  0.50166425538E+03  0.13008404657E+04  0.12002161855E+04 0.  0.
        3    1    3    3  502    0  0.26896449188E+03  0.27790270188E+03 -0.24650437107E+03  0.45862427407E+03  0.10100000352E+00 0.  1.
       -3    1    3    3    0  502 -0.26896449188E+03 -0.27790270188E+03  0.74816862645E+03  0.84221619161E+03  0.10100000352E+00 0. -1.
</event>
<event>
 5   0  0.5620246E-05  0.1199491E+04  0.7818609E-02  0.9113302E-01
       -1   -1    0    0    0  501  0.00000000000E+00  0.00000000000E+00  0.56545801117E+03  0.56545801119E+03  0.50400001928E-02 0.  1.
        1   -1    0    0  501    0  0.00000000000E+00  0.00000000000E+00 -0.63611233661E+03  0.63611233663E+03  0.50400001928E-02 0. -1.
    10030    2    1    2    0    0  0.00000000000E+00  0.00000000000E+00 -0.70654325435E+02  0.12015703478E+04  0.11994912534E+04 0.  0.
        1    1    3    3  502    0  0.17047659991E+03 -0.19229255999E+03 -0.57816691391E+03  0.63270504985E+03  0.50400001928E-02 0. -1.
       -1    1    3    3    0  502 -0.17047659991E+03  0.19229255999E+03  0.50751258848E+03  0.56886529797E+03  0.50400001928E-02 0.  1.
</event>
<event>
 5   0  0.9838215E-05  0.1199956E+04  0.7818609E-02  0.9112895E-01
       -2   -1    0    0    0  501  0.00000000000E+00  0.00000000000E+00  0.15177959283E+03  0.15177959285E+03  0.25500000920E-02 0.  1.
        2   -1    0    0  501    0  0.00000000000E+00  0.00000000000E+00 -0.23716880805E+04  0.23716880805E+04  0.25500000920E-02 0. -1.
    10030    2    1    2    0    0  0.00000000000E+00  0.00000000000E+00 -0.22199084877E+04  0.25234676733E+04  0.11999564179E+04 0.  0.
        4    1    3    3  502    0 -0.29588437801E+03 -0.24609194735E+03 -0.20779206136E+04  0.21132592129E+04  0.12699999809E+01 0. -1.
       -4    1    3    3    0  502  0.29588437801E+03  0.24609194735E+03 -0.14198787404E+03  0.41020846039E+03  0.12699999809E+01 0.  1.
</event>
<event>
 5   0  0.9941209E-05  0.1200068E+04  0.7818609E-02  0.9112797E-01
        2   -1    0    0  501    0  0.00000000000E+00  0.00000000000E+00  0.23610896645E+04  0.23610896645E+04  0.25500000920E-02 0.  1.
       -2   -1    0    0    0  501  0.00000000000E+00  0.00000000000E+00 -0.15248928844E+03  0.15248928846E+03  0.25500000920E-02 0. -1.
    10030    2    1    2    0    0  0.00000000000E+00  0.00000000000E+00  0.22086003761E+04  0.25135789530E+04  0.12000681363E+04 0.  0.
        2    1    3    3  502    0  0.18696771776E+03  0.13305921799E+02  0.22981950936E+04  0.23058262431E+04  0.25500000920E-02 0.  1.
       -2    1    3    3    0  502 -0.18696771776E+03 -0.13305921799E+02 -0.89594717554E+02  0.20775270987E+03  0.25500000920E-02 0. -1.
</event>
<event>
 5   0  0.9941209E-05  0.1197774E+04  0.7818609E-02  0.9114807E-01
        2   -1    0    0  501    0  0.00000000000E+00  0.00000000000E+00  0.93021378005E+03  0.93021378005E+03  0.25500000920E-02 0.  1.
       -2   -1    0    0    0  501  0.00000000000E+00  0.00000000000E+00 -0.38557311139E+03  0.38557311140E+03  0.25500000920E-02 0. -1.
    10030    2    1    2    0    0  0.00000000000E+00  0.00000000000E+00  0.54464066866E+03  0.13157868914E+04  0.11977736371E+04 0.  0.
        2    1    3    3  502    0  0.25633224376E+03 -0.25405521632E+03  0.79733720320E+03  0.87521248149E+03  0.25500000920E-02 0.  1.
       -2    1    3    3    0  502 -0.25633224376E+03  0.25405521632E+03 -0.25269653454E+03  0.44057440996E+03  0.25500000920E-02 0. -1.
</event>
<event>
 5   0  0.1012657E-04  0.1199986E+04  0.7818609E-02  0.9112869E-01
       -2   -1    0    0    0  501  0.00000000000E+00  0.00000000000E+00  0.80366786017E+03  0.80366786017E+03  0.25500000920E-02 0. -1.
        2   -1    0    0  501    0  0.00000000000E+00  0.00000000000E+00 -0.44793583394E+03  0.44793583395E+03  0.25500000920E-02 0.  1.
    10030    2    1    2    0    0  0.00000000000E+00  0.00000000000E+00  0.35573202623E+03  0.12516036941E+04  0.11999860552E+04 0.  0.
        1    1    3    3  502    0 -0.43311238935E+03 -0.32891009180E+03  0.44219051878E+03  0.70092841662E+03  0.50400001928E-02 0. -1.
       -1    1    3    3    0  502  0.43311238935E+03  0.32891009180E+03 -0.86458492551E+02  0.55067527751E+03  0.50400001928E-02 0.  1.
</event>
<event>
 5   0  0.1004006E-04  0.1199698E+04  0.7818609E-02  0.9113121E-01
       -2   -1    0    0    0  501  0.00000000000E+00  0.00000000000E+00  0.18989629243E+03  0.18989629245E+03  0.25500000920E-02 0. -1.
        2   -1    0    0  501    0  0.00000000000E+00  0.00000000000E+00 -0.18948173679E+04  0.18948173679E+04  0.25500000920E-02 0.  1.
    10030    2    1    2    0    0  0.00000000000E+00  0.00000000000E+00 -0.17049210755E+04  0.20847136604E+04  0.11996979504E+04 0.  0.
        5    1    3    3  502    0  0.22641808066E+03  0.44826099782E+03 -0.28246982087E+03  0.57620687180E+03  0.46999998093E+01 0. -1.
       -5    1    3    3    0  502 -0.22641808066E+03 -0.44826099782E+03 -0.14224512546E+04  0.15085067886E+04  0.46999998093E+01 0.  1.
</event>
<event>
 5   0  0.5447807E-05  0.1199705E+04  0.7818609E-02  0.9113115E-01
        1   -1    0    0  501    0  0.00000000000E+00  0.00000000000E+00  0.70889422915E+03  0.70889422916E+03  0.50400001928E-02 0.  1.
       -1   -1    0    0    0  501  0.00000000000E+00  0.00000000000E+00 -0.50758343344E+03  0.50758343346E+03  0.50400001928E-02 0. -1.
    10030    2    1    2    0    0  0.00000000000E+00  0.00000000000E+00  0.20131079571E+03  0.12164776626E+04  0.11997049084E+04 0.  0.
        2    1    3    3  502    0 -0.41372166382E+02 -0.18821540521E+03  0.67665203481E+03  0.70355857690E+03  0.25500000920E-02 0.  1.
       -2    1    3    3    0  502  0.41372166382E+02  0.18821540521E+03 -0.47534123910E+03  0.51291908573E+03  0.25500000920E-02 0. -1.
</event>
<event>
 5   0  0.5745487E-05  0.1200145E+04  0.7818609E-02  0.9112729E-01
        1   -1    0    0  501    0  0.00000000000E+00  0.00000000000E+00  0.19885373569E+03  0.19885373575E+03  0.50400001928E-02 0. -1.
       -1   -1    0    0    0  501  0.00000000000E+00  0.00000000000E+00 -0.18108142271E+04  0.18108142271E+04  0.50400001928E-02 0.  1.
    10030    2    1    2    0    0  0.00000000000E+00  0.00000000000E+00 -0.16119604914E+04  0.20096679629E+04  0.12001452808E+04 0.  0.
        3    1    3    3  502    0 -0.54317956831E+03 -0.15988330114E+03 -0.11387022592E+04  0.12717112717E+04  0.10100000352E+00 0.  1.
       -3    1    3    3    0  502  0.54317956831E+03  0.15988330114E+03 -0.47325823229E+03  0.73795669117E+03  0.10100000352E+00 0. -1.
</event>
<event>
 5   0  0.5620246E-05  0.1200255E+04  0.7818609E-02  0.9112633E-01
        1   -1    0    0  501    0  0.00000000000E+00  0.00000000000E+00  0.90070874599E+03  0.90070874600E+03  0.50400001928E-02 0. -1.
       -1   -1    0    0    0  501  0.00000000000E+00  0.00000000000E+00 -0.39985536076E+03  0.39985536079E+03  0.50400001928E-02 0.  1.
    10030    2    1    2    0    0  0.00000000000E+00  0.00000000000E+00  0.50085338523E+03  0.13005641068E+04  0.12002553405E+04 0.  0.
        1    1    3    3  502    0 -0.16460075886E+03 -0.48332264197E+03 -0.91301049128E+02  0.51868108472E+03  0.50400001928E-02 0.  1.
       -1    1    3    3    0  502  0.16460075886E+03  0.48332264197E+03  0.59215443435E+03  0.78188302207E+03  0.50400001928E-02 0. -1.
</event>
<event>
 5   0  0.5447807E-05  0.1200293E+04  0.7818609E-02  0.9112600E-01
        1   -1    0    0  501    0  0.00000000000E+00  0.00000000000E+00  0.19558281637E+04  0.19558281637E+04  0.50400001928E-02 0.  1.
       -1   -1    0    0    0  501  0.00000000000E+00  0.00000000000E+00 -0.18415505481E+03  0.18415505488E+03  0.50400001928E-02 0. -1.
    10030    2    1    2    0    0  0.00000000000E+00  0.00000000000E+00  0.17716731089E+04  0.21399832186E+04  0.12002927022E+04 0.  0.
        2    1    3    3  502    0 -0.15997789362E+03  0.41436224309E+03  0.16627832429E+03  0.47427573845E+03  0.25500000920E-02 0. -1.
       -2    1    3    3    0  502  0.15997789362E+03 -0.41436224309E+03  0.16053947846E+04  0.16657074801E+04  0.25500000920E-02 0.  1.
</event>
<event>
 5   0  0.1023063E-04  0.1200032E+04  0.7818609E-02  0.9112829E-01
       -2   -1    0    0    0  501  0.00000000000E+00  0.00000000000E+00  0.41289751209E+03  0.41289751209E+03  0.25500000920E-02 0. -1.
        2   -1    0    0  501    0  0.00000000000E+00  0.00000000000E+00 -0.87193310156E+03  0.87193310157E+03  0.25500000920E-02 0.  1.
    10030    2    1    2    0    0  0.00000000000E+00  0.00000000000E+00 -0.45903558948E+03  0.12848306137E+04  0.12000316802E+04 0.  0.
        3    1    3    3  502    0 -0.24699714044E+03 -0.44627352517E+03  0.10880412650E+03  0.52154193963E+03  0.10100000352E+00 0. -1.
       -3    1    3    3    0  502  0.24699714044E+03  0.44627352517E+03 -0.56783971598E+03  0.76328867403E+03  0.10100000352E+00 0.  1.
</event>
<event>
 5   0  0.5447807E-05  0.1200798E+04  0.7818609E-02  0.9112159E-01
       -1   -1    0    0    0  501  0.00000000000E+00  0.00000000000E+00  0.55766880394E+03  0.55766880397E+03  0.50400001928E-02 0. -1.
        1   -1    0    0  501    0  0.00000000000E+00  0.00000000000E+00 -0.64640308573E+03  0.64640308575E+03  0.50400001928E-02 0.  1.
    10030    2    1    2    0    0  0.00000000000E+00  0.00000000000E+00 -0.88734281788E+02  0.12040718897E+04  0.12007977943E+04 0.  0.
        2    1    3    3  502    0 -0.17405537600E+03  0.50796332122E+02 -0.61829415394E+03  0.64433159326E+03  0.25500000920E-02 0.  1.
       -2    1    3    3    0  502  0.17405537600E+03 -0.50796332122E+02  0.52955987215E+03  0.55974029645E+03  0.25500000920E-02 0. -1.
</event>
<event>
 5   0  0.1004006E-04  0.1194759E+04  0.7818609E-02  0.9117456E-01
        2   -1    0    0  501    0  0.00000000000E+00  0.00000000000E+00  0.26151971912E+04  0.26151971912E+04  0.25500000920E-02 0. -1.
       -2   -1    0    0    0  501  0.00000000000E+00  0.00000000000E+00 -0.13645709703E+03  0.13645709705E+03  0.25500000920E-02 0.  1.
    10030    2    1    2    0    0  0.00000000000E+00  0.00000000000E+00  0.24787400942E+04  0.27516542882E+04  0.11947589161E+04 0.  0.
        5    1    3    3  502    0 -0.53903325620E+03  0.25130028252E+03  0.11104899404E+04  0.12597296063E+04  0.46999998093E+01 0.  1.
       -5    1    3    3    0  502  0.53903325620E+03 -0.25130028252E+03  0.13682501537E+04  0.14919246819E+04  0.46999998093E+01 0. -1.
</event>
<event>
 5   0  0.9838215E-05  0.1200394E+04  0.7818609E-02  0.9112512E-01
       -2   -1    0    0    0  501  0.00000000000E+00  0.00000000000E+00  0.51097560757E+03  0.51097560758E+03  0.25500000920E-02 0.  1.
        2   -1    0    0  501    0  0.00000000000E+00  0.00000000000E+00 -0.70499746977E+03  0.70499746977E+03  0.25500000920E-02 0. -1.
    10030    2    1    2    0    0  0.00000000000E+00  0.00000000000E+00 -0.19402186220E+03  0.12159730774E+04  0.12003941194E+04 0.  0.
        4    1    3    3  502    0  0.44472506264E+03  0.27858521275E+03  0.19805067613E+03  0.56090621793E+03  0.12699999809E+01 0.  1.
       -4    1    3    3    0  502 -0.44472506264E+03 -0.27858521275E+03 -0.39207253832E+03  0.65506685942E+03  0.12699999809E+01 0. -1.
</event>
<event>
 5   0  0.5625746E-05  0.1199948E+04  0.7818609E-02  0.9112902E-01
        1   -1    0    0  501    0  0.00000000000E+00  0.00000000000E+00  0.16577786260E+04  0.16577786260E+04  0.50400001928E-02 0.  1.
       -1   -1    0    0    0  501  0.00000000000E+00  0.00000000000E+00 -0.21713913550E+03  0.21713913555E+03  0.50400001928E-02 0. -1.
    10030    2    1    2    0    0  0.00000000000E+00  0.00000000000E+00  0.14406394905E+04  0.18749177616E+04  0.11999476951E+04 0.  0.
        5    1    3    3  502    0 -0.18382123334E+03 -0.51912469264E+02  0.16089705188E+04  0.16202757082E+04  0.46999998093E+01 0.  1.
       -5    1    3    3    0  502  0.18382123334E+03  0.51912469264E+02 -0.16833102824E+03  0.25464205339E+03  0.46999998093E+01 0. -1.
</event>
<event>
 5   0  0.5745487E-05  0.1200894E+04  0.7818609E-02  0.9112075E-01
       -1   -1    0    0    0  501  0.00000000000E+00  0.00000000000E+00  0.82405106775E+03  0.82405106777E+03  0.50400001928E-02 0.  1.
        1   -1    0    0  501    0  0.00000000000E+00  0.00000000000E+00 -0.43751700609E+03  0.43751700612E+03  0.50400001928E-02 0. -1.
    10030    2    1    2    0    0  0.00000000000E+00  0.00000000000E+00  0.38653406166E+03  0.12615680739E+04  0.12008935941E+04 0.  0.
        3    1    3    3  502    0 -0.33375651346E+03  0.43976905297E+03 -0.54768254333E+02  0.55478806955E+03  0.10100000352E+00 0. -1.
       -3    1    3    3    0  502  0.33375651346E+03 -0.43976905297E+03  0.44130231600E+03  0.70678000434E+03  0.10100000352E+00 0.  1.
</event>
<event>
 5   0  0.5732931E-05  0.1195748E+04  0.7818609E-02  0.9116586E-01
       -1   -1    0    0    0  501  0.00000000000E+00  0.00000000000E+00  0.76573150053E+03  0.76573150055E+03  0.50400001928E-02 0.  1.
        1   -1    0    0  501    0  0.00000000000E+00  0.00000000000E+00 -0.46681311174E+03  0.46681311176E+03  0.50400001928E-02 0. -1.
    10030    2    1    2    0    0  0.00000000000E+00  0.00000000000E+00  0.29891838879E+03  0.12325446123E+04  0.11957483089E+04 0.  0.
        4    1    3    3  502    0  0.21338479893E+03  0.55148603230E+03  0.24038932173E+03  0.63832480380E+03  0.12699999809E+01 0.  1.
       -4    1    3    3    0  502 -0.21338479893E+03 -0.55148603230E+03  0.58529067060E+02  0.59421980851E+03  0.12699999809E+01 0. -1.
</event>
<event>
 5   0  0.5625746E-05  0.1200373E+04  0.7818609E-02  0.9112530E-01
       -1   -1    0    0    0  501  0.00000000000E+00  0.00000000000E+00  0.50780678956E+03  0.50780678958E+03  0.50400001928E-02 0.  1.
        1   -1    0    0  501    0  0.00000000000E+00  0.00000000000E+00 -0.70937147457E+03  0.70937147459E+03  0.50400001928E-02 0. -1.
    10030    2    1    2    0    0  0.00000000000E+00  0.00000000000E+00 -0.20156468501E+03  0.12171782642E+04  0.12003726940E+04 0.  0.
        5    1    3    3  502    0  0.23672667632E+03 -0.48118124483E+03  0.17248396676E+03  0.56333623925E+03  0.46999998093E+01 0.  1.
       -5    1    3    3    0  502 -0.23672667632E+03  0.48118124483E+03 -0.37404865177E+03  0.65384202492E+03  0.46999998093E+01 0. -1.
</event>
<event>
 5   0  0.9941209E-05  0.1199755E+04  0.7818609E-02  0.9113071E-01
        2   -1    0    0  501    0  0.00000000000E+00  0.00000000000E+00  0.23654831641E+04  0.23654831641E+04  0.25500000920E-02 0.  1.
       -2   -1    0    0    0  501  0.00000000000E+00  0.00000000000E+00 -0.15212660454E+03  0.15212660457E+03  0.25500000920E-02 0. -1.
    10030    2    1    2    0    0  0.00000000000E+00  0.00000000000E+00  0.22133565595E+04  0.25176097686E+04  0.11997548448E+04 0.  0.
        2    1    3    3  502    0  0.36425536348E+03  0.43174725412E+03  0.68299530350E+03  0.88632400727E+03  0.25500000920E-02 0. -1.
       -2    1    3    3    0  502 -0.36425536348E+03 -0.43174725412E+03  0.15303612560E+04  0.16312857614E+04  0.25500000920E-02 0.  1.
</event>
<event>
 5   0  0.5447807E-05  0.1198842E+04  0.7818609E-02  0.9113870E-01
       -1   -1    0    0    0  501  0.00000000000E+00  0.00000000000E+00  0.43912606733E+03  0.43912606736E+03  0.50400001928E-02 0. -1.
        1   -1    0    0  501    0  0.00000000000E+00  0.00000000000E+00 -0.81822912912E+03  0.81822912914E+03  0.50400001928E-02 0.  1.
    10030    2    1    2    0    0  0.00000000000E+00  0.00000000000E+00 -0.37910306179E+03  0.12573551965E+04  0.11988423411E+04 0.  0.
        2    1    3    3  502    0  0.58760943162E+03  0.11321356747E+03 -0.22593750891E+03  0.63964827361E+03  0.25500000920E-02 0.  1.
       -2    1    3    3    0  502 -0.58760943162E+03 -0.11321356747E+03 -0.15316555289E+03  0.61770692289E+03  0.25500000920E-02 0. -1.
</event>
<event>
 5   0  0.1004006E-04  0.1199961E+04  0.7818609E-02  0.9112891E-01
        2   -1    0    0  501    0  0.00000000000E+00  0.00000000000E+00  0.18940526157E+04  0.18940526157E+04  0.25500000920E-02 0.  1.
       -2   -1    0    0    0  501  0.00000000000E+00  0.00000000000E+00 -0.19005623446E+03  0.19005623448E+03  0.25500000920E-02 0. -1.
    10030    2    1    2    0    0  0.00000000000E+00  0.00000000000E+00  0.17039963812E+04  0.20841088502E+04  0.11999608461E+04 0.  0.
        5    1    3    3  502    0 -0.52104802646E+02  0.51602436642E+03  0.13758092155E+04  0.14703296041E+04  0.46999998093E+01 0. -1.
       -5    1    3    3    0  502  0.52104802646E+02 -0.51602436642E+03  0.32818716578E+03  0.61377924613E+03  0.46999998093E+01 0.  1.
</event>
<event>
 5   0  0.5620246E-05  0.1200443E+04  0.7818609E-02  0.9112469E-01
        1   -1    0    0  501    0  0.00000000000E+00  0.00000000000E+00  0.28582655880E+04  0.28582655880E+04  0.50400001928E-02 0. -1.
       -1   -1    0    0    0  501  0.00000000000E+00  0.00000000000E+00 -0.12604343751E+03  0.12604343761E+03  0.50400001928E-02 0.  1.
    10030    2    1    2    0    0  0.00000000000E+00  0.00000000000E+00  0.27322221505E+04  0.29843090256E+04  0.12004426187E+04 0.  0.
        1    1    3    3  502    0  0.45823755624E+03  0.38753135480E+03  0.13408305389E+04  0.14690094428E+04  0.50400001928E-02 0. -1.
       -1    1    3    3    0  502 -0.45823755624E+03 -0.38753135480E+03  0.13913916116E+04  0.15152995828E+04  0.50400001928E-02 0.  1.
</event>
<event>
 5   0  0.1023063E-04  0.1200163E+04  0.7818609E-02  0.9112714E-01
       -2   -1    0    0    0  501  0.00000000000E+00  0.00000000000E+00  0.26962825927E+03  0.26962825928E+03  0.25500000920E-02 0. -1.
        2   -1    0    0  501    0  0.00000000000E+00  0.00000000000E+00 -0.13355343875E+04  0.13355343875E+04  0.25500000920E-02 0.  1.
    10030    2    1    2    0    0  0.00000000000E+00  0.00000000000E+00 -0.10659061282E+04  0.16051626467E+04  0.12001630091E+04 0.  0.
        3    1    3    3  502    0 -0.34762889486E+03 -0.64653321141E+02  0.11550092754E+03  0.37197630964E+03  0.10100000352E+00 0. -1.
       -3    1    3    3    0  502  0.34762889486E+03  0.64653321141E+02 -0.11814070557E+04  0.12331863371E+04  0.10100000352E+00 0.  1.
</event>
<event>
 5   0  0.1004006E-04  0.1200118E+04  0.7818609E-02  0.9112753E-01
       -2   -1    0    0    0  501  0.00000000000E+00  0.00000000000E+00  0.48025555282E+03  0.48025555282E+03  0.25500000920E-02 0. -1.
        2   -1    0    0  501    0  0.00000000000E+00  0.00000000000E+00 -0.74974890781E+03  0.74974890782E+03  0.25500000920E-02 0.  1.
    10030    2    1    2    0    0  0.00000000000E+00  0.00000000000E+00 -0.26949335500E+03  0.12300044606E+04  0.12001184545E+04 0.  0.
        5    1    3    3  502    0  0.33359090244E+03  0.46954370622E+03 -0.30714614381E+03  0.65277486616E+03  0.46999998093E+01 0.  1.
       -5    1    3    3    0  502 -0.33359090244E+03 -0.46954370622E+03  0.37652788812E+02  0.57722959448E+03  0.46999998093E+01 0. -1.
</event>
<event>
 5   0  0.1004006E-04  0.1200706E+04  0.7818609E-02  0.9112239E-01
       -2   -1    0    0    0  501  0.00000000000E+00  0.00000000000E+00  0.24815035423E+03  0.24815035424E+03  0.25500000920E-02 0.  1.
        2   -1    0    0  501    0  0.00000000000E+00  0.00000000000E+00 -0.14524399660E+04  0.14524399660E+04  0.25500000920E-02 0. -1.
    10030    2    1    2    0    0  0.00000000000E+00  0.00000000000E+00 -0.12042896118E+04  0.17005903203E+04  0.12007056127E+04 0.  0.
        5    1    3    3  502    0 -0.29757130804E+02 -0.15171915734E+03 -0.14237324467E+04  0.14321104564E+04  0.46999998093E+01 0. -1.
       -5    1    3    3    0  502  0.29757130804E+02  0.15171915734E+03  0.21944283488E+03  0.26847986390E+03  0.46999998093E+01 0.  1.
</event>
<event>
 5   0  0.1023063E-04  0.1199423E+04  0.7818609E-02  0.9113362E-01
        2   -1    0    0  501    0  0.00000000000E+00  0.00000000000E+00  0.14898910674E+04  0.14898910674E+04  0.25500000920E-02 0. -1.
       -2   -1    0    0    0  501  0.00000000000E+00  0.00000000000E+00 -0.24139593942E+03  0.24139593944E+03  0.25500000920E-02 0.  1.
    10030    2    1    2    0    0  0.00000000000E+00  0.00000000000E+00  0.12484951280E+04  0.17312870068E+04  0.11994226175E+04 0.  0.
        3    1    3    3  502    0  0.53098223926E+03 -0.27627802894E+03  0.67790673276E+03  0.90433911571E+03  0.10100000352E+00 0. -1.
       -3    1    3    3    0  502 -0.53098223926E+03  0.27627802894E+03  0.57058839520E+03  0.82694789112E+03  0.10100000352E+00 0.  1.
</event>
<event>
 5   0  0.5620246E-05  0.1200052E+04  0.7818609E-02  0.9112811E-01
       -1   -1    0    0    0  501  0.00000000000E+00  0.00000000000E+00  0.47676160641E+03  0.47676160644E+03  0.50400001928E-02 0.  1.
        1   -1    0    0  501    0  0.00000000000E+00  0.00000000000E+00 -0.75516040817E+03  0.75516040819E+03  0.50400001928E-02 0. -1.
    10030    2    1    2    0    0  0.00000000000E+00  0.00000000000E+00 -0.27839880177E+03  0.12319220146E+04  0.12000524811E+04 0.  0.
        1    1    3    3  502    0 -0.40460593256E+03 -0.41163967880E+03  0.29100516803E+02  0.57792735351E+03  0.50400001928E-02 0. -1.
       -1    1    3    3    0  502  0.40460593256E+03  0.41163967880E+03 -0.30749931857E+03  0.65399466112E+03  0.50400001928E-02 0.  1.
</event>
<event>
 5   0  0.5447807E-05  0.1199553E+04  0.7818609E-02  0.9113248E-01
       -1   -1    0    0    0  501  0.00000000000E+00  0.00000000000E+00  0.57413018061E+03  0.57413018063E+03  0.50400001928E-02 0.  1.
        1   -1    0    0  501    0  0.00000000000E+00  0.00000000000E+00 -0.62656809872E+03  0.62656809874E+03  0.50400001928E-02 0. -1.
    10030    2    1    2    0    0  0.00000000000E+00  0.00000000000E+00 -0.52437918108E+02  0.12006982794E+04  0.11995526761E+04 0.  0.
        2    1    3    3  502    0 -0.55398472736E+03 -0.17902637578E+03 -0.17051673525E+03  0.60665103509E+03  0.25500000920E-02 0. -1.
       -2    1    3    3    0  502  0.55398472736E+03  0.17902637578E+03  0.11807881714E+03  0.59404724428E+03  0.25500000920E-02 0.  1.
</event>
<event>
 5   0  0.5625746E-05  0.1199661E+04  0.7818609E-02  0.9113153E-01
       -1   -1    0    0    0  501  0.00000000000E+00  0.00000000000E+00  0.48290735802E+03  0.48290735805E+03  0.50400001928E-02 0.  1.
        1   -1    0    0  501    0  0.00000000000E+00  0.00000000000E+00 -0.74506350132E+03  0.74506350134E+03  0.50400001928E-02 0. -1.
    10030    2    1    2    0    0  0.00000000000E+00  0.00000000000E+00 -0.26215614330E+03  0.12279708594E+04  0.11996610305E+04 0.  0.
        5    1    3    3  502    0  0.59371636792E+03  0.69048341961E+02 -0.18233732980E+03  0.62492862865E+03  0.46999998093E+01 0. -1.
       -5    1    3    3    0  502 -0.59371636792E+03 -0.69048341961E+02 -0.79818813503E+02  0.60304223074E+03  0.46999998093E+01 0.  1.
</event>
<event>
 5   0  0.9941209E-05  0.1199635E+04  0.7818609E-02  0.9113176E-01
       -2   -1    0    0    0  501  0.00000000000E+00  0.00000000000E+00  0.10668742459E+04  0.10668742459E+04  0.25500000920E-02 0. -1.
        2   -1    0    0  501    0  0.00000000000E+00  0.00000000000E+00 -0.33722911345E+03  0.33722911346E+03  0.25500000920E-02 0.  1.
    10030    2    1    2    0    0  0.00000000000E+00  0.00000000000E+00  0.72964513249E+03  0.14041033594E+04  0.11996350380E+04 0.  0.
        2    1    3    3  502    0  0.87230213131E+02  0.94973964871E+02  0.10504578131E+04  0.10583434136E+04  0.25500000920E-02 0. -1.
       -2    1    3    3    0  502 -0.87230213131E+02 -0.94973964871E+02 -0.32081268058E+03  0.34575994579E+03  0.25500000920E-02 0.  1.
</event>
<event>
 5   0  0.5745487E-05  0.1200069E+04  0.7818609E-02  0.9112796E-01
       -1   -1    0    0    0  501  0.00000000000E+00  0.00000000000E+00  0.84093556606E+03  0.84093556608E+03  0.50400001928E-02 0. -1.
        1   -1    0    0  501    0  0.00000000000E+00  0.00000000000E+00 -0.42814420266E+03  0.42814420269E+03  0.50400001928E-02 0.  1.
    10030    2    1    2    0    0  0.00000000000E+00  0.00000000000E+00  0.41279136340E+03  0.12690797688E+04  0.12000694771E+04 0.  0.
        3    1    3    3  502    0 -0.19065452190E+03  0.48037952544E+03  0.52876665048E+03  0.73939692726E+03  0.10100000352E+00 0. -1.
       -3    1    3    3    0  502  0.19065452190E+03 -0.48037952544E+03 -0.11597528708E+03  0.52968284151E+03  0.10100000352E+00 0.  1.
</event>
<event>
 5   0  0.5732931E-05  0.1202382E+04  0.7818609E-02  0.9110774E-01
        1   -1    0    0  501    0  0.00000000000E+00  0.00000000000E+00  0.75090821808E+03  0.75090821810E+03  0.50400001928E-02 0.  1.
       -1   -1    0    0    0  501  0.00000000000E+00  0.00000000000E+00 -0.48132475771E+03  0.48132475774E+03  0.50400001928E-02 0. -1.
    10030    2    1    2    0    0  0.00000000000E+00  0.00000000000E+00  0.26958346037E+03  0.12322329758E+04  0.12023821625E+04 0.  0.
        4    1    3    3  502    0  0.16853978326E+03 -0.10095262309E+03 -0.44749728704E+03  0.48872540906E+03  0.12699999809E+01 0. -1.
       -4    1    3    3    0  502 -0.16853978326E+03  0.10095262309E+03  0.71708074741E+03  0.74350756678E+03  0.12699999809E+01 0.  1.
</event>
<event>
 5   0  0.9838215E-05  0.1200075E+04  0.7818609E-02  0.9112791E-01
        2   -1    0    0  501    0  0.00000000000E+00  0.00000000000E+00  0.89448491954E+03  0.89448491954E+03  0.25500000920E-02 0.  1.
       -2   -1    0    0    0  501  0.00000000000E+00  0.00000000000E+00 -0.40251667812E+03  0.40251667813E+03  0.25500000920E-02 0. -1.
    10030    2    1    2    0    0  0.00000000000E+00  0.00000000000E+00  0.49196824142E+03  0.12970015977E+04  0.12000751617E+04 0.  0.
        4    1    3    3  502    0 -0.35328467584E+03 -0.20859095742E+03 -0.22724279615E+03  0.46900016098E+03  0.12699999809E+01 0. -1.
       -4    1    3    3    0  502  0.35328467584E+03  0.20859095742E+03  0.71921103757E+03  0.82800143669E+03  0.12699999809E+01 0.  1.
</event>
<event>
 5   0  0.3839750E-05  0.1199717E+04  0.7818609E-02  0.9113104E-01
       -3   -1    0    0    0  501  0.00000000000E+00  0.00000000000E+00  0.34610969027E+03  0.34610970501E+03  0.10100000352E+00 0.  1.
        3   -1    0    0  501    0  0.00000000000E+00  0.00000000000E+00 -0.10396424035E+04  0.10396424084E+04  0.10100000352E+00 0. -1.
    10030    2    1    2    0    0  0.00000000000E+00  0.00000000000E+00 -0.69353271327E+03  0.13857521134E+04  0.11997171732E+04 0.  0.
        5    1    3    3  502    0  0.10068021225E+03  0.65505713306E+02 -0.10255880704E+04  0.10326085820E+04  0.46999998093E+01 0. -1.
       -5    1    3    3    0  502 -0.10068021225E+03 -0.65505713306E+02  0.33205535709E+03  0.35314353142E+03  0.46999998093E+01 0.  1.
</event>
<event>
 5   0  0.5732931E-05  0.1200972E+04  0.7818609E-02  0.9112006E-01
        1   -1    0    0  501    0  0.00000000000E+00  0.00000000000E+00  0.15404055195E+04  0.15404055195E+04  0.50400001928E-02 0.  1.
       -1   -1    0    0    0  501  0.00000000000E+00  0.00000000000E+00 -0.23408332596E+03  0.23408332601E+03  0.50400001928E-02 0. -1.
    10030    2    1    2    0    0  0.00000000000E+00  0.00000000000E+00  0.13063221935E+04  0.17744888455E+04  0.12009716856E+04 0.  0.
        4    1    3    3  502    0 -0.57755621488E+03  0.16395115491E+03  0.67003824441E+03  0.89966884153E+03  0.12699999809E+01 0.  1.
       -4    1    3    3    0  502  0.57755621488E+03 -0.16395115491E+03  0.63628394912E+03  0.87482000398E+03  0.12699999809E+01 0. -1.
</event>
<event>
 5   0  0.5732931E-05  0.1200536E+04  0.7818609E-02  0.9112388E-01
       -1   -1    0    0    0  501  0.00000000000E+00  0.00000000000E+00  0.53478090066E+03  0.53478090068E+03  0.50400001928E-02 0. -1.
        1   -1    0    0  501    0  0.00000000000E+00  0.00000000000E+00 -0.67377432214E+03  0.67377432216E+03  0.50400001928E-02 0.  1.
    10030    2    1    2    0    0  0.00000000000E+00  0.00000000000E+00 -0.13899342149E+03  0.12085552228E+04  0.12005359451E+04 0.  0.
        4    1    3    3  502    0  0.37918456591E+03 -0.41737660178E+03 -0.27662792043E+03  0.62809934086E+03  0.12699999809E+01 0.  1.
       -4    1    3    3    0  502 -0.37918456591E+03  0.41737660178E+03  0.13763449894E+03  0.58045588198E+03  0.12699999809E+01 0. -1.
</event>
<event>
 5   0  0.5620246E-05  0.1199624E+04  0.7818609E-02  0.9113185E-01
       -1   -1    0    0    0  501  0.00000000000E+00  0.00000000000E+00  0.51941896731E+03  0.51941896733E+03  0.50400001928E-02 0. -1.
        1   -1    0    0  501    0  0.00000000000E+00  0.00000000000E+00 -0.69264826218E+03  0.69264826220E+03  0.50400001928E-02 0.  1.
    10030    2    1    2    0    0  0.00000000000E+00  0.00000000000E+00 -0.17322929487E+03  0.12120672295E+04  0.11996243497E+04 0.  0.
        1    1    3    3  502    0 -0.51893845976E+03 -0.27107353516E+03  0.45108837542E+02  0.58720762404E+03  0.50400001928E-02 0. -1.
       -1    1    3    3    0  502  0.51893845976E+03  0.27107353516E+03 -0.21833813241E+03  0.62485960549E+03  0.50400001928E-02 0.  1.
</event>
<event>
 5   0  0.1012657E-04  0.1199379E+04  0.7818609E-02  0.9113400E-01
       -2   -1    0    0    0  501  0.00000000000E+00  0.00000000000E+00  0.58972046924E+03  0.58972046925E+03  0.25500000920E-02 0. -1.
        2   -1    0    0  501    0  0.00000000000E+00  0.00000000000E+00 -0.60982734497E+03  0.60982734497E+03  0.25500000920E-02 0.  1.
    10030    2    1    2    0    0  0.00000000000E+00  0.00000000000E+00 -0.20106875728E+02  0.11995478142E+04  0.11993792862E+04 0.  0.
        1    1    3    3  502    0  0.19606456991E+03  0.56496226709E+03  0.34718790253E+02  0.59902343296E+03  0.50400001928E-02 0. -1.
       -1    1    3    3    0  502 -0.19606456991E+03 -0.56496226709E+03 -0.54825665980E+02  0.60052438126E+03  0.50400001928E-02 0.  1.
</event>
<event>
 5   0  0.5745487E-05  0.1200125E+04  0.7818609E-02  0.9112747E-01
       -1   -1    0    0    0  501  0.00000000000E+00  0.00000000000E+00  0.26094864113E+03  0.26094864118E+03  0.50400001928E-02 0. -1.
        1   -1    0    0  501    0  0.00000000000E+00  0.00000000000E+00 -0.13798689072E+04  0.13798689072E+04  0.50400001928E-02 0.  1.
    10030    2    1    2    0    0  0.00000000000E+00  0.00000000000E+00 -0.11189202660E+04  0.16408175483E+04  0.12001248540E+04 0.  0.
        3    1    3    3  502    0  0.85237614263E+02  0.43683468757E+03 -0.11097241864E+04  0.11956495203E+04  0.10100000352E+00 0.  1.
       -3    1    3    3    0  502 -0.85237614263E+02 -0.43683468757E+03 -0.91960796006E+01  0.44516802809E+03  0.10100000352E+00 0. -1.
</event>
<event>
 5   0  0.9941209E-05  0.1199643E+04  0.7818609E-02  0.9113169E-01
       -2   -1    0    0    0  501  0.00000000000E+00  0.00000000000E+00  0.17652580985E+03  0.17652580987E+03  0.25500000920E-02 0. -1.
        2   -1    0    0  501    0  0.00000000000E+00  0.00000000000E+00 -0.20381493807E+04  0.20381493807E+04  0.25500000920E-02 0.  1.
    10030    2    1    2    0    0  0.00000000000E+00  0.00000000000E+00 -0.18616235709E+04  0.22146751906E+04  0.11996432304E+04 0.  0.
        2    1    3    3  502    0 -0.11407343411E+03 -0.58929972246E+02  0.15085909516E+03  0.19810087481E+03  0.25500000920E-02 0. -1.
       -2    1    3    3    0  502  0.11407343411E+03  0.58929972246E+02 -0.20124826660E+04  0.20165743158E+04  0.25500000920E-02 0.  1.
</event>
<event>
 5   0  0.1023063E-04  0.1199977E+04  0.7818609E-02  0.9112876E-01
        2   -1    0    0  501    0  0.00000000000E+00  0.00000000000E+00  0.10451693879E+04  0.10451693879E+04  0.25500000920E-02 0.  1.
       -2   -1    0    0    0  501  0.00000000000E+00  0.00000000000E+00 -0.34442869168E+03  0.34442869169E+03  0.25500000920E-02 0. -1.
    10030    2    1    2    0    0  0.00000000000E+00  0.00000000000E+00  0.70074069625E+03  0.13895980796E+04  0.11999772079E+04 0.  0.
        3    1    3    3  502    0 -0.45083213493E+03  0.39555136446E+03  0.33113818235E+03  0.68510072385E+03  0.10100000352E+00 0.  1.
       -3    1    3    3    0  502  0.45083213493E+03 -0.39555136446E+03  0.36960251390E+03  0.70449735578E+03  0.10100000352E+00 0. -1.
</event>
<event>
 5   0  0.3839750E-05  0.1200505E+04  0.7818609E-02  0.9112414E-01
       -3   -1    0    0    0  501  0.00000000000E+00  0.00000000000E+00  0.13041617128E+04  0.13041617168E+04  0.10100000352E+00 0.  1.
        3   -1    0    0  501    0  0.00000000000E+00  0.00000000000E+00 -0.27627186787E+03  0.27627188633E+03  0.10100000352E+00 0. -1.
    10030    2    1    2    0    0  0.00000000000E+00  0.00000000000E+00  0.10278898450E+04  0.15804336031E+04  0.12005052438E+04 0.  0.
        4    1    3    3  502    0 -0.39981771254E+02  0.59527850808E+03  0.60073791893E+03  0.84666563906E+03  0.12699999809E+01 0. -1.
       -4    1    3    3    0  502  0.39981771254E+02 -0.59527850808E+03  0.42715192605E+03  0.73376796403E+03  0.12699999809E+01 0.  1.
</event>
<event>
 5   0  0.5625746E-05  0.1199136E+04  0.7818609E-02  0.9113613E-01
        1   -1    0    0  501    0  0.00000000000E+00  0.00000000000E+00  0.74118617098E+03  0.74118617100E+03  0.50400001928E-02 0. -1.
       -1   -1    0    0    0  501  0.00000000000E+00  0.00000000000E+00 -0.48500846326E+03  0.48500846329E+03  0.50400001928E-02 0.  1.
    10030    2    1    2    0    0  0.00000000000E+00  0.00000000000E+00  0.25617770772E+03  0.12261946343E+04  0.11991356317E+04 0.  0.
        5    1    3    3  502    0 -0.10407941250E+03  0.10374520524E+03  0.72246584419E+03  0.73727510315E+03  0.46999998093E+01 0. -1.
       -5    1    3    3    0  502  0.10407941250E+03 -0.10374520524E+03 -0.46628813646E+03  0.48891953113E+03  0.46999998093E+01 0.  1.
</event>
<event>
 5   0  0.9838215E-05  0.1200136E+04  0.7818609E-02  0.9112737E-01
        2   -1    0    0  501    0  0.00000000000E+00  0.00000000000E+00  0.54528228775E+03  0.54528228775E+03  0.25500000920E-02 0. -1.
       -2   -1    0    0    0  501  0.00000000000E+00  0.00000000000E+00 -0.66035851301E+03  0.66035851301E+03  0.25500000920E-02 0.  1.
    10030    2    1    2    0    0  0.00000000000E+00  0.00000000000E+00 -0.11507622526E+03  0.12056408008E+04  0.12001363268E+04 0.  0.
        4    1    3    3  502    0 -0.41438030815E+03 -0.43400892746E+03 -0.55203897692E+02  0.60259760380E+03  0.12699999809E+01 0. -1.
       -4    1    3    3    0  502  0.41438030815E+03  0.43400892746E+03 -0.59872327566E+02  0.60304319696E+03  0.12699999809E+01 0.  1.
</event>
<event>
 5   0  0.9838215E-05  0.1200243E+04  0.7818609E-02  0.9112644E-01
        2   -1    0    0  501    0  0.00000000000E+00  0.00000000000E+00  0.77312395639E+03  0.77312395639E+03  0.25500000920E-02 0. -1.
       -2   -1    0    0    0  501  0.00000000000E+00  0.00000000000E+00 -0.46583212376E+03  0.46583212377E+03  0.25500000920E-02 0.  1.
    10030    2    1    2    0    0  0.00000000000E+00  0.00000000000E+00  0.30729183263E+03  0.12389560802E+04  0.12002432662E+04 0.  0.
        4    1    3    3  502    0  0.31257147188E+03  0.32824081516E+03 -0.25236130736E+03  0.51877818008E+03  0.12699999809E+01 0.  1.
       -4    1    3    3    0  502 -0.31257147188E+03 -0.32824081516E+03  0.55965313999E+03  0.72017790008E+03  0.12699999809E+01 0. -1.
</event>
<event>
 5   0  0.9941209E-05  0.1199217E+04  0.7818609E-02  0.9113542E-01
       -2   -1    0    0    0  501  0.00000000000E+00  0.00000000000E+00  0.27622683749E+03  0.27622683750E+03  0.25500000920E-02 0. -1.
        2   -1    0    0  501    0  0.00000000000E+00  0.00000000000E+00 -0.13015762887E+04  0.13015762887E+04  0.25500000920E-02 0.  1.
    10030    2    1    2    0    0  0.00000000000E+00  0.00000000000E+00 -0.10253494512E+04  0.15778031262E+04  0.11992169145E+04 0.  0.
        2    1    3    3  502    0 -0.25466530551E+03  0.54144694640E+03 -0.56381935082E+03  0.82213835451E+03  0.25500000920E-02 0. -1.
       -2    1    3    3    0  502  0.25466530551E+03 -0.54144694640E+03 -0.46153010039E+03  0.75566477169E+03  0.25500000920E-02 0.  1.
</event>
<event>
 5   0  0.5625746E-05  0.1197499E+04  0.7818609E-02  0.9115048E-01
       -1   -1    0    0    0  501  0.00000000000E+00  0.00000000000E+00  0.69772126343E+03  0.69772126345E+03  0.50400001928E-02 0. -1.
        1   -1    0    0  501    0  0.00000000000E+00  0.00000000000E+00 -0.51381713386E+03  0.51381713389E+03  0.50400001928E-02 0.  1.
    10030    2    1    2    0    0  0.00000000000E+00  0.00000000000E+00  0.18390412957E+03  0.12115383973E+04  0.11974992941E+04 0.  0.
        5    1    3    3  502    0 -0.59008161908E+03  0.97169669354E+02  0.12128835377E+03  0.61022226817E+03  0.46999998093E+01 0. -1.
       -5    1    3    3    0  502  0.59008161908E+03 -0.97169669354E+02  0.62615775794E+02  0.60131612916E+03  0.46999998093E+01 0.  1.
</event>
<event>
 5   0  0.1023063E-04  0.1196109E+04  0.7818609E-02  0.9116270E-01
        2   -1    0    0  501    0  0.00000000000E+00  0.00000000000E+00  0.93187834548E+03  0.93187834548E+03  0.25500000920E-02 0.  1.
       -2   -1    0    0    0  501  0.00000000000E+00  0.00000000000E+00 -0.38381504156E+03  0.38381504157E+03  0.25500000920E-02 0. -1.
    10030    2    1    2    0    0  0.00000000000E+00  0.00000000000E+00  0.54806330391E+03  0.13156933871E+04  0.11961085668E+04 0.  0.
        3    1    3    3  502    0 -0.52158849795E+02  0.25857543370E+03 -0.31636788510E+03  0.41191072995E+03  0.10100000352E+00 0. -1.
       -3    1    3    3    0  502  0.52158849795E+02 -0.25857543370E+03  0.86443118902E+03  0.90378265710E+03  0.10100000352E+00 0.  1.
</event>
<event>
 5   0  0.5625746E-05  0.1199751E+04  0.7818609E-02  0.9113074E-01
        1   -1    0    0  501    0  0.00000000000E+00  0.00000000000E+00  0.21256379794E+04  0.21256379794E+04  0.50400001928E-02 0. -1.
       -1   -1    0    0    0  501  0.00000000000E+00  0.00000000000E+00 -0.16929074761E+03  0.16929074769E+03  0.50400001928E-02 0.  1.
    10030    2    1    2    0    0  0.00000000000E+00  0.00000000000E+00  0.19563472318E+04  0.22949287271E+04  0.11997513789E+04 0.  0.
        5    1    3    3  502    0 -0.22784558797E+03  0.28746669346E+03  0.18860722757E+04  0.19214165168E+04  0.46999998093E+01 0. -1.
       -5    1    3    3    0  502  0.22784558797E+03 -0.28746669346E+03  0.70274956105E+02  0.37351221032E+03  0.46999998093E+01 0.  1.
</event>
<event>
 5   0  0.5745487E-05  0.1198931E+04  0.7818609E-02  0.9113792E-01
        1   -1    0    0  501    0  0.00000000000E+00  0.00000000000E+00  0.78590781064E+03  0.78590781065E+03  0.50400001928E-02 0. -1.
       -1   -1    0    0    0  501  0.00000000000E+00  0.00000000000E+00 -0.45725344366E+03  0.45725344368E+03  0.50400001928E-02 0.  1.
    10030    2    1    2    0    0  0.00000000000E+00  0.00000000000E+00  0.32865436698E+03  0.12431612543E+04  0.11989312788E+04 0.  0.
        3    1    3    3  502    0  0.40513323224E+03  0.41408026175E+03  0.32416873651E+03  0.66383791619E+03  0.10100000352E+00 0.  1.
       -3    1    3    3    0  502 -0.40513323224E+03 -0.41408026175E+03  0.44856304746E+01  0.57932333815E+03  0.10100000352E+00 0. -1.
</event>
<event>
 5   0  0.5625746E-05  0.1199814E+04  0.7818609E-02  0.9113019E-01
        1   -1    0    0  501    0  0.00000000000E+00  0.00000000000E+00  0.85935980629E+03  0.85935980630E+03  0.50400001928E-02 0. -1.
       -1   -1    0    0    0  501  0.00000000000E+00  0.00000000000E+00 -0.41878662832E+03  0.41878662835E+03  0.50400001928E-02 0.  1.
    10030    2    1    2    0    0  0.00000000000E+00  0.00000000000E+00  0.44057317796E+03  0.12781464347E+04  0.11998139786E+04 0.  0.
        5    1    3    3  502    0  0.35224635355E+03  0.46789681848E+03  0.81957585949E+02  0.59139163186E+03  0.46999998093E+01 0.  1.
       -5    1    3    3    0  502 -0.35224635355E+03 -0.46789681848E+03  0.35861559202E+03  0.68675480280E+03  0.46999998093E+01 0. -1.
</event>
<event>
 5   0  0.9838215E-05  0.1200085E+04  0.7818609E-02  0.9112782E-01
       -2   -1    0    0    0  501  0.00000000000E+00  0.00000000000E+00  0.71505398983E+03  0.71505398984E+03  0.25500000920E-02 0.  1.
        2   -1    0    0  501    0  0.00000000000E+00  0.00000000000E+00 -0.50353010065E+03  0.50353010066E+03  0.25500000920E-02 0. -1.
    10030    2    1    2    0    0  0.00000000000E+00  0.00000000000E+00  0.21152388918E+03  0.12185840905E+04  0.12000853428E+04 0.  0.
        4    1    3    3  502    0  0.40024340464E+03  0.43985207708E+03  0.24624275408E+02  0.59520803128E+03  0.12699999809E+01 0. -1.
       -4    1    3    3    0  502 -0.40024340464E+03 -0.43985207708E+03  0.18689961377E+03  0.62337605921E+03  0.12699999809E+01 0.  1.
</event>
<event>
 5   0  0.5732931E-05  0.1199702E+04  0.7818609E-02  0.9113117E-01
        1   -1    0    0  501    0  0.00000000000E+00  0.00000000000E+00  0.64642299993E+03  0.64642299995E+03  0.50400001928E-02 0. -1.
       -1   -1    0    0    0  501  0.00000000000E+00  0.00000000000E+00 -0.55663460064E+03  0.55663460066E+03  0.50400001928E-02 0.  1.
    10030    2    1    2    0    0  0.00000000000E+00  0.00000000000E+00  0.89788399293E+02  0.12030576006E+04  0.11997023105E+04 0.  0.
        4    1    3    3  502    0 -0.10885543601E+03 -0.20269324705E+03 -0.51062782027E+03  0.56006824770E+03  0.12699999809E+01 0.  1.
       -4    1    3    3    0  502  0.10885543601E+03  0.20269324705E+03  0.60041621956E+03  0.64298935291E+03  0.12699999809E+01 0. -1.
</event>
<event>
 5   0  0.5745487E-05  0.1198840E+04  0.7818609E-02  0.9113872E-01
        1   -1    0    0  501    0  0.00000000000E+00  0.00000000000E+00  0.12514052339E+04  0.12514052339E+04  0.50400001928E-02 0. -1.
       -1   -1    0    0    0  501  0.00000000000E+00  0.00000000000E+00 -0.28712084157E+03  0.28712084162E+03  0.50400001928E-02 0.  1.
    10030    2    1    2    0    0  0.00000000000E+00  0.00000000000E+00  0.96428439234E+03  0.15385260755E+04  0.11988403129E+04 0.  0.
        3    1    3    3  502    0 -0.47355738948E+03 -0.13937079278E+03  0.45760079576E+02  0.49575680943E+03  0.10100000352E+00 0.  1.
       -3    1    3    3    0  502  0.47355738948E+03  0.13937079278E+03  0.91852431276E+03  0.10427692661E+04  0.10100000352E+00 0. -1.
</event>
<event>
 5   0  0.9941209E-05  0.1199954E+04  0.7818609E-02  0.9112897E-01
        2   -1    0    0  501    0  0.00000000000E+00  0.00000000000E+00  0.13058488330E+04  0.13058488330E+04  0.25500000920E-02 0. -1.
       -2   -1    0    0    0  501  0.00000000000E+00  0.00000000000E+00 -0.27566161405E+03  0.27566161406E+03  0.25500000920E-02 0.  1.
    10030    2    1    2    0    0  0.00000000000E+00  0.00000000000E+00  0.10301872190E+04  0.15815104471E+04  0.11999539941E+04 0.  0.
        2    1    3    3  502    0  0.54896413161E+03  0.88934382485E+02  0.21832519254E+03  0.59744190670E+03  0.25500000920E-02 0.  1.
       -2    1    3    3    0  502 -0.54896413161E+03 -0.88934382485E+02  0.81186202642E+03  0.98406854036E+03  0.25500000920E-02 0. -1.
</event>
<event>
 5   0  0.5745487E-05  0.1200374E+04  0.7818609E-02  0.9112529E-01
        1   -1    0    0  501    0  0.00000000000E+00  0.00000000000E+00  0.33693134028E+03  0.33693134032E+03  0.50400001928E-02 0. -1.
       -1   -1    0    0    0  501  0.00000000000E+00  0.00000000000E+00 -0.10691335046E+04  0.10691335047E+04  0.50400001928E-02 0.  1.
    10030    2    1    2    0    0  0.00000000000E+00  0.00000000000E+00 -0.73220216437E+03  0.14060648450E+04  0.12003742495E+04 0.  0.
        3    1    3    3  502    0 -0.16081074185E+03 -0.27131931209E+03  0.23203650834E+03  0.39155486871E+03  0.10100000352E+00 0. -1.
       -3    1    3    3    0  502  0.16081074185E+03  0.27131931209E+03 -0.96423867271E+03  0.10145099763E+04  0.10100000352E+00 0.  1.
</event>
<event>
 5   0  0.9838215E-05  0.1203605E+04  0.7818609E-02  0.9109707E-01
        2   -1    0    0  501    0  0.00000000000E+00  0.00000000000E+00  0.93502356044E+03  0.93502356045E+03  0.25500000920E-02 0. -1.
       -2   -1    0    0    0  501  0.00000000000E+00  0.00000000000E+00 -0.38733350645E+03  0.38733350646E+03  0.25500000920E-02 0.  1.
    10030    2    1    2    0    0  0.00000000000E+00  0.00000000000E+00  0.54769005399E+03  0.13223570669E+04  0.12036045103E+04 0.  0.
        4    1    3    3  502    0  0.62103480235E+02 -0.26208409179E+03  0.86510540910E+03  0.90606506123E+03  0.12699999809E+01 0. -1.
       -4    1    3    3    0  502 -0.62103480235E+02  0.26208409179E+03 -0.31741535511E+03  0.41629200567E+03  0.12699999809E+01 0.  1.
</event>
<event>
 5   0  0.1012657E-04  0.1199814E+04  0.7818609E-02  0.9113020E-01
        2   -1    0    0  501    0  0.00000000000E+00  0.00000000000E+00  0.92908426210E+03  0.92908426211E+03  0.25500000920E-02 0. -1.
       -2   -1    0    0    0  501  0.00000000000E+00  0.00000000000E+00 -0.38735802710E+03  0.38735802711E+03  0.25500000920E-02 0.  1.
    10030    2    1    2    0    0  0.00000000000E+00  0.00000000000E+00  0.54172623500E+03  0.13164422892E+04  0.11998137302E+04 0.  0.
        1    1    3    3  502    0  0.60598345451E+02 -0.54827350093E+03  0.12117351384E+02  0.55174525056E+03  0.50400001928E-02 0. -1.
       -1    1    3    3    0  502 -0.60598345451E+02  0.54827350093E+03  0.52960888362E+03  0.76469703865E+03  0.50400001928E-02 0.  1.
</event>
<event>
 5   0  0.1012657E-04  0.1199614E+04  0.7818609E-02  0.9113194E-01
        2   -1    0    0  501    0  0.00000000000E+00  0.00000000000E+00  0.13894365788E+04  0.13894365788E+04  0.25500000920E-02 0. -1.
       -2   -1    0    0    0  501  0.00000000000E+00  0.00000000000E+00 -0.25893127661E+03  0.25893127662E+03  0.25500000920E-02 0.  1.
    10030    2    1    2    0    0  0.00000000000E+00  0.00000000000E+00  0.11305053022E+04  0.16483678554E+04  0.11996142499E+04 0.  0.
        1    1    3    3  502    0 -0.20351526270E+03  0.35993372966E+03 -0.31797793358E+02  0.41470694664E+03  0.50400001928E-02 0.  1.
       -1    1    3    3    0  502  0.20351526270E+03 -0.35993372966E+03  0.11623030955E+04  0.12336609088E+04  0.50400001928E-02 0. -1.
</event>
<event>
 5   0  0.1023063E-04  0.1200516E+04  0.7818609E-02  0.9112405E-01
        2   -1    0    0  501    0  0.00000000000E+00  0.00000000000E+00  0.11439726402E+04  0.11439726402E+04  0.25500000920E-02 0. -1.
       -2   -1    0    0    0  501  0.00000000000E+00  0.00000000000E+00 -0.31496354696E+03  0.31496354697E+03  0.25500000920E-02 0.  1.
    10030    2    1    2    0    0  0.00000000000E+00  0.00000000000E+00  0.82900909322E+03  0.14589361872E+04  0.12005160230E+04 0.  0.
        3    1    3    3  502    0  0.53273814853E+01  0.46797888376E+03  0.87128146483E+03  0.98902174788E+03  0.10100000352E+00 0. -1.
       -3    1    3    3    0  502 -0.53273814853E+01 -0.46797888376E+03 -0.42272371606E+02  0.46991443927E+03  0.10100000352E+00 0.  1.
</event>
<event>
 5   0  0.1004006E-04  0.1202299E+04  0.7818609E-02  0.9110847E-01
       -2   -1    0    0    0  501  0.00000000000E+00  0.00000000000E+00  0.23633940898E+03  0.23633940899E+03  0.25500000920E-02 0.  1.
        2   -1    0    0  501    0  0.00000000000E+00  0.00000000000E+00 -0.15290745977E+04  0.15290745977E+04  0.25500000920E-02 0. -1.
    10030    2    1    2    0    0  0.00000000000E+00  0.00000000000E+00 -0.12927351888E+04  0.17654140067E+04  0.12022987761E+04 0.  0.
        5    1    3    3  502    0  0.13158679900E+03  0.32434229899E+03  0.71249342507E+02  0.35722761846E+03  0.46999998093E+01 0.  1.
       -5    1    3    3    0  502 -0.13158679900E+03 -0.32434229899E+03 -0.13639845313E+04  0.14081863883E+04  0.46999998093E+01 0. -1.
</event>
<event>
 5   0  0.5745487E-05  0.1200099E+04  0.7818609E-02  0.9112770E-01
        1   -1    0    0  501    0  0.00000000000E+00  0.00000000000E+00  0.12598614393E+04  0.12598614393E+04  0.50400001928E-02 0.  1.
       -1   -1    0    0    0  501  0.00000000000E+00  0.00000000000E+00 -0.28579297484E+03  0.28579297489E+03  0.50400001928E-02 0. -1.
    10030    2    1    2    0    0  0.00000000000E+00  0.00000000000E+00  0.97406846443E+03  0.15456544142E+04  0.12000992437E+04 0.  0.
        3    1    3    3  502    0  0.10792623057E+03 -0.51776212368E+03  0.85207765535E+03  0.10028768762E+04  0.10100000352E+00 0. -1.
       -3    1    3    3    0  502 -0.10792623057E+03  0.51776212368E+03  0.12199080907E+03  0.54277753791E+03  0.10100000352E+00 0.  1.
</event>
<event>
 5   0  0.5732931E-05  0.1200211E+04  0.7818609E-02  0.9112672E-01
       -1   -1    0    0    0  501  0.00000000000E+00  0.00000000000E+00  0.10856485073E+04  0.10856485073E+04  0.50400001928E-02 0. -1.
        1   -1    0    0  501    0  0.00000000000E+00  0.00000000000E+00 -0.33171572074E+03  0.33171572078E+03  0.50400001928E-02 0.  1.
    10030    2    1    2    0    0  0.00000000000E+00  0.00000000000E+00  0.75393278653E+03  0.14173642281E+04  0.12002111099E+04 0.  0.
        4    1    3    3  502    0  0.48174820365E+03 -0.38632629524E+02 -0.43137831365E+02  0.48521778325E+03  0.12699999809E+01 0.  1.
       -4    1    3    3    0  502 -0.48174820365E+03  0.38632629524E+02  0.79707061790E+03  0.93214644483E+03  0.12699999809E+01 0. -1.
</event>
<event>
 5   0  0.9838215E-05  0.1199823E+04  0.7818609E-02  0.9113011E-01
        2   -1    0    0  501    0  0.00000000000E+00  0.00000000000E+00  0.63964085141E+03  0.63964085142E+03  0.25500000920E-02 0.  1.
       -2   -1    0    0    0  501  0.00000000000E+00  0.00000000000E+00 -0.56264980047E+03  0.56264980048E+03  0.25500000920E-02 0. -1.
    10030    2    1    2    0    0  0.00000000000E+00  0.00000000000E+00  0.76991050941E+02  0.12022906519E+04  0.11998229827E+04 0.  0.
        4    1    3    3  502    0  0.26717806660E+03  0.53700048740E+03  0.26700939648E+02  0.60039003641E+03  0.12699999809E+01 0.  1.
       -4    1    3    3    0  502 -0.26717806660E+03 -0.53700048740E+03  0.50290111293E+02  0.60190061549E+03  0.12699999809E+01 0. -1.
</event>
<event>
 5   0  0.5745487E-05  0.1204605E+04  0.7818609E-02  0.9108835E-01
       -1   -1    0    0    0  501  0.00000000000E+00  0.00000000000E+00  0.36834583861E+03  0.36834583864E+03  0.50400001928E-02 0. -1.
        1   -1    0    0  501    0  0.00000000000E+00  0.00000000000E+00 -0.98485868601E+03  0.98485868602E+03  0.50400001928E-02 0.  1.
    10030    2    1    2    0    0  0.00000000000E+00  0.00000000000E+00 -0.61651284740E+03  0.13532045247E+04  0.12046054933E+04 0.  0.
        3    1    3    3  502    0  0.27909368677E+03  0.37364096337E+03  0.11990070705E+03  0.48153613079E+03  0.10100000352E+00 0. -1.
       -3    1    3    3    0  502 -0.27909368677E+03 -0.37364096337E+03 -0.73641355445E+03  0.87166839387E+03  0.10100000352E+00 0.  1.
</event>
<event>
 5   0  0.5447807E-05  0.1200086E+04  0.7818609E-02  0.9112781E-01
       -1   -1    0    0    0  501  0.00000000000E+00  0.00000000000E+00  0.55910050165E+03  0.55910050168E+03  0.50400001928E-02 0. -1.
        1   -1    0    0  501    0  0.00000000000E+00  0.00000000000E+00 -0.64398403677E+03  0.64398403679E+03  0.50400001928E-02 0.  1.
    10030    2    1    2    0    0  0.00000000000E+00  0.00000000000E+00 -0.84883535112E+02  0.12030845385E+04  0.12000863270E+04 0.  0.
        2    1    3    3  502    0 -0.35845044041E+03  0.47522412071E+03  0.33425004369E+02  0.59618949510E+03  0.25500000920E-02 0. -1.
       -2    1    3    3    0  502  0.35845044041E+03 -0.47522412071E+03 -0.11830853948E+03  0.60689504337E+03  0.25500000920E-02 0.  1.
</event>
<event>
 5   0  0.5745487E-05  0.1200405E+04  0.7818609E-02  0.9112502E-01
        1   -1    0    0  501    0  0.00000000000E+00  0.00000000000E+00  0.44410210519E+03  0.44410210522E+03  0.50400001928E-02 0. -1.
       -1   -1    0    0    0  501  0.00000000000E+00  0.00000000000E+00 -0.81117148011E+03  0.81117148013E+03  0.50400001928E-02 0.  1.
    10030    2    1    2    0    0  0.00000000000E+00  0.00000000000E+00 -0.36706937492E+03  0.12552735853E+04  0.12004048684E+04 0.  0.
        3    1    3    3  502    0 -0.56828700001E+02  0.30827670651E+03 -0.71876884092E+03  0.78415093305E+03  0.10100000352E+00 0.  1.
       -3    1    3    3    0  502  0.56828700001E+02 -0.30827670651E+03  0.35169946600E+03  0.47112265230E+03  0.10100000352E+00 0. -1.
</event>
<event>
 5   0  0.5745487E-05  0.1200057E+04  0.7818609E-02  0.9112807E-01
        1   -1    0    0  501    0  0.00000000000E+00  0.00000000000E+00  0.36053789526E+03  0.36053789530E+03  0.50400001928E-02 0.  1.
       -1   -1    0    0    0  501  0.00000000000E+00  0.00000000000E+00 -0.99860242133E+03  0.99860242135E+03  0.50400001928E-02 0. -1.
    10030    2    1    2    0    0  0.00000000000E+00  0.00000000000E+00 -0.63806452607E+03  0.13591403166E+04  0.12000566907E+04 0.  0.
        3    1    3    3  502    0  0.57408043742E+03  0.16709087479E+03 -0.37618236017E+03  0.70639994859E+03  0.10100000352E+00 0.  1.
       -3    1    3    3    0  502 -0.57408043742E+03 -0.16709087479E+03 -0.26188216590E+03  0.65274036805E+03  0.10100000352E+00 0. -1.
</event>
<event>
 5   0  0.5625746E-05  0.1200432E+04  0.7818609E-02  0.9112478E-01
        1   -1    0    0  501    0  0.00000000000E+00  0.00000000000E+00  0.83209469915E+03  0.83209469917E+03  0.50400001928E-02 0. -1.
       -1   -1    0    0    0  501  0.00000000000E+00  0.00000000000E+00 -0.43295463569E+03  0.43295463572E+03  0.50400001928E-02 0.  1.
    10030    2    1    2    0    0  0.00000000000E+00  0.00000000000E+00  0.39914006346E+03  0.12650493349E+04  0.12004320178E+04 0.  0.
        5    1    3    3  502    0  0.31112236484E+03 -0.29448836501E+03 -0.24343496049E+03  0.49275063980E+03  0.46999998093E+01 0.  1.
       -5    1    3    3    0  502 -0.31112236484E+03  0.29448836501E+03  0.64257502396E+03  0.77229869509E+03  0.46999998093E+01 0. -1.
</event>
<event>
 5   0  0.5447807E-05  0.1201819E+04  0.7818609E-02  0.9111266E-01
        1   -1    0    0  501    0  0.00000000000E+00  0.00000000000E+00  0.94736695505E+03  0.94736695506E+03  0.50400001928E-02 0.  1.
       -1   -1    0    0    0  501  0.00000000000E+00  0.00000000000E+00 -0.38115344333E+03  0.38115344336E+03  0.50400001928E-02 0. -1.
    10030    2    1    2    0    0  0.00000000000E+00  0.00000000000E+00  0.56621351172E+03  0.13285203984E+04  0.12018189166E+04 0.  0.
        2    1    3    3  502    0  0.28952525426E+03 -0.29152902707E+03 -0.20161681300E+03  0.45767170087E+03  0.25500000920E-02 0. -1.
       -2    1    3    3    0  502 -0.28952525426E+03  0.29152902707E+03  0.76783032472E+03  0.87084869756E+03  0.25500000920E-02 0.  1.
</event>
<event>
 5   0  0.3839750E-05  0.1199949E+04  0.7818609E-02  0.9112901E-01
       -3   -1    0    0    0  501  0.00000000000E+00  0.00000000000E+00  0.12552019688E+04  0.12552019729E+04  0.10100000352E+00 0.  1.
        3   -1    0    0  501    0  0.00000000000E+00  0.00000000000E+00 -0.28678194881E+03  0.28678196660E+03  0.10100000352E+00 0. -1.
    10030    2    1    2    0    0  0.00000000000E+00  0.00000000000E+00  0.96842002002E+03  0.15419839395E+04  0.11999488049E+04 0.  0.
        4    1    3    3  502    0 -0.36609701938E+02  0.23410596604E+03  0.11925252677E+04  0.12158388053E+04  0.12699999809E+01 0.  1.
       -4    1    3    3    0  502  0.36609701938E+02 -0.23410596604E+03 -0.22410524765E+03  0.32614513416E+03  0.12699999809E+01 0. -1.
</event>
<event>
 5   0  0.3839750E-05  0.1199920E+04  0.7818609E-02  0.9112927E-01
        4   -1    0    0  501    0  0.00000000000E+00  0.00000000000E+00  0.75119482099E+03  0.75119589455E+03  0.12699999809E+01 0. -1.
       -4   -1    0    0    0  501  0.00000000000E+00  0.00000000000E+00 -0.47917003445E+03  0.47917171746E+03  0.12699999809E+01 0.  1.
    10030    2    1    2    0    0  0.00000000000E+00  0.00000000000E+00  0.27202478654E+03  0.12303676120E+04  0.11999195707E+04 0.  0.
        5    1    3    3  502    0 -0.26978415122E+03 -0.51537723373E+03  0.28647538981E+03  0.64845001370E+03  0.46999998093E+01 0. -1.
       -5    1    3    3    0  502  0.26978415122E+03  0.51537723373E+03 -0.14450603267E+02  0.58191759832E+03  0.46999998093E+01 0.  1.
</event>
<event>
 5   0  0.1004006E-04  0.1199625E+04  0.7818609E-02  0.9113185E-01
        2   -1    0    0  501    0  0.00000000000E+00  0.00000000000E+00  0.43559748346E+03  0.43559748347E+03  0.25500000920E-02 0. -1.
       -2   -1    0    0    0  501  0.00000000000E+00  0.00000000000E+00 -0.82593463860E+03  0.82593463861E+03  0.25500000920E-02 0.  1.
    10030    2    1    2    0    0  0.00000000000E+00  0.00000000000E+00 -0.39033715514E+03  0.12615321221E+04  0.11996250249E+04 0.  0.
        5    1    3    3  502    0 -0.31236425689E+03 -0.31299060524E+02 -0.73262216029E+03  0.79706234381E+03  0.46999998093E+01 0.  1.
       -5    1    3    3    0  502  0.31236425689E+03  0.31299060524E+02  0.34228500515E+03  0.46446977826E+03  0.46999998093E+01 0. -1.
</event>
<event>
 5   0  0.5620246E-05  0.1199856E+04  0.7818609E-02  0.9112982E-01
       -1   -1    0    0    0  501  0.00000000000E+00  0.00000000000E+00  0.32537334345E+03  0.32537334349E+03  0.50400001928E-02 0.  1.
        1   -1    0    0  501    0  0.00000000000E+00  0.00000000000E+00 -0.11061560634E+04  0.11061560634E+04  0.50400001928E-02 0. -1.
    10030    2    1    2    0    0  0.00000000000E+00  0.00000000000E+00 -0.78078271995E+03  0.14315294069E+04  0.11998561527E+04 0.  0.
        1    1    3    3  502    0 -0.29783138151E+03  0.51606444723E+03 -0.47380195040E+03  0.76125838828E+03  0.50400001928E-02 0.  1.
       -1    1    3    3    0  502  0.29783138151E+03 -0.51606444723E+03 -0.30698076955E+03  0.67027101862E+03  0.50400001928E-02 0. -1.
</event>
<event>
 5   0  0.1004006E-04  0.1200554E+04  0.7818609E-02  0.9112372E-01
        2   -1    0    0  501    0  0.00000000000E+00  0.00000000000E+00  0.16188382562E+04  0.16188382563E+04  0.25500000920E-02 0. -1.
       -2   -1    0    0    0  501  0.00000000000E+00  0.00000000000E+00 -0.22258698276E+03  0.22258698278E+03  0.25500000920E-02 0.  1.
    10030    2    1    2    0    0  0.00000000000E+00  0.00000000000E+00  0.13962512735E+04  0.18414252390E+04  0.12005537440E+04 0.  0.
        5    1    3    3  502    0  0.19730001223E+03 -0.22415261086E+03 -0.10054573181E+03  0.31512413739E+03  0.46999998093E+01 0.  1.
       -5    1    3    3    0  502 -0.19730001223E+03  0.22415261086E+03  0.14967970053E+04  0.15263011016E+04  0.46999998093E+01 0. -1.
</event>
<event>
 5   0  0.5745487E-05  0.1199991E+04  0.7818609E-02  0.9112864E-01
        1   -1    0    0  501    0  0.00000000000E+00  0.00000000000E+00  0.11112617768E+04  0.11112617768E+04  0.50400001928E-02 0.  1.
       -1   -1    0    0    0  501  0.00000000000E+00  0.00000000000E+00 -0.32395123370E+03  0.32395123374E+03  0.50400001928E-02 0. -1.
    10030    2    1    2    0    0  0.00000000000E+00  0.00000000000E+00  0.78731054309E+03  0.14352130105E+04  0.11999910393E+04 0.  0.
        3    1    3    3  502    0  0.54554717375E+03 -0.20545784201E+03  0.56347310579E+03  0.81076297077E+03  0.10100000352E+00 0.  1.
       -3    1    3    3    0  502 -0.54554717375E+03  0.20545784201E+03  0.22383743730E+03  0.62445003977E+03  0.10100000352E+00 0. -1.
</event>
<event>
 5   0  0.9838215E-05  0.1200218E+04  0.7818609E-02  0.9112666E-01
        2   -1    0    0  501    0  0.00000000000E+00  0.00000000000E+00  0.15421058241E+04  0.15421058241E+04  0.25500000920E-02 0. -1.
       -2   -1    0    0    0  501  0.00000000000E+00  0.00000000000E+00 -0.23353177889E+03  0.23353177891E+03  0.25500000920E-02 0.  1.
    10030    2    1    2    0    0  0.00000000000E+00  0.00000000000E+00  0.13085740452E+04  0.17756376030E+04  0.12002178408E+04 0.  0.
        4    1    3    3  502    0 -0.48130475046E+02  0.21195813814E+02 -0.23011398639E+03  0.23605055557E+03  0.12699999809E+01 0.  1.
       -4    1    3    3    0  502  0.48130475046E+02 -0.21195813814E+02  0.15386880316E+04  0.15395870475E+04  0.12699999809E+01 0. -1.
</event>
<event>
 5   0  0.5732931E-05  0.1200086E+04  0.7818609E-02  0.9112781E-01
        1   -1    0    0  501    0  0.00000000000E+00  0.00000000000E+00  0.82025765650E+03  0.82025765652E+03  0.50400001928E-02 0. -1.
       -1   -1    0    0    0  501  0.00000000000E+00  0.00000000000E+00 -0.43894964776E+03  0.43894964779E+03  0.50400001928E-02 0.  1.
    10030    2    1    2    0    0  0.00000000000E+00  0.00000000000E+00  0.38130800874E+03  0.12592073043E+04  0.12000863459E+04 0.  0.
        4    1    3    3  502    0  0.11112429561E+01  0.38799930758E+03 -0.28961267100E+03  0.48417126066E+03  0.12699999809E+01 0.  1.
       -4    1    3    3    0  502 -0.11112429561E+01 -0.38799930758E+03  0.67092067975E+03  0.77503604365E+03  0.12699999809E+01 0. -1.
</event>
<event>
 5   0  0.9838215E-05  0.1200086E+04  0.7818609E-02  0.9112781E-01
        2   -1    0    0  501    0  0.00000000000E+00  0.00000000000E+00  0.11706510263E+04  0.11706510263E+04  0.25500000920E-02 0. -1.
       -2   -1    0    0    0  501  0.00000000000E+00  0.00000000000E+00 -0.30756547015E+03  0.30756547016E+03  0.25500000920E-02 0.  1.
    10030    2    1    2    0    0  0.00000000000E+00  0.00000000000E+00  0.86308555615E+03  0.14782164965E+04  0.12000863857E+04 0.  0.
        4    1    3    3  502    0  0.38499212249E+03  0.27719539931E+03 -0.21024096926E+02  0.47486824418E+03  0.12699999809E+01 0.  1.
       -4    1    3    3    0  502 -0.38499212249E+03 -0.27719539931E+03  0.88410965308E+03  0.10033482523E+04  0.12699999809E+01 0. -1.
</event>
<event>
 5   0  0.9941209E-05  0.1199995E+04  0.7818609E-02  0.9112861E-01
       -2   -1    0    0    0  501  0.00000000000E+00  0.00000000000E+00  0.26927297255E+03  0.26927297256E+03  0.25500000920E-02 0. -1.
        2   -1    0    0  501    0  0.00000000000E+00  0.00000000000E+00 -0.13369227628E+04  0.13369227628E+04  0.25500000920E-02 0.  1.
    10030    2    1    2    0    0  0.00000000000E+00  0.00000000000E+00 -0.10676497903E+04  0.16061957354E+04  0.11999952774E+04 0.  0.
        2    1    3    3  502    0  0.44115439200E+03 -0.28635832140E+03 -0.92032263778E+03  0.10600056809E+04  0.25500000920E-02 0.  1.
       -2    1    3    3    0  502 -0.44115439200E+03  0.28635832140E+03 -0.14732715251E+03  0.54619005455E+03  0.25500000920E-02 0. -1.
</event>
<event>
 5   0  0.5620246E-05  0.1200121E+04  0.7818609E-02  0.9112751E-01
       -1   -1    0    0    0  501  0.00000000000E+00  0.00000000000E+00  0.50920400001E+03  0.50920400004E+03  0.50400001928E-02 0.  1.
        1   -1    0    0  501    0  0.00000000000E+00  0.00000000000E+00 -0.70712798593E+03  0.70712798595E+03  0.50400001928E-02 0. -1.
    10030    2    1    2    0    0  0.00000000000E+00  0.00000000000E+00 -0.19792398592E+03  0.12163319860E+04  0.12001206589E+04 0.  0.
        1    1    3    3  502    0 -0.74495172893E+02 -0.42687072322E+03 -0.51966461183E+03  0.67662356886E+03  0.50400001928E-02 0. -1.
       -1    1    3    3    0  502  0.74495172893E+02  0.42687072322E+03  0.32174062591E+03  0.53970841712E+03  0.50400001928E-02 0.  1.
</event>
<event>
 5   0  0.3839750E-05  0.1199621E+04  0.7818609E-02  0.9113188E-01
        3   -1    0    0  501    0  0.00000000000E+00  0.00000000000E+00  0.59587703123E+03  0.59587703979E+03  0.10100000352E+00 0. -1.
       -3   -1    0    0    0  501  0.00000000000E+00  0.00000000000E+00 -0.60376999563E+03  0.60377000407E+03  0.10100000352E+00 0.  1.
    10030    2    1    2    0    0  0.00000000000E+00  0.00000000000E+00 -0.78929643989E+01  0.11996470439E+04  0.11996210781E+04 0.  0.
        2    1    3    3  502    0  0.11455940585E+00 -0.56545810653E+03  0.19613233297E+03  0.59850712227E+03  0.25500000920E-02 0. -1.
       -2    1    3    3    0  502 -0.11455940585E+00  0.56545810653E+03 -0.20402529737E+03  0.60113992159E+03  0.25500000920E-02 0.  1.
</event>
<event>
 5   0  0.5620246E-05  0.1200106E+04  0.7818609E-02  0.9112763E-01
       -1   -1    0    0    0  501  0.00000000000E+00  0.00000000000E+00  0.49787499216E+03  0.49787499219E+03  0.50400001928E-02 0. -1.
        1   -1    0    0  501    0  0.00000000000E+00  0.00000000000E+00 -0.72320140807E+03  0.72320140809E+03  0.50400001928E-02 0.  1.
    10030    2    1    2    0    0  0.00000000000E+00  0.00000000000E+00 -0.22532641591E+03  0.12210764003E+04  0.12001064876E+04 0.  0.
        1    1    3    3  502    0  0.50806312933E+03  0.31915068239E+03 -0.10364297980E+03  0.60887368866E+03  0.50400001928E-02 0.  1.
       -1    1    3    3    0  502 -0.50806312933E+03 -0.31915068239E+03 -0.12168343611E+03  0.61220271161E+03  0.50400001928E-02 0. -1.
</event>
<event>
 5   0  0.1004006E-04  0.1200006E+04  0.7818609E-02  0.9112851E-01
        2   -1    0    0  501    0  0.00000000000E+00  0.00000000000E+00  0.70878576785E+03  0.70878576786E+03  0.25500000920E-02 0.  1.
       -2   -1    0    0    0  501  0.00000000000E+00  0.00000000000E+00 -0.50791603036E+03  0.50791603037E+03  0.25500000920E-02 0. -1.
    10030    2    1    2    0    0  0.00000000000E+00  0.00000000000E+00  0.20086973749E+03  0.12167017982E+04  0.12000060893E+04 0.  0.
        5    1    3    3  502    0  0.19680904610E+03  0.43721454503E+03  0.46613462225E+03  0.66872560522E+03  0.46999998093E+01 0.  1.
       -5    1    3    3    0  502 -0.19680904610E+03 -0.43721454503E+03 -0.26526488477E+03  0.54797619301E+03  0.46999998093E+01 0. -1.
</event>
<event>
 5   0  0.1023063E-04  0.1199628E+04  0.7818609E-02  0.9113183E-01
        2   -1    0    0  501    0  0.00000000000E+00  0.00000000000E+00  0.17123244786E+04  0.17123244786E+04  0.25500000920E-02 0.  1.
       -2   -1    0    0    0  501  0.00000000000E+00  0.00000000000E+00 -0.21011005100E+03  0.21011005101E+03  0.25500000920E-02 0. -1.
    10030    2    1    2    0    0  0.00000000000E+00  0.00000000000E+00  0.15022144276E+04  0.19224345296E+04  0.11996275814E+04 0.  0.
        3    1    3    3  502    0 -0.32208626301E+03 -0.45462397863E+03  0.39509367263E+03  0.68302382325E+03  0.10100000352E+00 0.  1.
       -3    1    3    3    0  502  0.32208626301E+03  0.45462397863E+03  0.11071207549E+04  0.12394107063E+04  0.10100000352E+00 0. -1.
</event>
<event>
 5   0  0.1004006E-04  0.1199743E+04  0.7818609E-02  0.9113082E-01
       -2   -1    0    0    0  501  0.00000000000E+00  0.00000000000E+00  0.67876021382E+03  0.67876021383E+03  0.25500000920E-02 0. -1.
        2   -1    0    0  501    0  0.00000000000E+00  0.00000000000E+00 -0.53015126546E+03  0.53015126547E+03  0.25500000920E-02 0.  1.
    10030    2    1    2    0    0  0.00000000000E+00  0.00000000000E+00  0.14860894836E+03  0.12089114793E+04  0.11997426162E+04 0.  0.
        5    1    3    3  502    0  0.52112691836E+03  0.60298697402E+02 -0.21880394586E+03  0.56842453736E+03  0.46999998093E+01 0.  1.
       -5    1    3    3    0  502 -0.52112691836E+03 -0.60298697402E+02  0.36741289422E+03  0.64048694193E+03  0.46999998093E+01 0. -1.
</event>
<event>
 5   0  0.5447807E-05  0.1200130E+04  0.7818609E-02  0.9112743E-01
       -1   -1    0    0    0  501  0.00000000000E+00  0.00000000000E+00  0.41981274085E+03  0.41981274088E+03  0.50400001928E-02 0.  1.
        1   -1    0    0  501    0  0.00000000000E+00  0.00000000000E+00 -0.85771100921E+03  0.85771100923E+03  0.50400001928E-02 0. -1.
    10030    2    1    2    0    0  0.00000000000E+00  0.00000000000E+00 -0.43789826836E+03  0.12775237501E+04  0.12001300091E+04 0.  0.
        2    1    3    3  502    0  0.49694118831E+03  0.32425620559E+03 -0.31407276773E+03  0.67136751108E+03  0.25500000920E-02 0. -1.
       -2    1    3    3    0  502 -0.49694118831E+03 -0.32425620559E+03 -0.12382550063E+03  0.60615623903E+03  0.25500000920E-02 0.  1.
</event>
<event>
 5   0  0.9838215E-05  0.1200140E+04  0.7818609E-02  0.9112734E-01
        2   -1    0    0  501    0  0.00000000000E+00  0.00000000000E+00  0.27341045107E+04  0.27341045107E+04  0.25500000920E-02 0.  1.
       -2   -1    0    0    0  501  0.00000000000E+00  0.00000000000E+00 -0.13170099811E+03  0.13170099813E+03  0.25500000920E-02 0. -1.
    10030    2    1    2    0    0  0.00000000000E+00  0.00000000000E+00  0.26024035126E+04  0.28658055088E+04  0.12001404802E+04 0.  0.
        4    1    3    3  502    0  0.52595399960E+03  0.20334715232E+03  0.81121821092E+03  0.98795459040E+03  0.12699999809E+01 0.  1.
       -4    1    3    3    0  502 -0.52595399960E+03 -0.20334715232E+03  0.17911853017E+04  0.18778509184E+04  0.12699999809E+01 0. -1.
</event>
<event>
 5   0  0.5620246E-05  0.1199817E+04  0.7818609E-02  0.9113017E-01
        1   -1    0    0  501    0  0.00000000000E+00  0.00000000000E+00  0.97253512842E+03  0.97253512843E+03  0.50400001928E-02 0. -1.
       -1   -1    0    0    0  501  0.00000000000E+00  0.00000000000E+00 -0.37005383605E+03  0.37005383609E+03  0.50400001928E-02 0.  1.
    10030    2    1    2    0    0  0.00000000000E+00  0.00000000000E+00  0.60248129237E+03  0.13425889645E+04  0.11998172444E+04 0.  0.
        1    1    3    3  502    0  0.91880425694E+02 -0.21613498072E+03  0.91895606035E+03  0.94849174135E+03  0.50400001928E-02 0. -1.
       -1    1    3    3    0  502 -0.91880425694E+02  0.21613498072E+03 -0.31647476798E+03  0.39409722317E+03  0.50400001928E-02 0.  1.
</event>
<event>
 5   0  0.1023063E-04  0.1200276E+04  0.7818609E-02  0.9112615E-01
        2   -1    0    0  501    0  0.00000000000E+00  0.00000000000E+00  0.71450914885E+03  0.71450914885E+03  0.25500000920E-02 0.  1.
       -2   -1    0    0    0  501  0.00000000000E+00  0.00000000000E+00 -0.50407452062E+03  0.50407452062E+03  0.25500000920E-02 0. -1.
    10030    2    1    2    0    0  0.00000000000E+00  0.00000000000E+00  0.21043462823E+03  0.12185836695E+04  0.12002763960E+04 0.  0.
        3    1    3    3  502    0  0.50612419244E+03  0.19158716903E+03  0.36859367730E+03  0.65477374005E+03  0.10100000352E+00 0.  1.
       -3    1    3    3    0  502 -0.50612419244E+03 -0.19158716903E+03 -0.15815904907E+03  0.56380992942E+03  0.10100000352E+00 0. -1.
</event>
<event>
 5   0  0.5620246E-05  0.1200465E+04  0.7818609E-02  0.9112450E-01
        1   -1    0    0  501    0  0.00000000000E+00  0.00000000000E+00  0.11286911291E+04  0.11286911291E+04  0.50400001928E-02 0.  1.
       -1   -1    0    0    0  501  0.00000000000E+00  0.00000000000E+00 -0.31920074934E+03  0.31920074938E+03  0.50400001928E-02 0. -1.
    10030    2    1    2    0    0  0.00000000000E+00  0.00000000000E+00  0.80949037973E+03  0.14478918785E+04  0.12004650003E+04 0.  0.
        1    1    3    3  502    0 -0.15931861429E+03  0.39058922009E+03  0.91976468417E+03  0.10118841011E+04  0.50400001928E-02 0.  1.
       -1    1    3    3    0  502  0.15931861429E+03 -0.39058922009E+03 -0.11027430444E+03  0.43600777741E+03  0.50400001928E-02 0. -1.
</event>
<event>
 5   0  0.1004006E-04  0.1200210E+04  0.7818609E-02  0.9112673E-01
       -2   -1    0    0    0  501  0.00000000000E+00  0.00000000000E+00  0.35148671766E+03  0.35148671767E+03  0.25500000920E-02 0. -1.
        2   -1    0    0  501    0  0.00000000000E+00  0.00000000000E+00 -0.10245785886E+04  0.10245785886E+04  0.25500000920E-02 0.  1.
    10030    2    1    2    0    0  0.00000000000E+00  0.00000000000E+00 -0.67309187090E+03  0.13760653062E+04  0.12002095902E+04 0.  0.
        5    1    3    3  502    0  0.39061169733E+03 -0.32384352068E+03  0.30791095020E+02  0.50835254058E+03  0.46999998093E+01 0. -1.
       -5    1    3    3    0  502 -0.39061169733E+03  0.32384352068E+03 -0.70388296592E+03  0.86771276566E+03  0.46999998093E+01 0.  1.
</event>
<event>
 5   0  0.3839750E-05  0.1200590E+04  0.7818609E-02  0.9112341E-01
       -3   -1    0    0    0  501  0.00000000000E+00  0.00000000000E+00  0.91242847085E+03  0.91242847644E+03  0.10100000352E+00 0. -1.
        3   -1    0    0  501    0  0.00000000000E+00  0.00000000000E+00 -0.39493925590E+03  0.39493926881E+03  0.10100000352E+00 0.  1.
    10030    2    1    2    0    0  0.00000000000E+00  0.00000000000E+00  0.51748921496E+03  0.13073677453E+04  0.12005895776E+04 0.  0.
        4    1    3    3  502    0 -0.15818569881E+03 -0.30377228953E+03 -0.27810508490E+03  0.44118518826E+03  0.12699999809E+01 0.  1.
       -4    1    3    3    0  502  0.15818569881E+03  0.30377228953E+03  0.79559429985E+03  0.86618255700E+03  0.12699999809E+01 0. -1.
</event>
<event>
 5   0  0.5732931E-05  0.1199931E+04  0.7818609E-02  0.9112917E-01
       -1   -1    0    0    0  501  0.00000000000E+00  0.00000000000E+00  0.22502321178E+03  0.22502321183E+03  0.50400001928E-02 0. -1.
        1   -1    0    0  501    0  0.00000000000E+00  0.00000000000E+00 -0.15996514045E+04  0.15996514045E+04  0.50400001928E-02 0.  1.
    10030    2    1    2    0    0  0.00000000000E+00  0.00000000000E+00 -0.13746281927E+04  0.18246746163E+04  0.11999311594E+04 0.  0.
        4    1    3    3  502    0  0.28488347628E+01  0.44008713117E+03 -0.13073816863E+04  0.13794684793E+04  0.12699999809E+01 0.  1.
       -4    1    3    3    0  502 -0.28488347628E+01 -0.44008713117E+03 -0.67246506384E+02  0.44520613698E+03  0.12699999809E+01 0. -1.
</event>
<event>
 5   0  0.9941209E-05  0.1201256E+04  0.7818609E-02  0.9111758E-01
       -2   -1    0    0    0  501  0.00000000000E+00  0.00000000000E+00  0.16862751695E+03  0.16862751697E+03  0.25500000920E-02 0.  1.
        2   -1    0    0  501    0  0.00000000000E+00  0.00000000000E+00 -0.21393543365E+04  0.21393543365E+04  0.25500000920E-02 0. -1.
    10030    2    1    2    0    0  0.00000000000E+00  0.00000000000E+00 -0.19707268196E+04  0.23079818535E+04  0.12012560254E+04 0.  0.
        2    1    3    3  502    0  0.22948510054E+03  0.19757038645E+03  0.11231323719E+02  0.30302411061E+03  0.25500000920E-02 0.  1.
       -2    1    3    3    0  502 -0.22948510054E+03 -0.19757038645E+03 -0.19819581433E+04  0.20049577429E+04  0.25500000920E-02 0. -1.
</event>
<event>
 5   0  0.1023063E-04  0.1201604E+04  0.7818609E-02  0.9111454E-01
       -2   -1    0    0    0  501  0.00000000000E+00  0.00000000000E+00  0.12807555286E+04  0.12807555286E+04  0.25500000920E-02 0. -1.
        2   -1    0    0  501    0  0.00000000000E+00  0.00000000000E+00 -0.28183590267E+03  0.28183590268E+03  0.25500000920E-02 0.  1.
    10030    2    1    2    0    0  0.00000000000E+00  0.00000000000E+00  0.99891962596E+03  0.15625914313E+04  0.12016037459E+04 0.  0.
        3    1    3    3  502    0  0.48298368967E+03 -0.35539767056E+03  0.45111400060E+03  0.75038963244E+03  0.10100000352E+00 0.  1.
       -3    1    3    3    0  502 -0.48298368967E+03  0.35539767056E+03  0.54780562535E+03  0.81220179888E+03  0.10100000352E+00 0. -1.
</event>
<event>
 5   0  0.5625746E-05  0.1197658E+04  0.7818609E-02  0.9114909E-01
       -1   -1    0    0    0  501  0.00000000000E+00  0.00000000000E+00  0.37896627415E+03  0.37896627418E+03  0.50400001928E-02 0.  1.
        1   -1    0    0  501    0  0.00000000000E+00  0.00000000000E+00 -0.94624798460E+03  0.94624798461E+03  0.50400001928E-02 0. -1.
    10030    2    1    2    0    0  0.00000000000E+00  0.00000000000E+00 -0.56728171045E+03  0.13252142588E+04  0.11976578362E+04 0.  0.
        5    1    3    3  502    0  0.78340096791E+02  0.50125450770E+03  0.68326387428E+02  0.51194124416E+03  0.46999998093E+01 0. -1.
       -5    1    3    3    0  502 -0.78340096791E+02 -0.50125450770E+03 -0.63560809788E+03  0.81327301464E+03  0.46999998093E+01 0.  1.
</event>
<event>
 5   0  0.3839750E-05  0.1200756E+04  0.7818609E-02  0.9112195E-01
       -4   -1    0    0    0  501  0.00000000000E+00  0.00000000000E+00  0.29198771466E+03  0.29199047658E+03  0.12699999809E+01 0. -1.
        4   -1    0    0  501    0  0.00000000000E+00  0.00000000000E+00 -0.12344730763E+04  0.12344737296E+04  0.12699999809E+01 0.  1.
    10030    2    1    2    0    0  0.00000000000E+00  0.00000000000E+00 -0.94248536162E+03  0.15264642061E+04  0.12007557269E+04 0.  0.
        4    1    3    3  502    0 -0.15328422385E+03 -0.56626659742E+03 -0.30894966651E+03  0.66302746698E+03  0.12699999809E+01 0. -1.
       -4    1    3    3    0  502  0.15328422385E+03  0.56626659742E+03 -0.63353569511E+03  0.86343673915E+03  0.12699999809E+01 0.  1.
</event>
<event>
 5   0  0.9838215E-05  0.1203163E+04  0.7818609E-02  0.9110092E-01
       -2   -1    0    0    0  501  0.00000000000E+00  0.00000000000E+00  0.38898292736E+03  0.38898292737E+03  0.25500000920E-02 0.  1.
        2   -1    0    0  501    0  0.00000000000E+00  0.00000000000E+00 -0.93037624405E+03  0.93037624405E+03  0.25500000920E-02 0. -1.
    10030    2    1    2    0    0  0.00000000000E+00  0.00000000000E+00 -0.54139331669E+03  0.13193591714E+04  0.12031632889E+04 0.  0.
        4    1    3    3  502    0 -0.14849213360E+03  0.47274966674E+03 -0.64475054160E+03  0.81317097521E+03  0.12699999809E+01 0. -1.
       -4    1    3    3    0  502  0.14849213360E+03 -0.47274966674E+03  0.10335722491E+03  0.50618819621E+03  0.12699999809E+01 0.  1.
</event>
<event>
 5   0  0.9941209E-05  0.1201572E+04  0.7818609E-02  0.9111481E-01
        2   -1    0    0  501    0  0.00000000000E+00  0.00000000000E+00  0.76292708963E+03  0.76292708963E+03  0.25500000920E-02 0. -1.
       -2   -1    0    0    0  501  0.00000000000E+00  0.00000000000E+00 -0.47310432072E+03  0.47310432073E+03  0.25500000920E-02 0.  1.
    10030    2    1    2    0    0  0.00000000000E+00  0.00000000000E+00  0.28982276891E+03  0.12360314104E+04  0.12015724739E+04 0.  0.
        2    1    3    3  502    0  0.29200374297E+03 -0.47674345957E+03  0.37120560292E+03  0.67107683003E+03  0.25500000920E-02 0. -1.
       -2    1    3    3    0  502 -0.29200374297E+03  0.47674345957E+03 -0.81382834018E+02  0.56495458033E+03  0.25500000920E-02 0.  1.
</event>
<event>
 5   0  0.5447807E-05  0.1199897E+04  0.7818609E-02  0.9112946E-01
        1   -1    0    0  501    0  0.00000000000E+00  0.00000000000E+00  0.46869185418E+03  0.46869185421E+03  0.50400001928E-02 0. -1.
       -1   -1    0    0    0  501  0.00000000000E+00  0.00000000000E+00 -0.76796374620E+03  0.76796374622E+03  0.50400001928E-02 0.  1.
    10030    2    1    2    0    0  0.00000000000E+00  0.00000000000E+00 -0.29927189202E+03  0.12366556004E+04  0.11998972492E+04 0.  0.
        2    1    3    3  502    0  0.46632015843E+03 -0.18724764051E+03  0.18815787261E+03  0.53658135829E+03  0.25500000920E-02 0. -1.
       -2    1    3    3    0  502 -0.46632015843E+03  0.18724764051E+03 -0.48742976463E+03  0.70007424213E+03  0.25500000920E-02 0.  1.
</event>
<event>
 5   0  0.9941209E-05  0.1199774E+04  0.7818609E-02  0.9113054E-01
        2   -1    0    0  501    0  0.00000000000E+00  0.00000000000E+00  0.12690123414E+04  0.12690123414E+04  0.25500000920E-02 0.  1.
       -2   -1    0    0    0  501  0.00000000000E+00  0.00000000000E+00 -0.28357833324E+03  0.28357833326E+03  0.25500000920E-02 0. -1.
    10030    2    1    2    0    0  0.00000000000E+00  0.00000000000E+00  0.98543400817E+03  0.15525906747E+04  0.11997739865E+04 0.  0.
        2    1    3    3  502    0  0.24582315601E+03  0.28951125955E+03  0.10936148598E+04  0.11576870281E+04  0.25500000920E-02 0.  1.
       -2    1    3    3    0  502 -0.24582315601E+03 -0.28951125955E+03 -0.10818085161E+03  0.39490364660E+03  0.25500000920E-02 0. -1.
</event>
<event>
 5   0  0.1004006E-04  0.1197272E+04  0.7818609E-02  0.9115248E-01
        2   -1    0    0  501    0  0.00000000000E+00  0.00000000000E+00  0.22218229516E+04  0.22218229516E+04  0.25500000920E-02 0. -1.
       -2   -1    0    0    0  501  0.00000000000E+00  0.00000000000E+00 -0.16129330193E+03  0.16129330195E+03  0.25500000920E-02 0.  1.
    10030    2    1    2    0    0  0.00000000000E+00  0.00000000000E+00  0.20605296497E+04  0.23831162536E+04  0.11972721666E+04 0.  0.
        5    1    3    3  502    0  0.56921851354E+03 -0.47645846408E+02  0.67384983611E+03  0.88338866558E+03  0.46999998093E+01 0.  1.
       -5    1    3    3    0  502 -0.56921851354E+03  0.47645846408E+02  0.13866798136E+04  0.14997275880E+04  0.46999998093E+01 0. -1.
</event>
<event>
 5   0  0.9838215E-05  0.1199211E+04  0.7818609E-02  0.9113547E-01
        2   -1    0    0  501    0  0.00000000000E+00  0.00000000000E+00  0.11442266151E+04  0.11442266151E+04  0.25500000920E-02 0.  1.
       -2   -1    0    0    0  501  0.00000000000E+00  0.00000000000E+00 -0.31420937808E+03  0.31420937809E+03  0.25500000920E-02 0. -1.
    10030    2    1    2    0    0  0.00000000000E+00  0.00000000000E+00  0.83001723700E+03  0.14584359932E+04  0.11992109624E+04 0.  0.
        4    1    3    3  502    0 -0.40454715323E+03 -0.35824693093E+03  0.73103754646E+03  0.90907467787E+03  0.12699999809E+01 0.  1.
       -4    1    3    3    0  502  0.40454715323E+03  0.35824693093E+03  0.98979690546E+02  0.54936131530E+03  0.12699999809E+01 0. -1.
</event>
<event>
 5   0  0.9941209E-05  0.1200618E+04  0.7818609E-02  0.9112316E-01
        2   -1    0    0  501    0  0.00000000000E+00  0.00000000000E+00  0.58415073554E+03  0.58415073555E+03  0.25500000920E-02 0. -1.
       -2   -1    0    0    0  501  0.00000000000E+00  0.00000000000E+00 -0.61691372220E+03  0.61691372221E+03  0.25500000920E-02 0.  1.
    10030    2    1    2    0    0  0.00000000000E+00  0.00000000000E+00 -0.32762986664E+02  0.12010644578E+04  0.12006175154E+04 0.  0.
        2    1    3    3  502    0 -0.31948261284E+03  0.61037301126E+02 -0.52112448227E+03  0.61430075538E+03  0.25500000920E-02 0.  1.
       -2    1    3    3    0  502  0.31948261284E+03 -0.61037301126E+02  0.48836149560E+03  0.58676370238E+03  0.25500000920E-02 0. -1.
</event>
<event>
 5   0  0.1004006E-04  0.1199535E+04  0.7818609E-02  0.9113263E-01
        2   -1    0    0  501    0  0.00000000000E+00  0.00000000000E+00  0.17722769478E+04  0.17722769478E+04  0.25500000920E-02 0. -1.
       -2   -1    0    0    0  501  0.00000000000E+00  0.00000000000E+00 -0.20297129402E+03  0.20297129403E+03  0.25500000920E-02 0.  1.
    10030    2    1    2    0    0  0.00000000000E+00  0.00000000000E+00  0.15693056538E+04  0.19752482418E+04  0.11995354859E+04 0.  0.
        5    1    3    3  502    0 -0.56093175851E+03 -0.19286256929E+03  0.63867462689E+03  0.87164658972E+03  0.46999998093E+01 0. -1.
       -5    1    3    3    0  502  0.56093175851E+03  0.19286256929E+03  0.93063102690E+03  0.11036016521E+04  0.46999998093E+01 0.  1.
</event>
<event>
 5   0  0.5620246E-05  0.1200038E+04  0.7818609E-02  0.9112823E-01
        1   -1    0    0  501    0  0.00000000000E+00  0.00000000000E+00  0.78118763307E+03  0.78118763309E+03  0.50400001928E-02 0. -1.
       -1   -1    0    0    0  501  0.00000000000E+00  0.00000000000E+00 -0.46086626705E+03  0.46086626708E+03  0.50400001928E-02 0.  1.
    10030    2    1    2    0    0  0.00000000000E+00  0.00000000000E+00  0.32032136602E+03  0.12420539002E+04  0.12000383800E+04 0.  0.
        1    1    3    3  502    0 -0.54254465878E+03 -0.18279929726E+03  0.34603894558E+03  0.66896430528E+03  0.50400001928E-02 0. -1.
       -1    1    3    3    0  502  0.54254465878E+03  0.18279929726E+03 -0.25717579553E+02  0.57308959489E+03  0.50400001928E-02 0.  1.
</event>
<event>
 5   0  0.1023063E-04  0.1198266E+04  0.7818609E-02  0.9114375E-01
       -2   -1    0    0    0  501  0.00000000000E+00  0.00000000000E+00  0.24514827264E+03  0.24514827266E+03  0.25500000920E-02 0.  1.
        2   -1    0    0  501    0  0.00000000000E+00  0.00000000000E+00 -0.14642588820E+04  0.14642588820E+04  0.25500000920E-02 0. -1.
    10030    2    1    2    0    0  0.00000000000E+00  0.00000000000E+00 -0.12191106094E+04  0.17094071547E+04  0.11982663070E+04 0.  0.
        3    1    3    3  502    0  0.50817313844E+03  0.76997885656E+02 -0.10487709604E+04  0.11679422720E+04  0.10100000352E+00 0. -1.
       -3    1    3    3    0  502 -0.50817313844E+03 -0.76997885656E+02 -0.17033964899E+03  0.54146488274E+03  0.10100000352E+00 0.  1.
</event>
<event>
 5   0  0.5620246E-05  0.1200471E+04  0.7818609E-02  0.9112444E-01
       -1   -1    0    0    0  501  0.00000000000E+00  0.00000000000E+00  0.65581162502E+03  0.65581162503E+03  0.50400001928E-02 0. -1.
        1   -1    0    0  501    0  0.00000000000E+00  0.00000000000E+00 -0.54936901487E+03  0.54936901490E+03  0.50400001928E-02 0.  1.
    10030    2    1    2    0    0  0.00000000000E+00  0.00000000000E+00  0.10644261014E+03  0.12051806399E+04  0.12004708849E+04 0.  0.
        1    1    3    3  502    0  0.49011244645E+03  0.32444060986E+03  0.17539784513E+03  0.61338105904E+03  0.50400001928E-02 0.  1.
       -1    1    3    3    0  502 -0.49011244645E+03 -0.32444060986E+03 -0.68955234992E+02  0.59179958089E+03  0.50400001928E-02 0. -1.
</event>
<event>
 5   0  0.9941209E-05  0.1200459E+04  0.7818609E-02  0.9112455E-01
        2   -1    0    0  501    0  0.00000000000E+00  0.00000000000E+00  0.59485408002E+03  0.59485408002E+03  0.25500000920E-02 0. -1.
       -2   -1    0    0    0  501  0.00000000000E+00  0.00000000000E+00 -0.60565323765E+03  0.60565323765E+03  0.25500000920E-02 0.  1.
    10030    2    1    2    0    0  0.00000000000E+00  0.00000000000E+00 -0.10799157629E+02  0.12005073177E+04  0.12004587448E+04 0.  0.
        2    1    3    3  502    0 -0.11313128185E+03 -0.27981800035E+03 -0.52424472203E+03  0.60492092775E+03  0.25500000920E-02 0.  1.
       -2    1    3    3    0  502  0.11313128185E+03  0.27981800035E+03  0.51344556440E+03  0.59558638992E+03  0.25500000920E-02 0. -1.
</event>
<event>
 5   0  0.1004006E-04  0.1200109E+04  0.7818609E-02  0.9112761E-01
       -2   -1    0    0    0  501  0.00000000000E+00  0.00000000000E+00  0.49900649931E+03  0.49900649932E+03  0.25500000920E-02 0. -1.
        2   -1    0    0  501    0  0.00000000000E+00  0.00000000000E+00 -0.72156416372E+03  0.72156416372E+03  0.25500000920E-02 0.  1.
    10030    2    1    2    0    0  0.00000000000E+00  0.00000000000E+00 -0.22255766441E+03  0.12205706630E+04  0.12001086740E+04 0.  0.
        5    1    3    3  502    0 -0.56230283793E+03 -0.14995698754E+03 -0.25996146350E+03  0.63739597752E+03  0.46999998093E+01 0.  1.
       -5    1    3    3    0  502  0.56230283793E+03  0.14995698754E+03  0.37403799088E+02  0.58317468553E+03  0.46999998093E+01 0. -1.
</event>
<event>
 5   0  0.5620246E-05  0.1200262E+04  0.7818609E-02  0.9112628E-01
       -1   -1    0    0    0  501  0.00000000000E+00  0.00000000000E+00  0.50909024785E+03  0.50909024788E+03  0.50400001928E-02 0. -1.
        1   -1    0    0  501    0  0.00000000000E+00  0.00000000000E+00 -0.70745205653E+03  0.70745205655E+03  0.50400001928E-02 0.  1.
    10030    2    1    2    0    0  0.00000000000E+00  0.00000000000E+00 -0.19836180868E+03  0.12165423044E+04  0.12002615429E+04 0.  0.
        1    1    3    3  502    0 -0.28727743588E+03  0.20462336967E+03  0.39295431534E+03  0.52802664947E+03  0.50400001928E-02 0. -1.
       -1    1    3    3    0  502  0.28727743588E+03 -0.20462336967E+03 -0.59131612402E+03  0.68851565496E+03  0.50400001928E-02 0.  1.
</event>
<event>
 5   0  0.5732931E-05  0.1200199E+04  0.7818609E-02  0.9112683E-01
        1   -1    0    0  501    0  0.00000000000E+00  0.00000000000E+00  0.57901843156E+03  0.57901843158E+03  0.50400001928E-02 0.  1.
       -1   -1    0    0    0  501  0.00000000000E+00  0.00000000000E+00 -0.62194791906E+03  0.62194791908E+03  0.50400001928E-02 0. -1.
    10030    2    1    2    0    0  0.00000000000E+00  0.00000000000E+00 -0.42929487500E+02  0.12009663507E+04  0.12001988312E+04 0.  0.
        4    1    3    3  502    0 -0.33984205393E+03  0.18136936354E+03 -0.48190053177E+03  0.61694181499E+03  0.12699999809E+01 0. -1.
       -4    1    3    3    0  502  0.33984205393E+03 -0.18136936354E+03  0.43897104427E+03  0.58402453567E+03  0.12699999809E+01 0.  1.
</event>
<event>
 5   0  0.5745487E-05  0.1199979E+04  0.7818609E-02  0.9112875E-01
       -1   -1    0    0    0  501  0.00000000000E+00  0.00000000000E+00  0.33230141091E+03  0.33230141095E+03  0.50400001928E-02 0.  1.
        1   -1    0    0  501    0  0.00000000000E+00  0.00000000000E+00 -0.10833151822E+04  0.10833151822E+04  0.50400001928E-02 0. -1.
    10030    2    1    2    0    0  0.00000000000E+00  0.00000000000E+00 -0.75101377125E+03  0.14156165931E+04  0.11999786057E+04 0.  0.
        3    1    3    3  502    0 -0.30014799785E+03  0.96031522219E+02 -0.97782080307E+03  0.10273482404E+04  0.10100000352E+00 0. -1.
       -3    1    3    3    0  502  0.30014799785E+03 -0.96031522219E+02  0.22680703182E+03  0.38826835276E+03  0.10100000352E+00 0.  1.
</event>
<event>
 5   0  0.3839750E-05  0.1199923E+04  0.7818609E-02  0.9112924E-01
       -3   -1    0    0    0  501  0.00000000000E+00  0.00000000000E+00  0.52260457034E+03  0.52260458010E+03  0.10100000352E+00 0.  1.
        3   -1    0    0  501    0  0.00000000000E+00  0.00000000000E+00 -0.68876889822E+03  0.68876890563E+03  0.10100000352E+00 0. -1.
    10030    2    1    2    0    0  0.00000000000E+00  0.00000000000E+00 -0.16616432788E+03  0.12113734857E+04  0.11999229717E+04 0.  0.
        4    1    3    3  502    0 -0.41702878794E+03 -0.42359123662E+03 -0.10067397061E+01  0.59442844156E+03  0.12699999809E+01 0.  1.
       -4    1    3    3    0  502  0.41702878794E+03  0.42359123662E+03 -0.16515758817E+03  0.61694504418E+03  0.12699999809E+01 0. -1.
</event>
<event>
 5   0  0.5625746E-05  0.1199796E+04  0.7818609E-02  0.9113035E-01
        1   -1    0    0  501    0  0.00000000000E+00  0.00000000000E+00  0.17073310683E+04  0.17073310683E+04  0.50400001928E-02 0. -1.
       -1   -1    0    0    0  501  0.00000000000E+00  0.00000000000E+00 -0.21078380484E+03  0.21078380490E+03  0.50400001928E-02 0.  1.
    10030    2    1    2    0    0  0.00000000000E+00  0.00000000000E+00  0.14965472634E+04  0.19181148732E+04  0.11997962140E+04 0.  0.
        5    1    3    3  502    0  0.17048519257E+03 -0.49202239417E+03  0.12244191876E+04  0.13305546491E+04  0.46999998093E+01 0.  1.
       -5    1    3    3    0  502 -0.17048519257E+03  0.49202239417E+03  0.27212807577E+03  0.58756022404E+03  0.46999998093E+01 0. -1.
</event>
<event>
 5   0  0.5745487E-05  0.1198102E+04  0.7818609E-02  0.9114520E-01
       -1   -1    0    0    0  501  0.00000000000E+00  0.00000000000E+00  0.91775490027E+03  0.91775490028E+03  0.50400001928E-02 0.  1.
        1   -1    0    0  501    0  0.00000000000E+00  0.00000000000E+00 -0.39102158155E+03  0.39102158158E+03  0.50400001928E-02 0. -1.
    10030    2    1    2    0    0  0.00000000000E+00  0.00000000000E+00  0.52673331872E+03  0.13087764819E+04  0.11981017863E+04 0.  0.
        3    1    3    3  502    0 -0.41738000776E+03 -0.24658558217E+03 -0.12106779231E+03  0.49966783041E+03  0.10100000352E+00 0. -1.
       -3    1    3    3    0  502  0.41738000776E+03  0.24658558217E+03  0.64780111103E+03  0.80910865146E+03  0.10100000352E+00 0.  1.
</event>
<event>
 5   0  0.1004006E-04  0.1200004E+04  0.7818609E-02  0.9112853E-01
       -2   -1    0    0    0  501  0.00000000000E+00  0.00000000000E+00  0.64206141951E+03  0.64206141951E+03  0.25500000920E-02 0.  1.
        2   -1    0    0  501    0  0.00000000000E+00  0.00000000000E+00 -0.56069784751E+03  0.56069784752E+03  0.25500000920E-02 0. -1.
    10030    2    1    2    0    0  0.00000000000E+00  0.00000000000E+00  0.81363571996E+02  0.12027592670E+04  0.12000040932E+04 0.  0.
        5    1    3    3  502    0 -0.35800313395E+03  0.48131794911E+03  0.28523235880E+02  0.60055713886E+03  0.46999998093E+01 0. -1.
       -5    1    3    3    0  502  0.35800313395E+03 -0.48131794911E+03  0.52840336116E+02  0.60220212817E+03  0.46999998093E+01 0.  1.
</event>
<event>
 5   0  0.5625746E-05  0.1200936E+04  0.7818609E-02  0.9112037E-01
        1   -1    0    0  501    0  0.00000000000E+00  0.00000000000E+00  0.18727234795E+04  0.18727234795E+04  0.50400001928E-02 0.  1.
       -1   -1    0    0    0  501  0.00000000000E+00  0.00000000000E+00 -0.19253355560E+03  0.19253355566E+03  0.50400001928E-02 0. -1.
    10030    2    1    2    0    0  0.00000000000E+00  0.00000000000E+00  0.16801899239E+04  0.20652570352E+04  0.12009364850E+04 0.  0.
        5    1    3    3  502    0 -0.25632749809E+03 -0.25251438795E+02 -0.92674611468E+02  0.27377380270E+03  0.46999998093E+01 0. -1.
       -5    1    3    3    0  502  0.25632749809E+03  0.25251438795E+02  0.17728645354E+04  0.17914832325E+04  0.46999998093E+01 0.  1.
</event>
<event>
 5   0  0.1004006E-04  0.1201118E+04  0.7818609E-02  0.9111878E-01
       -2   -1    0    0    0  501  0.00000000000E+00  0.00000000000E+00  0.54125780431E+03  0.54125780431E+03  0.25500000920E-02 0. -1.
        2   -1    0    0  501    0  0.00000000000E+00  0.00000000000E+00 -0.66635749741E+03  0.66635749742E+03  0.25500000920E-02 0.  1.
    10030    2    1    2    0    0  0.00000000000E+00  0.00000000000E+00 -0.12509969311E+03  0.12076153017E+04  0.12011181390E+04 0.  0.
        5    1    3    3  502    0  0.57898970826E+03 -0.27450019288E+02 -0.22045518908E+03  0.62016543456E+03  0.46999998093E+01 0.  1.
       -5    1    3    3    0  502 -0.57898970826E+03  0.27450019288E+02  0.95355495978E+02  0.58744986717E+03  0.46999998093E+01 0. -1.
</event>
<event>
 5   0  0.5732931E-05  0.1200327E+04  0.7818609E-02  0.9112570E-01
       -1   -1    0    0    0  501  0.00000000000E+00  0.00000000000E+00  0.22527804419E+03  0.22527804424E+03  0.50400001928E-02 0. -1.
        1   -1    0    0  501    0  0.00000000000E+00  0.00000000000E+00 -0.15988962228E+04  0.15988962228E+04  0.50400001928E-02 0.  1.
    10030    2    1    2    0    0  0.00000000000E+00  0.00000000000E+00 -0.13736181786E+04  0.18241742670E+04  0.12003269788E+04 0.  0.
        4    1    3    3  502    0 -0.20621412444E+03 -0.16589019495E+03 -0.15054220722E+04  0.15285094210E+04  0.12699999809E+01 0.  1.
       -4    1    3    3    0  502  0.20621412444E+03  0.16589019495E+03  0.13180389357E+03  0.29566484600E+03  0.12699999809E+01 0. -1.
</event>
<event>
 5   0  0.5625746E-05  0.1199889E+04  0.7818609E-02  0.9112954E-01
       -1   -1    0    0    0  501  0.00000000000E+00  0.00000000000E+00  0.35583994743E+03  0.35583994746E+03  0.50400001928E-02 0.  1.
        1   -1    0    0  501    0  0.00000000000E+00  0.00000000000E+00 -0.10115029180E+04  0.10115029180E+04  0.50400001928E-02 0. -1.
    10030    2    1    2    0    0  0.00000000000E+00  0.00000000000E+00 -0.65566297055E+03  0.13673428654E+04  0.11998885701E+04 0.  0.
        5    1    3    3  502    0  0.21788091103E+03  0.28423323929E+03  0.22063875432E+03  0.42067110147E+03  0.46999998093E+01 0.  1.
       -5    1    3    3    0  502 -0.21788091103E+03 -0.28423323929E+03 -0.87630172486E+03  0.94667176397E+03  0.46999998093E+01 0. -1.
</event>
<event>
 5   0  0.1023063E-04  0.1201408E+04  0.7818609E-02  0.9111625E-01
        2   -1    0    0  501    0  0.00000000000E+00  0.00000000000E+00  0.84228636130E+03  0.84228636130E+03  0.25500000920E-02 0.  1.
       -2   -1    0    0    0  501  0.00000000000E+00  0.00000000000E+00 -0.42841178090E+03  0.42841178091E+03  0.25500000920E-02 0. -1.
    10030    2    1    2    0    0  0.00000000000E+00  0.00000000000E+00  0.41387458040E+03  0.12706981422E+04  0.12014081739E+04 0.  0.
        3    1    3    3  502    0  0.12351629544E+03 -0.42408742902E+03  0.63752747571E+03  0.77559507165E+03  0.10100000352E+00 0.  1.
       -3    1    3    3    0  502 -0.12351629544E+03  0.42408742902E+03 -0.22365289531E+03  0.49510307056E+03  0.10100000352E+00 0. -1.
</event>
<event>
 5   0  0.1004006E-04  0.1204469E+04  0.7818609E-02  0.9108954E-01
       -2   -1    0    0    0  501  0.00000000000E+00  0.00000000000E+00  0.28575666929E+03  0.28575666930E+03  0.25500000920E-02 0.  1.
        2   -1    0    0  501    0  0.00000000000E+00  0.00000000000E+00 -0.12692132479E+04  0.12692132479E+04  0.25500000920E-02 0. -1.
    10030    2    1    2    0    0  0.00000000000E+00  0.00000000000E+00 -0.98345657863E+03  0.15549699172E+04  0.12044685971E+04 0.  0.
        5    1    3    3  502    0  0.29026168941E+03 -0.38539686756E+03 -0.26463591236E+02  0.48322355646E+03  0.46999998093E+01 0.  1.
       -5    1    3    3    0  502 -0.29026168941E+03  0.38539686756E+03 -0.95699298739E+03  0.10717463607E+04  0.46999998093E+01 0. -1.
</event>
<event>
 5   0  0.3839750E-05  0.1199666E+04  0.7818609E-02  0.9113149E-01
        3   -1    0    0  501    0  0.00000000000E+00  0.00000000000E+00  0.69990115442E+03  0.69990116171E+03  0.10100000352E+00 0.  1.
       -3   -1    0    0    0  501  0.00000000000E+00  0.00000000000E+00 -0.51407207653E+03  0.51407208645E+03  0.10100000352E+00 0. -1.
    10030    2    1    2    0    0  0.00000000000E+00  0.00000000000E+00  0.18582907790E+03  0.12139732482E+04  0.11996660373E+04 0.  0.
        2    1    3    3  502    0  0.35579270187E+03  0.24848924241E+03  0.51193536408E+03  0.67112827932E+03  0.25500000920E-02 0.  1.
       -2    1    3    3    0  502 -0.35579270187E+03 -0.24848924241E+03 -0.32610628619E+03  0.54284496884E+03  0.25500000920E-02 0. -1.
</event>
<event>
 5   0  0.9838215E-05  0.1199589E+04  0.7818609E-02  0.9113217E-01
       -2   -1    0    0    0  501  0.00000000000E+00  0.00000000000E+00  0.23874108162E+03  0.23874108163E+03  0.25500000920E-02 0. -1.
        2   -1    0    0  501    0  0.00000000000E+00  0.00000000000E+00 -0.15068761901E+04  0.15068761901E+04  0.25500000920E-02 0.  1.
    10030    2    1    2    0    0  0.00000000000E+00  0.00000000000E+00 -0.12681351085E+04  0.17456172718E+04  0.11995886820E+04 0.  0.
        4    1    3    3  502    0 -0.35517666451E+03 -0.23469766445E+03 -0.19233522292E+02  0.42615137919E+03  0.12699999809E+01 0. -1.
       -4    1    3    3    0  502  0.35517666451E+03  0.23469766445E+03 -0.12489015862E+04  0.13194658926E+04  0.12699999809E+01 0.  1.
</event>
<event>
 5   0  0.5620246E-05  0.1199627E+04  0.7818609E-02  0.9113183E-01
       -1   -1    0    0    0  501  0.00000000000E+00  0.00000000000E+00  0.11546353193E+04  0.11546353193E+04  0.50400001928E-02 0. -1.
        1   -1    0    0  501    0  0.00000000000E+00  0.00000000000E+00 -0.31159317203E+03  0.31159317207E+03  0.50400001928E-02 0.  1.
    10030    2    1    2    0    0  0.00000000000E+00  0.00000000000E+00  0.84304214723E+03  0.14662284913E+04  0.11996274117E+04 0.  0.
        1    1    3    3  502    0 -0.96034577297E+02  0.28091774568E+03  0.10585386044E+04  0.10993822797E+04  0.50400001928E-02 0. -1.
       -1    1    3    3    0  502  0.96034577297E+02 -0.28091774568E+03 -0.21549645721E+03  0.36684621161E+03  0.50400001928E-02 0.  1.
</event>
<event>
 5   0  0.5447807E-05  0.1199345E+04  0.7818609E-02  0.9113430E-01
       -1   -1    0    0    0  501  0.00000000000E+00  0.00000000000E+00  0.76951581492E+03  0.76951581494E+03  0.50400001928E-02 0. -1.
        1   -1    0    0  501    0  0.00000000000E+00  0.00000000000E+00 -0.46731605296E+03  0.46731605298E+03  0.50400001928E-02 0.  1.
    10030    2    1    2    0    0  0.00000000000E+00  0.00000000000E+00  0.30219976197E+03  0.12368318679E+04  0.11993449768E+04 0.  0.
        2    1    3    3  502    0 -0.11432317368E+03 -0.21696305715E+03 -0.41323786758E+03  0.48052917853E+03  0.25500000920E-02 0.  1.
       -2    1    3    3    0  502  0.11432317368E+03  0.21696305715E+03  0.71543762955E+03  0.75630268939E+03  0.25500000920E-02 0. -1.
</event>
<event>
 5   0  0.5732931E-05  0.1200819E+04  0.7818609E-02  0.9112140E-01
        1   -1    0    0  501    0  0.00000000000E+00  0.00000000000E+00  0.77054662498E+03  0.77054662500E+03  0.50400001928E-02 0.  1.
       -1   -1    0    0    0  501  0.00000000000E+00  0.00000000000E+00 -0.46783890062E+03  0.46783890065E+03  0.50400001928E-02 0. -1.
    10030    2    1    2    0    0  0.00000000000E+00  0.00000000000E+00  0.30270772436E+03  0.12383855256E+04  0.12008191969E+04 0.  0.
        4    1    3    3  502    0  0.44585724602E+03 -0.12189952911E+03  0.54654139380E+03  0.71579137118E+03  0.12699999809E+01 0.  1.
       -4    1    3    3    0  502 -0.44585724602E+03  0.12189952911E+03 -0.24383366943E+03  0.52259415446E+03  0.12699999809E+01 0. -1.
</event>
<event>
 5   0  0.5732931E-05  0.1200151E+04  0.7818609E-02  0.9112725E-01
       -1   -1    0    0    0  501  0.00000000000E+00  0.00000000000E+00  0.58801096188E+03  0.58801096190E+03  0.50400001928E-02 0. -1.
        1   -1    0    0  501    0  0.00000000000E+00  0.00000000000E+00 -0.61238737247E+03  0.61238737249E+03  0.50400001928E-02 0.  1.
    10030    2    1    2    0    0  0.00000000000E+00  0.00000000000E+00 -0.24376410589E+02  0.12003983344E+04  0.12001508038E+04 0.  0.
        4    1    3    3  502    0  0.52626875352E+03  0.10452585988E+03 -0.28095242551E+03  0.60565694466E+03  0.12699999809E+01 0.  1.
       -4    1    3    3    0  502 -0.52626875352E+03 -0.10452585988E+03  0.25657601492E+03  0.59474138972E+03  0.12699999809E+01 0. -1.
</event>
<event>
 5   0  0.5620246E-05  0.1200007E+04  0.7818609E-02  0.9112850E-01
       -1   -1    0    0    0  501  0.00000000000E+00  0.00000000000E+00  0.43139169134E+03  0.43139169137E+03  0.50400001928E-02 0.  1.
        1   -1    0    0  501    0  0.00000000000E+00  0.00000000000E+00 -0.83451826709E+03  0.83451826710E+03  0.50400001928E-02 0. -1.
    10030    2    1    2    0    0  0.00000000000E+00  0.00000000000E+00 -0.40312657574E+03  0.12659099585E+04  0.12000070778E+04 0.  0.
        1    1    3    3  502    0 -0.21816944085E+03  0.30967036441E+02 -0.79028676194E+03  0.82043282991E+03  0.50400001928E-02 0. -1.
       -1    1    3    3    0  502  0.21816944085E+03 -0.30967036441E+02  0.38716018620E+03  0.44547712856E+03  0.50400001928E-02 0.  1.
</event>
<event>
 5   0  0.5625746E-05  0.1199968E+04  0.7818609E-02  0.9112885E-01
       -1   -1    0    0    0  501  0.00000000000E+00  0.00000000000E+00  0.35583549198E+03  0.35583549201E+03  0.50400001928E-02 0.  1.
        1   -1    0    0  501    0  0.00000000000E+00  0.00000000000E+00 -0.10116493405E+04  0.10116493406E+04  0.50400001928E-02 0. -1.
    10030    2    1    2    0    0  0.00000000000E+00  0.00000000000E+00 -0.65581384857E+03  0.13674848326E+04  0.11999679010E+04 0.  0.
        5    1    3    3  502    0 -0.13886641148E+03  0.39888055999E+03  0.15768764726E+03  0.45086257936E+03  0.46999998093E+01 0.  1.
       -5    1    3    3    0  502  0.13886641148E+03 -0.39888055999E+03 -0.81350149583E+03  0.91662225321E+03  0.46999998093E+01 0. -1.
</event>
<event>
 5   0  0.9838215E-05  0.1196307E+04  0.7818609E-02  0.9116095E-01
       -2   -1    0    0    0  501  0.00000000000E+00  0.00000000000E+00  0.48140692975E+03  0.48140692976E+03  0.25500000920E-02 0. -1.
        2   -1    0    0  501    0  0.00000000000E+00  0.00000000000E+00 -0.74321255431E+03  0.74321255431E+03  0.25500000920E-02 0.  1.
    10030    2    1    2    0    0  0.00000000000E+00  0.00000000000E+00 -0.26180562456E+03  0.12246194841E+04  0.11963071076E+04 0.  0.
        4    1    3    3  502    0 -0.15052659047E+03  0.33410809143E+03 -0.61484874823E+03  0.71577026154E+03  0.12699999809E+01 0.  1.
       -4    1    3    3    0  502  0.15052659047E+03 -0.33410809143E+03  0.35304312368E+03  0.50884922254E+03  0.12699999809E+01 0. -1.
</event>
<event>
 5   0  0.5625746E-05  0.1200953E+04  0.7818609E-02  0.9112023E-01
        1   -1    0    0  501    0  0.00000000000E+00  0.00000000000E+00  0.53805439533E+03  0.53805439535E+03  0.50400001928E-02 0.  1.
       -1   -1    0    0    0  501  0.00000000000E+00  0.00000000000E+00 -0.67014069446E+03  0.67014069448E+03  0.50400001928E-02 0. -1.
    10030    2    1    2    0    0  0.00000000000E+00  0.00000000000E+00 -0.13208629913E+03  0.12081950898E+04  0.12009531984E+04 0.  0.
        5    1    3    3  502    0 -0.35181008630E+03  0.38508302588E+03  0.23322465737E+03  0.57138000004E+03  0.46999998093E+01 0.  1.
       -5    1    3    3    0  502  0.35181008630E+03 -0.38508302588E+03 -0.36531095650E+03  0.63681508979E+03  0.46999998093E+01 0. -1.
</event>
<event>
 5   0  0.9838215E-05  0.1195498E+04  0.7818609E-02  0.9116807E-01
       -2   -1    0    0    0  501  0.00000000000E+00  0.00000000000E+00  0.26378225030E+03  0.26378225031E+03  0.25500000920E-02 0.  1.
        2   -1    0    0  501    0  0.00000000000E+00  0.00000000000E+00 -0.13545400913E+04  0.13545400913E+04  0.25500000920E-02 0. -1.
    10030    2    1    2    0    0  0.00000000000E+00  0.00000000000E+00 -0.10907578410E+04  0.16183223416E+04  0.11954976092E+04 0.  0.
        4    1    3    3  502    0  0.44537196819E+02  0.53435052137E+03 -0.90298642865E+03  0.10501905279E+04  0.12699999809E+01 0. -1.
       -4    1    3    3    0  502 -0.44537196819E+02 -0.53435052137E+03 -0.18777141234E+03  0.56813181374E+03  0.12699999809E+01 0.  1.
</event>
<event>
 5   0  0.5620246E-05  0.1200227E+04  0.7818609E-02  0.9112658E-01
        1   -1    0    0  501    0  0.00000000000E+00  0.00000000000E+00  0.33127586433E+03  0.33127586436E+03  0.50400001928E-02 0.  1.
       -1   -1    0    0    0  501  0.00000000000E+00  0.00000000000E+00 -0.10871180228E+04  0.10871180228E+04  0.50400001928E-02 0. -1.
    10030    2    1    2    0    0  0.00000000000E+00  0.00000000000E+00 -0.75584215851E+03  0.14183938872E+04  0.12002265831E+04 0.  0.
        1    1    3    3  502    0  0.57887756490E+03  0.29058139935E+02 -0.19410958907E+03  0.61124638505E+03  0.50400001928E-02 0.  1.
       -1    1    3    3    0  502 -0.57887756490E+03 -0.29058139935E+02 -0.56173256944E+03  0.80714750216E+03  0.50400001928E-02 0. -1.
</event>
<event>
 5   0  0.3839750E-05  0.1198271E+04  0.7818609E-02  0.9114371E-01
       -3   -1    0    0    0  501  0.00000000000E+00  0.00000000000E+00  0.25481360078E+03  0.25481362079E+03  0.10100000352E+00 0. -1.
        3   -1    0    0  501    0  0.00000000000E+00  0.00000000000E+00 -0.14087289644E+04  0.14087289680E+04  0.10100000352E+00 0.  1.
    10030    2    1    2    0    0  0.00000000000E+00  0.00000000000E+00 -0.11539153636E+04  0.16635425888E+04  0.11982709537E+04 0.  0.
        5    1    3    3  502    0 -0.84345977579E+02 -0.20215431681E+02  0.24602574996E+03  0.26090930848E+03  0.46999998093E+01 0. -1.
       -5    1    3    3    0  502  0.84345977579E+02  0.20215431681E+02 -0.13999411136E+04  0.14026332803E+04  0.46999998093E+01 0.  1.
</event>
<event>
 5   0  0.1012657E-04  0.1200503E+04  0.7818609E-02  0.9112417E-01
        2   -1    0    0  501    0  0.00000000000E+00  0.00000000000E+00  0.37153930668E+03  0.37153930669E+03  0.25500000920E-02 0.  1.
       -2   -1    0    0    0  501  0.00000000000E+00  0.00000000000E+00 -0.96975389719E+03  0.96975389719E+03  0.25500000920E-02 0. -1.
    10030    2    1    2    0    0  0.00000000000E+00  0.00000000000E+00 -0.59821459051E+03  0.13412932039E+04  0.12005027124E+04 0.  0.
        1    1    3    3  502    0  0.20763520564E+02  0.13571599754E+03 -0.95197508157E+03  0.96182457430E+03  0.50400001928E-02 0. -1.
       -1    1    3    3    0  502 -0.20763520564E+02 -0.13571599754E+03  0.35376049106E+03  0.37946862958E+03  0.50400001928E-02 0.  1.
</event>
<event>
 5   0  0.5745487E-05  0.1199066E+04  0.7818609E-02  0.9113674E-01
        1   -1    0    0  501    0  0.00000000000E+00  0.00000000000E+00  0.64561502995E+03  0.64561502997E+03  0.50400001928E-02 0. -1.
       -1   -1    0    0    0  501  0.00000000000E+00  0.00000000000E+00 -0.55674034125E+03  0.55674034127E+03  0.50400001928E-02 0.  1.
    10030    2    1    2    0    0  0.00000000000E+00  0.00000000000E+00  0.88874688705E+02  0.12023553712E+04  0.11990661902E+04 0.  0.
        3    1    3    3  502    0 -0.41685737478E+03 -0.17707345714E+03  0.43834419990E+03  0.63029415984E+03  0.10100000352E+00 0. -1.
       -3    1    3    3    0  502  0.41685737478E+03  0.17707345714E+03 -0.34946951120E+03  0.57206121141E+03  0.10100000352E+00 0.  1.
</event>
<event>
 5   0  0.9941209E-05  0.1200092E+04  0.7818609E-02  0.9112776E-01
       -2   -1    0    0    0  501  0.00000000000E+00  0.00000000000E+00  0.45708343438E+03  0.45708343438E+03  0.25500000920E-02 0.  1.
        2   -1    0    0  501    0  0.00000000000E+00  0.00000000000E+00 -0.78772326674E+03  0.78772326674E+03  0.25500000920E-02 0. -1.
    10030    2    1    2    0    0  0.00000000000E+00  0.00000000000E+00 -0.33063983236E+03  0.12448067011E+04  0.12000920900E+04 0.  0.
        2    1    3    3  502    0  0.39734939341E+03  0.26637876180E+03  0.21040723913E+03  0.52260443115E+03  0.25500000920E-02 0. -1.
       -2    1    3    3    0  502 -0.39734939341E+03 -0.26637876180E+03 -0.54104707149E+03  0.72220226997E+03  0.25500000920E-02 0.  1.
</event>
<event>
 5   0  0.5620246E-05  0.1199993E+04  0.7818609E-02  0.9112863E-01
       -1   -1    0    0    0  501  0.00000000000E+00  0.00000000000E+00  0.39831443855E+03  0.39831443859E+03  0.50400001928E-02 0.  1.
        1   -1    0    0  501    0  0.00000000000E+00  0.00000000000E+00 -0.90379737015E+03  0.90379737017E+03  0.50400001928E-02 0. -1.
    10030    2    1    2    0    0  0.00000000000E+00  0.00000000000E+00 -0.50548293160E+03  0.13021118088E+04  0.11999925701E+04 0.  0.
        1    1    3    3  502    0  0.59571525069E+03 -0.26552106896E+02 -0.18065074301E+03  0.62307011264E+03  0.50400001928E-02 0.  1.
       -1    1    3    3    0  502 -0.59571525069E+03  0.26552106896E+02 -0.32483218859E+03  0.67904169611E+03  0.50400001928E-02 0. -1.
</event>
<event>
 5   0  0.5745487E-05  0.1194503E+04  0.7818609E-02  0.9117681E-01
       -1   -1    0    0    0  501  0.00000000000E+00  0.00000000000E+00  0.53457876438E+03  0.53457876441E+03  0.50400001928E-02 0. -1.
        1   -1    0    0  501    0  0.00000000000E+00  0.00000000000E+00 -0.66727229360E+03  0.66727229362E+03  0.50400001928E-02 0.  1.
    10030    2    1    2    0    0  0.00000000000E+00  0.00000000000E+00 -0.13269352921E+03  0.12018510580E+04  0.11945034085E+04 0.  0.
        3    1    3    3  502    0 -0.49763881249E+03  0.18517908815E+03 -0.34147698092E+03  0.63130200466E+03  0.10100000352E+00 0.  1.
       -3    1    3    3    0  502  0.49763881249E+03 -0.18517908815E+03  0.20878345171E+03  0.57054905336E+03  0.10100000352E+00 0. -1.
</event>
<event>
 5   0  0.5620246E-05  0.1200208E+04  0.7818609E-02  0.9112674E-01
       -1   -1    0    0    0  501  0.00000000000E+00  0.00000000000E+00  0.58546013059E+03  0.58546013061E+03  0.50400001928E-02 0.  1.
        1   -1    0    0  501    0  0.00000000000E+00  0.00000000000E+00 -0.61511442264E+03  0.61511442266E+03  0.50400001928E-02 0. -1.
    10030    2    1    2    0    0  0.00000000000E+00  0.00000000000E+00 -0.29654292045E+02  0.12005745533E+04  0.12002082656E+04 0.  0.
        1    1    3    3  502    0 -0.38961773701E+03 -0.37384634784E+03  0.24709603388E+03  0.59381775215E+03  0.50400001928E-02 0. -1.
       -1    1    3    3    0  502  0.38961773701E+03  0.37384634784E+03 -0.27675032593E+03  0.60675680112E+03  0.50400001928E-02 0.  1.
</event>
<event>
 5   0  0.1004006E-04  0.1206138E+04  0.7818609E-02  0.9107501E-01
        2   -1    0    0  501    0  0.00000000000E+00  0.00000000000E+00  0.13137596737E+04  0.13137596737E+04  0.25500000920E-02 0.  1.
       -2   -1    0    0    0  501  0.00000000000E+00  0.00000000000E+00 -0.27683330295E+03  0.27683330296E+03  0.25500000920E-02 0. -1.
    10030    2    1    2    0    0  0.00000000000E+00  0.00000000000E+00  0.10369263707E+04  0.15905929766E+04  0.12061383499E+04 0.  0.
        5    1    3    3  502    0  0.51844501224E+03 -0.28225028014E+03  0.35577063471E+03  0.68923529065E+03  0.46999998093E+01 0. -1.
       -5    1    3    3    0  502 -0.51844501224E+03  0.28225028014E+03  0.68115573600E+03  0.90135768596E+03  0.46999998093E+01 0.  1.
</event>
<event>
 5   0  0.1023063E-04  0.1200506E+04  0.7818609E-02  0.9112414E-01
        2   -1    0    0  501    0  0.00000000000E+00  0.00000000000E+00  0.80955163207E+03  0.80955163207E+03  0.25500000920E-02 0.  1.
       -2   -1    0    0    0  501  0.00000000000E+00  0.00000000000E+00 -0.44506565146E+03  0.44506565146E+03  0.25500000920E-02 0. -1.
    10030    2    1    2    0    0  0.00000000000E+00  0.00000000000E+00  0.36448598061E+03  0.12546172835E+04  0.12005059342E+04 0.  0.
        3    1    3    3  502    0 -0.31977734882E+03 -0.38528606741E+03 -0.16373911277E+03  0.52679541931E+03  0.10100000352E+00 0. -1.
       -3    1    3    3    0  502  0.31977734882E+03  0.38528606741E+03  0.52822509338E+03  0.72782186422E+03  0.10100000352E+00 0.  1.
</event>
<event>
 5   0  0.1012657E-04  0.1200356E+04  0.7818609E-02  0.9112545E-01
       -2   -1    0    0    0  501  0.00000000000E+00  0.00000000000E+00  0.53677366664E+03  0.53677366665E+03  0.25500000920E-02 0. -1.
        2   -1    0    0  501    0  0.00000000000E+00  0.00000000000E+00 -0.67107160871E+03  0.67107160872E+03  0.25500000920E-02 0.  1.
    10030    2    1    2    0    0  0.00000000000E+00  0.00000000000E+00 -0.13429794207E+03  0.12078452754E+04  0.12003558939E+04 0.  0.
        1    1    3    3  502    0 -0.12990880747E+03 -0.16646453135E+03  0.49816306490E+03  0.54106670356E+03  0.50400001928E-02 0. -1.
       -1    1    3    3    0  502  0.12990880747E+03  0.16646453135E+03 -0.63246100697E+03  0.66677857180E+03  0.50400001928E-02 0.  1.
</event>
<event>
 5   0  0.5447807E-05  0.1200136E+04  0.7818609E-02  0.9112738E-01
       -1   -1    0    0    0  501  0.00000000000E+00  0.00000000000E+00  0.18202095096E+03  0.18202095103E+03  0.50400001928E-02 0.  1.
        1   -1    0    0  501    0  0.00000000000E+00  0.00000000000E+00 -0.19782411073E+04  0.19782411073E+04  0.50400001928E-02 0. -1.
    10030    2    1    2    0    0  0.00000000000E+00  0.00000000000E+00 -0.17962201564E+04  0.21602620584E+04  0.12001355384E+04 0.  0.
        2    1    3    3  502    0 -0.15801799533E+03  0.14211676589E+03  0.11200870517E+03  0.24023491011E+03  0.25500000920E-02 0.  1.
       -2    1    3    3    0  502  0.15801799533E+03 -0.14211676589E+03 -0.19082288616E+04  0.19200271483E+04  0.25500000920E-02 0. -1.
</event>
<event>
 5   0  0.5620246E-05  0.1199806E+04  0.7818609E-02  0.9113026E-01
       -1   -1    0    0    0  501  0.00000000000E+00  0.00000000000E+00  0.44526560399E+03  0.44526560402E+03  0.50400001928E-02 0.  1.
        1   -1    0    0  501    0  0.00000000000E+00  0.00000000000E+00 -0.80824479109E+03  0.80824479111E+03  0.50400001928E-02 0. -1.
    10030    2    1    2    0    0  0.00000000000E+00  0.00000000000E+00 -0.36297918710E+03  0.12535103951E+04  0.11998059928E+04 0.  0.
        1    1    3    3  502    0  0.82349683516E+02 -0.30306789592E+03 -0.71549630165E+03  0.78138759755E+03  0.50400001928E-02 0. -1.
       -1    1    3    3    0  502 -0.82349683516E+02  0.30306789592E+03  0.35251711454E+03  0.47212279757E+03  0.50400001928E-02 0.  1.
</event>
<event>
 5   0  0.1004006E-04  0.1200027E+04  0.7818609E-02  0.9112833E-01
        2   -1    0    0  501    0  0.00000000000E+00  0.00000000000E+00  0.72172480798E+03  0.72172480798E+03  0.25500000920E-02 0.  1.
       -2   -1    0    0    0  501  0.00000000000E+00  0.00000000000E+00 -0.49882712733E+03  0.49882712734E+03  0.25500000920E-02 0. -1.
    10030    2    1    2    0    0  0.00000000000E+00  0.00000000000E+00  0.22289768064E+03  0.12205519353E+04  0.12000265209E+04 0.  0.
        5    1    3    3  502    0 -0.29850777781E+02  0.54088108147E+03  0.37383491680E+03  0.65819301747E+03  0.46999998093E+01 0.  1.
       -5    1    3    3    0  502  0.29850777781E+02 -0.54088108147E+03 -0.15093723615E+03  0.56235891785E+03  0.46999998093E+01 0. -1.
</event>
<event>
 5   0  0.5745487E-05  0.1200143E+04  0.7818609E-02  0.9112731E-01
       -1   -1    0    0    0  501  0.00000000000E+00  0.00000000000E+00  0.62189467876E+03  0.62189467878E+03  0.50400001928E-02 0. -1.
        1   -1    0    0  501    0  0.00000000000E+00  0.00000000000E+00 -0.57901440456E+03  0.57901440458E+03  0.50400001928E-02 0.  1.
    10030    2    1    2    0    0  0.00000000000E+00  0.00000000000E+00  0.42880274202E+02  0.12009090834E+04  0.12001432867E+04 0.  0.
        3    1    3    3  502    0  0.12730422908E+03  0.55602067463E+03 -0.16501343166E+03  0.59379693515E+03  0.10100000352E+00 0.  1.
       -3    1    3    3    0  502 -0.12730422908E+03 -0.55602067463E+03  0.20789370587E+03  0.60711214821E+03  0.10100000352E+00 0. -1.
</event>
<event>
 5   0  0.5732931E-05  0.1200802E+04  0.7818609E-02  0.9112155E-01
       -1   -1    0    0    0  501  0.00000000000E+00  0.00000000000E+00  0.38728891571E+03  0.38728891574E+03  0.50400001928E-02 0. -1.
        1   -1    0    0  501    0  0.00000000000E+00  0.00000000000E+00 -0.93078180357E+03  0.93078180358E+03  0.50400001928E-02 0.  1.
    10030    2    1    2    0    0  0.00000000000E+00  0.00000000000E+00 -0.54349288786E+03  0.13180707193E+04  0.12008021910E+04 0.  0.
        4    1    3    3  502    0  0.40097995527E+03  0.27971174190E+03  0.11079388545E+03  0.50129879417E+03  0.12699999809E+01 0. -1.
       -4    1    3    3    0  502 -0.40097995527E+03 -0.27971174190E+03 -0.65428677331E+03  0.81677192515E+03  0.12699999809E+01 0.  1.
</event>
<event>
 5   0  0.1004006E-04  0.1200128E+04  0.7818609E-02  0.9112745E-01
        2   -1    0    0  501    0  0.00000000000E+00  0.00000000000E+00  0.18681599123E+04  0.18681599123E+04  0.25500000920E-02 0.  1.
       -2   -1    0    0    0  501  0.00000000000E+00  0.00000000000E+00 -0.19274396016E+03  0.19274396018E+03  0.25500000920E-02 0. -1.
    10030    2    1    2    0    0  0.00000000000E+00  0.00000000000E+00  0.16754159521E+04  0.20609038725E+04  0.12001275594E+04 0.  0.
        5    1    3    3  502    0  0.57959177090E+03 -0.10411126575E+03  0.10356651006E+04  0.11913815791E+04  0.46999998093E+01 0.  1.
       -5    1    3    3    0  502 -0.57959177090E+03  0.10411126575E+03  0.63975085155E+03  0.86952229334E+03  0.46999998093E+01 0. -1.
</event>
<event>
 5   0  0.5625746E-05  0.1199785E+04  0.7818609E-02  0.9113044E-01
        1   -1    0    0  501    0  0.00000000000E+00  0.00000000000E+00  0.16755058230E+04  0.16755058230E+04  0.50400001928E-02 0.  1.
       -1   -1    0    0    0  501  0.00000000000E+00  0.00000000000E+00 -0.21478362145E+03  0.21478362151E+03  0.50400001928E-02 0. -1.
    10030    2    1    2    0    0  0.00000000000E+00  0.00000000000E+00  0.14607222016E+04  0.18902894445E+04  0.11997853283E+04 0.  0.
        5    1    3    3  502    0  0.56175345325E+03 -0.57781424370E+02  0.41156194981E+03  0.69879250408E+03  0.46999998093E+01 0. -1.
       -5    1    3    3    0  502 -0.56175345325E+03  0.57781424370E+02  0.10491602518E+04  0.11914969405E+04  0.46999998093E+01 0.  1.
</event>
<event>
 5   0  0.1004006E-04  0.1199258E+04  0.7818609E-02  0.9113506E-01
       -2   -1    0    0    0  501  0.00000000000E+00  0.00000000000E+00  0.28120129051E+03  0.28120129052E+03  0.25500000920E-02 0. -1.
        2   -1    0    0  501    0  0.00000000000E+00  0.00000000000E+00 -0.12786389861E+04  0.12786389861E+04  0.25500000920E-02 0.  1.
    10030    2    1    2    0    0  0.00000000000E+00  0.00000000000E+00 -0.99743769563E+03  0.15598402767E+04  0.11992579923E+04 0.  0.
        5    1    3    3  502    0 -0.38672489256E+03  0.11078766067E+03 -0.10770464397E+04  0.11497309127E+04  0.46999998093E+01 0.  1.
       -5    1    3    3    0  502  0.38672489256E+03 -0.11078766067E+03  0.79608744091E+02  0.41010936397E+03  0.46999998093E+01 0. -1.
</event>
<event>
 5   0  0.9838215E-05  0.1195763E+04  0.7818609E-02  0.9116573E-01
       -2   -1    0    0    0  501  0.00000000000E+00  0.00000000000E+00  0.19488591738E+04  0.19488591738E+04  0.25500000920E-02 0. -1.
        2   -1    0    0  501    0  0.00000000000E+00  0.00000000000E+00 -0.18342137520E+03  0.18342137522E+03  0.25500000920E-02 0.  1.
    10030    2    1    2    0    0  0.00000000000E+00  0.00000000000E+00  0.17654377986E+04  0.21322805490E+04  0.11957632370E+04 0.  0.
        4    1    3    3  502    0 -0.16858753803E+03  0.44406044827E+03  0.15302165385E+04  0.16022408394E+04  0.12699999809E+01 0. -1.
       -4    1    3    3    0  502  0.16858753803E+03 -0.44406044827E+03  0.23522126004E+03  0.53003970961E+03  0.12699999809E+01 0.  1.
</event>
<event>
 5   0  0.1012657E-04  0.1199059E+04  0.7818609E-02  0.9113680E-01
       -2   -1    0    0    0  501  0.00000000000E+00  0.00000000000E+00  0.33952109788E+03  0.33952109789E+03  0.25500000920E-02 0.  1.
        2   -1    0    0  501    0  0.00000000000E+00  0.00000000000E+00 -0.10586552926E+04  0.10586552926E+04  0.25500000920E-02 0. -1.
    10030    2    1    2    0    0  0.00000000000E+00  0.00000000000E+00 -0.71913419474E+03  0.13981763905E+04  0.11990593100E+04 0.  0.
        1    1    3    3  502    0  0.23483517956E+03  0.35173208359E+03 -0.85507142227E+03  0.95394452533E+03  0.50400001928E-02 0. -1.
       -1    1    3    3    0  502 -0.23483517956E+03 -0.35173208359E+03  0.13593722753E+03  0.44423186518E+03  0.50400001928E-02 0.  1.
</event>
<event>
 5   0  0.1012657E-04  0.1199853E+04  0.7818609E-02  0.9112985E-01
       -2   -1    0    0    0  501  0.00000000000E+00  0.00000000000E+00  0.10160105567E+04  0.10160105567E+04  0.25500000920E-02 0. -1.
        2   -1    0    0  501    0  0.00000000000E+00  0.00000000000E+00 -0.35424006603E+03  0.35424006604E+03  0.25500000920E-02 0.  1.
    10030    2    1    2    0    0  0.00000000000E+00  0.00000000000E+00  0.66177049064E+03  0.13702506227E+04  0.11998527354E+04 0.  0.
        1    1    3    3  502    0  0.15205695569E+03  0.40015129145E+03  0.81089777398E+03  0.91695014788E+03  0.50400001928E-02 0. -1.
       -1    1    3    3    0  502 -0.15205695569E+03 -0.40015129145E+03 -0.14912728334E+03  0.45330047483E+03  0.50400001928E-02 0.  1.
</event>
<event>
 5   0  0.5447807E-05  0.1202228E+04  0.7818609E-02  0.9110909E-01
       -1   -1    0    0    0  501  0.00000000000E+00  0.00000000000E+00  0.62339701073E+03  0.62339701075E+03  0.50400001928E-02 0. -1.
        1   -1    0    0  501    0  0.00000000000E+00  0.00000000000E+00 -0.57962730908E+03  0.57962730910E+03  0.50400001928E-02 0.  1.
    10030    2    1    2    0    0  0.00000000000E+00  0.00000000000E+00  0.43769701651E+02  0.12030243198E+04  0.12022278184E+04 0.  0.
        2    1    3    3  502    0 -0.57462454037E+03 -0.26609404562E+02  0.19646105783E+03  0.60786377591E+03  0.25500000920E-02 0.  1.
       -2    1    3    3    0  502  0.57462454037E+03  0.26609404562E+02 -0.15269135618E+03  0.59516054394E+03  0.25500000920E-02 0. -1.
</event>
<event>
 5   0  0.1012657E-04  0.1200389E+04  0.7818609E-02  0.9112516E-01
       -2   -1    0    0    0  501  0.00000000000E+00  0.00000000000E+00  0.95897081264E+03  0.95897081264E+03  0.25500000920E-02 0. -1.
        2   -1    0    0  501    0  0.00000000000E+00  0.00000000000E+00 -0.37564616495E+03  0.37564616495E+03  0.25500000920E-02 0.  1.
    10030    2    1    2    0    0  0.00000000000E+00  0.00000000000E+00  0.58332464769E+03  0.13346169776E+04  0.12003894503E+04 0.  0.
        1    1    3    3  502    0 -0.23545544090E+02 -0.43575807966E+02 -0.37337004945E+03  0.37664099290E+03  0.50400001928E-02 0.  1.
       -1    1    3    3    0  502  0.23545544090E+02  0.43575807966E+02  0.95669469714E+03  0.95797598469E+03  0.50400001928E-02 0. -1.
</event>
<event>
 5   0  0.5625746E-05  0.1200086E+04  0.7818609E-02  0.9112781E-01
        1   -1    0    0  501    0  0.00000000000E+00  0.00000000000E+00  0.17872405840E+04  0.17872405840E+04  0.50400001928E-02 0. -1.
       -1   -1    0    0    0  501  0.00000000000E+00  0.00000000000E+00 -0.20145672295E+03  0.20145672301E+03  0.50400001928E-02 0.  1.
    10030    2    1    2    0    0  0.00000000000E+00  0.00000000000E+00  0.15857838610E+04  0.19886973070E+04  0.12000860490E+04 0.  0.
        5    1    3    3  502    0 -0.14070306743E+02  0.35962042310E+03  0.15884945585E+04  0.16287608402E+04  0.46999998093E+01 0. -1.
       -5    1    3    3    0  502  0.14070306743E+02 -0.35962042310E+03 -0.27106974569E+01  0.35993646679E+03  0.46999998093E+01 0.  1.
</event>
<event>
 5   0  0.5745487E-05  0.1200031E+04  0.7818609E-02  0.9112830E-01
       -1   -1    0    0    0  501  0.00000000000E+00  0.00000000000E+00  0.10211747934E+04  0.10211747934E+04  0.50400001928E-02 0. -1.
        1   -1    0    0  501    0  0.00000000000E+00  0.00000000000E+00 -0.35255326910E+03  0.35255326913E+03  0.50400001928E-02 0.  1.
    10030    2    1    2    0    0  0.00000000000E+00  0.00000000000E+00  0.66862152433E+03  0.13737280626E+04  0.12000308526E+04 0.  0.
        3    1    3    3  502    0 -0.50368222701E+03  0.32492621665E+03  0.30305129660E+03  0.67164941052E+03  0.10100000352E+00 0.  1.
       -3    1    3    3    0  502  0.50368222701E+03 -0.32492621665E+03  0.36557022772E+03  0.70207865205E+03  0.10100000352E+00 0. -1.
</event>
<event>
 5   0  0.9838215E-05  0.1199194E+04  0.7818609E-02  0.9113562E-01
       -2   -1    0    0    0  501  0.00000000000E+00  0.00000000000E+00  0.65359237845E+03  0.65359237845E+03  0.25500000920E-02 0. -1.
        2   -1    0    0  501    0  0.00000000000E+00  0.00000000000E+00 -0.55006238094E+03  0.55006238095E+03  0.25500000920E-02 0.  1.
    10030    2    1    2    0    0  0.00000000000E+00  0.00000000000E+00  0.10352999751E+03  0.12036547594E+04  0.11991940291E+04 0.  0.
        4    1    3    3  502    0  0.68728968853E+02 -0.58033177360E+03  0.18645180740E+03  0.61341220072E+03  0.12699999809E+01 0. -1.
       -4    1    3    3    0  502 -0.68728968853E+02  0.58033177360E+03 -0.82921809896E+02  0.59024255867E+03  0.12699999809E+01 0.  1.
</event>
<event>
 5   0  0.5732931E-05  0.1200044E+04  0.7818609E-02  0.9112818E-01
        1   -1    0    0  501    0  0.00000000000E+00  0.00000000000E+00  0.69451015327E+03  0.69451015329E+03  0.50400001928E-02 0.  1.
       -1   -1    0    0    0  501  0.00000000000E+00  0.00000000000E+00 -0.51838930479E+03  0.51838930482E+03  0.50400001928E-02 0. -1.
    10030    2    1    2    0    0  0.00000000000E+00  0.00000000000E+00  0.17612084848E+03  0.12128994581E+04  0.12000443918E+04 0.  0.
        4    1    3    3  502    0 -0.58347372183E+03 -0.29364482082E+02  0.22635142992E+03  0.62653047779E+03  0.12699999809E+01 0. -1.
       -4    1    3    3    0  502  0.58347372183E+03  0.29364482082E+02 -0.50230581438E+02  0.58636898032E+03  0.12699999809E+01 0.  1.
</event>
<event>
 5   0  0.1023063E-04  0.1200055E+04  0.7818609E-02  0.9112809E-01
        2   -1    0    0  501    0  0.00000000000E+00  0.00000000000E+00  0.11909693300E+04  0.11909693300E+04  0.25500000920E-02 0. -1.
       -2   -1    0    0    0  501  0.00000000000E+00  0.00000000000E+00 -0.30230242652E+03  0.30230242653E+03  0.25500000920E-02 0.  1.
    10030    2    1    2    0    0  0.00000000000E+00  0.00000000000E+00  0.88866690343E+03  0.14932717565E+04  0.12000548627E+04 0.  0.
        3    1    3    3  502    0 -0.13155461085E+03 -0.50439203224E+03  0.74543663702E+02  0.52656880445E+03  0.10100000352E+00 0.  1.
       -3    1    3    3    0  502  0.13155461085E+03  0.50439203224E+03  0.81412323973E+03  0.96670295204E+03  0.10100000352E+00 0. -1.
</event>
<event>
 5   0  0.1023063E-04  0.1200239E+04  0.7818609E-02  0.9112648E-01
       -2   -1    0    0    0  501  0.00000000000E+00  0.00000000000E+00  0.33829043362E+03  0.33829043363E+03  0.25500000920E-02 0. -1.
        2   -1    0    0  501    0  0.00000000000E+00  0.00000000000E+00 -0.10645975713E+04  0.10645975713E+04  0.25500000920E-02 0.  1.
    10030    2    1    2    0    0  0.00000000000E+00  0.00000000000E+00 -0.72630713766E+03  0.14028880049E+04  0.12002385997E+04 0.  0.
        3    1    3    3  502    0  0.35604123341E+03  0.14643931787E+03 -0.90124372047E+03  0.98002555456E+03  0.10100000352E+00 0.  1.
       -3    1    3    3    0  502 -0.35604123341E+03 -0.14643931787E+03  0.17493658281E+03  0.42286245035E+03  0.10100000352E+00 0. -1.
</event>
<event>
 5   0  0.1023063E-04  0.1199638E+04  0.7818609E-02  0.9113174E-01
        2   -1    0    0  501    0  0.00000000000E+00  0.00000000000E+00  0.85673134916E+03  0.85673134917E+03  0.25500000920E-02 0. -1.
       -2   -1    0    0    0  501  0.00000000000E+00  0.00000000000E+00 -0.41994803103E+03  0.41994803103E+03  0.25500000920E-02 0.  1.
    10030    2    1    2    0    0  0.00000000000E+00  0.00000000000E+00  0.43678331814E+03  0.12766793802E+04  0.11996376840E+04 0.  0.
        3    1    3    3  502    0 -0.24840627243E+03  0.11637100693E+03  0.78606617463E+03  0.83255506036E+03  0.10100000352E+00 0. -1.
       -3    1    3    3    0  502  0.24840627243E+03 -0.11637100693E+03 -0.34928285649E+03  0.44412431984E+03  0.10100000352E+00 0.  1.
</event>
<event>
 5   0  0.5447807E-05  0.1200236E+04  0.7818609E-02  0.9112650E-01
       -1   -1    0    0    0  501  0.00000000000E+00  0.00000000000E+00  0.30485168077E+03  0.30485168081E+03  0.50400001928E-02 0. -1.
        1   -1    0    0  501    0  0.00000000000E+00  0.00000000000E+00 -0.11813674734E+04  0.11813674734E+04  0.50400001928E-02 0.  1.
    10030    2    1    2    0    0  0.00000000000E+00  0.00000000000E+00 -0.87651579262E+03  0.14862191542E+04  0.12002364099E+04 0.  0.
        2    1    3    3  502    0  0.13055601310E+03  0.97452077106E+02 -0.11534605711E+04  0.11649090389E+04  0.25500000920E-02 0.  1.
       -2    1    3    3    0  502 -0.13055601310E+03 -0.97452077106E+02  0.27694477845E+03  0.32131011532E+03  0.25500000920E-02 0. -1.
</event>
<event>
 5   0  0.1004006E-04  0.1200124E+04  0.7818609E-02  0.9112748E-01
       -2   -1    0    0    0  501  0.00000000000E+00  0.00000000000E+00  0.19730304345E+03  0.19730304347E+03  0.25500000920E-02 0. -1.
        2   -1    0    0  501    0  0.00000000000E+00  0.00000000000E+00 -0.18249809384E+04  0.18249809384E+04  0.25500000920E-02 0.  1.
    10030    2    1    2    0    0  0.00000000000E+00  0.00000000000E+00 -0.16276778949E+04  0.20222839819E+04  0.12001238160E+04 0.  0.
        5    1    3    3  502    0 -0.78993911121E+02  0.88592895711E+02 -0.18049702814E+04  0.18088749393E+04  0.46999998093E+01 0.  1.
       -5    1    3    3    0  502  0.78993911121E+02 -0.88592895711E+02  0.17729238646E+03  0.21340904259E+03  0.46999998093E+01 0. -1.
</event>
<event>
 5   0  0.1004006E-04  0.1199939E+04  0.7818609E-02  0.9112910E-01
       -2   -1    0    0    0  501  0.00000000000E+00  0.00000000000E+00  0.28770418904E+03  0.28770418905E+03  0.25500000920E-02 0. -1.
        2   -1    0    0  501    0  0.00000000000E+00  0.00000000000E+00 -0.12511581589E+04  0.12511581589E+04  0.25500000920E-02 0.  1.
    10030    2    1    2    0    0  0.00000000000E+00  0.00000000000E+00 -0.96345396988E+03  0.15388623480E+04  0.11999390709E+04 0.  0.
        5    1    3    3  502    0  0.19457964298E+03  0.13527581967E+03  0.22511213021E+03  0.32689194853E+03  0.46999998093E+01 0. -1.
       -5    1    3    3    0  502 -0.19457964298E+03 -0.13527581967E+03 -0.11885661001E+04  0.12119703994E+04  0.46999998093E+01 0.  1.
</event>
<event>
 5   0  0.9838215E-05  0.1200065E+04  0.7818609E-02  0.9112799E-01
        2   -1    0    0  501    0  0.00000000000E+00  0.00000000000E+00  0.75710021234E+03  0.75710021235E+03  0.25500000920E-02 0. -1.
       -2   -1    0    0    0  501  0.00000000000E+00  0.00000000000E+00 -0.47555037929E+03  0.47555037930E+03  0.25500000920E-02 0.  1.
    10030    2    1    2    0    0  0.00000000000E+00  0.00000000000E+00  0.28154983305E+03  0.12326505916E+04  0.12000654868E+04 0.  0.
        4    1    3    3  502    0 -0.19242658196E+03  0.12080244021E+03  0.71120683380E+03  0.74661770161E+03  0.12699999809E+01 0. -1.
       -4    1    3    3    0  502  0.19242658196E+03 -0.12080244021E+03 -0.42965700075E+03  0.48603289004E+03  0.12699999809E+01 0.  1.
</event>
<event>
 5   0  0.9838215E-05  0.1199499E+04  0.7818609E-02  0.9113295E-01
       -2   -1    0    0    0  501  0.00000000000E+00  0.00000000000E+00  0.35234646613E+03  0.35234646614E+03  0.25500000920E-02 0. -1.
        2   -1    0    0  501    0  0.00000000000E+00  0.00000000000E+00 -0.10208686633E+04  0.10208686633E+04  0.25500000920E-02 0.  1.
    10030    2    1    2    0    0  0.00000000000E+00  0.00000000000E+00 -0.66852219716E+03  0.13732151294E+04  0.11994990053E+04 0.  0.
        4    1    3    3  502    0  0.21673462707E+03 -0.22338599094E+03  0.25264697710E+03  0.40088315936E+03  0.12699999809E+01 0. -1.
       -4    1    3    3    0  502 -0.21673462707E+03  0.22338599094E+03 -0.92116917426E+03  0.97233197008E+03  0.12699999809E+01 0.  1.
</event>
<event>
 5   0  0.5447807E-05  0.1201148E+04  0.7818609E-02  0.9111852E-01
       -1   -1    0    0    0  501  0.00000000000E+00  0.00000000000E+00  0.19991178319E+03  0.19991178325E+03  0.50400001928E-02 0.  1.
        1   -1    0    0  501    0  0.00000000000E+00  0.00000000000E+00 -0.18042417211E+04  0.18042417211E+04  0.50400001928E-02 0. -1.
    10030    2    1    2    0    0  0.00000000000E+00  0.00000000000E+00 -0.16043299379E+04  0.20041535044E+04  0.12011480839E+04 0.  0.
        2    1    3    3  502    0  0.16874482683E+03  0.15787431040E+03  0.12276465529E+03  0.26166825382E+03  0.25500000920E-02 0.  1.
       -2    1    3    3    0  502 -0.16874482683E+03 -0.15787431040E+03 -0.17270945932E+04  0.17424852506E+04  0.25500000920E-02 0. -1.
</event>
<event>
 5   0  0.1023063E-04  0.1199888E+04  0.7818609E-02  0.9112955E-01
        2   -1    0    0  501    0  0.00000000000E+00  0.00000000000E+00  0.59034905164E+03  0.59034905165E+03  0.25500000920E-02 0. -1.
       -2   -1    0    0    0  501  0.00000000000E+00  0.00000000000E+00 -0.60969479060E+03  0.60969479060E+03  0.25500000920E-02 0.  1.
    10030    2    1    2    0    0  0.00000000000E+00  0.00000000000E+00 -0.19345738957E+02  0.12000438422E+04  0.11998878971E+04 0.  0.
        3    1    3    3  502    0  0.36778217840E+03 -0.33110806969E+03 -0.34888718278E+03  0.60549034763E+03  0.10100000352E+00 0.  1.
       -3    1    3    3    0  502 -0.36778217840E+03  0.33110806969E+03  0.32954144383E+03  0.59455349462E+03  0.10100000352E+00 0. -1.
</event>
<event>
 5   0  0.5732931E-05  0.1199756E+04  0.7818609E-02  0.9113070E-01
        1   -1    0    0  501    0  0.00000000000E+00  0.00000000000E+00  0.34165283532E+03  0.34165283536E+03  0.50400001928E-02 0. -1.
       -1   -1    0    0    0  501  0.00000000000E+00  0.00000000000E+00 -0.10532720716E+04  0.10532720717E+04  0.50400001928E-02 0.  1.
    10030    2    1    2    0    0  0.00000000000E+00  0.00000000000E+00 -0.71161923632E+03  0.13949249070E+04  0.11997556246E+04 0.  0.
        4    1    3    3  502    0  0.15324768132E+03 -0.40587660671E+03  0.12586751971E+03  0.45173545037E+03  0.12699999809E+01 0.  1.
       -4    1    3    3    0  502 -0.15324768132E+03  0.40587660671E+03 -0.83748675603E+03  0.94318945665E+03  0.12699999809E+01 0. -1.
</event>
<event>
 5   0  0.1012657E-04  0.1197420E+04  0.7818609E-02  0.9115118E-01
       -2   -1    0    0    0  501  0.00000000000E+00  0.00000000000E+00  0.24191851802E+03  0.24191851804E+03  0.25500000920E-02 0. -1.
        2   -1    0    0  501    0  0.00000000000E+00  0.00000000000E+00 -0.14817112725E+04  0.14817112725E+04  0.25500000920E-02 0.  1.
    10030    2    1    2    0    0  0.00000000000E+00  0.00000000000E+00 -0.12397927545E+04  0.17236297905E+04  0.11974195509E+04 0.  0.
        1    1    3    3  502    0  0.51702524023E+03  0.22263629356E+03 -0.91338742015E+03  0.10729205924E+04  0.50400001928E-02 0.  1.
       -1    1    3    3    0  502 -0.51702524023E+03 -0.22263629356E+03 -0.32640533430E+03  0.65070919813E+03  0.50400001928E-02 0. -1.
</event>
<event>
 5   0  0.9941209E-05  0.1201036E+04  0.7818609E-02  0.9111951E-01
        2   -1    0    0  501    0  0.00000000000E+00  0.00000000000E+00  0.10868966106E+04  0.10868966106E+04  0.25500000920E-02 0. -1.
       -2   -1    0    0    0  501  0.00000000000E+00  0.00000000000E+00 -0.33179018137E+03  0.33179018138E+03  0.25500000920E-02 0.  1.
    10030    2    1    2    0    0  0.00000000000E+00  0.00000000000E+00  0.75510642923E+03  0.14186867920E+04  0.12010355924E+04 0.  0.
        2    1    3    3  502    0  0.24420191791E+03  0.51701512418E+03  0.59433970534E+03  0.82472959247E+03  0.25500000920E-02 0. -1.
       -2    1    3    3    0  502 -0.24420191791E+03 -0.51701512418E+03  0.16076672388E+03  0.59395719952E+03  0.25500000920E-02 0.  1.
</event>
<event>
 5   0  0.5732931E-05  0.1200111E+04  0.7818609E-02  0.9112759E-01
       -1   -1    0    0    0  501  0.00000000000E+00  0.00000000000E+00  0.42337956057E+03  0.42337956060E+03  0.50400001928E-02 0.  1.
        1   -1    0    0  501    0  0.00000000000E+00  0.00000000000E+00 -0.85045869903E+03  0.85045869905E+03  0.50400001928E-02 0. -1.
    10030    2    1    2    0    0  0.00000000000E+00  0.00000000000E+00 -0.42707913846E+03  0.12738382596E+04  0.12001113787E+04 0.  0.
        4    1    3    3  502    0  0.52676015631E+03  0.97510769990E+01 -0.51840176868E+03  0.73913013228E+03  0.12699999809E+01 0. -1.
       -4    1    3    3    0  502 -0.52676015631E+03 -0.97510769990E+01  0.91322630215E+02  0.53470812737E+03  0.12699999809E+01 0.  1.
</event>
<event>
 5   0  0.5447807E-05  0.1200034E+04  0.7818609E-02  0.9112827E-01
        1   -1    0    0  501    0  0.00000000000E+00  0.00000000000E+00  0.67810100702E+03  0.67810100703E+03  0.50400001928E-02 0.  1.
       -1   -1    0    0    0  501  0.00000000000E+00  0.00000000000E+00 -0.53092412766E+03  0.53092412768E+03  0.50400001928E-02 0. -1.
    10030    2    1    2    0    0  0.00000000000E+00  0.00000000000E+00  0.14717687936E+03  0.12090251347E+04  0.12000336423E+04 0.  0.
        2    1    3    3  502    0  0.51581965504E+03  0.23225711291E+02 -0.23433343089E+03  0.56702866509E+03  0.25500000920E-02 0. -1.
       -2    1    3    3    0  502 -0.51581965504E+03 -0.23225711291E+02  0.38151031025E+03  0.64199646963E+03  0.25500000920E-02 0.  1.
</event>
<event>
 5   0  0.9838215E-05  0.1200238E+04  0.7818609E-02  0.9112648E-01
       -2   -1    0    0    0  501  0.00000000000E+00  0.00000000000E+00  0.28433905002E+03  0.28433905004E+03  0.25500000920E-02 0.  1.
        2   -1    0    0  501    0  0.00000000000E+00  0.00000000000E+00 -0.12665964881E+04  0.12665964881E+04  0.25500000920E-02 0. -1.
    10030    2    1    2    0    0  0.00000000000E+00  0.00000000000E+00 -0.98225743811E+03  0.15509355382E+04  0.12002380467E+04 0.  0.
        4    1    3    3  502    0  0.14793195690E+02  0.36753935809E+03 -0.11038464563E+04  0.11635216501E+04  0.12699999809E+01 0. -1.
       -4    1    3    3    0  502 -0.14793195690E+02 -0.36753935809E+03  0.12158901819E+03  0.38741388802E+03  0.12699999809E+01 0.  1.
</event>
<event>
 5   0  0.9838215E-05  0.1200492E+04  0.7818609E-02  0.9112426E-01
        2   -1    0    0  501    0  0.00000000000E+00  0.00000000000E+00  0.10197064976E+04  0.10197064976E+04  0.25500000920E-02 0. -1.
       -2   -1    0    0    0  501  0.00000000000E+00  0.00000000000E+00 -0.35333226159E+03  0.35333226160E+03  0.25500000920E-02 0.  1.
    10030    2    1    2    0    0  0.00000000000E+00  0.00000000000E+00  0.66637423597E+03  0.13730387592E+04  0.12004919041E+04 0.  0.
        4    1    3    3  502    0 -0.16875946343E+03 -0.86712673644E+01 -0.32556434556E+03  0.36680881039E+03  0.12699999809E+01 0.  1.
       -4    1    3    3    0  502  0.16875946343E+03  0.86712673644E+01  0.99193858153E+03  0.10062299488E+04  0.12699999809E+01 0. -1.
</event>
<event>
 5   0  0.5732931E-05  0.1200528E+04  0.7818609E-02  0.9112395E-01
       -1   -1    0    0    0  501  0.00000000000E+00  0.00000000000E+00  0.55920781547E+03  0.55920781550E+03  0.50400001928E-02 0.  1.
        1   -1    0    0  501    0  0.00000000000E+00  0.00000000000E+00 -0.64433402164E+03  0.64433402166E+03  0.50400001928E-02 0. -1.
    10030    2    1    2    0    0  0.00000000000E+00  0.00000000000E+00 -0.85126206167E+02  0.12035418372E+04  0.12005275852E+04 0.  0.
        4    1    3    3  502    0 -0.76564687545E+02 -0.54478570662E+02 -0.63691329880E+03  0.64380915583E+03  0.12699999809E+01 0. -1.
       -4    1    3    3    0  502  0.76564687545E+02  0.54478570662E+02  0.55178709264E+03  0.55973268132E+03  0.12699999809E+01 0.  1.
</event>
<event>
 5   0  0.5447807E-05  0.1193544E+04  0.7818609E-02  0.9118527E-01
        1   -1    0    0  501    0  0.00000000000E+00  0.00000000000E+00  0.61727397683E+03  0.61727397685E+03  0.50400001928E-02 0. -1.
       -1   -1    0    0    0  501  0.00000000000E+00  0.00000000000E+00 -0.57695071877E+03  0.57695071879E+03  0.50400001928E-02 0.  1.
    10030    2    1    2    0    0  0.00000000000E+00  0.00000000000E+00  0.40323258064E+02  0.11942246956E+04  0.11935437397E+04 0.  0.
        2    1    3    3  502    0  0.37097671228E+03  0.80442801060E+02  0.48090442290E+03  0.61266942903E+03  0.25500000920E-02 0. -1.
       -2    1    3    3    0  502 -0.37097671228E+03 -0.80442801060E+02 -0.44058116484E+03  0.58155526661E+03  0.25500000920E-02 0.  1.
</event>
<event>
 5   0  0.1004006E-04  0.1199800E+04  0.7818609E-02  0.9113031E-01
       -2   -1    0    0    0  501  0.00000000000E+00  0.00000000000E+00  0.48725743440E+03  0.48725743440E+03  0.25500000920E-02 0. -1.
        2   -1    0    0  501    0  0.00000000000E+00  0.00000000000E+00 -0.73858320741E+03  0.73858320742E+03  0.25500000920E-02 0.  1.
    10030    2    1    2    0    0  0.00000000000E+00  0.00000000000E+00 -0.25132577302E+03  0.12258406418E+04  0.11998002479E+04 0.  0.
        5    1    3    3  502    0 -0.25688644075E+03 -0.18371797752E+03  0.39542127853E+03  0.50608597710E+03  0.46999998093E+01 0. -1.
       -5    1    3    3    0  502  0.25688644075E+03  0.18371797752E+03 -0.64674705154E+03  0.71975466472E+03  0.46999998093E+01 0.  1.
</event>
<event>
 5   0  0.1004006E-04  0.1200151E+04  0.7818609E-02  0.9112725E-01
       -2   -1    0    0    0  501  0.00000000000E+00  0.00000000000E+00  0.17766073726E+03  0.17766073728E+03  0.25500000920E-02 0.  1.
        2   -1    0    0  501    0  0.00000000000E+00  0.00000000000E+00 -0.20268431408E+04  0.20268431409E+04  0.25500000920E-02 0. -1.
    10030    2    1    2    0    0  0.00000000000E+00  0.00000000000E+00 -0.18491824036E+04  0.22045038781E+04  0.12001507351E+04 0.  0.
        5    1    3    3  502    0  0.32483889910E+03 -0.39035990359E+03 -0.15117165090E+04  0.15947445119E+04  0.46999998093E+01 0. -1.
       -5    1    3    3    0  502 -0.32483889910E+03  0.39035990359E+03 -0.33746589461E+03  0.60975936624E+03  0.46999998093E+01 0.  1.
</event>
<event>
 5   0  0.5625746E-05  0.1199687E+04  0.7818609E-02  0.9113130E-01
        1   -1    0    0  501    0  0.00000000000E+00  0.00000000000E+00  0.11295181648E+04  0.11295181648E+04  0.50400001928E-02 0.  1.
       -1   -1    0    0    0  501  0.00000000000E+00  0.00000000000E+00 -0.31855378562E+03  0.31855378566E+03  0.50400001928E-02 0. -1.
    10030    2    1    2    0    0  0.00000000000E+00  0.00000000000E+00  0.81096437917E+03  0.14480719505E+04  0.11996871048E+04 0.  0.
        5    1    3    3  502    0  0.15266632532E+03 -0.53823090113E+03  0.66657917878E+03  0.87025823834E+03  0.46999998093E+01 0.  1.
       -5    1    3    3    0  502 -0.15266632532E+03  0.53823090113E+03  0.14438520039E+03  0.57781371212E+03  0.46999998093E+01 0. -1.
</event>
<event>
 5   0  0.9941209E-05  0.1199981E+04  0.7818609E-02  0.9112874E-01
        2   -1    0    0  501    0  0.00000000000E+00  0.00000000000E+00  0.26968135926E+04  0.26968135926E+04  0.25500000920E-02 0.  1.
       -2   -1    0    0    0  501  0.00000000000E+00  0.00000000000E+00 -0.13348655742E+03  0.13348655744E+03  0.25500000920E-02 0. -1.
    10030    2    1    2    0    0  0.00000000000E+00  0.00000000000E+00  0.25633270352E+04  0.28303001500E+04  0.11999806040E+04 0.  0.
        2    1    3    3  502    0  0.32105582892E+03 -0.46798499651E+03  0.17408475867E+04  0.18310207870E+04  0.25500000920E-02 0. -1.
       -2    1    3    3    0  502 -0.32105582892E+03  0.46798499651E+03  0.82247944848E+03  0.99927936305E+03  0.25500000920E-02 0.  1.
</event>
<event>
 5   0  0.5732931E-05  0.1199817E+04  0.7818609E-02  0.9113017E-01
        1   -1    0    0  501    0  0.00000000000E+00  0.00000000000E+00  0.24370264551E+04  0.24370264551E+04  0.50400001928E-02 0.  1.
       -1   -1    0    0    0  501  0.00000000000E+00  0.00000000000E+00 -0.14767594665E+03  0.14767594674E+03  0.50400001928E-02 0. -1.
    10030    2    1    2    0    0  0.00000000000E+00  0.00000000000E+00  0.22893505085E+04  0.25847024019E+04  0.11998169675E+04 0.  0.
        4    1    3    3  502    0 -0.12221730743E+03 -0.41010151498E+03  0.20504030213E+04  0.20945821744E+04  0.12699999809E+01 0.  1.
       -4    1    3    3    0  502  0.12221730743E+03  0.41010151498E+03  0.23894748721E+03  0.49012022746E+03  0.12699999809E+01 0. -1.
</event>
<event>
 5   0  0.1023063E-04  0.1199802E+04  0.7818609E-02  0.9113030E-01
        2   -1    0    0  501    0  0.00000000000E+00  0.00000000000E+00  0.54579516973E+03  0.54579516974E+03  0.25500000920E-02 0. -1.
       -2   -1    0    0    0  501  0.00000000000E+00  0.00000000000E+00 -0.65937040155E+03  0.65937040156E+03  0.25500000920E-02 0.  1.
    10030    2    1    2    0    0  0.00000000000E+00  0.00000000000E+00 -0.11357523182E+03  0.12051655713E+04  0.11998019507E+04 0.  0.
        3    1    3    3  502    0 -0.58548172134E+03 -0.99502787288E+02 -0.14196954655E+03  0.61061036107E+03  0.10100000352E+00 0.  1.
       -3    1    3    3    0  502  0.58548172134E+03  0.99502787288E+02  0.28394314733E+02  0.59455521023E+03  0.10100000352E+00 0. -1.
</event>
<event>
 5   0  0.3839750E-05  0.1200362E+04  0.7818609E-02  0.9112540E-01
       -4   -1    0    0    0  501  0.00000000000E+00  0.00000000000E+00  0.32437591263E+03  0.32437839878E+03  0.12699999809E+01 0.  1.
        4   -1    0    0  501    0  0.00000000000E+00  0.00000000000E+00 -0.11104864342E+04  0.11104871604E+04  0.12699999809E+01 0. -1.
    10030    2    1    2    0    0  0.00000000000E+00  0.00000000000E+00 -0.78611052155E+03  0.14348655592E+04  0.12003622040E+04 0.  0.
        2    1    3    3  502    0  0.65567661756E+02  0.35401728510E+03  0.18095430864E+03  0.40295386614E+03  0.25500000920E-02 0.  1.
       -2    1    3    3    0  502 -0.65567661756E+02 -0.35401728510E+03 -0.96706483020E+03  0.10319116930E+04  0.25500000920E-02 0. -1.
</event>
<event>
 5   0  0.9941209E-05  0.1200112E+04  0.7818609E-02  0.9112759E-01
       -2   -1    0    0    0  501  0.00000000000E+00  0.00000000000E+00  0.17199106446E+03  0.17199106448E+03  0.25500000920E-02 0.  1.
        2   -1    0    0  501    0  0.00000000000E+00  0.00000000000E+00 -0.20935220140E+04  0.20935220140E+04  0.25500000920E-02 0. -1.
    10030    2    1    2    0    0  0.00000000000E+00  0.00000000000E+00 -0.19215309496E+04  0.22655130785E+04  0.12001117943E+04 0.  0.
        2    1    3    3  502    0 -0.34989933181E+03 -0.48734193483E+03 -0.93880127250E+03  0.11141272518E+04  0.25500000920E-02 0.  1.
       -2    1    3    3    0  502  0.34989933181E+03  0.48734193483E+03 -0.98272967706E+03  0.11513858267E+04  0.25500000920E-02 0. -1.
</event>
<event>
 5   0  0.5745487E-05  0.1202069E+04  0.7818609E-02  0.9111048E-01
       -1   -1    0    0    0  501  0.00000000000E+00  0.00000000000E+00  0.33968128893E+03  0.33968128897E+03  0.50400001928E-02 0.  1.
        1   -1    0    0  501    0  0.00000000000E+00  0.00000000000E+00 -0.10634742616E+04  0.10634742616E+04  0.50400001928E-02 0. -1.
    10030    2    1    2    0    0  0.00000000000E+00  0.00000000000E+00 -0.72379297264E+03  0.14031555505E+04  0.12020687301E+04 0.  0.
        3    1    3    3  502    0 -0.52610737162E+03  0.17169393911E+03 -0.63558542904E+03  0.84275537554E+03  0.10100000352E+00 0.  1.
       -3    1    3    3    0  502  0.52610737162E+03 -0.17169393911E+03 -0.88207543594E+02  0.56040017500E+03  0.10100000352E+00 0. -1.
</event>
<event>
 5   0  0.9941209E-05  0.1197342E+04  0.7818609E-02  0.9115186E-01
        2   -1    0    0  501    0  0.00000000000E+00  0.00000000000E+00  0.15791482434E+04  0.15791482434E+04  0.25500000920E-02 0. -1.
       -2   -1    0    0    0  501  0.00000000000E+00  0.00000000000E+00 -0.22696215061E+03  0.22696215062E+03  0.25500000920E-02 0.  1.
    10030    2    1    2    0    0  0.00000000000E+00  0.00000000000E+00  0.13521860928E+04  0.18061103940E+04  0.11973418584E+04 0.  0.
        2    1    3    3  502    0  0.46745100935E+03 -0.28090156844E+02  0.12386949658E+04  0.13242600656E+04  0.25500000920E-02 0. -1.
       -2    1    3    3    0  502 -0.46745100935E+03  0.28090156844E+02  0.11349112694E+03  0.48185032838E+03  0.25500000920E-02 0.  1.
</event>
<event>
 5   0  0.5625746E-05  0.1200295E+04  0.7818609E-02  0.9112598E-01
       -1   -1    0    0    0  501  0.00000000000E+00  0.00000000000E+00  0.33393574273E+03  0.33393574277E+03  0.50400001928E-02 0.  1.
        1   -1    0    0  501    0  0.00000000000E+00  0.00000000000E+00 -0.10785815720E+04  0.10785815720E+04  0.50400001928E-02 0. -1.
    10030    2    1    2    0    0  0.00000000000E+00  0.00000000000E+00 -0.74464582929E+03  0.14125173148E+04  0.12002948611E+04 0.  0.
        5    1    3    3  502    0  0.15489692764E+03 -0.84001863817E+02 -0.10474311230E+04  0.10621597897E+04  0.46999998093E+01 0. -1.
       -5    1    3    3    0  502 -0.15489692764E+03  0.84001863817E+02  0.30278529374E+03  0.35035752513E+03  0.46999998093E+01 0.  1.
</event>
<event>
 5   0  0.5732931E-05  0.1199433E+04  0.7818609E-02  0.9113353E-01
        1   -1    0    0  501    0  0.00000000000E+00  0.00000000000E+00  0.54845150068E+03  0.54845150070E+03  0.50400001928E-02 0. -1.
       -1   -1    0    0    0  501  0.00000000000E+00  0.00000000000E+00 -0.65577327111E+03  0.65577327113E+03  0.50400001928E-02 0.  1.
    10030    2    1    2    0    0  0.00000000000E+00  0.00000000000E+00 -0.10732177043E+03  0.12042247718E+04  0.11994329238E+04 0.  0.
        4    1    3    3  502    0 -0.39508165771E+03  0.44117159911E+03 -0.14857069087E+03  0.61057084700E+03  0.12699999809E+01 0.  1.
       -4    1    3    3    0  502  0.39508165771E+03 -0.44117159911E+03  0.41248920447E+02  0.59365392482E+03  0.12699999809E+01 0. -1.
</event>
<event>
 5   0  0.1023063E-04  0.1199765E+04  0.7818609E-02  0.9113062E-01
       -2   -1    0    0    0  501  0.00000000000E+00  0.00000000000E+00  0.40254922232E+03  0.40254922233E+03  0.25500000920E-02 0. -1.
        2   -1    0    0  501    0  0.00000000000E+00  0.00000000000E+00 -0.89395046797E+03  0.89395046797E+03  0.25500000920E-02 0.  1.
    10030    2    1    2    0    0  0.00000000000E+00  0.00000000000E+00 -0.49140124564E+03  0.12964996903E+04  0.11997650865E+04 0.  0.
        3    1    3    3  502    0 -0.12019465702E+02 -0.59676455698E+03 -0.18098326395E+03  0.62372057530E+03  0.10100000352E+00 0. -1.
       -3    1    3    3    0  502  0.12019465702E+02  0.59676455698E+03 -0.31041798169E+03  0.67277911500E+03  0.10100000352E+00 0.  1.
</event>
<event>
 5   0  0.5745487E-05  0.1200057E+04  0.7818609E-02  0.9112807E-01
        1   -1    0    0  501    0  0.00000000000E+00  0.00000000000E+00  0.55816462660E+03  0.55816462663E+03  0.50400001928E-02 0. -1.
       -1   -1    0    0    0  501  0.00000000000E+00  0.00000000000E+00 -0.64503181752E+03  0.64503181754E+03  0.50400001928E-02 0.  1.
    10030    2    1    2    0    0  0.00000000000E+00  0.00000000000E+00 -0.86867190913E+02  0.12031964442E+04  0.12000565713E+04 0.  0.
        3    1    3    3  502    0  0.13887119548E+03  0.68760002124E+02  0.53775608232E+03  0.55963806259E+03  0.10100000352E+00 0. -1.
       -3    1    3    3    0  502 -0.13887119548E+03 -0.68760002124E+02 -0.62462327323E+03  0.64355838157E+03  0.10100000352E+00 0.  1.
</event>
<event>
 5   0  0.5447807E-05  0.1199946E+04  0.7818609E-02  0.9112903E-01
       -1   -1    0    0    0  501  0.00000000000E+00  0.00000000000E+00  0.83367807409E+03  0.83367807411E+03  0.50400001928E-02 0. -1.
        1   -1    0    0  501    0  0.00000000000E+00  0.00000000000E+00 -0.43178276685E+03  0.43178276688E+03  0.50400001928E-02 0.  1.
    10030    2    1    2    0    0  0.00000000000E+00  0.00000000000E+00  0.40189530724E+03  0.12654608410E+04  0.11999463747E+04 0.  0.
        2    1    3    3  502    0  0.26344595750E+03 -0.13821464202E+03 -0.34851781933E+03  0.45822672356E+03  0.25500000920E-02 0.  1.
       -2    1    3    3    0  502 -0.26344595750E+03  0.13821464202E+03  0.75041312657E+03  0.80723411742E+03  0.25500000920E-02 0. -1.
</event>
<event>
 5   0  0.5447807E-05  0.1199965E+04  0.7818609E-02  0.9112887E-01
       -1   -1    0    0    0  501  0.00000000000E+00  0.00000000000E+00  0.10952971860E+04  0.10952971860E+04  0.50400001928E-02 0.  1.
        1   -1    0    0  501    0  0.00000000000E+00  0.00000000000E+00 -0.32865884285E+03  0.32865884289E+03  0.50400001928E-02 0. -1.
    10030    2    1    2    0    0  0.00000000000E+00  0.00000000000E+00  0.76663834314E+03  0.14239560289E+04  0.11999651758E+04 0.  0.
        2    1    3    3  502    0 -0.74873334192E+02 -0.45982652971E+03 -0.65316355743E+02  0.47043881635E+03  0.25500000920E-02 0. -1.
       -2    1    3    3    0  502  0.74873334192E+02  0.45982652971E+03  0.83195469888E+03  0.95351721253E+03  0.25500000920E-02 0.  1.
</event>
<event>
 5   0  0.9838215E-05  0.1201134E+04  0.7818609E-02  0.9111864E-01
       -2   -1    0    0    0  501  0.00000000000E+00  0.00000000000E+00  0.74971754087E+03  0.74971754088E+03  0.25500000920E-02 0. -1.
        2   -1    0    0  501    0  0.00000000000E+00  0.00000000000E+00 -0.48108885158E+03  0.48108885159E+03  0.25500000920E-02 0.  1.
    10030    2    1    2    0    0  0.00000000000E+00  0.00000000000E+00  0.26862868929E+03  0.12308063925E+04  0.12011340487E+04 0.  0.
        4    1    3    3  502    0 -0.27916797680E+03 -0.42958813481E+03 -0.18679319253E+03  0.54532012114E+03  0.12699999809E+01 0. -1.
       -4    1    3    3    0  502  0.27916797680E+03  0.42958813481E+03  0.45542188182E+03  0.68548627133E+03  0.12699999809E+01 0.  1.
</event>
<event>
 5   0  0.5732931E-05  0.1200097E+04  0.7818609E-02  0.9112772E-01
        1   -1    0    0  501    0  0.00000000000E+00  0.00000000000E+00  0.43313817287E+03  0.43313817290E+03  0.50400001928E-02 0. -1.
       -1   -1    0    0    0  501  0.00000000000E+00  0.00000000000E+00 -0.83127749217E+03  0.83127749218E+03  0.50400001928E-02 0.  1.
    10030    2    1    2    0    0  0.00000000000E+00  0.00000000000E+00 -0.39813931929E+03  0.12644156651E+04  0.12000966863E+04 0.  0.
        4    1    3    3  502    0  0.45892136586E+03 -0.25120272472E+03  0.11052371307E+03  0.53472304327E+03  0.12699999809E+01 0. -1.
       -4    1    3    3    0  502 -0.45892136586E+03  0.25120272472E+03 -0.50866303236E+03  0.72969262182E+03  0.12699999809E+01 0.  1.
</event>
<event>
 5   0  0.5620246E-05  0.1198950E+04  0.7818609E-02  0.9113776E-01
        1   -1    0    0  501    0  0.00000000000E+00  0.00000000000E+00  0.42129738514E+03  0.42129738517E+03  0.50400001928E-02 0.  1.
       -1   -1    0    0    0  501  0.00000000000E+00  0.00000000000E+00 -0.85300800693E+03  0.85300800694E+03  0.50400001928E-02 0. -1.
    10030    2    1    2    0    0  0.00000000000E+00  0.00000000000E+00 -0.43171062178E+03  0.12743053921E+04  0.11989496117E+04 0.  0.
        1    1    3    3  502    0 -0.44869208665E+03 -0.36149033677E+03 -0.39169281089E+03  0.69672312315E+03  0.50400001928E-02 0. -1.
       -1    1    3    3    0  502  0.44869208665E+03  0.36149033677E+03 -0.40017810893E+02  0.57758226896E+03  0.50400001928E-02 0.  1.
</event>
<event>
 5   0  0.1004006E-04  0.1200181E+04  0.7818609E-02  0.9112698E-01
       -2   -1    0    0    0  501  0.00000000000E+00  0.00000000000E+00  0.49081532013E+03  0.49081532013E+03  0.25500000920E-02 0. -1.
        2   -1    0    0  501    0  0.00000000000E+00  0.00000000000E+00 -0.73369488402E+03  0.73369488402E+03  0.25500000920E-02 0.  1.
    10030    2    1    2    0    0  0.00000000000E+00  0.00000000000E+00 -0.24287956389E+03  0.12245102042E+04  0.12001811353E+04 0.  0.
        5    1    3    3  502    0 -0.14365552287E+03 -0.79381186317E+02 -0.71033011403E+03  0.72906052073E+03  0.46999998093E+01 0.  1.
       -5    1    3    3    0  502  0.14365552287E+03  0.79381186317E+02  0.46745055014E+03  0.49544968343E+03  0.46999998093E+01 0. -1.
</event>
<event>
 5   0  0.1012657E-04  0.1199974E+04  0.7818609E-02  0.9112879E-01
       -2   -1    0    0    0  501  0.00000000000E+00  0.00000000000E+00  0.79266628515E+03  0.79266628515E+03  0.25500000920E-02 0. -1.
        2   -1    0    0  501    0  0.00000000000E+00  0.00000000000E+00 -0.45414399071E+03  0.45414399072E+03  0.25500000920E-02 0.  1.
    10030    2    1    2    0    0  0.00000000000E+00  0.00000000000E+00  0.33852229443E+03  0.12468102759E+04  0.11999743831E+04 0.  0.
        1    1    3    3  502    0 -0.45476291853E+03 -0.25998303573E+03 -0.13470487569E+03  0.54087511914E+03  0.50400001928E-02 0.  1.
       -1    1    3    3    0  502  0.45476291853E+03  0.25998303573E+03  0.47322717013E+03  0.70593515673E+03  0.50400001928E-02 0. -1.
</event>
<event>
 5   0  0.1012657E-04  0.1200328E+04  0.7818609E-02  0.9112570E-01
        2   -1    0    0  501    0  0.00000000000E+00  0.00000000000E+00  0.70434645159E+03  0.70434645160E+03  0.25500000920E-02 0. -1.
       -2   -1    0    0    0  501  0.00000000000E+00  0.00000000000E+00 -0.51139129984E+03  0.51139129985E+03  0.25500000920E-02 0.  1.
    10030    2    1    2    0    0  0.00000000000E+00  0.00000000000E+00  0.19295515175E+03  0.12157377514E+04  0.12003277010E+04 0.  0.
        1    1    3    3  502    0 -0.15560443306E+03 -0.57919034220E+03  0.73326848167E+02  0.60419452065E+03  0.50400001928E-02 0. -1.
       -1    1    3    3    0  502  0.15560443306E+03  0.57919034220E+03  0.11962830359E+03  0.61154323080E+03  0.50400001928E-02 0.  1.
</event>
<event>
 5   0  0.5745487E-05  0.1200055E+04  0.7818609E-02  0.9112808E-01
        1   -1    0    0  501    0  0.00000000000E+00  0.00000000000E+00  0.15279727976E+04  0.15279727976E+04  0.50400001928E-02 0. -1.
       -1   -1    0    0    0  501  0.00000000000E+00  0.00000000000E+00 -0.23562803451E+03  0.23562803456E+03  0.50400001928E-02 0.  1.
    10030    2    1    2    0    0  0.00000000000E+00  0.00000000000E+00  0.12923447631E+04  0.17636008322E+04  0.12000553773E+04 0.  0.
        3    1    3    3  502    0  0.58695414063E+03  0.34351346172E+02  0.47020025493E+03  0.75285022955E+03  0.10100000352E+00 0. -1.
       -3    1    3    3    0  502 -0.58695414063E+03 -0.34351346172E+02  0.82214450815E+03  0.10107506026E+04  0.10100000352E+00 0.  1.
</event>
<event>
 5   0  0.1004006E-04  0.1200088E+04  0.7818609E-02  0.9112780E-01
        2   -1    0    0  501    0  0.00000000000E+00  0.00000000000E+00  0.14737227001E+04  0.14737227001E+04  0.25500000920E-02 0.  1.
       -2   -1    0    0    0  501  0.00000000000E+00  0.00000000000E+00 -0.24431509666E+03  0.24431509667E+03  0.25500000920E-02 0. -1.
    10030    2    1    2    0    0  0.00000000000E+00  0.00000000000E+00  0.12294076035E+04  0.17180377968E+04  0.12000878367E+04 0.  0.
        5    1    3    3  502    0 -0.37402353011E+03 -0.37123759828E+03  0.10254480211E+04  0.11529426219E+04  0.46999998093E+01 0.  1.
       -5    1    3    3    0  502  0.37402353011E+03  0.37123759828E+03  0.20395958238E+03  0.56509517490E+03  0.46999998093E+01 0. -1.
</event>
<event>
 5   0  0.9941209E-05  0.1200125E+04  0.7818609E-02  0.9112747E-01
       -2   -1    0    0    0  501  0.00000000000E+00  0.00000000000E+00  0.15113718145E+03  0.15113718147E+03  0.25500000920E-02 0. -1.
        2   -1    0    0  501    0  0.00000000000E+00  0.00000000000E+00 -0.23824398084E+04  0.23824398084E+04  0.25500000920E-02 0.  1.
    10030    2    1    2    0    0  0.00000000000E+00  0.00000000000E+00 -0.22313026269E+04  0.25335769898E+04  0.12001253895E+04 0.  0.
        2    1    3    3  502    0  0.59728851540E+02  0.59368092508E+03 -0.12500114503E+04  0.13851184796E+04  0.25500000920E-02 0. -1.
       -2    1    3    3    0  502 -0.59728851540E+02 -0.59368092508E+03 -0.98129117657E+03  0.11484585102E+04  0.25500000920E-02 0.  1.
</event>
<event>
 5   0  0.5625746E-05  0.1200039E+04  0.7818609E-02  0.9112823E-01
       -1   -1    0    0    0  501  0.00000000000E+00  0.00000000000E+00  0.87984735728E+03  0.87984735729E+03  0.50400001928E-02 0. -1.
        1   -1    0    0  501    0  0.00000000000E+00  0.00000000000E+00 -0.40918816098E+03  0.40918816101E+03  0.50400001928E-02 0.  1.
    10030    2    1    2    0    0  0.00000000000E+00  0.00000000000E+00  0.47065919630E+03  0.12890355183E+04  0.12000385362E+04 0.  0.
        5    1    3    3  502    0  0.41464637196E+03 -0.43338906916E+03  0.21857360233E+03  0.63839972485E+03  0.46999998093E+01 0.  1.
       -5    1    3    3    0  502 -0.41464637196E+03  0.43338906916E+03  0.25208559397E+03  0.65063579346E+03  0.46999998093E+01 0. -1.
</event>
<event>
 5   0  0.1012657E-04  0.1201468E+04  0.7818609E-02  0.9111573E-01
       -2   -1    0    0    0  501  0.00000000000E+00  0.00000000000E+00  0.52755688546E+03  0.52755688547E+03  0.25500000920E-02 0.  1.
        2   -1    0    0  501    0  0.00000000000E+00  0.00000000000E+00 -0.68406105216E+03  0.68406105217E+03  0.25500000920E-02 0. -1.
    10030    2    1    2    0    0  0.00000000000E+00  0.00000000000E+00 -0.15650416670E+03  0.12116179376E+04  0.12014676328E+04 0.  0.
        1    1    3    3  502    0  0.20816385017E+03 -0.19356381908E+03  0.45544668538E+03  0.53687132893E+03  0.50400001928E-02 0.  1.
       -1    1    3    3    0  502 -0.20816385017E+03  0.19356381908E+03 -0.61195085208E+03  0.67474660871E+03  0.50400001928E-02 0. -1.
</event>
<event>
 5   0  0.9838215E-05  0.1200354E+04  0.7818609E-02  0.9112547E-01
        2   -1    0    0  501    0  0.00000000000E+00  0.00000000000E+00  0.97657463231E+03  0.97657463231E+03  0.25500000920E-02 0. -1.
       -2   -1    0    0    0  501  0.00000000000E+00  0.00000000000E+00 -0.36885305989E+03  0.36885305990E+03  0.25500000920E-02 0.  1.
    10030    2    1    2    0    0  0.00000000000E+00  0.00000000000E+00  0.60772157242E+03  0.13454276922E+04  0.12003541833E+04 0.  0.
        4    1    3    3  502    0  0.39627990957E+03 -0.29940682948E+03  0.68152323748E+03  0.84330169713E+03  0.12699999809E+01 0. -1.
       -4    1    3    3    0  502 -0.39627990957E+03  0.29940682948E+03 -0.73801665053E+02  0.50212599508E+03  0.12699999809E+01 0.  1.
</event>
<event>
 5   0  0.1012657E-04  0.1201860E+04  0.7818609E-02  0.9111230E-01
       -2   -1    0    0    0  501  0.00000000000E+00  0.00000000000E+00  0.40336552539E+03  0.40336552540E+03  0.25500000920E-02 0. -1.
        2   -1    0    0  501    0  0.00000000000E+00  0.00000000000E+00 -0.89525897986E+03  0.89525897986E+03  0.25500000920E-02 0.  1.
    10030    2    1    2    0    0  0.00000000000E+00  0.00000000000E+00 -0.49189345447E+03  0.12986245053E+04  0.12018595738E+04 0.  0.
        1    1    3    3  502    0 -0.48975707243E+03  0.14706692455E+03 -0.58699517655E+03  0.77849470621E+03  0.50400001928E-02 0.  1.
       -1    1    3    3    0  502  0.48975707243E+03 -0.14706692455E+03  0.95101722075E+02  0.52012979904E+03  0.50400001928E-02 0. -1.
</event>
<event>
 5   0  0.9941209E-05  0.1199594E+04  0.7818609E-02  0.9113212E-01
       -2   -1    0    0    0  501  0.00000000000E+00  0.00000000000E+00  0.39082312111E+03  0.39082312112E+03  0.25500000920E-02 0. -1.
        2   -1    0    0  501    0  0.00000000000E+00  0.00000000000E+00 -0.92050885876E+03  0.92050885876E+03  0.25500000920E-02 0.  1.
    10030    2    1    2    0    0  0.00000000000E+00  0.00000000000E+00 -0.52968573764E+03  0.13113319799E+04  0.11995935065E+04 0.  0.
        2    1    3    3  502    0  0.26421971969E+03  0.53360009808E+03 -0.34378458172E+03  0.68755288057E+03  0.25500000920E-02 0. -1.
       -2    1    3    3    0  502 -0.26421971969E+03 -0.53360009808E+03 -0.18590115592E+03  0.62377909930E+03  0.25500000920E-02 0.  1.
</event>
<event>
 5   0  0.5447807E-05  0.1200080E+04  0.7818609E-02  0.9112787E-01
       -1   -1    0    0    0  501  0.00000000000E+00  0.00000000000E+00  0.28271836603E+03  0.28271836608E+03  0.50400001928E-02 0.  1.
        1   -1    0    0  501    0  0.00000000000E+00  0.00000000000E+00 -0.12735212073E+04  0.12735212073E+04  0.50400001928E-02 0. -1.
    10030    2    1    2    0    0  0.00000000000E+00  0.00000000000E+00 -0.99080284126E+03  0.15562395734E+04  0.12000797221E+04 0.  0.
        2    1    3    3  502    0 -0.42464786301E+03 -0.20788625950E+02  0.53689448292E+02  0.42853299919E+03  0.25500000920E-02 0.  1.
       -2    1    3    3    0  502  0.42464786301E+03  0.20788625950E+02 -0.10444922896E+04  0.11277065742E+04  0.25500000920E-02 0. -1.
</event>
<event>
 5   0  0.5447807E-05  0.1200221E+04  0.7818609E-02  0.9112663E-01
        1   -1    0    0  501    0  0.00000000000E+00  0.00000000000E+00  0.25499527900E+04  0.25499527900E+04  0.50400001928E-02 0. -1.
       -1   -1    0    0    0  501  0.00000000000E+00  0.00000000000E+00 -0.14123110736E+03  0.14123110745E+03  0.50400001928E-02 0.  1.
    10030    2    1    2    0    0  0.00000000000E+00  0.00000000000E+00  0.24087216827E+04  0.26911838975E+04  0.12002210736E+04 0.  0.
        2    1    3    3  502    0  0.11737816691E+03 -0.54013300044E+03  0.68037006763E+03  0.87659838077E+03  0.25500000920E-02 0.  1.
       -2    1    3    3    0  502 -0.11737816691E+03  0.54013300044E+03  0.17283516151E+04  0.18145855167E+04  0.25500000920E-02 0. -1.
</event>
<event>
 5   0  0.1012657E-04  0.1200154E+04  0.7818609E-02  0.9112722E-01
       -2   -1    0    0    0  501  0.00000000000E+00  0.00000000000E+00  0.23023050145E+03  0.23023050147E+03  0.25500000920E-02 0. -1.
        2   -1    0    0  501    0  0.00000000000E+00  0.00000000000E+00 -0.15640508764E+04  0.15640508764E+04  0.25500000920E-02 0.  1.
    10030    2    1    2    0    0  0.00000000000E+00  0.00000000000E+00 -0.13338203749E+04  0.17942813779E+04  0.12001536861E+04 0.  0.
        1    1    3    3  502    0 -0.54814259830E+03  0.31023031900E+02 -0.10290362725E+04  0.11663354521E+04  0.50400001928E-02 0. -1.
       -1    1    3    3    0  502  0.54814259830E+03 -0.31023031900E+02 -0.30478410239E+03  0.62794592576E+03  0.50400001928E-02 0.  1.
</event>
<event>
 5   0  0.5620246E-05  0.1199474E+04  0.7818609E-02  0.9113317E-01
        1   -1    0    0  501    0  0.00000000000E+00  0.00000000000E+00  0.61490357035E+03  0.61490357037E+03  0.50400001928E-02 0. -1.
       -1   -1    0    0    0  501  0.00000000000E+00  0.00000000000E+00 -0.58494421841E+03  0.58494421844E+03  0.50400001928E-02 0.  1.
    10030    2    1    2    0    0  0.00000000000E+00  0.00000000000E+00  0.29959351937E+02  0.11998477888E+04  0.11994736986E+04 0.  0.
        1    1    3    3  502    0  0.12468821159E+03 -0.56985886281E+03 -0.12434051734E+03  0.59644516757E+03  0.50400001928E-02 0.  1.
       -1    1    3    3    0  502 -0.12468821159E+03  0.56985886281E+03  0.15429986927E+03  0.60340262124E+03  0.50400001928E-02 0. -1.
</event>
<event>
 5   0  0.5625746E-05  0.1199634E+04  0.7818609E-02  0.9113177E-01
       -1   -1    0    0    0  501  0.00000000000E+00  0.00000000000E+00  0.12148408745E+04  0.12148408745E+04  0.50400001928E-02 0. -1.
        1   -1    0    0  501    0  0.00000000000E+00  0.00000000000E+00 -0.29615461022E+03  0.29615461026E+03  0.50400001928E-02 0.  1.
    10030    2    1    2    0    0  0.00000000000E+00  0.00000000000E+00  0.91868626424E+03  0.15109954847E+04  0.11996344872E+04 0.  0.
        5    1    3    3  502    0  0.40900588104E+03  0.31031129141E+03  0.84996449869E+03  0.99299579422E+03  0.46999998093E+01 0. -1.
       -5    1    3    3    0  502 -0.40900588104E+03 -0.31031129141E+03  0.68721765549E+02  0.51799969051E+03  0.46999998093E+01 0.  1.
</event>
<event>
 5   0  0.1012657E-04  0.1199986E+04  0.7818609E-02  0.9112869E-01
       -2   -1    0    0    0  501  0.00000000000E+00  0.00000000000E+00  0.88169813041E+03  0.88169813041E+03  0.25500000920E-02 0. -1.
        2   -1    0    0  501    0  0.00000000000E+00  0.00000000000E+00 -0.40829362111E+03  0.40829362111E+03  0.25500000920E-02 0.  1.
    10030    2    1    2    0    0  0.00000000000E+00  0.00000000000E+00  0.47340450930E+03  0.12899917515E+04  0.11999862039E+04 0.  0.
        1    1    3    3  502    0 -0.20535976698E+03  0.15500117123E+03 -0.34598019640E+03  0.43116156287E+03  0.50400001928E-02 0.  1.
       -1    1    3    3    0  502  0.20535976698E+03 -0.15500117123E+03  0.81938470570E+03  0.85883018865E+03  0.50400001928E-02 0. -1.
</event>
<event>
 5   0  0.5732931E-05  0.1199436E+04  0.7818609E-02  0.9113351E-01
        1   -1    0    0  501    0  0.00000000000E+00  0.00000000000E+00  0.40188413002E+03  0.40188413005E+03  0.50400001928E-02 0. -1.
       -1   -1    0    0    0  501  0.00000000000E+00  0.00000000000E+00 -0.89493841728E+03  0.89493841730E+03  0.50400001928E-02 0.  1.
    10030    2    1    2    0    0  0.00000000000E+00  0.00000000000E+00 -0.49305428727E+03  0.12968225473E+04  0.11994357795E+04 0.  0.
        4    1    3    3  502    0  0.42500744461E+03 -0.42253795898E+03 -0.27046721686E+03  0.65751333299E+03  0.12699999809E+01 0.  1.
       -4    1    3    3    0  502 -0.42500744461E+03  0.42253795898E+03 -0.22258707040E+03  0.63930921436E+03  0.12699999809E+01 0. -1.
</event>
<event>
 5   0  0.9941209E-05  0.1199634E+04  0.7818609E-02  0.9113177E-01
       -2   -1    0    0    0  501  0.00000000000E+00  0.00000000000E+00  0.43994342730E+03  0.43994342731E+03  0.25500000920E-02 0.  1.
        2   -1    0    0  501    0  0.00000000000E+00  0.00000000000E+00 -0.81778742987E+03  0.81778742988E+03  0.25500000920E-02 0. -1.
    10030    2    1    2    0    0  0.00000000000E+00  0.00000000000E+00 -0.37784400257E+03  0.12577308572E+04  0.11996336186E+04 0.  0.
        2    1    3    3  502    0 -0.32618787872E+03  0.49042769377E+03 -0.30782676216E+03  0.66458646582E+03  0.25500000920E-02 0.  1.
       -2    1    3    3    0  502  0.32618787872E+03 -0.49042769377E+03 -0.70017240417E+02  0.59314439136E+03  0.25500000920E-02 0. -1.
</event>
<event>
 5   0  0.5732931E-05  0.1199534E+04  0.7818609E-02  0.9113265E-01
        1   -1    0    0  501    0  0.00000000000E+00  0.00000000000E+00  0.10025818547E+04  0.10025818547E+04  0.50400001928E-02 0.  1.
       -1   -1    0    0    0  501  0.00000000000E+00  0.00000000000E+00 -0.35879386280E+03  0.35879386284E+03  0.50400001928E-02 0. -1.
    10030    2    1    2    0    0  0.00000000000E+00  0.00000000000E+00  0.64378799193E+03  0.13613757176E+04  0.11995336035E+04 0.  0.
        4    1    3    3  502    0  0.53218032534E+03  0.11641865011E+03  0.37145533062E+02  0.54603168800E+03  0.12699999809E+01 0. -1.
       -4    1    3    3    0  502 -0.53218032534E+03 -0.11641865011E+03  0.60664245886E+03  0.81534402958E+03  0.12699999809E+01 0.  1.
</event>
<event>
 5   0  0.5620246E-05  0.1200095E+04  0.7818609E-02  0.9112774E-01
        1   -1    0    0  501    0  0.00000000000E+00  0.00000000000E+00  0.86725036816E+03  0.86725036818E+03  0.50400001928E-02 0.  1.
       -1   -1    0    0    0  501  0.00000000000E+00  0.00000000000E+00 -0.41517044394E+03  0.41517044397E+03  0.50400001928E-02 0. -1.
    10030    2    1    2    0    0  0.00000000000E+00  0.00000000000E+00  0.45207992422E+03  0.12824208121E+04  0.12000945302E+04 0.  0.
        1    1    3    3  502    0 -0.43851334061E+03 -0.40207052922E+03  0.30951436819E+03  0.67063686486E+03  0.50400001928E-02 0.  1.
       -1    1    3    3    0  502  0.43851334061E+03  0.40207052922E+03  0.14256555603E+03  0.61178394728E+03  0.50400001928E-02 0. -1.
</event>
<event>
 5   0  0.1004006E-04  0.1198958E+04  0.7818609E-02  0.9113769E-01
       -2   -1    0    0    0  501  0.00000000000E+00  0.00000000000E+00  0.24206671871E+03  0.24206671873E+03  0.25500000920E-02 0. -1.
        2   -1    0    0  501    0  0.00000000000E+00  0.00000000000E+00 -0.14846112034E+04  0.14846112034E+04  0.25500000920E-02 0.  1.
    10030    2    1    2    0    0  0.00000000000E+00  0.00000000000E+00 -0.12425444847E+04  0.17266779221E+04  0.11989578184E+04 0.  0.
        5    1    3    3  502    0  0.14744155296E+03  0.58103439230E+03 -0.62644396310E+03  0.86706061235E+03  0.46999998093E+01 0. -1.
       -5    1    3    3    0  502 -0.14744155296E+03 -0.58103439230E+03 -0.61610052156E+03  0.85961730976E+03  0.46999998093E+01 0.  1.
</event>
<event>
 5   0  0.5745487E-05  0.1201142E+04  0.7818609E-02  0.9111858E-01
        1   -1    0    0  501    0  0.00000000000E+00  0.00000000000E+00  0.78625073239E+03  0.78625073240E+03  0.50400001928E-02 0.  1.
       -1   -1    0    0    0  501  0.00000000000E+00  0.00000000000E+00 -0.45874089379E+03  0.45874089382E+03  0.50400001928E-02 0. -1.
    10030    2    1    2    0    0  0.00000000000E+00  0.00000000000E+00  0.32750983860E+03  0.12449916262E+04  0.12011417298E+04 0.  0.
        3    1    3    3  502    0  0.17366373934E+03 -0.51234344390E+03  0.43410335548E+03  0.69361418116E+03  0.10100000352E+00 0.  1.
       -3    1    3    3    0  502 -0.17366373934E+03  0.51234344390E+03 -0.10659351688E+03  0.55137744505E+03  0.10100000352E+00 0. -1.
</event>
<event>
 5   0  0.5745487E-05  0.1202291E+04  0.7818609E-02  0.9110853E-01
       -1   -1    0    0    0  501  0.00000000000E+00  0.00000000000E+00  0.55095763479E+03  0.55095763481E+03  0.50400001928E-02 0. -1.
        1   -1    0    0  501    0  0.00000000000E+00  0.00000000000E+00 -0.65590519994E+03  0.65590519996E+03  0.50400001928E-02 0.  1.
    10030    2    1    2    0    0  0.00000000000E+00  0.00000000000E+00 -0.10494756515E+03  0.12068628348E+04  0.12022911089E+04 0.  0.
        3    1    3    3  502    0  0.37565615262E+03 -0.13196844977E+03 -0.50456703340E+03  0.64274498686E+03  0.10100000352E+00 0.  1.
       -3    1    3    3    0  502 -0.37565615262E+03  0.13196844977E+03  0.39961946825E+03  0.56411784792E+03  0.10100000352E+00 0. -1.
</event>
<event>
 5   0  0.9941209E-05  0.1200171E+04  0.7818609E-02  0.9112707E-01
       -2   -1    0    0    0  501  0.00000000000E+00  0.00000000000E+00  0.20228113080E+03  0.20228113081E+03  0.25500000920E-02 0.  1.
        2   -1    0    0  501    0  0.00000000000E+00  0.00000000000E+00 -0.17802080575E+04  0.17802080575E+04  0.25500000920E-02 0. -1.
    10030    2    1    2    0    0  0.00000000000E+00  0.00000000000E+00 -0.15779269267E+04  0.19824891884E+04  0.12001708194E+04 0.  0.
        2    1    3    3  502    0 -0.16444412530E+03 -0.32444170943E+03 -0.57018339562E+00  0.36373701803E+03  0.25500000920E-02 0.  1.
       -2    1    3    3    0  502  0.16444412530E+03  0.32444170943E+03 -0.15773567433E+04  0.16187521703E+04  0.25500000920E-02 0. -1.
</event>
<event>
 5   0  0.9838215E-05  0.1200107E+04  0.7818609E-02  0.9112763E-01
        2   -1    0    0  501    0  0.00000000000E+00  0.00000000000E+00  0.94831668759E+03  0.94831668759E+03  0.25500000920E-02 0.  1.
       -2   -1    0    0    0  501  0.00000000000E+00  0.00000000000E+00 -0.37968761210E+03  0.37968761210E+03  0.25500000920E-02 0. -1.
    10030    2    1    2    0    0  0.00000000000E+00  0.00000000000E+00  0.56862907549E+03  0.13280042997E+04  0.12001068263E+04 0.  0.
        4    1    3    3  502    0  0.28727373068E+03 -0.40466244972E+03  0.65758300364E+03  0.82382942053E+03  0.12699999809E+01 0.  1.
       -4    1    3    3    0  502 -0.28727373068E+03  0.40466244972E+03 -0.88953928149E+02  0.50417487917E+03  0.12699999809E+01 0. -1.
</event>
<event>
 5   0  0.5745487E-05  0.1204730E+04  0.7818609E-02  0.9108727E-01
       -1   -1    0    0    0  501  0.00000000000E+00  0.00000000000E+00  0.17082433962E+03  0.17082433970E+03  0.50400001928E-02 0. -1.
        1   -1    0    0  501    0  0.00000000000E+00  0.00000000000E+00 -0.21240732990E+04  0.21240732990E+04  0.50400001928E-02 0.  1.
    10030    2    1    2    0    0  0.00000000000E+00  0.00000000000E+00 -0.19532489594E+04  0.22948976387E+04  0.12047297103E+04 0.  0.
        3    1    3    3  502    0 -0.59205344569E+03 -0.39295354716E+02 -0.11743314094E+04  0.13157224923E+04  0.10100000352E+00 0.  1.
       -3    1    3    3    0  502  0.59205344569E+03  0.39295354716E+02 -0.77891754997E+03  0.97917514639E+03  0.10100000352E+00 0. -1.
</event>
<event>
 5   0  0.9941209E-05  0.1200900E+04  0.7818609E-02  0.9112069E-01
       -2   -1    0    0    0  501  0.00000000000E+00  0.00000000000E+00  0.13968622828E+04  0.13968622828E+04  0.25500000920E-02 0.  1.
        2   -1    0    0  501    0  0.00000000000E+00  0.00000000000E+00 -0.25810729534E+03  0.25810729536E+03  0.25500000920E-02 0. -1.
    10030    2    1    2    0    0  0.00000000000E+00  0.00000000000E+00  0.11387549875E+04  0.16549695782E+04  0.12009002387E+04 0.  0.
        2    1    3    3  502    0  0.17203600507E+02 -0.16107970552E+03  0.13661783367E+04  0.13757492079E+04  0.25500000920E-02 0.  1.
       -2    1    3    3    0  502 -0.17203600507E+02  0.16107970552E+03 -0.22742334921E+03  0.27922037028E+03  0.25500000920E-02 0. -1.
</event>
<event>
 5   0  0.9838215E-05  0.1199871E+04  0.7818609E-02  0.9112970E-01
        2   -1    0    0  501    0  0.00000000000E+00  0.00000000000E+00  0.94806629181E+03  0.94806629181E+03  0.25500000920E-02 0.  1.
       -2   -1    0    0    0  501  0.00000000000E+00  0.00000000000E+00 -0.37963853214E+03  0.37963853215E+03  0.25500000920E-02 0. -1.
    10030    2    1    2    0    0  0.00000000000E+00  0.00000000000E+00  0.56842775967E+03  0.13277048240E+04  0.11998708187E+04 0.  0.
        4    1    3    3  502    0 -0.55330137539E+03 -0.13422869092E+03  0.49346734220E+03  0.75343970177E+03  0.12699999809E+01 0.  1.
       -4    1    3    3    0  502  0.55330137539E+03  0.13422869092E+03  0.74960417468E+02  0.57426512219E+03  0.12699999809E+01 0. -1.
</event>
<event>
 5   0  0.1023063E-04  0.1200572E+04  0.7818609E-02  0.9112356E-01
       -2   -1    0    0    0  501  0.00000000000E+00  0.00000000000E+00  0.62797189118E+03  0.62797189118E+03  0.25500000920E-02 0. -1.
        2   -1    0    0  501    0  0.00000000000E+00  0.00000000000E+00 -0.57382098284E+03  0.57382098284E+03  0.25500000920E-02 0.  1.
    10030    2    1    2    0    0  0.00000000000E+00  0.00000000000E+00  0.54150908342E+02  0.12017928740E+04  0.12005722765E+04 0.  0.
        3    1    3    3  502    0  0.53069215340E+03  0.90695535880E+02 -0.23868192959E+03  0.58892182471E+03  0.10100000352E+00 0.  1.
       -3    1    3    3    0  502 -0.53069215340E+03 -0.90695535880E+02  0.29283283793E+03  0.61287104931E+03  0.10100000352E+00 0. -1.
</event>
<event>
 5   0  0.5745487E-05  0.1200804E+04  0.7818609E-02  0.9112153E-01
        1   -1    0    0  501    0  0.00000000000E+00  0.00000000000E+00  0.37712623797E+03  0.37712623801E+03  0.50400001928E-02 0.  1.
       -1   -1    0    0    0  501  0.00000000000E+00  0.00000000000E+00 -0.95586654482E+03  0.95586654483E+03  0.50400001928E-02 0. -1.
    10030    2    1    2    0    0  0.00000000000E+00  0.00000000000E+00 -0.57874030685E+03  0.13329927828E+04  0.12008036544E+04 0.  0.
        3    1    3    3  502    0 -0.52454432084E+03  0.70363813113E+02 -0.60410298144E+03  0.80314272275E+03  0.10100000352E+00 0. -1.
       -3    1    3    3    0  502  0.52454432084E+03 -0.70363813113E+02  0.25362674590E+02  0.52985006009E+03  0.10100000352E+00 0.  1.
</event>
<event>
 5   0  0.9941209E-05  0.1198527E+04  0.7818609E-02  0.9114147E-01
        2   -1    0    0  501    0  0.00000000000E+00  0.00000000000E+00  0.51436629142E+03  0.51436629143E+03  0.25500000920E-02 0. -1.
       -2   -1    0    0    0  501  0.00000000000E+00  0.00000000000E+00 -0.69817311472E+03  0.69817311472E+03  0.25500000920E-02 0.  1.
    10030    2    1    2    0    0  0.00000000000E+00  0.00000000000E+00 -0.18380682330E+03  0.12125394062E+04  0.11985269556E+04 0.  0.
        2    1    3    3  502    0 -0.13189343823E+03 -0.10544232347E+03  0.48979956820E+03  0.51809031997E+03  0.25500000920E-02 0. -1.
       -2    1    3    3    0  502  0.13189343823E+03  0.10544232347E+03 -0.67360639150E+03  0.69444908618E+03  0.25500000920E-02 0.  1.
</event>
<event>
 5   0  0.5625746E-05  0.1199972E+04  0.7818609E-02  0.9112881E-01
        1   -1    0    0  501    0  0.00000000000E+00  0.00000000000E+00  0.19976387065E+04  0.19976387066E+04  0.50400001928E-02 0.  1.
       -1   -1    0    0    0  501  0.00000000000E+00  0.00000000000E+00 -0.18020449497E+03  0.18020449504E+03  0.50400001928E-02 0. -1.
    10030    2    1    2    0    0  0.00000000000E+00  0.00000000000E+00  0.18174342116E+04  0.21778432016E+04  0.11999724569E+04 0.  0.
        5    1    3    3  502    0 -0.75734235494E+02 -0.56578976293E+03  0.57353466768E+03  0.80920815325E+03  0.46999998093E+01 0. -1.
       -5    1    3    3    0  502  0.75734235494E+02  0.56578976293E+03  0.12438995439E+04  0.13686350483E+04  0.46999998093E+01 0.  1.
</event>
<event>
 5   0  0.5732931E-05  0.1200217E+04  0.7818609E-02  0.9112667E-01
       -1   -1    0    0    0  501  0.00000000000E+00  0.00000000000E+00  0.70771963167E+03  0.70771963169E+03  0.50400001928E-02 0.  1.
        1   -1    0    0  501    0  0.00000000000E+00  0.00000000000E+00 -0.50885961406E+03  0.50885961408E+03  0.50400001928E-02 0. -1.
    10030    2    1    2    0    0  0.00000000000E+00  0.00000000000E+00  0.19886001761E+03  0.12165792458E+04  0.12002165449E+04 0.  0.
        4    1    3    3  502    0  0.85095012784E+02  0.45453685411E+03 -0.28825440040E+03  0.54491937495E+03  0.12699999809E+01 0. -1.
       -4    1    3    3    0  502 -0.85095012784E+02 -0.45453685411E+03  0.48711441801E+03  0.67165987082E+03  0.12699999809E+01 0.  1.
</event>
<event>
 5   0  0.9941209E-05  0.1200285E+04  0.7818609E-02  0.9112607E-01
        2   -1    0    0  501    0  0.00000000000E+00  0.00000000000E+00  0.11163741972E+04  0.11163741972E+04  0.25500000920E-02 0.  1.
       -2   -1    0    0    0  501  0.00000000000E+00  0.00000000000E+00 -0.32262585349E+03  0.32262585350E+03  0.25500000920E-02 0. -1.
    10030    2    1    2    0    0  0.00000000000E+00  0.00000000000E+00  0.79374834368E+03  0.14390000507E+04  0.12002852631E+04 0.  0.
        2    1    3    3  502    0 -0.34899213297E+03 -0.13931954366E+03 -0.16412783394E+03  0.41005291122E+03  0.25500000920E-02 0. -1.
       -2    1    3    3    0  502  0.34899213297E+03  0.13931954366E+03  0.95787617762E+03  0.10289471395E+04  0.25500000920E-02 0.  1.
</event>
<event>
 5   0  0.5625746E-05  0.1199825E+04  0.7818609E-02  0.9113010E-01
        1   -1    0    0  501    0  0.00000000000E+00  0.00000000000E+00  0.10566733862E+04  0.10566733862E+04  0.50400001928E-02 0.  1.
       -1   -1    0    0    0  501  0.00000000000E+00  0.00000000000E+00 -0.34059222520E+03  0.34059222524E+03  0.50400001928E-02 0. -1.
    10030    2    1    2    0    0  0.00000000000E+00  0.00000000000E+00  0.71608116095E+03  0.13972656114E+04  0.11998245537E+04 0.  0.
        5    1    3    3  502    0  0.17058903087E+03  0.25737353489E+03 -0.24092163542E+03  0.39167215669E+03  0.46999998093E+01 0. -1.
       -5    1    3    3    0  502 -0.17058903087E+03 -0.25737353489E+03  0.95700279637E+03  0.10055934547E+04  0.46999998093E+01 0.  1.
</event>
<event>
 5   0  0.5745487E-05  0.1199463E+04  0.7818609E-02  0.9113327E-01
        1   -1    0    0  501    0  0.00000000000E+00  0.00000000000E+00  0.43325078998E+03  0.43325079001E+03  0.50400001928E-02 0. -1.
       -1   -1    0    0    0  501  0.00000000000E+00  0.00000000000E+00 -0.83018415932E+03  0.83018415933E+03  0.50400001928E-02 0.  1.
    10030    2    1    2    0    0  0.00000000000E+00  0.00000000000E+00 -0.39693336934E+03  0.12634349493E+04  0.11994631180E+04 0.  0.
        3    1    3    3  502    0 -0.46417587610E+03 -0.81616673779E+02 -0.58913480999E+03  0.75445368310E+03  0.10100000352E+00 0.  1.
       -3    1    3    3    0  502  0.46417587610E+03  0.81616673779E+02  0.19220144065E+03  0.50898126624E+03  0.10100000352E+00 0. -1.
</event>
<event>
 5   0  0.5745487E-05  0.1199835E+04  0.7818609E-02  0.9113001E-01
       -1   -1    0    0    0  501  0.00000000000E+00  0.00000000000E+00  0.44377315379E+03  0.44377315382E+03  0.50400001928E-02 0. -1.
        1   -1    0    0  501    0  0.00000000000E+00  0.00000000000E+00 -0.81100273352E+03  0.81100273353E+03  0.50400001928E-02 0.  1.
    10030    2    1    2    0    0  0.00000000000E+00  0.00000000000E+00 -0.36722957972E+03  0.12547758874E+04  0.11998353901E+04 0.  0.
        3    1    3    3  502    0  0.46048183663E+03  0.28575277892E+03 -0.45269609302E+03  0.70613875079E+03  0.10100000352E+00 0. -1.
       -3    1    3    3    0  502 -0.46048183663E+03 -0.28575277892E+03  0.85466513297E+02  0.54863713657E+03  0.10100000352E+00 0.  1.
</event>
<event>
 5   0  0.5447807E-05  0.1200867E+04  0.7818609E-02  0.9112098E-01
        1   -1    0    0  501    0  0.00000000000E+00  0.00000000000E+00  0.73896701237E+03  0.73896701239E+03  0.50400001928E-02 0. -1.
       -1   -1    0    0    0  501  0.00000000000E+00  0.00000000000E+00 -0.48787077803E+03  0.48787077806E+03  0.50400001928E-02 0.  1.
    10030    2    1    2    0    0  0.00000000000E+00  0.00000000000E+00  0.25109623434E+03  0.12268377904E+04  0.12008670389E+04 0.  0.
        2    1    3    3  502    0 -0.19000724694E+02  0.41120524213E+03 -0.32102035116E+03  0.52201996568E+03  0.25500000920E-02 0.  1.
       -2    1    3    3    0  502  0.19000724694E+02 -0.41120524213E+03  0.57211658551E+03  0.70481782477E+03  0.25500000920E-02 0. -1.
</event>
<event>
 5   0  0.1004006E-04  0.1199886E+04  0.7818609E-02  0.9112957E-01
       -2   -1    0    0    0  501  0.00000000000E+00  0.00000000000E+00  0.26188531460E+03  0.26188531461E+03  0.25500000920E-02 0. -1.
        2   -1    0    0  501    0  0.00000000000E+00  0.00000000000E+00 -0.13743853027E+04  0.13743853027E+04  0.25500000920E-02 0.  1.
    10030    2    1    2    0    0  0.00000000000E+00  0.00000000000E+00 -0.11124999881E+04  0.16362706173E+04  0.11998855402E+04 0.  0.
        5    1    3    3  502    0  0.20629522615E+03 -0.36698186262E+03  0.26598738266E+02  0.42185659968E+03  0.46999998093E+01 0. -1.
       -5    1    3    3    0  502 -0.20629522615E+03  0.36698186262E+03 -0.11390987264E+04  0.12144140177E+04  0.46999998093E+01 0.  1.
</event>
<event>
 5   0  0.5732931E-05  0.1200520E+04  0.7818609E-02  0.9112402E-01
       -1   -1    0    0    0  501  0.00000000000E+00  0.00000000000E+00  0.10248632174E+04  0.10248632174E+04  0.50400001928E-02 0.  1.
        1   -1    0    0  501    0  0.00000000000E+00  0.00000000000E+00 -0.35157081704E+03  0.35157081708E+03  0.50400001928E-02 0. -1.
    10030    2    1    2    0    0  0.00000000000E+00  0.00000000000E+00  0.67329240032E+03  0.13764340345E+04  0.12005198852E+04 0.  0.
        4    1    3    3  502    0 -0.29441333416E+03  0.40139910443E+03  0.72122158077E+03  0.87633477270E+03  0.12699999809E+01 0.  1.
       -4    1    3    3    0  502  0.29441333416E+03 -0.40139910443E+03 -0.47929180448E+02  0.50009926175E+03  0.12699999809E+01 0. -1.
</event>
<event>
 5   0  0.5745487E-05  0.1199891E+04  0.7818609E-02  0.9112952E-01
       -1   -1    0    0    0  501  0.00000000000E+00  0.00000000000E+00  0.13132493236E+04  0.13132493236E+04  0.50400001928E-02 0. -1.
        1   -1    0    0  501    0  0.00000000000E+00  0.00000000000E+00 -0.27407920971E+03  0.27407920976E+03  0.50400001928E-02 0.  1.
    10030    2    1    2    0    0  0.00000000000E+00  0.00000000000E+00  0.10391701139E+04  0.15873285334E+04  0.11998905564E+04 0.  0.
        3    1    3    3  502    0 -0.11841688171E+03  0.57156827586E+03  0.33617694477E+03  0.67359320086E+03  0.10100000352E+00 0.  1.
       -3    1    3    3    0  502  0.11841688171E+03 -0.57156827586E+03  0.70299316914E+03  0.91373533252E+03  0.10100000352E+00 0. -1.
</event>
<event>
 5   0  0.9941209E-05  0.1200230E+04  0.7818609E-02  0.9112655E-01
       -2   -1    0    0    0  501  0.00000000000E+00  0.00000000000E+00  0.52938905649E+03  0.52938905649E+03  0.25500000920E-02 0. -1.
        2   -1    0    0  501    0  0.00000000000E+00  0.00000000000E+00 -0.68029007868E+03  0.68029007868E+03  0.25500000920E-02 0.  1.
    10030    2    1    2    0    0  0.00000000000E+00  0.00000000000E+00 -0.15090102219E+03  0.12096791352E+04  0.12002301827E+04 0.  0.
        2    1    3    3  502    0  0.13277365453E+03  0.53782179940E+03 -0.30804207629E+03  0.63385412518E+03  0.25500000920E-02 0.  1.
       -2    1    3    3    0  502 -0.13277365453E+03 -0.53782179940E+03  0.15714105409E+03  0.57582500999E+03  0.25500000920E-02 0. -1.
</event>
<event>
 5   0  0.3839750E-05  0.1200747E+04  0.7818609E-02  0.9112203E-01
        4   -1    0    0  501    0  0.00000000000E+00  0.00000000000E+00  0.60235444644E+03  0.60235578527E+03  0.12699999809E+01 0.  1.
       -4   -1    0    0    0  501  0.00000000000E+00  0.00000000000E+00 -0.59839637849E+03  0.59839772618E+03  0.12699999809E+01 0. -1.
    10030    2    1    2    0    0  0.00000000000E+00  0.00000000000E+00  0.39580679464E+01  0.12007535114E+04  0.12007469879E+04 0.  0.
        5    1    3    3  502    0 -0.44842876524E+03 -0.30827800556E+03  0.25555989826E+03  0.60121263943E+03  0.46999998093E+01 0. -1.
       -5    1    3    3    0  502  0.44842876524E+03  0.30827800556E+03 -0.25160183032E+03  0.59954087202E+03  0.46999998093E+01 0.  1.
</event>
<event>
 5   0  0.1004006E-04  0.1200789E+04  0.7818609E-02  0.9112166E-01
        2   -1    0    0  501    0  0.00000000000E+00  0.00000000000E+00  0.38916843257E+03  0.38916843258E+03  0.25500000920E-02 0. -1.
       -2   -1    0    0    0  501  0.00000000000E+00  0.00000000000E+00 -0.92626681067E+03  0.92626681067E+03  0.25500000920E-02 0.  1.
    10030    2    1    2    0    0  0.00000000000E+00  0.00000000000E+00 -0.53709837810E+03  0.13154352432E+04  0.12007894118E+04 0.  0.
        5    1    3    3  502    0 -0.10191987136E+02  0.54833612315E+03 -0.53615777709E+03  0.76698346298E+03  0.46999998093E+01 0.  1.
       -5    1    3    3    0  502  0.10191987136E+02 -0.54833612315E+03 -0.94060100566E+00  0.54845178027E+03  0.46999998093E+01 0. -1.
</event>
<event>
 5   0  0.5620246E-05  0.1202049E+04  0.7818609E-02  0.9111065E-01
        1   -1    0    0  501    0  0.00000000000E+00  0.00000000000E+00  0.83695945140E+03  0.83695945142E+03  0.50400001928E-02 0.  1.
       -1   -1    0    0    0  501  0.00000000000E+00  0.00000000000E+00 -0.43159830230E+03  0.43159830233E+03  0.50400001928E-02 0. -1.
    10030    2    1    2    0    0  0.00000000000E+00  0.00000000000E+00  0.40536114910E+03  0.12685577537E+04  0.12020487151E+04 0.  0.
        1    1    3    3  502    0 -0.19068873563E+03  0.22278984989E+03 -0.35097317303E+03  0.45736165047E+03  0.50400001928E-02 0. -1.
       -1    1    3    3    0  502  0.19068873563E+03 -0.22278984989E+03  0.75633432213E+03  0.81119610327E+03  0.50400001928E-02 0.  1.
</event>
<event>
 5   0  0.1023063E-04  0.1199792E+04  0.7818609E-02  0.9113038E-01
        2   -1    0    0  501    0  0.00000000000E+00  0.00000000000E+00  0.52461349668E+03  0.52461349669E+03  0.25500000920E-02 0. -1.
       -2   -1    0    0    0  501  0.00000000000E+00  0.00000000000E+00 -0.68598202705E+03  0.68598202706E+03  0.25500000920E-02 0.  1.
    10030    2    1    2    0    0  0.00000000000E+00  0.00000000000E+00 -0.16136853037E+03  0.12105955237E+04  0.11997923652E+04 0.  0.
        3    1    3    3  502    0 -0.43590523794E+03 -0.79464135687E+02  0.32736717705E+03  0.55090580332E+03  0.10100000352E+00 0. -1.
       -3    1    3    3    0  502  0.43590523794E+03  0.79464135687E+02 -0.48873570742E+03  0.65968972042E+03  0.10100000352E+00 0.  1.
</event>
<event>
 5   0  0.1004006E-04  0.1199891E+04  0.7818609E-02  0.9112952E-01
       -2   -1    0    0    0  501  0.00000000000E+00  0.00000000000E+00  0.18919072369E+03  0.18919072370E+03  0.25500000920E-02 0. -1.
        2   -1    0    0  501    0  0.00000000000E+00  0.00000000000E+00 -0.19024969334E+04  0.19024969335E+04  0.25500000920E-02 0.  1.
    10030    2    1    2    0    0  0.00000000000E+00  0.00000000000E+00 -0.17133062098E+04  0.20916876572E+04  0.11998912812E+04 0.  0.
        5    1    3    3  502    0 -0.26892289598E+02 -0.53527827459E+03 -0.38673462837E+03  0.66093251492E+03  0.46999998093E+01 0.  1.
       -5    1    3    3    0  502  0.26892289598E+02  0.53527827459E+03 -0.13265715814E+04  0.14307551422E+04  0.46999998093E+01 0. -1.
</event>
<event>
 5   0  0.5620246E-05  0.1198943E+04  0.7818609E-02  0.9113783E-01
       -1   -1    0    0    0  501  0.00000000000E+00  0.00000000000E+00  0.33285703658E+03  0.33285703662E+03  0.50400001928E-02 0. -1.
        1   -1    0    0  501    0  0.00000000000E+00  0.00000000000E+00 -0.10796400446E+04  0.10796400446E+04  0.50400001928E-02 0.  1.
    10030    2    1    2    0    0  0.00000000000E+00  0.00000000000E+00 -0.74678300797E+03  0.14124970812E+04  0.11989425105E+04 0.  0.
        1    1    3    3  502    0 -0.16616334037E+03 -0.35416883837E+03 -0.90852215459E+03  0.98917052481E+03  0.50400001928E-02 0.  1.
       -1    1    3    3    0  502  0.16616334037E+03  0.35416883837E+03  0.16173914662E+03  0.42332655637E+03  0.50400001928E-02 0. -1.
</event>
<event>
 5   0  0.9941209E-05  0.1207697E+04  0.7818609E-02  0.9106146E-01
        2   -1    0    0  501    0  0.00000000000E+00  0.00000000000E+00  0.17955208922E+04  0.17955208922E+04  0.25500000920E-02 0.  1.
       -2   -1    0    0    0  501  0.00000000000E+00  0.00000000000E+00 -0.20307927503E+03  0.20307927504E+03  0.25500000920E-02 0. -1.
    10030    2    1    2    0    0  0.00000000000E+00  0.00000000000E+00  0.15924416172E+04  0.19986001673E+04  0.12076971162E+04 0.  0.
        2    1    3    3  502    0 -0.25930246499E+03  0.40660817636E+03  0.13976187380E+04  0.14784810158E+04  0.25500000920E-02 0.  1.
       -2    1    3    3    0  502  0.25930246499E+03 -0.40660817636E+03  0.19482287924E+03  0.52011915145E+03  0.25500000920E-02 0. -1.
</event>
<event>
 5   0  0.1004006E-04  0.1200155E+04  0.7818609E-02  0.9112721E-01
       -2   -1    0    0    0  501  0.00000000000E+00  0.00000000000E+00  0.32266227502E+03  0.32266227503E+03  0.25500000920E-02 0.  1.
        2   -1    0    0  501    0  0.00000000000E+00  0.00000000000E+00 -0.11160064779E+04  0.11160064779E+04  0.25500000920E-02 0. -1.
    10030    2    1    2    0    0  0.00000000000E+00  0.00000000000E+00 -0.79334420292E+03  0.14386687530E+04  0.12001553051E+04 0.  0.
        5    1    3    3  502    0 -0.21754692032E+03 -0.32350580878E+02  0.27258083230E+03  0.35027934961E+03  0.46999998093E+01 0.  1.
       -5    1    3    3    0  502  0.21754692032E+03  0.32350580878E+02 -0.10659250352E+04  0.10883894034E+04  0.46999998093E+01 0. -1.
</event>
<event>
 5   0  0.5447807E-05  0.1199545E+04  0.7818609E-02  0.9113255E-01
        1   -1    0    0  501    0  0.00000000000E+00  0.00000000000E+00  0.58404820726E+03  0.58404820728E+03  0.50400001928E-02 0. -1.
       -1   -1    0    0    0  501  0.00000000000E+00  0.00000000000E+00 -0.61591976695E+03  0.61591976697E+03  0.50400001928E-02 0.  1.
    10030    2    1    2    0    0  0.00000000000E+00  0.00000000000E+00 -0.31871559692E+02  0.11999679743E+04  0.11995446398E+04 0.  0.
        2    1    3    3  502    0 -0.93984685642E+02  0.96310226086E+02  0.56875150421E+03  0.58445449295E+03  0.25500000920E-02 0. -1.
       -2    1    3    3    0  502  0.93984685642E+02 -0.96310226086E+02 -0.60062306390E+03  0.61551348131E+03  0.25500000920E-02 0.  1.
</event>
<event>
 5   0  0.1004006E-04  0.1200876E+04  0.7818609E-02  0.9112090E-01
       -2   -1    0    0    0  501  0.00000000000E+00  0.00000000000E+00  0.27959662058E+03  0.27959662059E+03  0.25500000920E-02 0. -1.
        2   -1    0    0  501    0  0.00000000000E+00  0.00000000000E+00 -0.12894490026E+04  0.12894490026E+04  0.25500000920E-02 0.  1.
    10030    2    1    2    0    0  0.00000000000E+00  0.00000000000E+00 -0.10098523821E+04  0.15690456232E+04  0.12008756531E+04 0.  0.
        5    1    3    3  502    0 -0.36890696097E+02 -0.15595114481E+03  0.25111316256E+03  0.29792883955E+03  0.46999998093E+01 0. -1.
       -5    1    3    3    0  502  0.36890696097E+02  0.15595114481E+03 -0.12609655446E+04  0.12711167837E+04  0.46999998093E+01 0.  1.
</event>
<event>
 5   0  0.5732931E-05  0.1202311E+04  0.7818609E-02  0.9110836E-01
       -1   -1    0    0    0  501  0.00000000000E+00  0.00000000000E+00  0.63568932256E+03  0.63568932258E+03  0.50400001928E-02 0.  1.
        1   -1    0    0  501    0  0.00000000000E+00  0.00000000000E+00 -0.56849806781E+03  0.56849806783E+03  0.50400001928E-02 0. -1.
    10030    2    1    2    0    0  0.00000000000E+00  0.00000000000E+00  0.67191254746E+02  0.12041873904E+04  0.12023113600E+04 0.  0.
        4    1    3    3  502    0  0.76625140847E+02  0.38625730390E+03 -0.42133820241E+03  0.57670929483E+03  0.12699999809E+01 0. -1.
       -4    1    3    3    0  502 -0.76625140847E+02 -0.38625730390E+03  0.48852945716E+03  0.62747809558E+03  0.12699999809E+01 0.  1.
</event>
<event>
 5   0  0.5625746E-05  0.1196892E+04  0.7818609E-02  0.9115581E-01
        1   -1    0    0  501    0  0.00000000000E+00  0.00000000000E+00  0.91693148219E+03  0.91693148221E+03  0.50400001928E-02 0. -1.
       -1   -1    0    0    0  501  0.00000000000E+00  0.00000000000E+00 -0.39058278257E+03  0.39058278260E+03  0.50400001928E-02 0.  1.
    10030    2    1    2    0    0  0.00000000000E+00  0.00000000000E+00  0.52634869962E+03  0.13075142648E+04  0.11968920582E+04 0.  0.
        5    1    3    3  502    0  0.92201510437E+02 -0.54367030452E+03  0.92307737689E+01  0.55153043047E+03  0.46999998093E+01 0.  1.
       -5    1    3    3    0  502 -0.92201510437E+02  0.54367030452E+03  0.51711792585E+03  0.75598383434E+03  0.46999998093E+01 0. -1.
</event>
<event>
 5   0  0.5625746E-05  0.1200924E+04  0.7818609E-02  0.9112048E-01
       -1   -1    0    0    0  501  0.00000000000E+00  0.00000000000E+00  0.41527995274E+03  0.41527995278E+03  0.50400001928E-02 0. -1.
        1   -1    0    0  501    0  0.00000000000E+00  0.00000000000E+00 -0.86822062647E+03  0.86822062648E+03  0.50400001928E-02 0.  1.
    10030    2    1    2    0    0  0.00000000000E+00  0.00000000000E+00 -0.45294067372E+03  0.12835005793E+04  0.12009240122E+04 0.  0.
        5    1    3    3  502    0 -0.50638715238E+03  0.32264967216E+03 -0.22789292099E+03  0.64225231216E+03  0.46999998093E+01 0.  1.
       -5    1    3    3    0  502  0.50638715238E+03 -0.32264967216E+03 -0.22504775274E+03  0.64124826710E+03  0.46999998093E+01 0. -1.
</event>
<event>
 5   0  0.5625746E-05  0.1200981E+04  0.7818609E-02  0.9111998E-01
       -1   -1    0    0    0  501  0.00000000000E+00  0.00000000000E+00  0.30968810745E+03  0.30968810749E+03  0.50400001928E-02 0. -1.
        1   -1    0    0  501    0  0.00000000000E+00  0.00000000000E+00 -0.11643616209E+04  0.11643616210E+04  0.50400001928E-02 0.  1.
    10030    2    1    2    0    0  0.00000000000E+00  0.00000000000E+00 -0.85467351350E+03  0.14740497284E+04  0.12009811769E+04 0.  0.
        5    1    3    3  502    0 -0.26516744844E+03 -0.53291258789E+03 -0.33024824288E+03  0.68073166077E+03  0.46999998093E+01 0.  1.
       -5    1    3    3    0  502  0.26516744844E+03  0.53291258789E+03 -0.52442527062E+03  0.79331806768E+03  0.46999998093E+01 0. -1.
</event>
<event>
 5   0  0.1023063E-04  0.1199217E+04  0.7818609E-02  0.9113542E-01
        2   -1    0    0  501    0  0.00000000000E+00  0.00000000000E+00  0.11595395473E+04  0.11595395473E+04  0.25500000920E-02 0. -1.
       -2   -1    0    0    0  501  0.00000000000E+00  0.00000000000E+00 -0.31006298557E+03  0.31006298558E+03  0.25500000920E-02 0.  1.
    10030    2    1    2    0    0  0.00000000000E+00  0.00000000000E+00  0.84947656168E+03  0.14696025328E+04  0.11992169010E+04 0.  0.
        3    1    3    3  502    0 -0.52960811572E+03 -0.24679276020E+03  0.25969146219E+03  0.63939900567E+03  0.10100000352E+00 0.  1.
       -3    1    3    3    0  502  0.52960811572E+03  0.24679276020E+03  0.58978509949E+03  0.83020352716E+03  0.10100000352E+00 0. -1.
</event>
<event>
 5   0  0.5625746E-05  0.1200247E+04  0.7818609E-02  0.9112641E-01
        1   -1    0    0  501    0  0.00000000000E+00  0.00000000000E+00  0.42446968169E+03  0.42446968172E+03  0.50400001928E-02 0. -1.
       -1   -1    0    0    0  501  0.00000000000E+00  0.00000000000E+00 -0.84846604827E+03  0.84846604829E+03  0.50400001928E-02 0.  1.
    10030    2    1    2    0    0  0.00000000000E+00  0.00000000000E+00 -0.42399636658E+03  0.12729357300E+04  0.12002468304E+04 0.  0.
        5    1    3    3  502    0  0.53954567292E+03  0.25188652544E+03 -0.13284824391E+03  0.61010417207E+03  0.46999998093E+01 0. -1.
       -5    1    3    3    0  502 -0.53954567292E+03 -0.25188652544E+03 -0.29114812267E+03  0.66283155794E+03  0.46999998093E+01 0.  1.
</event>
<event>
 5   0  0.5625746E-05  0.1199988E+04  0.7818609E-02  0.9112867E-01
        1   -1    0    0  501    0  0.00000000000E+00  0.00000000000E+00  0.71139445218E+03  0.71139445220E+03  0.50400001928E-02 0. -1.
       -1   -1    0    0    0  501  0.00000000000E+00  0.00000000000E+00 -0.50603828650E+03  0.50603828653E+03  0.50400001928E-02 0.  1.
    10030    2    1    2    0    0  0.00000000000E+00  0.00000000000E+00  0.20535616568E+03  0.12174327387E+04  0.11999880493E+04 0.  0.
        5    1    3    3  502    0 -0.26961590433E+03  0.12471205949E+03 -0.42617224644E+03  0.51951006466E+03  0.46999998093E+01 0.  1.
       -5    1    3    3    0  502  0.26961590433E+03 -0.12471205949E+03  0.63152841212E+03  0.69792267406E+03  0.46999998093E+01 0. -1.
</event>
<event>
 5   0  0.1023063E-04  0.1199820E+04  0.7818609E-02  0.9113014E-01
        2   -1    0    0  501    0  0.00000000000E+00  0.00000000000E+00  0.74984800906E+03  0.74984800906E+03  0.25500000920E-02 0. -1.
       -2   -1    0    0    0  501  0.00000000000E+00  0.00000000000E+00 -0.47995361499E+03  0.47995361500E+03  0.25500000920E-02 0.  1.
    10030    2    1    2    0    0  0.00000000000E+00  0.00000000000E+00  0.26989439407E+03  0.12298016241E+04  0.11998204243E+04 0.  0.
        3    1    3    3  502    0 -0.34902041073E+03 -0.48022566465E+03  0.46415776360E+02  0.59547155314E+03  0.10100000352E+00 0.  1.
       -3    1    3    3    0  502  0.34902041073E+03  0.48022566465E+03  0.22347861771E+03  0.63433007092E+03  0.10100000352E+00 0. -1.
</event>
<event>
 5   0  0.1012657E-04  0.1200978E+04  0.7818609E-02  0.9112001E-01
        2   -1    0    0  501    0  0.00000000000E+00  0.00000000000E+00  0.77004867124E+03  0.77004867125E+03  0.25500000920E-02 0.  1.
       -2   -1    0    0    0  501  0.00000000000E+00  0.00000000000E+00 -0.46826496893E+03  0.46826496894E+03  0.25500000920E-02 0. -1.
    10030    2    1    2    0    0  0.00000000000E+00  0.00000000000E+00  0.30178370231E+03  0.12383136402E+04  0.12009776303E+04 0.  0.
        1    1    3    3  502    0 -0.44230837735E+03 -0.11191373450E+03 -0.25166243627E+03  0.52105217253E+03  0.50400001928E-02 0. -1.
       -1    1    3    3    0  502  0.44230837735E+03  0.11191373450E+03  0.55344613858E+03  0.71726146765E+03  0.50400001928E-02 0.  1.
</event>
<event>
 5   0  0.9838215E-05  0.1200884E+04  0.7818609E-02  0.9112083E-01
        2   -1    0    0  501    0  0.00000000000E+00  0.00000000000E+00  0.24860731186E+03  0.24860731187E+03  0.25500000920E-02 0.  1.
       -2   -1    0    0    0  501  0.00000000000E+00  0.00000000000E+00 -0.14502011731E+04  0.14502011731E+04  0.25500000920E-02 0. -1.
    10030    2    1    2    0    0  0.00000000000E+00  0.00000000000E+00 -0.12015938613E+04  0.16988084850E+04  0.12008840332E+04 0.  0.
        4    1    3    3  502    0  0.53871337404E+03  0.24077684593E+03 -0.75796379563E+03  0.96057082887E+03  0.12699999809E+01 0. -1.
       -4    1    3    3    0  502 -0.53871337404E+03 -0.24077684593E+03 -0.44363006566E+03  0.73823765615E+03  0.12699999809E+01 0.  1.
</event>
<event>
 5   0  0.5447807E-05  0.1200416E+04  0.7818609E-02  0.9112493E-01
        1   -1    0    0  501    0  0.00000000000E+00  0.00000000000E+00  0.18822465956E+04  0.18822465956E+04  0.50400001928E-02 0.  1.
       -1   -1    0    0    0  501  0.00000000000E+00  0.00000000000E+00 -0.19139342187E+03  0.19139342194E+03  0.50400001928E-02 0. -1.
    10030    2    1    2    0    0  0.00000000000E+00  0.00000000000E+00  0.16908531737E+04  0.20736400175E+04  0.12004159559E+04 0.  0.
        2    1    3    3  502    0  0.21663322443E+03  0.46435847214E+01  0.18123241963E+04  0.18252316317E+04  0.25500000920E-02 0.  1.
       -2    1    3    3    0  502 -0.21663322443E+03 -0.46435847214E+01 -0.12147102261E+03  0.24840838582E+03  0.25500000920E-02 0. -1.
</event>
<event>
 5   0  0.1004006E-04  0.1199591E+04  0.7818609E-02  0.9113215E-01
        2   -1    0    0  501    0  0.00000000000E+00  0.00000000000E+00  0.19850488181E+04  0.19850488181E+04  0.25500000920E-02 0. -1.
       -2   -1    0    0    0  501  0.00000000000E+00  0.00000000000E+00 -0.18123207313E+03  0.18123207315E+03  0.25500000920E-02 0.  1.
    10030    2    1    2    0    0  0.00000000000E+00  0.00000000000E+00  0.18038167450E+04  0.21662808913E+04  0.11995907846E+04 0.  0.
        5    1    3    3  502    0 -0.34096735464E+02 -0.29230277323E+03 -0.41860164587E+02  0.29728414351E+03  0.46999998093E+01 0.  1.
       -5    1    3    3    0  502  0.34096735464E+02  0.29230277323E+03  0.18456769096E+04  0.18689967477E+04  0.46999998093E+01 0. -1.
</event>
<event>
 5   0  0.5732931E-05  0.1199960E+04  0.7818609E-02  0.9112891E-01
        1   -1    0    0  501    0  0.00000000000E+00  0.00000000000E+00  0.64660495064E+03  0.64660495066E+03  0.50400001928E-02 0.  1.
       -1   -1    0    0    0  501  0.00000000000E+00  0.00000000000E+00 -0.55671734660E+03  0.55671734662E+03  0.50400001928E-02 0. -1.
    10030    2    1    2    0    0  0.00000000000E+00  0.00000000000E+00  0.89887604041E+02  0.12033222973E+04  0.11999603201E+04 0.  0.
        4    1    3    3  502    0  0.48819545138E+03 -0.24270738415E+02 -0.30395441751E+03  0.57559861737E+03  0.12699999809E+01 0.  1.
       -4    1    3    3    0  502 -0.48819545138E+03  0.24270738415E+02  0.39384202155E+03  0.62772367992E+03  0.12699999809E+01 0. -1.
</event>
<event>
 5   0  0.1012657E-04  0.1205322E+04  0.7818609E-02  0.9108211E-01
        2   -1    0    0  501    0  0.00000000000E+00  0.00000000000E+00  0.54423539639E+03  0.54423539639E+03  0.25500000920E-02 0.  1.
       -2   -1    0    0    0  501  0.00000000000E+00  0.00000000000E+00 -0.66735827175E+03  0.66735827175E+03  0.25500000920E-02 0. -1.
    10030    2    1    2    0    0  0.00000000000E+00  0.00000000000E+00 -0.12312287536E+03  0.12115936681E+04  0.12053215232E+04 0.  0.
        1    1    3    3  502    0  0.12960449566E+01  0.24050294299E+03  0.49390493610E+03  0.54935000796E+03  0.50400001928E-02 0.  1.
       -1    1    3    3    0  502 -0.12960449566E+01 -0.24050294299E+03 -0.61702781146E+03  0.66224366019E+03  0.50400001928E-02 0. -1.
</event>
<event>
 5   0  0.1004006E-04  0.1200153E+04  0.7818609E-02  0.9112723E-01
       -2   -1    0    0    0  501  0.00000000000E+00  0.00000000000E+00  0.26753544969E+03  0.26753544970E+03  0.25500000920E-02 0.  1.
        2   -1    0    0  501    0  0.00000000000E+00  0.00000000000E+00 -0.13459585610E+04  0.13459585610E+04  0.25500000920E-02 0. -1.
    10030    2    1    2    0    0  0.00000000000E+00  0.00000000000E+00 -0.10784231114E+04  0.16134940107E+04  0.12001527051E+04 0.  0.
        5    1    3    3  502    0  0.44250380409E+03 -0.40266572526E+03 -0.47730695186E+03  0.76537136034E+03  0.46999998093E+01 0. -1.
       -5    1    3    3    0  502 -0.44250380409E+03  0.40266572526E+03 -0.60111615949E+03  0.84812265041E+03  0.46999998093E+01 0.  1.
</event>
<event>
 5   0  0.9941209E-05  0.1200688E+04  0.7818609E-02  0.9112255E-01
        2   -1    0    0  501    0  0.00000000000E+00  0.00000000000E+00  0.48464355790E+03  0.48464355791E+03  0.25500000920E-02 0.  1.
       -2   -1    0    0    0  501  0.00000000000E+00  0.00000000000E+00 -0.74366598379E+03  0.74366598379E+03  0.25500000920E-02 0. -1.
    10030    2    1    2    0    0  0.00000000000E+00  0.00000000000E+00 -0.25902242589E+03  0.12283095417E+04  0.12006880166E+04 0.  0.
        2    1    3    3  502    0 -0.18773007738E+02  0.58561634647E+03  0.43187561407E+01  0.58593308725E+03  0.25500000920E-02 0. -1.
       -2    1    3    3    0  502  0.18773007738E+02 -0.58561634647E+03 -0.26334118203E+03  0.64237645445E+03  0.25500000920E-02 0.  1.
</event>
<event>
 5   0  0.5620246E-05  0.1199606E+04  0.7818609E-02  0.9113201E-01
        1   -1    0    0  501    0  0.00000000000E+00  0.00000000000E+00  0.74734422158E+03  0.74734422160E+03  0.50400001928E-02 0. -1.
       -1   -1    0    0    0  501  0.00000000000E+00  0.00000000000E+00 -0.48138966837E+03  0.48138966840E+03  0.50400001928E-02 0.  1.
    10030    2    1    2    0    0  0.00000000000E+00  0.00000000000E+00  0.26595455321E+03  0.12287338900E+04  0.11996062471E+04 0.  0.
        1    1    3    3  502    0 -0.34625075156E+03  0.46620196496E+03  0.28672158869E+03  0.64764428858E+03  0.50400001928E-02 0.  1.
       -1    1    3    3    0  502  0.34625075156E+03 -0.46620196496E+03 -0.20767035482E+02  0.58108960142E+03  0.50400001928E-02 0. -1.
</event>
<event>
 5   0  0.5732931E-05  0.1200486E+04  0.7818609E-02  0.9112431E-01
       -1   -1    0    0    0  501  0.00000000000E+00  0.00000000000E+00  0.36134882143E+03  0.36134882147E+03  0.50400001928E-02 0. -1.
        1   -1    0    0  501    0  0.00000000000E+00  0.00000000000E+00 -0.99707407296E+03  0.99707407297E+03  0.50400001928E-02 0.  1.
    10030    2    1    2    0    0  0.00000000000E+00  0.00000000000E+00 -0.63572525153E+03  0.13584228944E+04  0.12004858036E+04 0.  0.
        4    1    3    3  502    0  0.57623728648E+03  0.15000281729E+03 -0.40359039635E+03  0.71933099227E+03  0.12699999809E+01 0.  1.
       -4    1    3    3    0  502 -0.57623728648E+03 -0.15000281729E+03 -0.23213485518E+03  0.63909190216E+03  0.12699999809E+01 0. -1.
</event>
<event>
 5   0  0.9941209E-05  0.1201360E+04  0.7818609E-02  0.9111667E-01
        2   -1    0    0  501    0  0.00000000000E+00  0.00000000000E+00  0.21775596195E+04  0.21775596195E+04  0.25500000920E-02 0. -1.
       -2   -1    0    0    0  501  0.00000000000E+00  0.00000000000E+00 -0.16569765175E+03  0.16569765177E+03  0.25500000920E-02 0.  1.
    10030    2    1    2    0    0  0.00000000000E+00  0.00000000000E+00  0.20118619678E+04  0.23432572713E+04  0.12013600885E+04 0.  0.
        2    1    3    3  502    0  0.57000673934E+03 -0.16338430846E+03  0.11931630860E+04  0.13323814262E+04  0.25500000920E-02 0.  1.
       -2    1    3    3    0  502 -0.57000673934E+03  0.16338430846E+03  0.81869888182E+03  0.10108758451E+04  0.25500000920E-02 0. -1.
</event>
<event>
 5   0  0.1004006E-04  0.1200866E+04  0.7818609E-02  0.9112099E-01
        2   -1    0    0  501    0  0.00000000000E+00  0.00000000000E+00  0.21364720286E+04  0.21364720286E+04  0.25500000920E-02 0. -1.
       -2   -1    0    0    0  501  0.00000000000E+00  0.00000000000E+00 -0.16874524494E+03  0.16874524496E+03  0.25500000920E-02 0.  1.
    10030    2    1    2    0    0  0.00000000000E+00  0.00000000000E+00  0.19677267836E+04  0.23052172735E+04  0.12008655142E+04 0.  0.
        5    1    3    3  502    0 -0.27265761173E+03  0.83803127070E+02 -0.30334058817E+02  0.28689263229E+03  0.46999998093E+01 0.  1.
       -5    1    3    3    0  502  0.27265761173E+03 -0.83803127070E+02  0.19980608424E+04  0.20183246412E+04  0.46999998093E+01 0. -1.
</event>
<event>
 5   0  0.5732931E-05  0.1200500E+04  0.7818609E-02  0.9112419E-01
        1   -1    0    0  501    0  0.00000000000E+00  0.00000000000E+00  0.19371200490E+04  0.19371200490E+04  0.50400001928E-02 0.  1.
       -1   -1    0    0    0  501  0.00000000000E+00  0.00000000000E+00 -0.18599766565E+03  0.18599766571E+03  0.50400001928E-02 0. -1.
    10030    2    1    2    0    0  0.00000000000E+00  0.00000000000E+00  0.17511223833E+04  0.21231177147E+04  0.12004995748E+04 0.  0.
        4    1    3    3  502    0  0.27112330104E+03 -0.21710439323E+02  0.18218793048E+04  0.18420708460E+04  0.12699999809E+01 0.  1.
       -4    1    3    3    0  502 -0.27112330104E+03  0.21710439323E+02 -0.70756921503E+02  0.28104686866E+03  0.12699999809E+01 0. -1.
</event>
<event>
 5   0  0.5447807E-05  0.1198832E+04  0.7818609E-02  0.9113880E-01
       -1   -1    0    0    0  501  0.00000000000E+00  0.00000000000E+00  0.56942467980E+03  0.56942467983E+03  0.50400001928E-02 0. -1.
        1   -1    0    0  501    0  0.00000000000E+00  0.00000000000E+00 -0.63098671595E+03  0.63098671597E+03  0.50400001928E-02 0.  1.
    10030    2    1    2    0    0  0.00000000000E+00  0.00000000000E+00 -0.61562036147E+02  0.12004113958E+04  0.11988317792E+04 0.  0.
        2    1    3    3  502    0 -0.18225520196E+03  0.36059632939E+03  0.41258082914E+03  0.57746827791E+03  0.25500000920E-02 0. -1.
       -2    1    3    3    0  502  0.18225520196E+03 -0.36059632939E+03 -0.47414286529E+03  0.62294311789E+03  0.25500000920E-02 0.  1.
</event>
<event>
 5   0  0.9838215E-05  0.1199945E+04  0.7818609E-02  0.9112905E-01
        2   -1    0    0  501    0  0.00000000000E+00  0.00000000000E+00  0.40896163652E+03  0.40896163653E+03  0.25500000920E-02 0. -1.
       -2   -1    0    0    0  501  0.00000000000E+00  0.00000000000E+00 -0.88019683018E+03  0.88019683018E+03  0.25500000920E-02 0.  1.
    10030    2    1    2    0    0  0.00000000000E+00  0.00000000000E+00 -0.47123519365E+03  0.12891584667E+04  0.11999445590E+04 0.  0.
        4    1    3    3  502    0 -0.53725757519E+03 -0.26509849513E+03 -0.27030106655E+03  0.65725732685E+03  0.12699999809E+01 0.  1.
       -4    1    3    3    0  502  0.53725757519E+03  0.26509849513E+03 -0.20093412710E+03  0.63190113986E+03  0.12699999809E+01 0. -1.
</event>
<event>
 5   0  0.5625746E-05  0.1200171E+04  0.7818609E-02  0.9112707E-01
       -1   -1    0    0    0  501  0.00000000000E+00  0.00000000000E+00  0.58180836336E+03  0.58180836339E+03  0.50400001928E-02 0.  1.
        1   -1    0    0  501    0  0.00000000000E+00  0.00000000000E+00 -0.61893689320E+03  0.61893689322E+03  0.50400001928E-02 0. -1.
    10030    2    1    2    0    0  0.00000000000E+00  0.00000000000E+00 -0.37128529833E+02  0.12007452566E+04  0.12001710893E+04 0.  0.
        5    1    3    3  502    0 -0.10110378766E+03 -0.21714472441E+03 -0.56901541220E+03  0.61739325922E+03  0.46999998093E+01 0. -1.
       -5    1    3    3    0  502  0.10110378766E+03  0.21714472441E+03  0.53188688236E+03  0.58335199738E+03  0.46999998093E+01 0.  1.
</event>
<event>
 5   0  0.9838215E-05  0.1200310E+04  0.7818609E-02  0.9112586E-01
       -2   -1    0    0    0  501  0.00000000000E+00  0.00000000000E+00  0.28884883653E+03  0.28884883654E+03  0.25500000920E-02 0. -1.
        2   -1    0    0  501    0  0.00000000000E+00  0.00000000000E+00 -0.12469698332E+04  0.12469698332E+04  0.25500000920E-02 0.  1.
    10030    2    1    2    0    0  0.00000000000E+00  0.00000000000E+00 -0.95812099666E+03  0.15358186697E+04  0.12003096026E+04 0.  0.
        4    1    3    3  502    0 -0.56103010823E+02  0.59723151612E+03 -0.50303708763E+03  0.78286713822E+03  0.12699999809E+01 0.  1.
       -4    1    3    3    0  502  0.56103010823E+02 -0.59723151612E+03 -0.45508390903E+03  0.75295153153E+03  0.12699999809E+01 0. -1.
</event>
<event>
 5   0  0.9838215E-05  0.1200434E+04  0.7818609E-02  0.9112477E-01
        2   -1    0    0  501    0  0.00000000000E+00  0.00000000000E+00  0.81132337964E+03  0.81132337965E+03  0.25500000920E-02 0.  1.
       -2   -1    0    0    0  501  0.00000000000E+00  0.00000000000E+00 -0.44404057447E+03  0.44404057447E+03  0.25500000920E-02 0. -1.
    10030    2    1    2    0    0  0.00000000000E+00  0.00000000000E+00  0.36728280518E+03  0.12553639541E+04  0.12004340875E+04 0.  0.
        4    1    3    3  502    0  0.34342184712E+03  0.49170844730E+03  0.20801283272E+03  0.63481234527E+03  0.12699999809E+01 0. -1.
       -4    1    3    3    0  502 -0.34342184712E+03 -0.49170844730E+03  0.15926997246E+03  0.62055160886E+03  0.12699999809E+01 0.  1.
</event>
<event>
 5   0  0.1023063E-04  0.1200415E+04  0.7818609E-02  0.9112493E-01
        2   -1    0    0  501    0  0.00000000000E+00  0.00000000000E+00  0.29893539822E+03  0.29893539823E+03  0.25500000920E-02 0.  1.
       -2   -1    0    0    0  501  0.00000000000E+00  0.00000000000E+00 -0.12051074793E+04  0.12051074793E+04  0.25500000920E-02 0. -1.
    10030    2    1    2    0    0  0.00000000000E+00  0.00000000000E+00 -0.90617208104E+03  0.15040428775E+04  0.12004154018E+04 0.  0.
        3    1    3    3  502    0 -0.55261033566E+03 -0.87835215872E+02 -0.18100552554E+03  0.58809541632E+03  0.10100000352E+00 0.  1.
       -3    1    3    3    0  502  0.55261033566E+03  0.87835215872E+02 -0.72516655550E+03  0.91594746118E+03  0.10100000352E+00 0. -1.
</event>
<event>
 5   0  0.5447807E-05  0.1199839E+04  0.7818609E-02  0.9112998E-01
        1   -1    0    0  501    0  0.00000000000E+00  0.00000000000E+00  0.20308392916E+03  0.20308392922E+03  0.50400001928E-02 0.  1.
       -1   -1    0    0    0  501  0.00000000000E+00  0.00000000000E+00 -0.17721899844E+04  0.17721899844E+04  0.50400001928E-02 0. -1.
    10030    2    1    2    0    0  0.00000000000E+00  0.00000000000E+00 -0.15691060552E+04  0.19752739136E+04  0.11998388314E+04 0.  0.
        2    1    3    3  502    0 -0.43235401289E+03  0.21096182508E+03 -0.19448428652E+03  0.51890174582E+03  0.25500000920E-02 0.  1.
       -2    1    3    3    0  502  0.43235401289E+03 -0.21096182508E+03 -0.13746217687E+04  0.14563721678E+04  0.25500000920E-02 0. -1.
</event>
<event>
 5   0  0.5732931E-05  0.1199890E+04  0.7818609E-02  0.9112953E-01
        1   -1    0    0  501    0  0.00000000000E+00  0.00000000000E+00  0.48039888310E+03  0.48039888313E+03  0.50400001928E-02 0.  1.
       -1   -1    0    0    0  501  0.00000000000E+00  0.00000000000E+00 -0.74924023842E+03  0.74924023843E+03  0.50400001928E-02 0. -1.
    10030    2    1    2    0    0  0.00000000000E+00  0.00000000000E+00 -0.26884135531E+03  0.12296391216E+04  0.11998902845E+04 0.  0.
        4    1    3    3  502    0 -0.39539077210E+03 -0.23164809286E+03 -0.53123906521E+03  0.70157769270E+03  0.12699999809E+01 0. -1.
       -4    1    3    3    0  502  0.39539077210E+03  0.23164809286E+03  0.26239770990E+03  0.52806142886E+03  0.12699999809E+01 0.  1.
</event>
<event>
 5   0  0.5625746E-05  0.1197910E+04  0.7818609E-02  0.9114688E-01
        1   -1    0    0  501    0  0.00000000000E+00  0.00000000000E+00  0.37073276524E+03  0.37073276527E+03  0.50400001928E-02 0. -1.
       -1   -1    0    0    0  501  0.00000000000E+00  0.00000000000E+00 -0.96767054612E+03  0.96767054613E+03  0.50400001928E-02 0.  1.
    10030    2    1    2    0    0  0.00000000000E+00  0.00000000000E+00 -0.59693778088E+03  0.13384033114E+04  0.11979101426E+04 0.  0.
        5    1    3    3  502    0 -0.50632566753E+03 -0.32503040863E+02 -0.65407877499E+03  0.82780629568E+03  0.46999998093E+01 0.  1.
       -5    1    3    3    0  502  0.50632566753E+03  0.32503040863E+02  0.57140994113E+02  0.51059701573E+03  0.46999998093E+01 0. -1.
</event>
<event>
 5   0  0.1012657E-04  0.1200168E+04  0.7818609E-02  0.9112710E-01
        2   -1    0    0  501    0  0.00000000000E+00  0.00000000000E+00  0.32399203070E+03  0.32399203071E+03  0.25500000920E-02 0. -1.
       -2   -1    0    0    0  501  0.00000000000E+00  0.00000000000E+00 -0.11114492740E+04  0.11114492740E+04  0.25500000920E-02 0.  1.
    10030    2    1    2    0    0  0.00000000000E+00  0.00000000000E+00 -0.78745724330E+03  0.14354413047E+04  0.12001678338E+04 0.  0.
        1    1    3    3  502    0  0.18051255631E+03  0.26298472626E+03  0.21419897185E+03  0.38422252511E+03  0.50400001928E-02 0. -1.
       -1    1    3    3    0  502 -0.18051255631E+03 -0.26298472626E+03 -0.10016562152E+04  0.10512187796E+04  0.50400001928E-02 0.  1.
</event>
<event>
 5   0  0.1004006E-04  0.1200084E+04  0.7818609E-02  0.9112783E-01
       -2   -1    0    0    0  501  0.00000000000E+00  0.00000000000E+00  0.11239518736E+04  0.11239518736E+04  0.25500000920E-02 0. -1.
        2   -1    0    0  501    0  0.00000000000E+00  0.00000000000E+00 -0.32034345300E+03  0.32034345301E+03  0.25500000920E-02 0.  1.
    10030    2    1    2    0    0  0.00000000000E+00  0.00000000000E+00  0.80360842064E+03  0.14442953267E+04  0.12000843707E+04 0.  0.
        5    1    3    3  502    0 -0.55171132358E+03  0.23297941587E+03  0.44624791412E+03  0.74687621708E+03  0.46999998093E+01 0.  1.
       -5    1    3    3    0  502  0.55171132358E+03 -0.23297941587E+03  0.35736050652E+03  0.69741910958E+03  0.46999998093E+01 0. -1.
</event>
<event>
 5   0  0.9838215E-05  0.1200122E+04  0.7818609E-02  0.9112750E-01
       -2   -1    0    0    0  501  0.00000000000E+00  0.00000000000E+00  0.25523922244E+03  0.25523922246E+03  0.25500000920E-02 0.  1.
        2   -1    0    0  501    0  0.00000000000E+00  0.00000000000E+00 -0.14107281294E+04  0.14107281294E+04  0.25500000920E-02 0. -1.
    10030    2    1    2    0    0  0.00000000000E+00  0.00000000000E+00 -0.11554889069E+04  0.16659673518E+04  0.12001219119E+04 0.  0.
        4    1    3    3  502    0 -0.57663185826E+03 -0.16603219773E+03 -0.57671750292E+03  0.83227139907E+03  0.12699999809E+01 0.  1.
       -4    1    3    3    0  502  0.57663185826E+03  0.16603219773E+03 -0.57877140402E+03  0.83369595277E+03  0.12699999809E+01 0. -1.
</event>
<event>
 5   0  0.5625746E-05  0.1199341E+04  0.7818609E-02  0.9113433E-01
       -1   -1    0    0    0  501  0.00000000000E+00  0.00000000000E+00  0.44494460264E+03  0.44494460267E+03  0.50400001928E-02 0.  1.
        1   -1    0    0  501    0  0.00000000000E+00  0.00000000000E+00 -0.80820141558E+03  0.80820141560E+03  0.50400001928E-02 0. -1.
    10030    2    1    2    0    0  0.00000000000E+00  0.00000000000E+00 -0.36325681294E+03  0.12531460183E+04  0.11993412488E+04 0.  0.
        5    1    3    3  502    0 -0.49474971488E+03  0.29717182317E+02 -0.53429427157E+03  0.72880233941E+03  0.46999998093E+01 0. -1.
       -5    1    3    3    0  502  0.49474971488E+03 -0.29717182317E+02  0.17103745863E+03  0.52434367886E+03  0.46999998093E+01 0.  1.
</event>
<event>
 5   0  0.5620246E-05  0.1198845E+04  0.7818609E-02  0.9113868E-01
       -1   -1    0    0    0  501  0.00000000000E+00  0.00000000000E+00  0.63990205984E+03  0.63990205986E+03  0.50400001928E-02 0. -1.
        1   -1    0    0  501    0  0.00000000000E+00  0.00000000000E+00 -0.56150400389E+03  0.56150400392E+03  0.50400001928E-02 0.  1.
    10030    2    1    2    0    0  0.00000000000E+00  0.00000000000E+00  0.78398055946E+02  0.12014060638E+04  0.11988453924E+04 0.  0.
        1    1    3    3  502    0  0.29076614239E+02  0.13353531279E+02  0.63904566513E+03  0.63984617561E+03  0.50400001928E-02 0. -1.
       -1    1    3    3    0  502 -0.29076614239E+02 -0.13353531279E+02 -0.56064760918E+03  0.56155988817E+03  0.50400001928E-02 0.  1.
</event>
<event>
 5   0  0.5447807E-05  0.1200514E+04  0.7818609E-02  0.9112407E-01
       -1   -1    0    0    0  501  0.00000000000E+00  0.00000000000E+00  0.67909606101E+03  0.67909606103E+03  0.50400001928E-02 0. -1.
        1   -1    0    0  501    0  0.00000000000E+00  0.00000000000E+00 -0.53057077438E+03  0.53057077441E+03  0.50400001928E-02 0.  1.
    10030    2    1    2    0    0  0.00000000000E+00  0.00000000000E+00  0.14852528663E+03  0.12096668354E+04  0.12005140949E+04 0.  0.
        2    1    3    3  502    0 -0.48045859214E+03 -0.29262550284E+03  0.28523509791E+03  0.63073703297E+03  0.25500000920E-02 0. -1.
       -2    1    3    3    0  502  0.48045859214E+03  0.29262550284E+03 -0.13670981128E+03  0.57892980246E+03  0.25500000920E-02 0.  1.
</event>
<event>
 5   0  0.5447807E-05  0.1199775E+04  0.7818609E-02  0.9113053E-01
       -1   -1    0    0    0  501  0.00000000000E+00  0.00000000000E+00  0.33014476001E+03  0.33014476005E+03  0.50400001928E-02 0. -1.
        1   -1    0    0  501    0  0.00000000000E+00  0.00000000000E+00 -0.10900225905E+04  0.10900225905E+04  0.50400001928E-02 0.  1.
    10030    2    1    2    0    0  0.00000000000E+00  0.00000000000E+00 -0.75987783045E+03  0.14201673505E+04  0.11997753899E+04 0.  0.
        2    1    3    3  502    0  0.33930070241E+03 -0.40741903147E+03 -0.71211234517E+03  0.88781711293E+03  0.25500000920E-02 0.  1.
       -2    1    3    3    0  502 -0.33930070241E+03  0.40741903147E+03 -0.47765485282E+02  0.53235023758E+03  0.25500000920E-02 0. -1.
</event>
<event>
 5   0  0.5745487E-05  0.1200161E+04  0.7818609E-02  0.9112716E-01
       -1   -1    0    0    0  501  0.00000000000E+00  0.00000000000E+00  0.85248694754E+03  0.85248694756E+03  0.50400001928E-02 0. -1.
        1   -1    0    0  501    0  0.00000000000E+00  0.00000000000E+00 -0.42240724058E+03  0.42240724061E+03  0.50400001928E-02 0.  1.
    10030    2    1    2    0    0  0.00000000000E+00  0.00000000000E+00  0.43007970696E+03  0.12748941882E+04  0.12001610878E+04 0.  0.
        3    1    3    3  502    0  0.51136564135E+03 -0.26154426972E+03  0.39963163561E+03  0.69971828514E+03  0.10100000352E+00 0. -1.
       -3    1    3    3    0  502 -0.51136564135E+03  0.26154426972E+03  0.30448071351E+02  0.57517590303E+03  0.10100000352E+00 0.  1.
</event>
<event>
 5   0  0.1012657E-04  0.1200157E+04  0.7818609E-02  0.9112719E-01
       -2   -1    0    0    0  501  0.00000000000E+00  0.00000000000E+00  0.45954188465E+03  0.45954188465E+03  0.25500000920E-02 0.  1.
        2   -1    0    0  501    0  0.00000000000E+00  0.00000000000E+00 -0.78359349298E+03  0.78359349299E+03  0.25500000920E-02 0. -1.
    10030    2    1    2    0    0  0.00000000000E+00  0.00000000000E+00 -0.32405160834E+03  0.12431353776E+04  0.12001567074E+04 0.  0.
        1    1    3    3  502    0 -0.21769822507E+03  0.41340645745E+03  0.22801801471E+03  0.51989386544E+03  0.50400001928E-02 0.  1.
       -1    1    3    3    0  502  0.21769822507E+03 -0.41340645745E+03 -0.55206962304E+03  0.72324151220E+03  0.50400001928E-02 0. -1.
</event>
<event>
 5   0  0.5447807E-05  0.1201740E+04  0.7818609E-02  0.9111335E-01
        1   -1    0    0  501    0  0.00000000000E+00  0.00000000000E+00  0.70172273964E+03  0.70172273965E+03  0.50400001928E-02 0. -1.
       -1   -1    0    0    0  501  0.00000000000E+00  0.00000000000E+00 -0.51451172070E+03  0.51451172072E+03  0.50400001928E-02 0.  1.
    10030    2    1    2    0    0  0.00000000000E+00  0.00000000000E+00  0.18721101894E+03  0.12162344604E+04  0.12017396960E+04 0.  0.
        2    1    3    3  502    0  0.30979384627E+03  0.33988094335E+03  0.48499114749E+03  0.66836194984E+03  0.25500000920E-02 0. -1.
       -2    1    3    3    0  502 -0.30979384627E+03 -0.33988094335E+03 -0.29778012855E+03  0.54787251054E+03  0.25500000920E-02 0.  1.
</event>
<event>
 5   0  0.5732931E-05  0.1199412E+04  0.7818609E-02  0.9113371E-01
       -1   -1    0    0    0  501  0.00000000000E+00  0.00000000000E+00  0.23071209805E+03  0.23071209810E+03  0.50400001928E-02 0. -1.
        1   -1    0    0  501    0  0.00000000000E+00  0.00000000000E+00 -0.15588582986E+04  0.15588582986E+04  0.50400001928E-02 0.  1.
    10030    2    1    2    0    0  0.00000000000E+00  0.00000000000E+00 -0.13281462006E+04  0.17895703967E+04  0.11994123039E+04 0.  0.
        4    1    3    3  502    0 -0.59316664183E+03 -0.54097520177E+02 -0.76822395953E+03  0.97208172062E+03  0.12699999809E+01 0. -1.
       -4    1    3    3    0  502  0.59316664183E+03  0.54097520177E+02 -0.55992224107E+03  0.81748867613E+03  0.12699999809E+01 0.  1.
</event>
<event>
 5   0  0.9838215E-05  0.1199601E+04  0.7818609E-02  0.9113206E-01
       -2   -1    0    0    0  501  0.00000000000E+00  0.00000000000E+00  0.32047509230E+03  0.32047509231E+03  0.25500000920E-02 0. -1.
        2   -1    0    0  501    0  0.00000000000E+00  0.00000000000E+00 -0.11225846354E+04  0.11225846354E+04  0.25500000920E-02 0.  1.
    10030    2    1    2    0    0  0.00000000000E+00  0.00000000000E+00 -0.80210954314E+03  0.14430597277E+04  0.11996006246E+04 0.  0.
        4    1    3    3  502    0 -0.58567057808E+03 -0.85024664791E+02 -0.51842462593E+03  0.78676866061E+03  0.12699999809E+01 0.  1.
       -4    1    3    3    0  502  0.58567057808E+03  0.85024664791E+02 -0.28368491722E+03  0.65629106714E+03  0.12699999809E+01 0. -1.
</event>
<event>
 5   0  0.5625746E-05  0.1200551E+04  0.7818609E-02  0.9112375E-01
       -1   -1    0    0    0  501  0.00000000000E+00  0.00000000000E+00  0.70035266112E+03  0.70035266114E+03  0.50400001928E-02 0. -1.
        1   -1    0    0  501    0  0.00000000000E+00  0.00000000000E+00 -0.51449849461E+03  0.51449849463E+03  0.50400001928E-02 0.  1.
    10030    2    1    2    0    0  0.00000000000E+00  0.00000000000E+00  0.18585416651E+03  0.12148511558E+04  0.12005505235E+04 0.  0.
        5    1    3    3  502    0  0.25271609527E+03  0.39023856239E+03  0.47712951135E+03  0.66620283772E+03  0.46999998093E+01 0. -1.
       -5    1    3    3    0  502 -0.25271609527E+03 -0.39023856239E+03 -0.29127534484E+03  0.54864831805E+03  0.46999998093E+01 0.  1.
</event>
<event>
 5   0  0.5625746E-05  0.1199607E+04  0.7818609E-02  0.9113201E-01
        1   -1    0    0  501    0  0.00000000000E+00  0.00000000000E+00  0.18260525192E+04  0.18260525192E+04  0.50400001928E-02 0.  1.
       -1   -1    0    0    0  501  0.00000000000E+00  0.00000000000E+00 -0.19701733664E+03  0.19701733670E+03  0.50400001928E-02 0. -1.
    10030    2    1    2    0    0  0.00000000000E+00  0.00000000000E+00  0.16290351825E+04  0.20230698559E+04  0.11996066088E+04 0.  0.
        5    1    3    3  502    0  0.34188061394E+03 -0.22852039624E+02  0.16447165825E+04  0.16800355045E+04  0.46999998093E+01 0.  1.
       -5    1    3    3    0  502 -0.34188061394E+03  0.22852039624E+02 -0.15681399917E+02  0.34303435135E+03  0.46999998093E+01 0. -1.
</event>
<event>
 5   0  0.5447807E-05  0.1200278E+04  0.7818609E-02  0.9112613E-01
        1   -1    0    0  501    0  0.00000000000E+00  0.00000000000E+00  0.10651205037E+04  0.10651205037E+04  0.50400001928E-02 0. -1.
       -1   -1    0    0    0  501  0.00000000000E+00  0.00000000000E+00 -0.33814638773E+03  0.33814638777E+03  0.50400001928E-02 0.  1.
    10030    2    1    2    0    0  0.00000000000E+00  0.00000000000E+00  0.72697411599E+03  0.14032668915E+04  0.12002777193E+04 0.  0.
        2    1    3    3  502    0  0.50481079470E+03  0.29709651767E+03  0.51621873948E+03  0.78075736708E+03  0.25500000920E-02 0. -1.
       -2    1    3    3    0  502 -0.50481079470E+03 -0.29709651767E+03  0.21075537651E+03  0.62250952442E+03  0.25500000920E-02 0.  1.
</event>
<event>
 5   0  0.1012657E-04  0.1199070E+04  0.7818609E-02  0.9113671E-01
       -2   -1    0    0    0  501  0.00000000000E+00  0.00000000000E+00  0.34646805297E+03  0.34646805298E+03  0.25500000920E-02 0.  1.
        2   -1    0    0  501    0  0.00000000000E+00  0.00000000000E+00 -0.10374468523E+04  0.10374468523E+04  0.25500000920E-02 0. -1.
    10030    2    1    2    0    0  0.00000000000E+00  0.00000000000E+00 -0.69097879930E+03  0.13839149052E+04  0.11990699579E+04 0.  0.
        1    1    3    3  502    0  0.31879039319E+03 -0.47756909078E+03 -0.14644286559E+03  0.59257494392E+03  0.50400001928E-02 0. -1.
       -1    1    3    3    0  502 -0.31879039319E+03  0.47756909078E+03 -0.54453593371E+03  0.79133996132E+03  0.50400001928E-02 0.  1.
</event>
<event>
 5   0  0.5447807E-05  0.1199366E+04  0.7818609E-02  0.9113412E-01
        1   -1    0    0  501    0  0.00000000000E+00  0.00000000000E+00  0.72150077294E+03  0.72150077295E+03  0.50400001928E-02 0.  1.
       -1   -1    0    0    0  501  0.00000000000E+00  0.00000000000E+00 -0.49843262295E+03  0.49843262297E+03  0.50400001928E-02 0. -1.
    10030    2    1    2    0    0  0.00000000000E+00  0.00000000000E+00  0.22306814999E+03  0.12199333959E+04  0.11993657036E+04 0.  0.
        2    1    3    3  502    0  0.46866328604E+03 -0.21366830151E+03  0.42391652732E+03  0.66708668169E+03  0.25500000920E-02 0. -1.
       -2    1    3    3    0  502 -0.46866328604E+03  0.21366830151E+03 -0.20084837733E+03  0.55284671423E+03  0.25500000920E-02 0.  1.
</event>
<event>
 5   0  0.1012657E-04  0.1200159E+04  0.7818609E-02  0.9112718E-01
       -2   -1    0    0    0  501  0.00000000000E+00  0.00000000000E+00  0.48529272443E+03  0.48529272444E+03  0.25500000920E-02 0.  1.
        2   -1    0    0  501    0  0.00000000000E+00  0.00000000000E+00 -0.74201639774E+03  0.74201639774E+03  0.25500000920E-02 0. -1.
    10030    2    1    2    0    0  0.00000000000E+00  0.00000000000E+00 -0.25672367330E+03  0.12273091222E+04  0.12001585883E+04 0.  0.
        1    1    3    3  502    0  0.41559531855E+01  0.51596057208E+03 -0.44166267563E+03  0.67918959279E+03  0.50400001928E-02 0. -1.
       -1    1    3    3    0  502 -0.41559531855E+01 -0.51596057208E+03  0.18493900233E+03  0.54811952939E+03  0.50400001928E-02 0.  1.
</event>
<event>
 5   0  0.1023063E-04  0.1199779E+04  0.7818609E-02  0.9113050E-01
        2   -1    0    0  501    0  0.00000000000E+00  0.00000000000E+00  0.61371697047E+03  0.61371697048E+03  0.25500000920E-02 0.  1.
       -2   -1    0    0    0  501  0.00000000000E+00  0.00000000000E+00 -0.58637405017E+03  0.58637405017E+03  0.25500000920E-02 0. -1.
    10030    2    1    2    0    0  0.00000000000E+00  0.00000000000E+00  0.27342920304E+02  0.12000910207E+04  0.11997794891E+04 0.  0.
        3    1    3    3  502    0 -0.46022178557E+03 -0.14776794092E+03 -0.34170692952E+03  0.59194855533E+03  0.10100000352E+00 0. -1.
       -3    1    3    3    0  502  0.46022178557E+03  0.14776794092E+03  0.36904984982E+03  0.60814246532E+03  0.10100000352E+00 0.  1.
</event>
<event>
 5   0  0.1023063E-04  0.1200911E+04  0.7818609E-02  0.9112059E-01
        2   -1    0    0  501    0  0.00000000000E+00  0.00000000000E+00  0.43229632885E+03  0.43229632886E+03  0.25500000920E-02 0.  1.
       -2   -1    0    0    0  501  0.00000000000E+00  0.00000000000E+00 -0.83402735799E+03  0.83402735799E+03  0.25500000920E-02 0. -1.
    10030    2    1    2    0    0  0.00000000000E+00  0.00000000000E+00 -0.40173102914E+03  0.12663236869E+04  0.12009112624E+04 0.  0.
        3    1    3    3  502    0  0.13509292167E+03  0.37826857795E+03 -0.67150579852E+03  0.78246869726E+03  0.10100000352E+00 0. -1.
       -3    1    3    3    0  502 -0.13509292167E+03 -0.37826857795E+03  0.26977476938E+03  0.48385498959E+03  0.10100000352E+00 0.  1.
</event>
<event>
 5   0  0.5620246E-05  0.1200425E+04  0.7818609E-02  0.9112484E-01
       -1   -1    0    0    0  501  0.00000000000E+00  0.00000000000E+00  0.83279287686E+03  0.83279287688E+03  0.50400001928E-02 0. -1.
        1   -1    0    0  501    0  0.00000000000E+00  0.00000000000E+00 -0.43258687182E+03  0.43258687185E+03  0.50400001928E-02 0.  1.
    10030    2    1    2    0    0  0.00000000000E+00  0.00000000000E+00  0.40020600504E+03  0.12653797487E+04  0.12004253671E+04 0.  0.
        1    1    3    3  502    0 -0.21788291843E+03  0.34004305381E+03  0.66814781204E+03  0.78072001598E+03  0.50400001928E-02 0. -1.
       -1    1    3    3    0  502  0.21788291843E+03 -0.34004305381E+03 -0.26794180700E+03  0.48465973275E+03  0.50400001928E-02 0.  1.
</event>
<event>
 5   0  0.5625746E-05  0.1203295E+04  0.7818609E-02  0.9109977E-01
        1   -1    0    0  501    0  0.00000000000E+00  0.00000000000E+00  0.11026007293E+04  0.11026007293E+04  0.50400001928E-02 0.  1.
       -1   -1    0    0    0  501  0.00000000000E+00  0.00000000000E+00 -0.32829634767E+03  0.32829634771E+03  0.50400001928E-02 0. -1.
    10030    2    1    2    0    0  0.00000000000E+00  0.00000000000E+00  0.77430438165E+03  0.14308970770E+04  0.12032951299E+04 0.  0.
        5    1    3    3  502    0  0.28879854432E+03  0.41576825624E+03  0.77374422365E+03  0.92464590829E+03  0.46999998093E+01 0.  1.
       -5    1    3    3    0  502 -0.28879854432E+03 -0.41576825624E+03  0.56015799986E+00  0.50625116876E+03  0.46999998093E+01 0. -1.
</event>
<event>
 5   0  0.1023063E-04  0.1200073E+04  0.7818609E-02  0.9112792E-01
       -2   -1    0    0    0  501  0.00000000000E+00  0.00000000000E+00  0.30421981764E+03  0.30421981765E+03  0.25500000920E-02 0. -1.
        2   -1    0    0  501    0  0.00000000000E+00  0.00000000000E+00 -0.11834995558E+04  0.11834995558E+04  0.25500000920E-02 0.  1.
    10030    2    1    2    0    0  0.00000000000E+00  0.00000000000E+00 -0.87927973817E+03  0.14877193735E+04  0.12000733628E+04 0.  0.
        3    1    3    3  502    0  0.23200565245E+03  0.18827175325E+03  0.20544135817E+03  0.36260038291E+03  0.10100000352E+00 0. -1.
       -3    1    3    3    0  502 -0.23200565245E+03 -0.18827175325E+03 -0.10847210963E+04  0.11251189905E+04  0.10100000352E+00 0.  1.
</event>
<event>
 5   0  0.5625746E-05  0.1201001E+04  0.7818609E-02  0.9111981E-01
        1   -1    0    0  501    0  0.00000000000E+00  0.00000000000E+00  0.49850152059E+03  0.49850152062E+03  0.50400001928E-02 0. -1.
       -1   -1    0    0    0  501  0.00000000000E+00  0.00000000000E+00 -0.72336950576E+03  0.72336950578E+03  0.50400001928E-02 0.  1.
    10030    2    1    2    0    0  0.00000000000E+00  0.00000000000E+00 -0.22486798517E+03  0.12218710264E+04  0.12010009136E+04 0.  0.
        5    1    3    3  502    0  0.31483910089E+03 -0.11287137901E+02 -0.63251944998E+03  0.70664984507E+03  0.46999998093E+01 0.  1.
       -5    1    3    3    0  502 -0.31483910089E+03  0.11287137901E+02  0.40765146481E+03  0.51522118133E+03  0.46999998093E+01 0. -1.
</event>
<event>
 5   0  0.9941209E-05  0.1200176E+04  0.7818609E-02  0.9112703E-01
        2   -1    0    0  501    0  0.00000000000E+00  0.00000000000E+00  0.76238589454E+03  0.76238589454E+03  0.25500000920E-02 0. -1.
       -2   -1    0    0    0  501  0.00000000000E+00  0.00000000000E+00 -0.47234005183E+03  0.47234005184E+03  0.25500000920E-02 0.  1.
    10030    2    1    2    0    0  0.00000000000E+00  0.00000000000E+00  0.29004584271E+03  0.12347259464E+04  0.12001756421E+04 0.  0.
        2    1    3    3  502    0 -0.43872941669E+03 -0.33975256902E+03  0.38005100680E+03  0.67257272990E+03  0.25500000920E-02 0. -1.
       -2    1    3    3    0  502  0.43872941669E+03  0.33975256902E+03 -0.90005164091E+02  0.56215321648E+03  0.25500000920E-02 0.  1.
</event>
<event>
 5   0  0.5620246E-05  0.1200138E+04  0.7818609E-02  0.9112736E-01
       -1   -1    0    0    0  501  0.00000000000E+00  0.00000000000E+00  0.75174815852E+03  0.75174815854E+03  0.50400001928E-02 0.  1.
        1   -1    0    0  501    0  0.00000000000E+00  0.00000000000E+00 -0.47899381438E+03  0.47899381441E+03  0.50400001928E-02 0. -1.
    10030    2    1    2    0    0  0.00000000000E+00  0.00000000000E+00  0.27275434413E+03  0.12307419729E+04  0.12001378553E+04 0.  0.
        1    1    3    3  502    0  0.27177556015E+02  0.43868486111E+03 -0.28257422554E+03  0.52252389408E+03  0.50400001928E-02 0. -1.
       -1    1    3    3    0  502 -0.27177556015E+02 -0.43868486111E+03  0.55532856967E+03  0.70821807887E+03  0.50400001928E-02 0.  1.
</event>
<event>
 5   0  0.5620246E-05  0.1198563E+04  0.7818609E-02  0.9114115E-01
       -1   -1    0    0    0  501  0.00000000000E+00  0.00000000000E+00  0.92764666115E+03  0.92764666116E+03  0.50400001928E-02 0. -1.
        1   -1    0    0  501    0  0.00000000000E+00  0.00000000000E+00 -0.38714973756E+03  0.38714973759E+03  0.50400001928E-02 0.  1.
    10030    2    1    2    0    0  0.00000000000E+00  0.00000000000E+00  0.54049692359E+03  0.13147963988E+04  0.11985627417E+04 0.  0.
        1    1    3    3  502    0 -0.17677389977E+03  0.23034527006E+02 -0.35739004968E+03  0.39938358593E+03  0.50400001928E-02 0.  1.
       -1    1    3    3    0  502  0.17677389977E+03 -0.23034527006E+02  0.89788697327E+03  0.91541281282E+03  0.50400001928E-02 0. -1.
</event>
<event>
 5   0  0.5447807E-05  0.1200056E+04  0.7818609E-02  0.9112807E-01
        1   -1    0    0  501    0  0.00000000000E+00  0.00000000000E+00  0.95549843711E+03  0.95549843712E+03  0.50400001928E-02 0. -1.
       -1   -1    0    0    0  501  0.00000000000E+00  0.00000000000E+00 -0.37680189736E+03  0.37680189739E+03  0.50400001928E-02 0.  1.
    10030    2    1    2    0    0  0.00000000000E+00  0.00000000000E+00  0.57869653975E+03  0.13323003345E+04  0.12000560388E+04 0.  0.
        2    1    3    3  502    0  0.48700790236E+03 -0.91090515902E+02  0.66511304034E+03  0.82936694863E+03  0.25500000920E-02 0. -1.
       -2    1    3    3    0  502 -0.48700790236E+03  0.91090515902E+02 -0.86416500591E+02  0.50293338588E+03  0.25500000920E-02 0.  1.
</event>
<event>
 5   0  0.9838215E-05  0.1202057E+04  0.7818609E-02  0.9111058E-01
       -2   -1    0    0    0  501  0.00000000000E+00  0.00000000000E+00  0.11163910586E+04  0.11163910586E+04  0.25500000920E-02 0.  1.
        2   -1    0    0  501    0  0.00000000000E+00  0.00000000000E+00 -0.32357423332E+03  0.32357423333E+03  0.25500000920E-02 0. -1.
    10030    2    1    2    0    0  0.00000000000E+00  0.00000000000E+00  0.79281682525E+03  0.14399652919E+04  0.12020572047E+04 0.  0.
        4    1    3    3  502    0 -0.11116443951E+03 -0.86591001535E+01  0.11038912486E+04  0.11095089068E+04  0.12699999809E+01 0.  1.
       -4    1    3    3    0  502  0.11116443951E+03  0.86591001535E+01 -0.31107442340E+03  0.33045638505E+03  0.12699999809E+01 0. -1.
</event>
<event>
 5   0  0.5745487E-05  0.1200173E+04  0.7818609E-02  0.9112705E-01
       -1   -1    0    0    0  501  0.00000000000E+00  0.00000000000E+00  0.21878186303E+03  0.21878186309E+03  0.50400001928E-02 0.  1.
        1   -1    0    0  501    0  0.00000000000E+00  0.00000000000E+00 -0.16459486124E+04  0.16459486124E+04  0.50400001928E-02 0. -1.
    10030    2    1    2    0    0  0.00000000000E+00  0.00000000000E+00 -0.14271667494E+04  0.18647304755E+04  0.12001728274E+04 0.  0.
        3    1    3    3  502    0  0.50266604985E+03 -0.28978328526E+03 -0.47562502114E+03  0.75024441419E+03  0.10100000352E+00 0.  1.
       -3    1    3    3    0  502 -0.50266604985E+03  0.28978328526E+03 -0.95154172821E+03  0.11144860613E+04  0.10100000352E+00 0. -1.
</event>
<event>
 5   0  0.5625746E-05  0.1200724E+04  0.7818609E-02  0.9112223E-01
        1   -1    0    0  501    0  0.00000000000E+00  0.00000000000E+00  0.41717328921E+03  0.41717328924E+03  0.50400001928E-02 0.  1.
       -1   -1    0    0    0  501  0.00000000000E+00  0.00000000000E+00 -0.86399201262E+03  0.86399201264E+03  0.50400001928E-02 0. -1.
    10030    2    1    2    0    0  0.00000000000E+00  0.00000000000E+00 -0.44681872341E+03  0.12811653019E+04  0.12007237647E+04 0.  0.
        5    1    3    3  502    0  0.47717833612E+03  0.34402711931E+03 -0.35126392783E+03  0.68517316079E+03  0.46999998093E+01 0. -1.
       -5    1    3    3    0  502 -0.47717833612E+03 -0.34402711931E+03 -0.95554795581E+02  0.59599214109E+03  0.46999998093E+01 0.  1.
</event>
<event>
 5   0  0.5447807E-05  0.1199654E+04  0.7818609E-02  0.9113159E-01
        1   -1    0    0  501    0  0.00000000000E+00  0.00000000000E+00  0.88535712069E+03  0.88535712071E+03  0.50400001928E-02 0.  1.
       -1   -1    0    0    0  501  0.00000000000E+00  0.00000000000E+00 -0.40638115326E+03  0.40638115329E+03  0.50400001928E-02 0. -1.
    10030    2    1    2    0    0  0.00000000000E+00  0.00000000000E+00  0.47897596744E+03  0.12917382740E+04  0.11996540298E+04 0.  0.
        2    1    3    3  502    0 -0.18554605803E+03  0.42776929657E+03 -0.16680635763E+03  0.49521537909E+03  0.25500000920E-02 0. -1.
       -2    1    3    3    0  502  0.18554605803E+03 -0.42776929657E+03  0.64578232507E+03  0.79652289491E+03  0.25500000920E-02 0.  1.
</event>
<event>
 5   0  0.9941209E-05  0.1200350E+04  0.7818609E-02  0.9112550E-01
        2   -1    0    0  501    0  0.00000000000E+00  0.00000000000E+00  0.10382553954E+04  0.10382553954E+04  0.25500000920E-02 0. -1.
       -2   -1    0    0    0  501  0.00000000000E+00  0.00000000000E+00 -0.34693792718E+03  0.34693792719E+03  0.25500000920E-02 0.  1.
    10030    2    1    2    0    0  0.00000000000E+00  0.00000000000E+00  0.69131746824E+03  0.13851933226E+04  0.12003502402E+04 0.  0.
        2    1    3    3  502    0 -0.20475460873E+03  0.38485755795E+03 -0.13038230710E+03  0.45501575327E+03  0.25500000920E-02 0.  1.
       -2    1    3    3    0  502  0.20475460873E+03 -0.38485755795E+03  0.82169977534E+03  0.93017756935E+03  0.25500000920E-02 0. -1.
</event>
<event>
 5   0  0.3839750E-05  0.1199760E+04  0.7818609E-02  0.9113067E-01
        3   -1    0    0  501    0  0.00000000000E+00  0.00000000000E+00  0.38375970377E+03  0.38375971706E+03  0.10100000352E+00 0. -1.
       -3   -1    0    0    0  501  0.00000000000E+00  0.00000000000E+00 -0.93771167032E+03  0.93771167576E+03  0.10100000352E+00 0.  1.
    10030    2    1    2    0    0  0.00000000000E+00  0.00000000000E+00 -0.55395196656E+03  0.13214713928E+04  0.11997599180E+04 0.  0.
        3    1    3    3  502    0  0.33897239311E+03 -0.89954675825E+02  0.25908099697E+03  0.43602419678E+03  0.10100000352E+00 0. -1.
       -3    1    3    3    0  502 -0.33897239311E+03  0.89954675825E+02 -0.81303296352E+03  0.88544719604E+03  0.10100000352E+00 0.  1.
</event>
<event>
 5   0  0.9838215E-05  0.1199201E+04  0.7818609E-02  0.9113556E-01
        2   -1    0    0  501    0  0.00000000000E+00  0.00000000000E+00  0.15694376961E+04  0.15694376961E+04  0.25500000920E-02 0. -1.
       -2   -1    0    0    0  501  0.00000000000E+00  0.00000000000E+00 -0.22907618020E+03  0.22907618021E+03  0.25500000920E-02 0.  1.
    10030    2    1    2    0    0  0.00000000000E+00  0.00000000000E+00  0.13403615159E+04  0.17985138763E+04  0.11992010549E+04 0.  0.
        4    1    3    3  502    0 -0.32193510950E+03  0.40829322249E+03  0.11180383736E+04  0.12330275699E+04  0.12699999809E+01 0. -1.
       -4    1    3    3    0  502  0.32193510950E+03 -0.40829322249E+03  0.22232314225E+03  0.56548630642E+03  0.12699999809E+01 0.  1.
</event>
<event>
 5   0  0.9838215E-05  0.1200366E+04  0.7818609E-02  0.9112536E-01
        2   -1    0    0  501    0  0.00000000000E+00  0.00000000000E+00  0.43649687723E+03  0.43649687723E+03  0.25500000920E-02 0. -1.
       -2   -1    0    0    0  501  0.00000000000E+00  0.00000000000E+00 -0.82525149097E+03  0.82525149098E+03  0.25500000920E-02 0.  1.
    10030    2    1    2    0    0  0.00000000000E+00  0.00000000000E+00 -0.38875461375E+03  0.12617483682E+04  0.12003661087E+04 0.  0.
        4    1    3    3  502    0  0.55901824736E+03 -0.69162811155E+02 -0.41217617002E+03  0.69797972991E+03  0.12699999809E+01 0. -1.
       -4    1    3    3    0  502 -0.55901824736E+03  0.69162811155E+02  0.23421556273E+02  0.56376863830E+03  0.12699999809E+01 0.  1.
</event>
<event>
 5   0  0.5732931E-05  0.1199909E+04  0.7818609E-02  0.9112936E-01
       -1   -1    0    0    0  501  0.00000000000E+00  0.00000000000E+00  0.93734714575E+03  0.93734714577E+03  0.50400001928E-02 0.  1.
        1   -1    0    0  501    0  0.00000000000E+00  0.00000000000E+00 -0.38400427262E+03  0.38400427266E+03  0.50400001928E-02 0. -1.
    10030    2    1    2    0    0  0.00000000000E+00  0.00000000000E+00  0.55334287313E+03  0.13213514184E+04  0.11999088448E+04 0.  0.
        4    1    3    3  502    0  0.54592624379E+02 -0.78481160789E+02  0.92890385214E+03  0.93381134425E+03  0.12699999809E+01 0.  1.
       -4    1    3    3    0  502 -0.54592624379E+02  0.78481160789E+02 -0.37556097901E+03  0.38754007417E+03  0.12699999809E+01 0. -1.
</event>
<event>
 5   0  0.9941209E-05  0.1200668E+04  0.7818609E-02  0.9112272E-01
       -2   -1    0    0    0  501  0.00000000000E+00  0.00000000000E+00  0.52749533815E+03  0.52749533816E+03  0.25500000920E-02 0.  1.
        2   -1    0    0  501    0  0.00000000000E+00  0.00000000000E+00 -0.68323008483E+03  0.68323008483E+03  0.25500000920E-02 0. -1.
    10030    2    1    2    0    0  0.00000000000E+00  0.00000000000E+00 -0.15573474668E+03  0.12107254230E+04  0.12006676220E+04 0.  0.
        2    1    3    3  502    0 -0.79763705184E+02  0.25517232375E+03 -0.61988800155E+03  0.67508243789E+03  0.25500000920E-02 0. -1.
       -2    1    3    3    0  502  0.79763705184E+02 -0.25517232375E+03  0.46415325488E+03  0.53564298510E+03  0.25500000920E-02 0.  1.
</event>
<event>
 5   0  0.9838215E-05  0.1200317E+04  0.7818609E-02  0.9112579E-01
        2   -1    0    0  501    0  0.00000000000E+00  0.00000000000E+00  0.12491588943E+04  0.12491588943E+04  0.25500000920E-02 0. -1.
       -2   -1    0    0    0  501  0.00000000000E+00  0.00000000000E+00 -0.28834600959E+03  0.28834600960E+03  0.25500000920E-02 0.  1.
    10030    2    1    2    0    0  0.00000000000E+00  0.00000000000E+00  0.96081288470E+03  0.15375049039E+04  0.12003165958E+04 0.  0.
        4    1    3    3  502    0  0.33430952740E+03  0.22578790700E+03 -0.88766351143E+02  0.41306672228E+03  0.12699999809E+01 0.  1.
       -4    1    3    3    0  502 -0.33430952740E+03 -0.22578790700E+03  0.10495792358E+04  0.11244381816E+04  0.12699999809E+01 0. -1.
</event>
<event>
 5   0  0.1004006E-04  0.1199725E+04  0.7818609E-02  0.9113098E-01
        2   -1    0    0  501    0  0.00000000000E+00  0.00000000000E+00  0.12359654882E+04  0.12359654882E+04  0.25500000920E-02 0.  1.
       -2   -1    0    0    0  501  0.00000000000E+00  0.00000000000E+00 -0.29113656077E+03  0.29113656078E+03  0.25500000920E-02 0. -1.
    10030    2    1    2    0    0  0.00000000000E+00  0.00000000000E+00  0.94482892743E+03  0.15271020490E+04  0.11997245375E+04 0.  0.
        5    1    3    3  502    0  0.30592435756E+03 -0.31773280773E+03 -0.45051700588E+02  0.44339101860E+03  0.46999998093E+01 0. -1.
       -5    1    3    3    0  502 -0.30592435756E+03  0.31773280773E+03  0.98988062801E+03  0.10837110304E+04  0.46999998093E+01 0.  1.
</event>
<event>
 5   0  0.3839750E-05  0.1199830E+04  0.7818609E-02  0.9113006E-01
       -4   -1    0    0    0  501  0.00000000000E+00  0.00000000000E+00  0.96038762953E+03  0.96038846924E+03  0.12699999809E+01 0.  1.
        4   -1    0    0  501    0  0.00000000000E+00  0.00000000000E+00 -0.37474010395E+03  0.37474225597E+03  0.12699999809E+01 0. -1.
    10030    2    1    2    0    0  0.00000000000E+00  0.00000000000E+00  0.58564752558E+03  0.13351307252E+04  0.11998295834E+04 0.  0.
        4    1    3    3  502    0 -0.51598004294E+02  0.47418990612E+03 -0.11204258343E+03  0.48997303447E+03  0.12699999809E+01 0. -1.
       -4    1    3    3    0  502  0.51598004294E+02 -0.47418990612E+03  0.69769010901E+03  0.84515769074E+03  0.12699999809E+01 0.  1.
</event>
<event>
 5   0  0.1004006E-04  0.1199167E+04  0.7818609E-02  0.9113586E-01
        2   -1    0    0  501    0  0.00000000000E+00  0.00000000000E+00  0.20590965346E+04  0.20590965346E+04  0.25500000920E-02 0.  1.
       -2   -1    0    0    0  501  0.00000000000E+00  0.00000000000E+00 -0.17459124622E+03  0.17459124624E+03  0.25500000920E-02 0. -1.
    10030    2    1    2    0    0  0.00000000000E+00  0.00000000000E+00  0.18845052884E+04  0.22336877809E+04  0.11991667609E+04 0.  0.
        5    1    3    3  502    0  0.85745489891E+02 -0.41112502726E+03  0.14519541485E+03  0.44438707854E+03  0.46999998093E+01 0. -1.
       -5    1    3    3    0  502 -0.85745489891E+02  0.41112502726E+03  0.17393098736E+04  0.17893007023E+04  0.46999998093E+01 0.  1.
</event>
<event>
 5   0  0.5625746E-05  0.1199803E+04  0.7818609E-02  0.9113029E-01
        1   -1    0    0  501    0  0.00000000000E+00  0.00000000000E+00  0.45910640328E+03  0.45910640331E+03  0.50400001928E-02 0. -1.
       -1   -1    0    0    0  501  0.00000000000E+00  0.00000000000E+00 -0.78387479947E+03  0.78387479949E+03  0.50400001928E-02 0.  1.
    10030    2    1    2    0    0  0.00000000000E+00  0.00000000000E+00 -0.32476839619E+03  0.12429812028E+04  0.11998032169E+04 0.  0.
        5    1    3    3  502    0  0.13347024405E+03  0.18766324070E+03  0.41147067014E+03  0.47155275457E+03  0.46999998093E+01 0. -1.
       -5    1    3    3    0  502 -0.13347024405E+03 -0.18766324070E+03 -0.73623906633E+03  0.77142844823E+03  0.46999998093E+01 0.  1.
</event>
<event>
 5   0  0.5447807E-05  0.1197896E+04  0.7818609E-02  0.9114700E-01
        1   -1    0    0  501    0  0.00000000000E+00  0.00000000000E+00  0.93744013228E+03  0.93744013229E+03  0.50400001928E-02 0. -1.
       -1   -1    0    0    0  501  0.00000000000E+00  0.00000000000E+00 -0.38267887993E+03  0.38267887997E+03  0.50400001928E-02 0.  1.
    10030    2    1    2    0    0  0.00000000000E+00  0.00000000000E+00  0.55476125234E+03  0.13201190123E+04  0.11978957214E+04 0.  0.
        2    1    3    3  502    0 -0.38608742335E+03 -0.30310175359E+02  0.78089735428E+03  0.87165525474E+03  0.25500000920E-02 0. -1.
       -2    1    3    3    0  502  0.38608742335E+03  0.30310175359E+02 -0.22613610193E+03  0.44846375751E+03  0.25500000920E-02 0.  1.
</event>
<event>
 5   0  0.1012657E-04  0.1200397E+04  0.7818609E-02  0.9112509E-01
       -2   -1    0    0    0  501  0.00000000000E+00  0.00000000000E+00  0.16694919035E+03  0.16694919037E+03  0.25500000920E-02 0.  1.
        2   -1    0    0  501    0  0.00000000000E+00  0.00000000000E+00 -0.21577720607E+04  0.21577720607E+04  0.25500000920E-02 0. -1.
    10030    2    1    2    0    0  0.00000000000E+00  0.00000000000E+00 -0.19908228704E+04  0.23247212511E+04  0.12003970985E+04 0.  0.
        1    1    3    3  502    0 -0.11226299714E+03 -0.51318084870E+03 -0.43318649808E+03  0.68088773387E+03  0.50400001928E-02 0. -1.
       -1    1    3    3    0  502  0.11226299714E+03  0.51318084870E+03 -0.15576363723E+04  0.16438335172E+04  0.50400001928E-02 0.  1.
</event>
<event>
 5   0  0.5732931E-05  0.1200697E+04  0.7818609E-02  0.9112246E-01
        1   -1    0    0  501    0  0.00000000000E+00  0.00000000000E+00  0.77883504092E+03  0.77883504094E+03  0.50400001928E-02 0.  1.
       -1   -1    0    0    0  501  0.00000000000E+00  0.00000000000E+00 -0.46276619280E+03  0.46276619283E+03  0.50400001928E-02 0. -1.
    10030    2    1    2    0    0  0.00000000000E+00  0.00000000000E+00  0.31606884811E+03  0.12416012338E+04  0.12006973419E+04 0.  0.
        4    1    3    3  502    0  0.19505199665E+03  0.46560353787E+03 -0.17797360337E+03  0.53526456288E+03  0.12699999809E+01 0. -1.
       -4    1    3    3    0  502 -0.19505199665E+03 -0.46560353787E+03  0.49404245149E+03  0.70633667089E+03  0.12699999809E+01 0.  1.
</event>
<event>
 5   0  0.1023063E-04  0.1199783E+04  0.7818609E-02  0.9113047E-01
        2   -1    0    0  501    0  0.00000000000E+00  0.00000000000E+00  0.47935571605E+03  0.47935571606E+03  0.25500000920E-02 0. -1.
       -2   -1    0    0    0  501  0.00000000000E+00  0.00000000000E+00 -0.75073598883E+03  0.75073598884E+03  0.25500000920E-02 0.  1.
    10030    2    1    2    0    0  0.00000000000E+00  0.00000000000E+00 -0.27138027278E+03  0.12300917049E+04  0.11997826261E+04 0.  0.
        3    1    3    3  502    0  0.35875208239E+03 -0.33938025329E+03  0.21348284851E+03  0.53801203495E+03  0.10100000352E+00 0. -1.
       -3    1    3    3    0  502 -0.35875208239E+03  0.33938025329E+03 -0.48486312130E+03  0.69207966994E+03  0.10100000352E+00 0.  1.
</event>
<event>
 5   0  0.5625746E-05  0.1199737E+04  0.7818609E-02  0.9113087E-01
       -1   -1    0    0    0  501  0.00000000000E+00  0.00000000000E+00  0.24263327940E+03  0.24263327946E+03  0.50400001928E-02 0.  1.
        1   -1    0    0  501    0  0.00000000000E+00  0.00000000000E+00 -0.14830708105E+04  0.14830708105E+04  0.50400001928E-02 0. -1.
    10030    2    1    2    0    0  0.00000000000E+00  0.00000000000E+00 -0.12404375311E+04  0.17257040900E+04  0.11997371952E+04 0.  0.
        5    1    3    3  502    0  0.29794600031E+03 -0.47051114461E+03 -0.29965297265E+03  0.63242908719E+03  0.46999998093E+01 0.  1.
       -5    1    3    3    0  502 -0.29794600031E+03  0.47051114461E+03 -0.94078455848E+03  0.10932750028E+04  0.46999998093E+01 0. -1.
</event>
<event>
 5   0  0.5745487E-05  0.1199539E+04  0.7818609E-02  0.9113260E-01
       -1   -1    0    0    0  501  0.00000000000E+00  0.00000000000E+00  0.25836890007E+03  0.25836890012E+03  0.50400001928E-02 0. -1.
        1   -1    0    0  501    0  0.00000000000E+00  0.00000000000E+00 -0.13922858147E+04  0.13922858147E+04  0.50400001928E-02 0.  1.
    10030    2    1    2    0    0  0.00000000000E+00  0.00000000000E+00 -0.11339169146E+04  0.16506547148E+04  0.11995388357E+04 0.  0.
        3    1    3    3  502    0 -0.57884941289E+03  0.10472030191E+03 -0.72796716223E+03  0.93593225391E+03  0.10100000352E+00 0. -1.
       -3    1    3    3    0  502  0.57884941289E+03 -0.10472030191E+03 -0.40594975237E+03  0.71472246088E+03  0.10100000352E+00 0.  1.
</event>
<event>
 5   0  0.5625746E-05  0.1200185E+04  0.7818609E-02  0.9112695E-01
        1   -1    0    0  501    0  0.00000000000E+00  0.00000000000E+00  0.61949504358E+03  0.61949504360E+03  0.50400001928E-02 0. -1.
       -1   -1    0    0    0  501  0.00000000000E+00  0.00000000000E+00 -0.58129768126E+03  0.58129768128E+03  0.50400001928E-02 0.  1.
    10030    2    1    2    0    0  0.00000000000E+00  0.00000000000E+00  0.38197362322E+02  0.12007927249E+04  0.12001850397E+04 0.  0.
        5    1    3    3  502    0  0.31680345792E+03 -0.69356822916E+02  0.52424454855E+03  0.61646511379E+03  0.46999998093E+01 0. -1.
       -5    1    3    3    0  502 -0.31680345792E+03  0.69356822916E+02 -0.48604718623E+03  0.58432761108E+03  0.46999998093E+01 0.  1.
</event>
<event>
 5   0  0.9941209E-05  0.1200463E+04  0.7818609E-02  0.9112452E-01
        2   -1    0    0  501    0  0.00000000000E+00  0.00000000000E+00  0.97284879140E+03  0.97284879140E+03  0.25500000920E-02 0.  1.
       -2   -1    0    0    0  501  0.00000000000E+00  0.00000000000E+00 -0.37033263027E+03  0.37033263028E+03  0.25500000920E-02 0. -1.
    10030    2    1    2    0    0  0.00000000000E+00  0.00000000000E+00  0.60251616113E+03  0.13431814217E+04  0.12004626638E+04 0.  0.
        2    1    3    3  502    0 -0.54257050556E+02 -0.50026344159E+03 -0.64859476155E+02  0.50735992173E+03  0.25500000920E-02 0. -1.
       -2    1    3    3    0  502  0.54257050556E+02  0.50026344159E+03  0.66737563729E+03  0.83582149995E+03  0.25500000920E-02 0.  1.
</event>
<event>
 5   0  0.1004006E-04  0.1200182E+04  0.7818609E-02  0.9112697E-01
       -2   -1    0    0    0  501  0.00000000000E+00  0.00000000000E+00  0.17254870037E+03  0.17254870039E+03  0.25500000920E-02 0.  1.
        2   -1    0    0  501    0  0.00000000000E+00  0.00000000000E+00 -0.20870015295E+04  0.20870015295E+04  0.25500000920E-02 0. -1.
    10030    2    1    2    0    0  0.00000000000E+00  0.00000000000E+00 -0.19144528291E+04  0.22595502299E+04  0.12001823222E+04 0.  0.
        5    1    3    3  502    0 -0.25640636665E+03 -0.54235021633E+03 -0.98380676309E+03  0.11522958904E+04  0.46999998093E+01 0.  1.
       -5    1    3    3    0  502  0.25640636665E+03  0.54235021633E+03 -0.93064606600E+03  0.11072543394E+04  0.46999998093E+01 0. -1.
</event>
<event>
 5   0  0.5732931E-05  0.1199249E+04  0.7818609E-02  0.9113514E-01
       -1   -1    0    0    0  501  0.00000000000E+00  0.00000000000E+00  0.31896689248E+03  0.31896689252E+03  0.50400001928E-02 0. -1.
        1   -1    0    0  501    0  0.00000000000E+00  0.00000000000E+00 -0.11272309174E+04  0.11272309174E+04  0.50400001928E-02 0.  1.
    10030    2    1    2    0    0  0.00000000000E+00  0.00000000000E+00 -0.80826402487E+03  0.14461978099E+04  0.11992486696E+04 0.  0.
        4    1    3    3  502    0 -0.35580345856E+03 -0.24099895917E+03 -0.90841871097E+03  0.10049391856E+04  0.12699999809E+01 0.  1.
       -4    1    3    3    0  502  0.35580345856E+03  0.24099895917E+03  0.10015468610E+03  0.44125862427E+03  0.12699999809E+01 0. -1.
</event>
<event>
 5   0  0.9838215E-05  0.1199336E+04  0.7818609E-02  0.9113438E-01
        2   -1    0    0  501    0  0.00000000000E+00  0.00000000000E+00  0.14702566675E+04  0.14702566675E+04  0.25500000920E-02 0. -1.
       -2   -1    0    0    0  501  0.00000000000E+00  0.00000000000E+00 -0.24458428868E+03  0.24458428870E+03  0.25500000920E-02 0.  1.
    10030    2    1    2    0    0  0.00000000000E+00  0.00000000000E+00  0.12256723788E+04  0.17148409562E+04  0.11993359516E+04 0.  0.
        4    1    3    3  502    0  0.45096715275E+03 -0.26070922532E+03  0.18805676828E+03  0.55381191214E+03  0.12699999809E+01 0.  1.
       -4    1    3    3    0  502 -0.45096715275E+03  0.26070922532E+03  0.10376156106E+04  0.11610290441E+04  0.12699999809E+01 0. -1.
</event>
<event>
 5   0  0.5625746E-05  0.1199991E+04  0.7818609E-02  0.9112864E-01
        1   -1    0    0  501    0  0.00000000000E+00  0.00000000000E+00  0.13424928868E+04  0.13424928868E+04  0.50400001928E-02 0.  1.
       -1   -1    0    0    0  501  0.00000000000E+00  0.00000000000E+00 -0.26815388872E+03  0.26815388877E+03  0.50400001928E-02 0. -1.
    10030    2    1    2    0    0  0.00000000000E+00  0.00000000000E+00  0.10743389981E+04  0.16106467756E+04  0.11999911470E+04 0.  0.
        5    1    3    3  502    0 -0.29152962402E+03  0.30182795212E+03 -0.38393693756E+02  0.42140930231E+03  0.46999998093E+01 0. -1.
       -5    1    3    3    0  502  0.29152962402E+03 -0.30182795212E+03  0.11127326919E+04  0.11892374733E+04  0.46999998093E+01 0.  1.
</event>
<event>
 5   0  0.9941209E-05  0.1200146E+04  0.7818609E-02  0.9112729E-01
        2   -1    0    0  501    0  0.00000000000E+00  0.00000000000E+00  0.78333522492E+03  0.78333522492E+03  0.25500000920E-02 0. -1.
       -2   -1    0    0    0  501  0.00000000000E+00  0.00000000000E+00 -0.45968523504E+03  0.45968523504E+03  0.25500000920E-02 0.  1.
    10030    2    1    2    0    0  0.00000000000E+00  0.00000000000E+00  0.32364998988E+03  0.12430204600E+04  0.12001460528E+04 0.  0.
        2    1    3    3  502    0 -0.38459643433E+03 -0.67003245489E+02 -0.31017877878E+03  0.49861280270E+03  0.25500000920E-02 0.  1.
       -2    1    3    3    0  502  0.38459643433E+03  0.67003245489E+02  0.63382876866E+03  0.74440765726E+03  0.25500000920E-02 0. -1.
</event>
<event>
 5   0  0.1023063E-04  0.1200240E+04  0.7818609E-02  0.9112646E-01
       -2   -1    0    0    0  501  0.00000000000E+00  0.00000000000E+00  0.35352418740E+03  0.35352418741E+03  0.25500000920E-02 0.  1.
        2   -1    0    0  501    0  0.00000000000E+00  0.00000000000E+00 -0.10187254866E+04  0.10187254866E+04  0.25500000920E-02 0. -1.
    10030    2    1    2    0    0  0.00000000000E+00  0.00000000000E+00 -0.66520129923E+03  0.13722496740E+04  0.12002401424E+04 0.  0.
        3    1    3    3  502    0 -0.18015439623E+03 -0.31286557593E+03 -0.88067997028E+03  0.95180759365E+03  0.10100000352E+00 0. -1.
       -3    1    3    3    0  502  0.18015439623E+03  0.31286557593E+03  0.21547867104E+03  0.42044208039E+03  0.10100000352E+00 0.  1.
</event>
<event>
 5   0  0.5447807E-05  0.1199282E+04  0.7818609E-02  0.9113485E-01
        1   -1    0    0  501    0  0.00000000000E+00  0.00000000000E+00  0.89644268520E+03  0.89644268521E+03  0.50400001928E-02 0. -1.
       -1   -1    0    0    0  501  0.00000000000E+00  0.00000000000E+00 -0.40110706596E+03  0.40110706599E+03  0.50400001928E-02 0.  1.
    10030    2    1    2    0    0  0.00000000000E+00  0.00000000000E+00  0.49533561924E+03  0.12975497512E+04  0.11992822775E+04 0.  0.
        2    1    3    3  502    0  0.40978448212E+03 -0.12646071096E+03 -0.20578432883E+03  0.47567091902E+03  0.25500000920E-02 0.  1.
       -2    1    3    3    0  502 -0.40978448212E+03  0.12646071096E+03  0.70111994807E+03  0.82187883218E+03  0.25500000920E-02 0. -1.
</event>
<event>
 5   0  0.5625746E-05  0.1199493E+04  0.7818609E-02  0.9113300E-01
        1   -1    0    0  501    0  0.00000000000E+00  0.00000000000E+00  0.88911197544E+03  0.88911197546E+03  0.50400001928E-02 0. -1.
       -1   -1    0    0    0  501  0.00000000000E+00  0.00000000000E+00 -0.40455628280E+03  0.40455628283E+03  0.50400001928E-02 0.  1.
    10030    2    1    2    0    0  0.00000000000E+00  0.00000000000E+00  0.48455569265E+03  0.12936682583E+04  0.11994929526E+04 0.  0.
        5    1    3    3  502    0  0.82466893054E+02 -0.83129400729E+02  0.87664357151E+03  0.88444181673E+03  0.46999998093E+01 0. -1.
       -5    1    3    3    0  502 -0.82466893054E+02  0.83129400729E+02 -0.39208787886E+03  0.40922644155E+03  0.46999998093E+01 0.  1.
</event>
<event>
 5   0  0.1023063E-04  0.1201032E+04  0.7818609E-02  0.9111953E-01
       -2   -1    0    0    0  501  0.00000000000E+00  0.00000000000E+00  0.47173555572E+03  0.47173555572E+03  0.25500000920E-02 0. -1.
        2   -1    0    0  501    0  0.00000000000E+00  0.00000000000E+00 -0.76445314732E+03  0.76445314732E+03  0.25500000920E-02 0.  1.
    10030    2    1    2    0    0  0.00000000000E+00  0.00000000000E+00 -0.29271759160E+03  0.12361887030E+04  0.12010324397E+04 0.  0.
        3    1    3    3  502    0 -0.44051501738E+03 -0.35843972428E+03 -0.34723087570E+03  0.66565892747E+03  0.10100000352E+00 0.  1.
       -3    1    3    3    0  502  0.44051501738E+03  0.35843972428E+03  0.54513284096E+02  0.57052977558E+03  0.10100000352E+00 0. -1.
</event>
<event>
 5   0  0.1023063E-04  0.1200139E+04  0.7818609E-02  0.9112735E-01
        2   -1    0    0  501    0  0.00000000000E+00  0.00000000000E+00  0.10401815461E+04  0.10401815461E+04  0.25500000920E-02 0.  1.
       -2   -1    0    0    0  501  0.00000000000E+00  0.00000000000E+00 -0.34617383295E+03  0.34617383296E+03  0.25500000920E-02 0. -1.
    10030    2    1    2    0    0  0.00000000000E+00  0.00000000000E+00  0.69400771313E+03  0.13863553790E+04  0.12001393799E+04 0.  0.
        3    1    3    3  502    0 -0.51357122558E+03 -0.79155714320E+02  0.69367293476E+03  0.86671978255E+03  0.10100000352E+00 0.  1.
       -3    1    3    3    0  502  0.51357122558E+03  0.79155714320E+02  0.33477836838E+00  0.51963559648E+03  0.10100000352E+00 0. -1.
</event>
<event>
 5   0  0.9941209E-05  0.1203074E+04  0.7818609E-02  0.9110170E-01
       -2   -1    0    0    0  501  0.00000000000E+00  0.00000000000E+00  0.53231478797E+03  0.53231478798E+03  0.25500000920E-02 0.  1.
        2   -1    0    0  501    0  0.00000000000E+00  0.00000000000E+00 -0.67976071700E+03  0.67976071701E+03  0.25500000920E-02 0. -1.
    10030    2    1    2    0    0  0.00000000000E+00  0.00000000000E+00 -0.14744592903E+03  0.12120755050E+04  0.12030738663E+04 0.  0.
        2    1    3    3  502    0  0.29282793956E+03  0.91454272523E+02  0.44757931994E+03  0.54262264401E+03  0.25500000920E-02 0.  1.
       -2    1    3    3    0  502 -0.29282793956E+03 -0.91454272523E+02 -0.59502524897E+03  0.66945286098E+03  0.25500000920E-02 0. -1.
</event>
<event>
 5   0  0.5620246E-05  0.1199839E+04  0.7818609E-02  0.9112998E-01
        1   -1    0    0  501    0  0.00000000000E+00  0.00000000000E+00  0.94222369152E+03  0.94222369153E+03  0.50400001928E-02 0.  1.
       -1   -1    0    0    0  501  0.00000000000E+00  0.00000000000E+00 -0.38197213584E+03  0.38197213588E+03  0.50400001928E-02 0. -1.
    10030    2    1    2    0    0  0.00000000000E+00  0.00000000000E+00  0.56025155568E+03  0.13241958274E+04  0.11998386490E+04 0.  0.
        1    1    3    3  502    0  0.12609908093E+02 -0.35435950703E+03 -0.25394432307E+03  0.43613918564E+03  0.50400001928E-02 0. -1.
       -1    1    3    3    0  502 -0.12609908093E+02  0.35435950703E+03  0.81419587874E+03  0.88805664177E+03  0.50400001928E-02 0.  1.
</event>
<event>
 5   0  0.9838215E-05  0.1200461E+04  0.7818609E-02  0.9112453E-01
        2   -1    0    0  501    0  0.00000000000E+00  0.00000000000E+00  0.12263423550E+04  0.12263423550E+04  0.25500000920E-02 0.  1.
       -2   -1    0    0    0  501  0.00000000000E+00  0.00000000000E+00 -0.29378152731E+03  0.29378152732E+03  0.25500000920E-02 0. -1.
    10030    2    1    2    0    0  0.00000000000E+00  0.00000000000E+00  0.93256082773E+03  0.15201238824E+04  0.12004611282E+04 0.  0.
        4    1    3    3  502    0  0.31432472364E+03  0.33337566489E+03  0.95725839587E+03  0.10612655724E+04  0.12699999809E+01 0.  1.
       -4    1    3    3    0  502 -0.31432472364E+03 -0.33337566489E+03 -0.24697568142E+02  0.45885830994E+03  0.12699999809E+01 0. -1.
</event>
<event>
 5   0  0.1023063E-04  0.1200354E+04  0.7818609E-02  0.9112547E-01
       -2   -1    0    0    0  501  0.00000000000E+00  0.00000000000E+00  0.35374852238E+03  0.35374852239E+03  0.25500000920E-02 0.  1.
        2   -1    0    0  501    0  0.00000000000E+00  0.00000000000E+00 -0.10182719239E+04  0.10182719239E+04  0.25500000920E-02 0. -1.
    10030    2    1    2    0    0  0.00000000000E+00  0.00000000000E+00 -0.66452340152E+03  0.13720204463E+04  0.12003535953E+04 0.  0.
        3    1    3    3  502    0  0.34165438203E+03  0.28040074697E+03 -0.79635882668E+03  0.91079069313E+03  0.10100000352E+00 0. -1.
       -3    1    3    3    0  502 -0.34165438203E+03 -0.28040074697E+03  0.13183542516E+03  0.46122975315E+03  0.10100000352E+00 0.  1.
</event>
<event>
 5   0  0.5447807E-05  0.1198115E+04  0.7818609E-02  0.9114508E-01
       -1   -1    0    0    0  501  0.00000000000E+00  0.00000000000E+00  0.26164079791E+03  0.26164079796E+03  0.50400001928E-02 0.  1.
        1   -1    0    0  501    0  0.00000000000E+00  0.00000000000E+00 -0.13716119136E+04  0.13716119136E+04  0.50400001928E-02 0. -1.
    10030    2    1    2    0    0  0.00000000000E+00  0.00000000000E+00 -0.11099711157E+04  0.16332527115E+04  0.11981145780E+04 0.  0.
        2    1    3    3  502    0 -0.18223987345E+03  0.40713309139E+03 -0.11000909813E+04  0.11870841978E+04  0.25500000920E-02 0.  1.
       -2    1    3    3    0  502  0.18223987345E+03 -0.40713309139E+03 -0.98801343787E+01  0.44616851373E+03  0.25500000920E-02 0. -1.
</event>
<event>
 5   0  0.5620246E-05  0.1204275E+04  0.7818609E-02  0.9109123E-01
        1   -1    0    0  501    0  0.00000000000E+00  0.00000000000E+00  0.12776903675E+04  0.12776903675E+04  0.50400001928E-02 0.  1.
       -1   -1    0    0    0  501  0.00000000000E+00  0.00000000000E+00 -0.28376937451E+03  0.28376937455E+03  0.50400001928E-02 0. -1.
    10030    2    1    2    0    0  0.00000000000E+00  0.00000000000E+00  0.99392099298E+03  0.15614597420E+04  0.12042747136E+04 0.  0.
        1    1    3    3  502    0 -0.14417380900E+03 -0.46517774856E+03  0.37823994478E+02  0.48847423631E+03  0.50400001928E-02 0. -1.
       -1    1    3    3    0  502  0.14417380900E+03  0.46517774856E+03  0.95609699850E+03  0.10729855057E+04  0.50400001928E-02 0.  1.
</event>
<event>
 5   0  0.1012657E-04  0.1199610E+04  0.7818609E-02  0.9113198E-01
        2   -1    0    0  501    0  0.00000000000E+00  0.00000000000E+00  0.12573435926E+04  0.12573435926E+04  0.25500000920E-02 0. -1.
       -2   -1    0    0    0  501  0.00000000000E+00  0.00000000000E+00 -0.28613181814E+03  0.28613181815E+03  0.25500000920E-02 0.  1.
    10030    2    1    2    0    0  0.00000000000E+00  0.00000000000E+00  0.97121177442E+03  0.15434754107E+04  0.11996099502E+04 0.  0.
        1    1    3    3  502    0  0.35228139707E+03  0.22406603941E+03  0.10396989557E+04  0.11203935430E+04  0.50400001928E-02 0. -1.
       -1    1    3    3    0  502 -0.35228139707E+03 -0.22406603941E+03 -0.68487181278E+02  0.42308186769E+03  0.50400001928E-02 0.  1.
</event>
<event>
 5   0  0.5625746E-05  0.1199804E+04  0.7818609E-02  0.9113028E-01
        1   -1    0    0  501    0  0.00000000000E+00  0.00000000000E+00  0.14722229744E+04  0.14722229744E+04  0.50400001928E-02 0. -1.
       -1   -1    0    0    0  501  0.00000000000E+00  0.00000000000E+00 -0.24444823772E+03  0.24444823777E+03  0.50400001928E-02 0.  1.
    10030    2    1    2    0    0  0.00000000000E+00  0.00000000000E+00  0.12277747367E+04  0.17166712122E+04  0.11998038368E+04 0.  0.
        5    1    3    3  502    0 -0.12724068097E+03  0.46065777640E+03  0.11326647491E+04  0.12293686598E+04  0.46999998093E+01 0. -1.
       -5    1    3    3    0  502  0.12724068097E+03 -0.46065777640E+03  0.95109987637E+02  0.48730255243E+03  0.46999998093E+01 0.  1.
</event>
<event>
 5   0  0.5732931E-05  0.1200426E+04  0.7818609E-02  0.9112484E-01
       -1   -1    0    0    0  501  0.00000000000E+00  0.00000000000E+00  0.94976609054E+03  0.94976609055E+03  0.50400001928E-02 0.  1.
        1   -1    0    0  501    0  0.00000000000E+00  0.00000000000E+00 -0.37930957283E+03  0.37930957286E+03  0.50400001928E-02 0. -1.
    10030    2    1    2    0    0  0.00000000000E+00  0.00000000000E+00  0.57045651771E+03  0.13290756634E+04  0.12004255414E+04 0.  0.
        4    1    3    3  502    0 -0.52222797125E+03  0.29560140138E+03  0.27159995041E+03  0.65868838491E+03  0.12699999809E+01 0. -1.
       -4    1    3    3    0  502  0.52222797125E+03 -0.29560140138E+03  0.29885656730E+03  0.67038727850E+03  0.12699999809E+01 0.  1.
</event>
<event>
 5   0  0.1023063E-04  0.1199978E+04  0.7818609E-02  0.9112876E-01
        2   -1    0    0  501    0  0.00000000000E+00  0.00000000000E+00  0.76866541864E+03  0.76866541864E+03  0.25500000920E-02 0. -1.
       -2   -1    0    0    0  501  0.00000000000E+00  0.00000000000E+00 -0.46832696026E+03  0.46832696027E+03  0.25500000920E-02 0.  1.
    10030    2    1    2    0    0  0.00000000000E+00  0.00000000000E+00  0.30033845838E+03  0.12369923789E+04  0.11999778981E+04 0.  0.
        3    1    3    3  502    0  0.90258766036E+02  0.40952770907E+02  0.76016788206E+03  0.76660223937E+03  0.10100000352E+00 0. -1.
       -3    1    3    3    0  502 -0.90258766036E+02 -0.40952770907E+02 -0.45982942368E+03  0.47039013954E+03  0.10100000352E+00 0.  1.
</event>
<event>
 5   0  0.5732931E-05  0.1200242E+04  0.7818609E-02  0.9112645E-01
       -1   -1    0    0    0  501  0.00000000000E+00  0.00000000000E+00  0.69519673320E+03  0.69519673322E+03  0.50400001928E-02 0.  1.
        1   -1    0    0  501    0  0.00000000000E+00  0.00000000000E+00 -0.51804802661E+03  0.51804802663E+03  0.50400001928E-02 0. -1.
    10030    2    1    2    0    0  0.00000000000E+00  0.00000000000E+00  0.17714870659E+03  0.12132447598E+04  0.12002421352E+04 0.  0.
        4    1    3    3  502    0 -0.36400321057E+03 -0.34850353975E+03 -0.24082493057E+03  0.55852601963E+03  0.12699999809E+01 0. -1.
       -4    1    3    3    0  502  0.36400321057E+03  0.34850353975E+03  0.41797363717E+03  0.65471874021E+03  0.12699999809E+01 0.  1.
</event>
<event>
 5   0  0.5620246E-05  0.1198468E+04  0.7818609E-02  0.9114198E-01
        1   -1    0    0  501    0  0.00000000000E+00  0.00000000000E+00  0.49986035302E+03  0.49986035305E+03  0.50400001928E-02 0. -1.
       -1   -1    0    0    0  501  0.00000000000E+00  0.00000000000E+00 -0.71836397774E+03  0.71836397776E+03  0.50400001928E-02 0.  1.
    10030    2    1    2    0    0  0.00000000000E+00  0.00000000000E+00 -0.21850362472E+03  0.12182243308E+04  0.11984684752E+04 0.  0.
        1    1    3    3  502    0 -0.23918154993E+03 -0.45514435163E+03  0.20358346040E+03  0.55300128393E+03  0.50400001928E-02 0. -1.
       -1    1    3    3    0  502  0.23918154993E+03  0.45514435163E+03 -0.42208708512E+03  0.66522304688E+03  0.50400001928E-02 0.  1.
</event>
<event>
 5   0  0.5447807E-05  0.1199908E+04  0.7818609E-02  0.9112937E-01
        1   -1    0    0  501    0  0.00000000000E+00  0.00000000000E+00  0.16700610105E+04  0.16700610105E+04  0.50400001928E-02 0. -1.
       -1   -1    0    0    0  501  0.00000000000E+00  0.00000000000E+00 -0.21552782827E+03  0.21552782833E+03  0.50400001928E-02 0.  1.
    10030    2    1    2    0    0  0.00000000000E+00  0.00000000000E+00  0.14545331822E+04  0.18855888388E+04  0.11999077010E+04 0.  0.
        2    1    3    3  502    0 -0.44172082427E+03  0.27882013705E+02  0.90783043393E+02  0.45181440245E+03  0.25500000920E-02 0.  1.
       -2    1    3    3    0  502  0.44172082427E+03 -0.27882013705E+02  0.13637501388E+04  0.14337744364E+04  0.25500000920E-02 0. -1.
</event>
<event>
 5   0  0.1012657E-04  0.1200245E+04  0.7818609E-02  0.9112642E-01
        2   -1    0    0  501    0  0.00000000000E+00  0.00000000000E+00  0.11230768133E+04  0.11230768133E+04  0.25500000920E-02 0. -1.
       -2   -1    0    0    0  501  0.00000000000E+00  0.00000000000E+00 -0.32067889551E+03  0.32067889552E+03  0.25500000920E-02 0.  1.
    10030    2    1    2    0    0  0.00000000000E+00  0.00000000000E+00  0.80239791783E+03  0.14437557089E+04  0.12002450285E+04 0.  0.
        1    1    3    3  502    0 -0.51096859128E+03 -0.13034495842E+03  0.74579602635E+03  0.91339499802E+03  0.50400001928E-02 0. -1.
       -1    1    3    3    0  502  0.51096859128E+03  0.13034495842E+03  0.56601891473E+02  0.53036071084E+03  0.50400001928E-02 0.  1.
</event>
<event>
 5   0  0.5625746E-05  0.1199934E+04  0.7818609E-02  0.9112915E-01
       -1   -1    0    0    0  501  0.00000000000E+00  0.00000000000E+00  0.25847534254E+03  0.25847534258E+03  0.50400001928E-02 0. -1.
        1   -1    0    0  501    0  0.00000000000E+00  0.00000000000E+00 -0.13926290163E+04  0.13926290163E+04  0.50400001928E-02 0.  1.
    10030    2    1    2    0    0  0.00000000000E+00  0.00000000000E+00 -0.11341536737E+04  0.16511043589E+04  0.11999337683E+04 0.  0.
        5    1    3    3  502    0  0.19099733709E+03 -0.45868308198E+03 -0.10297636706E+04  0.11433745929E+04  0.46999998093E+01 0.  1.
       -5    1    3    3    0  502 -0.19099733709E+03  0.45868308198E+03 -0.10439000315E+03  0.50772976594E+03  0.46999998093E+01 0. -1.
</event>
<event>
 5   0  0.1023063E-04  0.1200762E+04  0.7818609E-02  0.9112190E-01
        2   -1    0    0  501    0  0.00000000000E+00  0.00000000000E+00  0.75529998588E+03  0.75529998588E+03  0.25500000920E-02 0. -1.
       -2   -1    0    0    0  501  0.00000000000E+00  0.00000000000E+00 -0.47723741994E+03  0.47723741994E+03  0.25500000920E-02 0.  1.
    10030    2    1    2    0    0  0.00000000000E+00  0.00000000000E+00  0.27806256594E+03  0.12325374058E+04  0.12007621189E+04 0.  0.
        3    1    3    3  502    0 -0.14420106874E+03 -0.57919397358E+03  0.72526335628E+02  0.60126507201E+03  0.10100000352E+00 0.  1.
       -3    1    3    3    0  502  0.14420106874E+03  0.57919397358E+03  0.20553623031E+03  0.63127233381E+03  0.10100000352E+00 0. -1.
</event>
<event>
 5   0  0.9941209E-05  0.1200318E+04  0.7818609E-02  0.9112578E-01
        2   -1    0    0  501    0  0.00000000000E+00  0.00000000000E+00  0.74026635630E+03  0.74026635631E+03  0.25500000920E-02 0.  1.
       -2   -1    0    0    0  501  0.00000000000E+00  0.00000000000E+00 -0.48656919457E+03  0.48656919457E+03  0.25500000920E-02 0. -1.
    10030    2    1    2    0    0  0.00000000000E+00  0.00000000000E+00  0.25369716174E+03  0.12268355509E+04  0.12003179658E+04 0.  0.
        2    1    3    3  502    0 -0.29114344721E+03 -0.32883032377E+03 -0.29120698853E+03  0.52696811939E+03  0.25500000920E-02 0. -1.
       -2    1    3    3    0  502  0.29114344721E+03  0.32883032377E+03  0.54490415027E+03  0.69986743149E+03  0.25500000920E-02 0.  1.
</event>
<event>
 5   0  0.9838215E-05  0.1200536E+04  0.7818609E-02  0.9112387E-01
        2   -1    0    0  501    0  0.00000000000E+00  0.00000000000E+00  0.27996664346E+03  0.27996664347E+03  0.25500000920E-02 0. -1.
       -2   -1    0    0    0  501  0.00000000000E+00  0.00000000000E+00 -0.12870172329E+04  0.12870172329E+04  0.25500000920E-02 0.  1.
    10030    2    1    2    0    0  0.00000000000E+00  0.00000000000E+00 -0.10070505895E+04  0.15669838764E+04  0.12005363715E+04 0.  0.
        4    1    3    3  502    0  0.29701417646E+03 -0.41547505642E+03 -0.91840922684E+02  0.51891551480E+03  0.12699999809E+01 0.  1.
       -4    1    3    3    0  502 -0.29701417646E+03  0.41547505642E+03 -0.91520966680E+03  0.10480683616E+04  0.12699999809E+01 0. -1.
</event>
<event>
 5   0  0.1023063E-04  0.1200145E+04  0.7818609E-02  0.9112730E-01
        2   -1    0    0  501    0  0.00000000000E+00  0.00000000000E+00  0.12536307267E+04  0.12536307267E+04  0.25500000920E-02 0. -1.
       -2   -1    0    0    0  501  0.00000000000E+00  0.00000000000E+00 -0.28723513843E+03  0.28723513844E+03  0.25500000920E-02 0.  1.
    10030    2    1    2    0    0  0.00000000000E+00  0.00000000000E+00  0.96639558826E+03  0.15408658651E+04  0.12001446502E+04 0.  0.
        3    1    3    3  502    0  0.26456706631E+03  0.53831622024E+03  0.46071305621E+03  0.75633102271E+03  0.10100000352E+00 0.  1.
       -3    1    3    3    0  502 -0.26456706631E+03 -0.53831622024E+03  0.50568253204E+03  0.78453484242E+03  0.10100000352E+00 0. -1.
</event>
<event>
 5   0  0.5620246E-05  0.1199922E+04  0.7818609E-02  0.9112925E-01
        1   -1    0    0  501    0  0.00000000000E+00  0.00000000000E+00  0.13906851303E+04  0.13906851303E+04  0.50400001928E-02 0. -1.
       -1   -1    0    0    0  501  0.00000000000E+00  0.00000000000E+00 -0.25883155932E+03  0.25883155937E+03  0.50400001928E-02 0.  1.
    10030    2    1    2    0    0  0.00000000000E+00  0.00000000000E+00  0.11318535709E+04  0.16495166896E+04  0.11999219989E+04 0.  0.
        1    1    3    3  502    0 -0.48690536757E+03 -0.11454485888E+03  0.10213524658E+04  0.11372590826E+04  0.50400001928E-02 0. -1.
       -1    1    3    3    0  502  0.48690536757E+03  0.11454485888E+03  0.11050110515E+03  0.51225760700E+03  0.50400001928E-02 0.  1.
</event>
<event>
 5   0  0.5625746E-05  0.1199773E+04  0.7818609E-02  0.9113055E-01
       -1   -1    0    0    0  501  0.00000000000E+00  0.00000000000E+00  0.55441309753E+03  0.55441309755E+03  0.50400001928E-02 0. -1.
        1   -1    0    0  501    0  0.00000000000E+00  0.00000000000E+00 -0.64908962489E+03  0.64908962491E+03  0.50400001928E-02 0.  1.
    10030    2    1    2    0    0  0.00000000000E+00  0.00000000000E+00 -0.94676527357E+02  0.12035027225E+04  0.11997729611E+04 0.  0.
        5    1    3    3  502    0 -0.62812774356E+01  0.59882902740E+03 -0.82174325202E+02  0.60449182643E+03  0.46999998093E+01 0.  1.
       -5    1    3    3    0  502  0.62812774356E+01 -0.59882902740E+03 -0.12502202155E+02  0.59901089603E+03  0.46999998093E+01 0. -1.
</event>
<event>
 5   0  0.3839750E-05  0.1200113E+04  0.7818609E-02  0.9112758E-01
       -3   -1    0    0    0  501  0.00000000000E+00  0.00000000000E+00  0.31864933721E+03  0.31864935322E+03  0.10100000352E+00 0. -1.
        3   -1    0    0  501    0  0.00000000000E+00  0.00000000000E+00 -0.11299807277E+04  0.11299807322E+04  0.10100000352E+00 0.  1.
    10030    2    1    2    0    0  0.00000000000E+00  0.00000000000E+00 -0.81133139051E+03  0.14486300854E+04  0.12001127027E+04 0.  0.
        4    1    3    3  502    0  0.27373070317E+03 -0.52099369100E+03 -0.26436487235E+03  0.64517696995E+03  0.12699999809E+01 0.  1.
       -4    1    3    3    0  502 -0.27373070317E+03  0.52099369100E+03 -0.54696651815E+03  0.80345311550E+03  0.12699999809E+01 0. -1.
</event>
<event>
 5   0  0.9838215E-05  0.1200143E+04  0.7818609E-02  0.9112731E-01
       -2   -1    0    0    0  501  0.00000000000E+00  0.00000000000E+00  0.30973723710E+03  0.30973723711E+03  0.25500000920E-02 0.  1.
        2   -1    0    0  501    0  0.00000000000E+00  0.00000000000E+00 -0.11625532734E+04  0.11625532734E+04  0.25500000920E-02 0. -1.
    10030    2    1    2    0    0  0.00000000000E+00  0.00000000000E+00 -0.85281603625E+03  0.14722905105E+04  0.12001433896E+04 0.  0.
        4    1    3    3  502    0  0.34679242721E+03 -0.47332755906E+03 -0.58051425241E+03  0.82541042875E+03  0.12699999809E+01 0. -1.
       -4    1    3    3    0  502 -0.34679242721E+03  0.47332755906E+03 -0.27230178384E+03  0.64688008171E+03  0.12699999809E+01 0.  1.
</event>
<event>
 5   0  0.9941209E-05  0.1201274E+04  0.7818609E-02  0.9111742E-01
       -2   -1    0    0    0  501  0.00000000000E+00  0.00000000000E+00  0.11331305674E+04  0.11331305674E+04  0.25500000920E-02 0.  1.
        2   -1    0    0  501    0  0.00000000000E+00  0.00000000000E+00 -0.31837892484E+03  0.31837892485E+03  0.25500000920E-02 0. -1.
    10030    2    1    2    0    0  0.00000000000E+00  0.00000000000E+00  0.81475164257E+03  0.14515094923E+04  0.12012741432E+04 0.  0.
        2    1    3    3  502    0  0.20911658600E+03  0.54866513188E+03  0.25452736346E+03  0.63995886761E+03  0.25500000920E-02 0.  1.
       -2    1    3    3    0  502 -0.20911658600E+03 -0.54866513188E+03  0.56022427911E+03  0.81155062466E+03  0.25500000920E-02 0. -1.
</event>
<event>
 5   0  0.5447807E-05  0.1199936E+04  0.7818609E-02  0.9112913E-01
        1   -1    0    0  501    0  0.00000000000E+00  0.00000000000E+00  0.84863405656E+03  0.84863405658E+03  0.50400001928E-02 0.  1.
       -1   -1    0    0    0  501  0.00000000000E+00  0.00000000000E+00 -0.42416569295E+03  0.42416569298E+03  0.50400001928E-02 0. -1.
    10030    2    1    2    0    0  0.00000000000E+00  0.00000000000E+00  0.42446836361E+03  0.12727997496E+04  0.11999357528E+04 0.  0.
        2    1    3    3  502    0 -0.75150423093E+02 -0.31111608732E+03  0.75051402206E+03  0.81591182317E+03  0.25500000920E-02 0.  1.
       -2    1    3    3    0  502  0.75150423093E+02  0.31111608732E+03 -0.32604565845E+03  0.45688792639E+03  0.25500000920E-02 0. -1.
</event>
<event>
 5   0  0.3839750E-05  0.1200602E+04  0.7818609E-02  0.9112330E-01
       -4   -1    0    0    0  501  0.00000000000E+00  0.00000000000E+00  0.83318227108E+03  0.83318323899E+03  0.12699999809E+01 0.  1.
        4   -1    0    0  501    0  0.00000000000E+00  0.00000000000E+00 -0.43250944722E+03  0.43251131180E+03  0.12699999809E+01 0. -1.
    10030    2    1    2    0    0  0.00000000000E+00  0.00000000000E+00  0.40067282386E+03  0.12656945508E+04  0.12006015093E+04 0.  0.
        1    1    3    3  502    0 -0.58889101772E+03  0.98946239425E+02  0.26513438223E+03  0.65335995417E+03  0.50400001928E-02 0. -1.
       -1    1    3    3    0  502  0.58889101772E+03 -0.98946239425E+02  0.13553844163E+03  0.61233459663E+03  0.50400001928E-02 0.  1.
</event>
<event>
 5   0  0.1012657E-04  0.1199482E+04  0.7818609E-02  0.9113310E-01
        2   -1    0    0  501    0  0.00000000000E+00  0.00000000000E+00  0.18538103698E+04  0.18538103698E+04  0.25500000920E-02 0. -1.
       -2   -1    0    0    0  501  0.00000000000E+00  0.00000000000E+00 -0.19402694793E+03  0.19402694794E+03  0.25500000920E-02 0.  1.
    10030    2    1    2    0    0  0.00000000000E+00  0.00000000000E+00  0.16597834219E+04  0.20478373178E+04  0.11994818350E+04 0.  0.
        1    1    3    3  502    0  0.15428204178E+03  0.57315199086E+03  0.68319558188E+03  0.90502063853E+03  0.50400001928E-02 0. -1.
       -1    1    3    3    0  502 -0.15428204178E+03 -0.57315199086E+03  0.97658784000E+03  0.11428166792E+04  0.50400001928E-02 0.  1.
</event>
<event>
 5   0  0.5732931E-05  0.1197548E+04  0.7818609E-02  0.9115005E-01
        1   -1    0    0  501    0  0.00000000000E+00  0.00000000000E+00  0.25739986199E+03  0.25739986204E+03  0.50400001928E-02 0.  1.
       -1   -1    0    0    0  501  0.00000000000E+00  0.00000000000E+00 -0.13928930480E+04  0.13928930480E+04  0.50400001928E-02 0. -1.
    10030    2    1    2    0    0  0.00000000000E+00  0.00000000000E+00 -0.11354931860E+04  0.16502929100E+04  0.11975482927E+04 0.  0.
        4    1    3    3  502    0 -0.12980651914E+03  0.41253643963E+03  0.29311929192E+01  0.43248844057E+03  0.12699999809E+01 0.  1.
       -4    1    3    3    0  502  0.12980651914E+03 -0.41253643963E+03 -0.11384243789E+04  0.12178044694E+04  0.12699999809E+01 0. -1.
</event>
<event>
 5   0  0.5625746E-05  0.1199953E+04  0.7818609E-02  0.9112898E-01
       -1   -1    0    0    0  501  0.00000000000E+00  0.00000000000E+00  0.71707004467E+03  0.71707004469E+03  0.50400001928E-02 0. -1.
        1   -1    0    0  501    0  0.00000000000E+00  0.00000000000E+00 -0.50200365228E+03  0.50200365230E+03  0.50400001928E-02 0.  1.
    10030    2    1    2    0    0  0.00000000000E+00  0.00000000000E+00  0.21506639239E+03  0.12190736970E+04  0.11999529681E+04 0.  0.
        5    1    3    3  502    0  0.43753291971E+03  0.12972502174E+03 -0.28814176085E+03  0.53973271296E+03  0.46999998093E+01 0.  1.
       -5    1    3    3    0  502 -0.43753291971E+03 -0.12972502174E+03  0.50320815324E+03  0.67934098403E+03  0.46999998093E+01 0. -1.
</event>
<event>
 5   0  0.5620246E-05  0.1199893E+04  0.7818609E-02  0.9112950E-01
        1   -1    0    0  501    0  0.00000000000E+00  0.00000000000E+00  0.52916111949E+03  0.52916111952E+03  0.50400001928E-02 0.  1.
       -1   -1    0    0    0  501  0.00000000000E+00  0.00000000000E+00 -0.68020130130E+03  0.68020130131E+03  0.50400001928E-02 0. -1.
    10030    2    1    2    0    0  0.00000000000E+00  0.00000000000E+00 -0.15104018180E+03  0.12093624208E+04  0.11998934654E+04 0.  0.
        1    1    3    3  502    0 -0.55168108327E+02 -0.35952331456E+03  0.40535670697E+03  0.54462335040E+03  0.50400001928E-02 0.  1.
       -1    1    3    3    0  502  0.55168108327E+02  0.35952331456E+03 -0.55639688878E+03  0.66473907043E+03  0.50400001928E-02 0. -1.
</event>
<event>
 5   0  0.5745487E-05  0.1200022E+04  0.7818609E-02  0.9112838E-01
        1   -1    0    0  501    0  0.00000000000E+00  0.00000000000E+00  0.84620139159E+03  0.84620139160E+03  0.50400001928E-02 0.  1.
       -1   -1    0    0    0  501  0.00000000000E+00  0.00000000000E+00 -0.42544603255E+03  0.42544603258E+03  0.50400001928E-02 0. -1.
    10030    2    1    2    0    0  0.00000000000E+00  0.00000000000E+00  0.42075535904E+03  0.12716474242E+04  0.12000217078E+04 0.  0.
        3    1    3    3  502    0 -0.44831577214E+03  0.38859300756E+03  0.30528599347E+03  0.66722642715E+03  0.10100000352E+00 0. -1.
       -3    1    3    3    0  502  0.44831577214E+03 -0.38859300756E+03  0.11546936557E+03  0.60442099704E+03  0.10100000352E+00 0.  1.
</event>
<event>
 5   0  0.1023063E-04  0.1199767E+04  0.7818609E-02  0.9113061E-01
        2   -1    0    0  501    0  0.00000000000E+00  0.00000000000E+00  0.16479293132E+04  0.16479293132E+04  0.25500000920E-02 0. -1.
       -2   -1    0    0    0  501  0.00000000000E+00  0.00000000000E+00 -0.21837098527E+03  0.21837098529E+03  0.25500000920E-02 0.  1.
    10030    2    1    2    0    0  0.00000000000E+00  0.00000000000E+00  0.14295583280E+04  0.18663002985E+04  0.11997665570E+04 0.  0.
        3    1    3    3  502    0  0.46593465105E+03 -0.32912503875E+03  0.42609291251E+03  0.71202076548E+03  0.10100000352E+00 0. -1.
       -3    1    3    3    0  502 -0.46593465105E+03  0.32912503875E+03  0.10034654154E+04  0.11542795330E+04  0.10100000352E+00 0.  1.
</event>
<event>
 5   0  0.1012657E-04  0.1200040E+04  0.7818609E-02  0.9112822E-01
       -2   -1    0    0    0  501  0.00000000000E+00  0.00000000000E+00  0.29993693585E+03  0.29993693586E+03  0.25500000920E-02 0. -1.
        2   -1    0    0  501    0  0.00000000000E+00  0.00000000000E+00 -0.12003315824E+04  0.12003315824E+04  0.25500000920E-02 0.  1.
    10030    2    1    2    0    0  0.00000000000E+00  0.00000000000E+00 -0.90039464655E+03  0.15002685183E+04  0.12000396274E+04 0.  0.
        1    1    3    3  502    0  0.23646966814E+03  0.27884380718E+03  0.14459530951E+03  0.39316609253E+03  0.50400001928E-02 0. -1.
       -1    1    3    3    0  502 -0.23646966814E+03 -0.27884380718E+03 -0.10449899561E+04  0.11071024257E+04  0.50400001928E-02 0.  1.
</event>
<event>
 5   0  0.3839750E-05  0.1199965E+04  0.7818609E-02  0.9112888E-01
        3   -1    0    0  501    0  0.00000000000E+00  0.00000000000E+00  0.34773724953E+03  0.34773726420E+03  0.10100000352E+00 0.  1.
       -3   -1    0    0    0  501  0.00000000000E+00  0.00000000000E+00 -0.10352032051E+04  0.10352032100E+04  0.10100000352E+00 0. -1.
    10030    2    1    2    0    0  0.00000000000E+00  0.00000000000E+00 -0.68746595557E+03  0.13829404742E+04  0.11999645475E+04 0.  0.
        2    1    3    3  502    0 -0.34150768104E+03  0.40098756317E+03 -0.67487969801E+03  0.85608476731E+03  0.25500000920E-02 0. -1.
       -2    1    3    3    0  502  0.34150768104E+03 -0.40098756317E+03 -0.12586257558E+02  0.52685570692E+03  0.25500000920E-02 0.  1.
</event>
<event>
 5   0  0.9838215E-05  0.1199473E+04  0.7818609E-02  0.9113318E-01
       -2   -1    0    0    0  501  0.00000000000E+00  0.00000000000E+00  0.55718048645E+03  0.55718048646E+03  0.25500000920E-02 0. -1.
        2   -1    0    0  501    0  0.00000000000E+00  0.00000000000E+00 -0.64554307835E+03  0.64554307836E+03  0.25500000920E-02 0.  1.
    10030    2    1    2    0    0  0.00000000000E+00  0.00000000000E+00 -0.88362591896E+02  0.12027235648E+04  0.11994732284E+04 0.  0.
        4    1    3    3  502    0 -0.48431435950E+03 -0.18582767773E+03  0.25761614709E+03  0.57918910277E+03  0.12699999809E+01 0.  1.
       -4    1    3    3    0  502  0.48431435950E+03  0.18582767773E+03 -0.34597873898E+03  0.62353446204E+03  0.12699999809E+01 0. -1.
</event>
<event>
 5   0  0.5447807E-05  0.1199335E+04  0.7818609E-02  0.9113438E-01
       -1   -1    0    0    0  501  0.00000000000E+00  0.00000000000E+00  0.73783187910E+03  0.73783187912E+03  0.50400001928E-02 0.  1.
        1   -1    0    0  501    0  0.00000000000E+00  0.00000000000E+00 -0.48737578946E+03  0.48737578949E+03  0.50400001928E-02 0. -1.
    10030    2    1    2    0    0  0.00000000000E+00  0.00000000000E+00  0.25045608964E+03  0.12252076686E+04  0.11993354737E+04 0.  0.
        2    1    3    3  502    0  0.70193844546E+02  0.18992451873E+03  0.70185360110E+03  0.73047722484E+03  0.25500000920E-02 0.  1.
       -2    1    3    3    0  502 -0.70193844546E+02 -0.18992451873E+03 -0.45139751146E+03  0.49473044377E+03  0.25500000920E-02 0. -1.
</event>
<event>
 5   0  0.1004006E-04  0.1201076E+04  0.7818609E-02  0.9111915E-01
       -2   -1    0    0    0  501  0.00000000000E+00  0.00000000000E+00  0.24141288909E+03  0.24141288911E+03  0.25500000920E-02 0.  1.
        2   -1    0    0  501    0  0.00000000000E+00  0.00000000000E+00 -0.14938974118E+04  0.14938974118E+04  0.25500000920E-02 0. -1.
    10030    2    1    2    0    0  0.00000000000E+00  0.00000000000E+00 -0.12524845228E+04  0.17353103010E+04  0.12010763343E+04 0.  0.
        5    1    3    3  502    0  0.35397085136E+03  0.13089308257E+03 -0.13011269366E+04  0.13547626205E+04  0.46999998093E+01 0. -1.
       -5    1    3    3    0  502 -0.35397085136E+03 -0.13089308257E+03  0.48642413875E+02  0.38054768046E+03  0.46999998093E+01 0.  1.
</event>
<event>
 5   0  0.1004006E-04  0.1200183E+04  0.7818609E-02  0.9112696E-01
       -2   -1    0    0    0  501  0.00000000000E+00  0.00000000000E+00  0.62117052699E+03  0.62117052699E+03  0.25500000920E-02 0. -1.
        2   -1    0    0  501    0  0.00000000000E+00  0.00000000000E+00 -0.57972768810E+03  0.57972768811E+03  0.25500000920E-02 0.  1.
    10030    2    1    2    0    0  0.00000000000E+00  0.00000000000E+00  0.41442838884E+02  0.12008982151E+04  0.12001829086E+04 0.  0.
        5    1    3    3  502    0 -0.14173369944E+03 -0.44636863166E+03  0.39611733729E+03  0.61340397112E+03  0.46999998093E+01 0. -1.
       -5    1    3    3    0  502  0.14173369944E+03  0.44636863166E+03 -0.35467449841E+03  0.58749424398E+03  0.46999998093E+01 0.  1.
</event>
<event>
 5   0  0.1023063E-04  0.1200722E+04  0.7818609E-02  0.9112225E-01
       -2   -1    0    0    0  501  0.00000000000E+00  0.00000000000E+00  0.20888092543E+03  0.20888092545E+03  0.25500000920E-02 0. -1.
        2   -1    0    0  501    0  0.00000000000E+00  0.00000000000E+00 -0.17255442053E+04  0.17255442053E+04  0.25500000920E-02 0.  1.
    10030    2    1    2    0    0  0.00000000000E+00  0.00000000000E+00 -0.15166632799E+04  0.19344251308E+04  0.12007219004E+04 0.  0.
        3    1    3    3  502    0 -0.19158971191E+03  0.28678906226E+02  0.15714299476E+03  0.24944544168E+03  0.10100000352E+00 0. -1.
       -3    1    3    3    0  502  0.19158971191E+03 -0.28678906226E+02 -0.16738062747E+04  0.16849796891E+04  0.10100000352E+00 0.  1.
</event>
<event>
 5   0  0.1004006E-04  0.1198365E+04  0.7818609E-02  0.9114289E-01
       -2   -1    0    0    0  501  0.00000000000E+00  0.00000000000E+00  0.19134689488E+03  0.19134689490E+03  0.25500000920E-02 0.  1.
        2   -1    0    0  501    0  0.00000000000E+00  0.00000000000E+00 -0.18762771875E+04  0.18762771875E+04  0.25500000920E-02 0. -1.
    10030    2    1    2    0    0  0.00000000000E+00  0.00000000000E+00 -0.16849302926E+04  0.20676240824E+04  0.11983652428E+04 0.  0.
        5    1    3    3  502    0 -0.53612366406E+03 -0.24993174978E+03 -0.67784579867E+03  0.89966186953E+03  0.46999998093E+01 0.  1.
       -5    1    3    3    0  502  0.53612366406E+03  0.24993174978E+03 -0.10070844939E+04  0.11679622128E+04  0.46999998093E+01 0. -1.
</event>
<event>
 5   0  0.9941209E-05  0.1200264E+04  0.7818609E-02  0.9112625E-01
       -2   -1    0    0    0  501  0.00000000000E+00  0.00000000000E+00  0.28711690566E+03  0.28711690567E+03  0.25500000920E-02 0. -1.
        2   -1    0    0  501    0  0.00000000000E+00  0.00000000000E+00 -0.12543971990E+04  0.12543971990E+04  0.25500000920E-02 0.  1.
    10030    2    1    2    0    0  0.00000000000E+00  0.00000000000E+00 -0.96728029332E+03  0.15415141047E+04  0.12002643746E+04 0.  0.
        2    1    3    3  502    0  0.59135314236E+03 -0.68818639913E+02 -0.58080833816E+03  0.83172884396E+03  0.25500000920E-02 0. -1.
       -2    1    3    3    0  502 -0.59135314236E+03  0.68818639913E+02 -0.38647195515E+03  0.70978526070E+03  0.25500000920E-02 0.  1.
</event>
<event>
 5   0  0.1004006E-04  0.1199890E+04  0.7818609E-02  0.9112953E-01
        2   -1    0    0  501    0  0.00000000000E+00  0.00000000000E+00  0.11911251336E+04  0.11911251336E+04  0.25500000920E-02 0.  1.
       -2   -1    0    0    0  501  0.00000000000E+00  0.00000000000E+00 -0.30217976044E+03  0.30217976045E+03  0.25500000920E-02 0. -1.
    10030    2    1    2    0    0  0.00000000000E+00  0.00000000000E+00  0.88894537312E+03  0.14933048940E+04  0.11998898408E+04 0.  0.
        5    1    3    3  502    0 -0.31372505085E+03  0.10474673442E+03  0.10673826928E+04  0.11174628355E+04  0.46999998093E+01 0.  1.
       -5    1    3    3    0  502  0.31372505085E+03 -0.10474673442E+03 -0.17843731965E+03  0.37584205851E+03  0.46999998093E+01 0. -1.
</event>
<event>
 5   0  0.9941209E-05  0.1199437E+04  0.7818609E-02  0.9113350E-01
        2   -1    0    0  501    0  0.00000000000E+00  0.00000000000E+00  0.95040887712E+03  0.95040887712E+03  0.25500000920E-02 0.  1.
       -2   -1    0    0    0  501  0.00000000000E+00  0.00000000000E+00 -0.37842877027E+03  0.37842877028E+03  0.25500000920E-02 0. -1.
    10030    2    1    2    0    0  0.00000000000E+00  0.00000000000E+00  0.57198010685E+03  0.13288376474E+04  0.11994366388E+04 0.  0.
        2    1    3    3  502    0  0.96829184637E+02 -0.22001585157E+03 -0.32272102445E+03  0.40240741242E+03  0.25500000920E-02 0. -1.
       -2    1    3    3    0  502 -0.96829184637E+02  0.22001585157E+03  0.89470113130E+03  0.92643023499E+03  0.25500000920E-02 0.  1.
</event>
<event>
 5   0  0.9838215E-05  0.1200036E+04  0.7818609E-02  0.9112825E-01
        2   -1    0    0  501    0  0.00000000000E+00  0.00000000000E+00  0.11662014030E+04  0.11662014030E+04  0.25500000920E-02 0. -1.
       -2   -1    0    0    0  501  0.00000000000E+00  0.00000000000E+00 -0.30871297188E+03  0.30871297189E+03  0.25500000920E-02 0.  1.
    10030    2    1    2    0    0  0.00000000000E+00  0.00000000000E+00  0.85748843111E+03  0.14749143749E+04  0.12000358344E+04 0.  0.
        4    1    3    3  502    0  0.22419932330E+03 -0.14809108170E+03 -0.23063580124E+03  0.35410562091E+03  0.12699999809E+01 0.  1.
       -4    1    3    3    0  502 -0.22419932330E+03  0.14809108170E+03  0.10881242323E+04  0.11208087540E+04  0.12699999809E+01 0. -1.
</event>
<event>
 5   0  0.1012657E-04  0.1200463E+04  0.7818609E-02  0.9112451E-01
        2   -1    0    0  501    0  0.00000000000E+00  0.00000000000E+00  0.12744019870E+04  0.12744019870E+04  0.25500000920E-02 0.  1.
       -2   -1    0    0    0  501  0.00000000000E+00  0.00000000000E+00 -0.28270344321E+03  0.28270344323E+03  0.25500000920E-02 0. -1.
    10030    2    1    2    0    0  0.00000000000E+00  0.00000000000E+00  0.99169854377E+03  0.15571054302E+04  0.12004629603E+04 0.  0.
        1    1    3    3  502    0 -0.39430897585E+03 -0.43631094094E+03  0.34003119822E+03  0.67931437597E+03  0.50400001928E-02 0. -1.
       -1    1    3    3    0  502  0.39430897585E+03  0.43631094094E+03  0.65166734555E+03  0.87779105424E+03  0.50400001928E-02 0.  1.
</event>
<event>
 5   0  0.5620246E-05  0.1199885E+04  0.7818609E-02  0.9112957E-01
       -1   -1    0    0    0  501  0.00000000000E+00  0.00000000000E+00  0.36033077375E+03  0.36033077378E+03  0.50400001928E-02 0.  1.
        1   -1    0    0  501    0  0.00000000000E+00  0.00000000000E+00 -0.99889091142E+03  0.99889091143E+03  0.50400001928E-02 0. -1.
    10030    2    1    2    0    0  0.00000000000E+00  0.00000000000E+00 -0.63856013767E+03  0.13592216852E+04  0.11998852196E+04 0.  0.
        1    1    3    3  502    0 -0.17802780617E+03 -0.24156679570E+03 -0.90776877024E+03  0.95608187766E+03  0.50400001928E-02 0. -1.
       -1    1    3    3    0  502  0.17802780617E+03  0.24156679570E+03  0.26920863256E+03  0.40313980755E+03  0.50400001928E-02 0.  1.
</event>
<event>
 5   0  0.5625746E-05  0.1198724E+04  0.7818609E-02  0.9113974E-01
        1   -1    0    0  501    0  0.00000000000E+00  0.00000000000E+00  0.10438845510E+04  0.10438845510E+04  0.50400001928E-02 0. -1.
       -1   -1    0    0    0  501  0.00000000000E+00  0.00000000000E+00 -0.34413255230E+03  0.34413255234E+03  0.50400001928E-02 0.  1.
    10030    2    1    2    0    0  0.00000000000E+00  0.00000000000E+00  0.69975199870E+03  0.13880171034E+04  0.11987237461E+04 0.  0.
        5    1    3    3  502    0  0.53432847650E+03  0.12870777186E+03  0.62666297512E+03  0.83354735062E+03  0.46999998093E+01 0. -1.
       -5    1    3    3    0  502 -0.53432847650E+03 -0.12870777186E+03  0.73089023576E+02  0.55446975274E+03  0.46999998093E+01 0.  1.
</event>
<event>
 5   0  0.5447807E-05  0.1200822E+04  0.7818609E-02  0.9112138E-01
       -1   -1    0    0    0  501  0.00000000000E+00  0.00000000000E+00  0.35810830131E+03  0.35810830134E+03  0.50400001928E-02 0. -1.
        1   -1    0    0  501    0  0.00000000000E+00  0.00000000000E+00 -0.10066594903E+04  0.10066594903E+04  0.50400001928E-02 0.  1.
    10030    2    1    2    0    0  0.00000000000E+00  0.00000000000E+00 -0.64855118900E+03  0.13647677917E+04  0.12008215856E+04 0.  0.
        2    1    3    3  502    0 -0.33345910760E+03 -0.49252113899E+03 -0.41745062208E+03  0.72666159295E+03  0.25500000920E-02 0.  1.
       -2    1    3    3    0  502  0.33345910760E+03  0.49252113899E+03 -0.23110056692E+03  0.63810619871E+03  0.25500000920E-02 0. -1.
</event>
<event>
 5   0  0.5625746E-05  0.1200043E+04  0.7818609E-02  0.9112819E-01
        1   -1    0    0  501    0  0.00000000000E+00  0.00000000000E+00  0.10533229392E+04  0.10533229393E+04  0.50400001928E-02 0. -1.
       -1   -1    0    0    0  501  0.00000000000E+00  0.00000000000E+00 -0.34179974528E+03  0.34179974532E+03  0.50400001928E-02 0.  1.
    10030    2    1    2    0    0  0.00000000000E+00  0.00000000000E+00  0.71152319397E+03  0.13951226846E+04  0.12000425199E+04 0.  0.
        5    1    3    3  502    0 -0.11138219613E+03 -0.12078068666E+03 -0.31511717178E+03  0.35540806101E+03  0.46999998093E+01 0.  1.
       -5    1    3    3    0  502  0.11138219613E+03  0.12078068666E+03  0.10266403657E+04  0.10397146236E+04  0.46999998093E+01 0. -1.
</event>
<event>
 5   0  0.1012657E-04  0.1198699E+04  0.7818609E-02  0.9113996E-01
        2   -1    0    0  501    0  0.00000000000E+00  0.00000000000E+00  0.16987212462E+03  0.16987212464E+03  0.25500000920E-02 0. -1.
       -2   -1    0    0    0  501  0.00000000000E+00  0.00000000000E+00 -0.21146473288E+04  0.21146473288E+04  0.25500000920E-02 0.  1.
    10030    2    1    2    0    0  0.00000000000E+00  0.00000000000E+00 -0.19447752042E+04  0.22845194535E+04  0.11986986854E+04 0.  0.
        1    1    3    3  502    0  0.18391187411E+03 -0.11054832812E+03  0.94155621598E+02  0.23432838366E+03  0.50400001928E-02 0. -1.
       -1    1    3    3    0  502 -0.18391187411E+03  0.11054832812E+03 -0.20389308258E+04  0.20501910698E+04  0.50400001928E-02 0.  1.
</event>
<event>
 5   0  0.9838215E-05  0.1199757E+04  0.7818609E-02  0.9113069E-01
       -2   -1    0    0    0  501  0.00000000000E+00  0.00000000000E+00  0.16753894140E+03  0.16753894142E+03  0.25500000920E-02 0.  1.
        2   -1    0    0  501    0  0.00000000000E+00  0.00000000000E+00 -0.21478854420E+04  0.21478854420E+04  0.25500000920E-02 0. -1.
    10030    2    1    2    0    0  0.00000000000E+00  0.00000000000E+00 -0.19803465006E+04  0.23154243835E+04  0.11997573975E+04 0.  0.
        4    1    3    3  502    0  0.41742959205E+02 -0.22615331405E+03 -0.20594290818E+04  0.20722300915E+04  0.12699999809E+01 0. -1.
       -4    1    3    3    0  502 -0.41742959205E+02  0.22615331405E+03  0.79082581192E+02  0.24319429197E+03  0.12699999809E+01 0.  1.
</event>
<event>
 5   0  0.5732931E-05  0.1200549E+04  0.7818609E-02  0.9112376E-01
       -1   -1    0    0    0  501  0.00000000000E+00  0.00000000000E+00  0.80853916432E+03  0.80853916434E+03  0.50400001928E-02 0. -1.
        1   -1    0    0  501    0  0.00000000000E+00  0.00000000000E+00 -0.44565490715E+03  0.44565490718E+03  0.50400001928E-02 0.  1.
    10030    2    1    2    0    0  0.00000000000E+00  0.00000000000E+00  0.36288425717E+03  0.12541940715E+04  0.12005489515E+04 0.  0.
        4    1    3    3  502    0  0.17830080502E+03  0.51923492238E+03  0.43504814117E+03  0.70047453895E+03  0.12699999809E+01 0. -1.
       -4    1    3    3    0  502 -0.17830080502E+03 -0.51923492238E+03 -0.72163883996E+02  0.55371953256E+03  0.12699999809E+01 0.  1.
</event>
<event>
 5   0  0.5447807E-05  0.1197540E+04  0.7818609E-02  0.9115012E-01
       -1   -1    0    0    0  501  0.00000000000E+00  0.00000000000E+00  0.37889936742E+03  0.37889936745E+03  0.50400001928E-02 0.  1.
        1   -1    0    0  501    0  0.00000000000E+00  0.00000000000E+00 -0.94622940888E+03  0.94622940890E+03  0.50400001928E-02 0. -1.
    10030    2    1    2    0    0  0.00000000000E+00  0.00000000000E+00 -0.56733004147E+03  0.13251287763E+04  0.11975403534E+04 0.  0.
        2    1    3    3  502    0 -0.17141493176E+03 -0.56458959745E+03 -0.39640874554E+03  0.71083358526E+03  0.25500000920E-02 0. -1.
       -2    1    3    3    0  502  0.17141493176E+03  0.56458959745E+03 -0.17092129593E+03  0.61429519109E+03  0.25500000920E-02 0.  1.
</event>
<event>
 5   0  0.5447807E-05  0.1199955E+04  0.7818609E-02  0.9112896E-01
       -1   -1    0    0    0  501  0.00000000000E+00  0.00000000000E+00  0.50024111697E+03  0.50024111700E+03  0.50400001928E-02 0. -1.
        1   -1    0    0  501    0  0.00000000000E+00  0.00000000000E+00 -0.71959932527E+03  0.71959932528E+03  0.50400001928E-02 0.  1.
    10030    2    1    2    0    0  0.00000000000E+00  0.00000000000E+00 -0.21935820829E+03  0.12198404423E+04  0.11999552830E+04 0.  0.
        2    1    3    3  502    0 -0.15911695110E+03  0.44261637773E+03  0.26897942607E+03  0.54182782654E+03  0.25500000920E-02 0. -1.
       -2    1    3    3    0  502  0.15911695110E+03 -0.44261637773E+03 -0.48833763437E+03  0.67801261574E+03  0.25500000920E-02 0.  1.
</event>
<event>
 5   0  0.9941209E-05  0.1199744E+04  0.7818609E-02  0.9113081E-01
        2   -1    0    0  501    0  0.00000000000E+00  0.00000000000E+00  0.70672089833E+03  0.70672089834E+03  0.25500000920E-02 0. -1.
       -2   -1    0    0    0  501  0.00000000000E+00  0.00000000000E+00 -0.50917740427E+03  0.50917740428E+03  0.25500000920E-02 0.  1.
    10030    2    1    2    0    0  0.00000000000E+00  0.00000000000E+00  0.19754349406E+03  0.12158983026E+04  0.11997438269E+04 0.  0.
        2    1    3    3  502    0 -0.53882012080E+03  0.27907445802E+01 -0.16842843601E+03  0.56453790741E+03  0.25500000920E-02 0.  1.
       -2    1    3    3    0  502  0.53882012080E+03 -0.27907445802E+01  0.36597193007E+03  0.65136039521E+03  0.25500000920E-02 0. -1.
</event>
<event>
 5   0  0.5620246E-05  0.1200771E+04  0.7818609E-02  0.9112182E-01
       -1   -1    0    0    0  501  0.00000000000E+00  0.00000000000E+00  0.32844525370E+03  0.32844525374E+03  0.50400001928E-02 0.  1.
        1   -1    0    0  501    0  0.00000000000E+00  0.00000000000E+00 -0.10974818552E+04  0.10974818552E+04  0.50400001928E-02 0. -1.
    10030    2    1    2    0    0  0.00000000000E+00  0.00000000000E+00 -0.76903660151E+03  0.14259271090E+04  0.12007709297E+04 0.  0.
        1    1    3    3  502    0  0.15315725360E+03 -0.23852388721E+03  0.24397832949E+03  0.37400028661E+03  0.50400001928E-02 0.  1.
       -1    1    3    3    0  502 -0.15315725360E+03  0.23852388721E+03 -0.10130149310E+04  0.10519268223E+04  0.50400001928E-02 0. -1.
</event>
<event>
 5   0  0.5447807E-05  0.1201888E+04  0.7818609E-02  0.9111206E-01
       -1   -1    0    0    0  501  0.00000000000E+00  0.00000000000E+00  0.41829612146E+03  0.41829612149E+03  0.50400001928E-02 0. -1.
        1   -1    0    0  501    0  0.00000000000E+00  0.00000000000E+00 -0.86334461052E+03  0.86334461054E+03  0.50400001928E-02 0.  1.
    10030    2    1    2    0    0  0.00000000000E+00  0.00000000000E+00 -0.44504848907E+03  0.12816407320E+04  0.12018880182E+04 0.  0.
        2    1    3    3  502    0 -0.53759448235E+03 -0.21279721645E+03 -0.47813507649E+02  0.58015223373E+03  0.25500000920E-02 0. -1.
       -2    1    3    3    0  502  0.53759448235E+03  0.21279721645E+03 -0.39723498142E+03  0.70148849830E+03  0.25500000920E-02 0.  1.
</event>
<event>
 5   0  0.5745487E-05  0.1200212E+04  0.7818609E-02  0.9112671E-01
       -1   -1    0    0    0  501  0.00000000000E+00  0.00000000000E+00  0.26997630063E+03  0.26997630067E+03  0.50400001928E-02 0. -1.
        1   -1    0    0  501    0  0.00000000000E+00  0.00000000000E+00 -0.13339212029E+04  0.13339212029E+04  0.50400001928E-02 0.  1.
    10030    2    1    2    0    0  0.00000000000E+00  0.00000000000E+00 -0.10639449023E+04  0.16038975036E+04  0.12002118342E+04 0.  0.
        3    1    3    3  502    0 -0.31920755910E+03 -0.34099620254E+02  0.14558343885E+03  0.35249226623E+03  0.10100000352E+00 0. -1.
       -3    1    3    3    0  502  0.31920755910E+03  0.34099620254E+02 -0.12095283411E+04  0.12514052373E+04  0.10100000352E+00 0.  1.
</event>
<event>
 5   0  0.5732931E-05  0.1199524E+04  0.7818609E-02  0.9113274E-01
        1   -1    0    0  501    0  0.00000000000E+00  0.00000000000E+00  0.12819924562E+04  0.12819924562E+04  0.50400001928E-02 0. -1.
       -1   -1    0    0    0  501  0.00000000000E+00  0.00000000000E+00 -0.28058998132E+03  0.28058998137E+03  0.50400001928E-02 0.  1.
    10030    2    1    2    0    0  0.00000000000E+00  0.00000000000E+00  0.10014024748E+04  0.15625824375E+04  0.11995236377E+04 0.  0.
        4    1    3    3  502    0  0.16665595160E+03  0.48959976380E+03  0.89631499860E+03  0.10348257460E+04  0.12699999809E+01 0. -1.
       -4    1    3    3    0  502 -0.16665595160E+03 -0.48959976380E+03  0.10508747623E+03  0.52775669155E+03  0.12699999809E+01 0.  1.
</event>
<event>
 5   0  0.9838215E-05  0.1199828E+04  0.7818609E-02  0.9113007E-01
       -2   -1    0    0    0  501  0.00000000000E+00  0.00000000000E+00  0.19906165173E+03  0.19906165175E+03  0.25500000920E-02 0. -1.
        2   -1    0    0  501    0  0.00000000000E+00  0.00000000000E+00 -0.18079670493E+04  0.18079670493E+04  0.25500000920E-02 0.  1.
    10030    2    1    2    0    0  0.00000000000E+00  0.00000000000E+00 -0.16089053976E+04  0.20070287010E+04  0.11998281662E+04 0.  0.
        4    1    3    3  502    0 -0.10468701435E+03  0.57978168211E+03 -0.61528153526E+03  0.85186803580E+03  0.12699999809E+01 0. -1.
       -4    1    3    3    0  502  0.10468701435E+03 -0.57978168211E+03 -0.99362386231E+03  0.11551606652E+04  0.12699999809E+01 0.  1.
</event>
<event>
 5   0  0.9941209E-05  0.1196445E+04  0.7818609E-02  0.9115974E-01
        2   -1    0    0  501    0  0.00000000000E+00  0.00000000000E+00  0.13026311639E+04  0.13026311639E+04  0.25500000920E-02 0. -1.
       -2   -1    0    0    0  501  0.00000000000E+00  0.00000000000E+00 -0.27472875387E+03  0.27472875389E+03  0.25500000920E-02 0.  1.
    10030    2    1    2    0    0  0.00000000000E+00  0.00000000000E+00  0.10279024101E+04  0.15773599178E+04  0.11964451286E+04 0.  0.
        2    1    3    3  502    0 -0.22024548752E+03  0.53585621168E+03  0.31742847037E+03  0.66061394791E+03  0.25500000920E-02 0.  1.
       -2    1    3    3    0  502  0.22024548752E+03 -0.53585621168E+03  0.71047393971E+03  0.91674596993E+03  0.25500000920E-02 0. -1.
</event>
<event>
 5   0  0.1004006E-04  0.1200526E+04  0.7818609E-02  0.9112396E-01
       -2   -1    0    0    0  501  0.00000000000E+00  0.00000000000E+00  0.25124019062E+03  0.25124019063E+03  0.25500000920E-02 0. -1.
        2   -1    0    0  501    0  0.00000000000E+00  0.00000000000E+00 -0.14341479425E+04  0.14341479425E+04  0.25500000920E-02 0.  1.
    10030    2    1    2    0    0  0.00000000000E+00  0.00000000000E+00 -0.11829077519E+04  0.16853881332E+04  0.12005258889E+04 0.  0.
        5    1    3    3  502    0  0.25794831660E+03 -0.37075983653E+01  0.16941837397E+03  0.30866771091E+03  0.46999998093E+01 0. -1.
       -5    1    3    3    0  502 -0.25794831660E+03  0.37075983653E+01 -0.13523261259E+04  0.13767204223E+04  0.46999998093E+01 0.  1.
</event>
<event>
 5   0  0.1023063E-04  0.1200000E+04  0.7818609E-02  0.9112857E-01
       -2   -1    0    0    0  501  0.00000000000E+00  0.00000000000E+00  0.61488762880E+03  0.61488762881E+03  0.25500000920E-02 0.  1.
        2   -1    0    0  501    0  0.00000000000E+00  0.00000000000E+00 -0.58547261482E+03  0.58547261482E+03  0.25500000920E-02 0. -1.
    10030    2    1    2    0    0  0.00000000000E+00  0.00000000000E+00  0.29415013985E+02  0.12003602436E+04  0.11999997798E+04 0.  0.
        3    1    3    3  502    0 -0.17862818528E+03  0.34112568394E+03  0.47498168040E+03  0.61145921184E+03  0.10100000352E+00 0.  1.
       -3    1    3    3    0  502  0.17862818528E+03 -0.34112568394E+03 -0.44556666642E+03  0.58890103179E+03  0.10100000352E+00 0. -1.
</event>
<event>
 5   0  0.1012657E-04  0.1199769E+04  0.7818609E-02  0.9113059E-01
        2   -1    0    0  501    0  0.00000000000E+00  0.00000000000E+00  0.26774544478E+03  0.26774544479E+03  0.25500000920E-02 0.  1.
       -2   -1    0    0    0  501  0.00000000000E+00  0.00000000000E+00 -0.13440423627E+04  0.13440423627E+04  0.25500000920E-02 0. -1.
    10030    2    1    2    0    0  0.00000000000E+00  0.00000000000E+00 -0.10762969179E+04  0.16117878075E+04  0.11997686780E+04 0.  0.
        1    1    3    3  502    0 -0.44687870255E+03 -0.39887292863E+03 -0.49438872968E+03  0.77667264922E+03  0.50400001928E-02 0.  1.
       -1    1    3    3    0  502  0.44687870255E+03  0.39887292863E+03 -0.58190818821E+03  0.83511515824E+03  0.50400001928E-02 0. -1.
</event>
<event>
 5   0  0.5745487E-05  0.1200299E+04  0.7818609E-02  0.9112595E-01
        1   -1    0    0  501    0  0.00000000000E+00  0.00000000000E+00  0.54158728151E+03  0.54158728153E+03  0.50400001928E-02 0. -1.
       -1   -1    0    0    0  501  0.00000000000E+00  0.00000000000E+00 -0.66504384115E+03  0.66504384117E+03  0.50400001928E-02 0.  1.
    10030    2    1    2    0    0  0.00000000000E+00  0.00000000000E+00 -0.12345655964E+03  0.12066311227E+04  0.12002987729E+04 0.  0.
        3    1    3    3  502    0 -0.30277463058E+03 -0.44472669095E+03 -0.32907295872E+03  0.63066895351E+03  0.10100000352E+00 0. -1.
       -3    1    3    3    0  502  0.30277463058E+03  0.44472669095E+03  0.20561639907E+03  0.57596216919E+03  0.10100000352E+00 0.  1.
</event>
<event>
 5   0  0.5745487E-05  0.1199969E+04  0.7818609E-02  0.9112884E-01
        1   -1    0    0  501    0  0.00000000000E+00  0.00000000000E+00  0.11096597486E+04  0.11096597486E+04  0.50400001928E-02 0.  1.
       -1   -1    0    0    0  501  0.00000000000E+00  0.00000000000E+00 -0.32440677194E+03  0.32440677198E+03  0.50400001928E-02 0. -1.
    10030    2    1    2    0    0  0.00000000000E+00  0.00000000000E+00  0.78525297662E+03  0.14340665206E+04  0.11999685613E+04 0.  0.
        3    1    3    3  502    0 -0.14443934949E+03  0.52811903604E+03  0.99382579509E+02  0.55646145349E+03  0.10100000352E+00 0. -1.
       -3    1    3    3    0  502  0.14443934949E+03 -0.52811903604E+03  0.68587039711E+03  0.87760506707E+03  0.10100000352E+00 0.  1.
</event>
<event>
 5   0  0.1004006E-04  0.1200551E+04  0.7818609E-02  0.9112374E-01
        2   -1    0    0  501    0  0.00000000000E+00  0.00000000000E+00  0.25246356490E+04  0.25246356490E+04  0.25500000920E-02 0.  1.
       -2   -1    0    0    0  501  0.00000000000E+00  0.00000000000E+00 -0.14272588046E+03  0.14272588048E+03  0.25500000920E-02 0. -1.
    10030    2    1    2    0    0  0.00000000000E+00  0.00000000000E+00  0.23819097686E+04  0.26673615295E+04  0.12005512832E+04 0.  0.
        5    1    3    3  502    0  0.12031596874E+03  0.27568816180E+03  0.23450600024E+04  0.23642775640E+04  0.46999998093E+01 0.  1.
       -5    1    3    3    0  502 -0.12031596874E+03 -0.27568816180E+03  0.36849766206E+02  0.30308396553E+03  0.46999998093E+01 0. -1.
</event>
<event>
 5   0  0.5732931E-05  0.1200052E+04  0.7818609E-02  0.9112811E-01
        1   -1    0    0  501    0  0.00000000000E+00  0.00000000000E+00  0.13847994095E+04  0.13847994095E+04  0.50400001928E-02 0. -1.
       -1   -1    0    0    0  501  0.00000000000E+00  0.00000000000E+00 -0.25998816421E+03  0.25998816426E+03  0.50400001928E-02 0.  1.
    10030    2    1    2    0    0  0.00000000000E+00  0.00000000000E+00  0.11248112453E+04  0.16447875738E+04  0.12000524261E+04 0.  0.
        4    1    3    3  502    0 -0.13465200359E+03  0.37499324482E+03 -0.52500132584E+02  0.40188178928E+03  0.12699999809E+01 0.  1.
       -4    1    3    3    0  502  0.13465200359E+03 -0.37499324482E+03  0.11773113779E+04  0.12429057845E+04  0.12699999809E+01 0. -1.
</event>
<event>
 5   0  0.1012657E-04  0.1199981E+04  0.7818609E-02  0.9112873E-01
       -2   -1    0    0    0  501  0.00000000000E+00  0.00000000000E+00  0.13804953097E+03  0.13804953099E+03  0.25500000920E-02 0. -1.
        2   -1    0    0  501    0  0.00000000000E+00  0.00000000000E+00 -0.26076768795E+04  0.26076768795E+04  0.25500000920E-02 0.  1.
    10030    2    1    2    0    0  0.00000000000E+00  0.00000000000E+00 -0.24696273485E+04  0.27457264105E+04  0.11999809501E+04 0.  0.
        1    1    3    3  502    0 -0.20827343508E+03  0.31751448187E+03 -0.17188554472E+03  0.41681879812E+03  0.50400001928E-02 0. -1.
       -1    1    3    3    0  502  0.20827343508E+03 -0.31751448187E+03 -0.22977418038E+04  0.23289076124E+04  0.50400001928E-02 0.  1.
</event>
<event>
 5   0  0.1023063E-04  0.1199819E+04  0.7818609E-02  0.9113015E-01
       -2   -1    0    0    0  501  0.00000000000E+00  0.00000000000E+00  0.13750723181E+04  0.13750723181E+04  0.25500000920E-02 0. -1.
        2   -1    0    0  501    0  0.00000000000E+00  0.00000000000E+00 -0.26172537977E+03  0.26172537979E+03  0.25500000920E-02 0.  1.
    10030    2    1    2    0    0  0.00000000000E+00  0.00000000000E+00  0.11133469383E+04  0.16367976979E+04  0.11998188608E+04 0.  0.
        3    1    3    3  502    0  0.46479890040E+03  0.45056169553E+02  0.42922067679E+02  0.46894604202E+03  0.10100000352E+00 0.  1.
       -3    1    3    3    0  502 -0.46479890040E+03 -0.45056169553E+02  0.10704248706E+04  0.11678516559E+04  0.10100000352E+00 0. -1.
</event>
<event>
 5   0  0.5620246E-05  0.1198890E+04  0.7818609E-02  0.9113829E-01
        1   -1    0    0  501    0  0.00000000000E+00  0.00000000000E+00  0.15547638634E+04  0.15547638634E+04  0.50400001928E-02 0.  1.
       -1   -1    0    0    0  501  0.00000000000E+00  0.00000000000E+00 -0.23111807894E+03  0.23111807899E+03  0.50400001928E-02 0. -1.
    10030    2    1    2    0    0  0.00000000000E+00  0.00000000000E+00  0.13236457844E+04  0.17858819424E+04  0.11988895485E+04 0.  0.
        1    1    3    3  502    0  0.39306821959E+03 -0.71786565083E+01  0.13359118497E+04  0.13925568672E+04  0.50400001928E-02 0.  1.
       -1    1    3    3    0  502 -0.39306821959E+03  0.71786565083E+01 -0.12266065221E+02  0.39332507515E+03  0.50400001928E-02 0. -1.
</event>
<event>
 5   0  0.1023063E-04  0.1201680E+04  0.7818609E-02  0.9111387E-01
        2   -1    0    0  501    0  0.00000000000E+00  0.00000000000E+00  0.60155255152E+03  0.60155255153E+03  0.25500000920E-02 0. -1.
       -2   -1    0    0    0  501  0.00000000000E+00  0.00000000000E+00 -0.60012860870E+03  0.60012860871E+03  0.25500000920E-02 0.  1.
    10030    2    1    2    0    0  0.00000000000E+00  0.00000000000E+00  0.14239428198E+01  0.12016811602E+04  0.12016803166E+04 0.  0.
        3    1    3    3  502    0 -0.35307725249E+03 -0.18251734976E+03 -0.44987990769E+03  0.60030664725E+03  0.10100000352E+00 0.  1.
       -3    1    3    3    0  502  0.35307725249E+03  0.18251734976E+03  0.45130385051E+03  0.60137451299E+03  0.10100000352E+00 0. -1.
</event>
<event>
 5   0  0.1012657E-04  0.1199759E+04  0.7818609E-02  0.9113068E-01
        2   -1    0    0  501    0  0.00000000000E+00  0.00000000000E+00  0.86705655308E+03  0.86705655308E+03  0.25500000920E-02 0.  1.
       -2   -1    0    0    0  501  0.00000000000E+00  0.00000000000E+00 -0.41503096106E+03  0.41503096106E+03  0.25500000920E-02 0. -1.
    10030    2    1    2    0    0  0.00000000000E+00  0.00000000000E+00  0.45202559202E+03  0.12820875141E+04  0.11997588333E+04 0.  0.
        1    1    3    3  502    0 -0.14073104640E+03 -0.30316028290E+03 -0.30631058586E+03  0.45336250350E+03  0.50400001928E-02 0. -1.
       -1    1    3    3    0  502  0.14073104640E+03  0.30316028290E+03  0.75833617789E+03  0.82872501064E+03  0.50400001928E-02 0.  1.
</event>
<event>
 5   0  0.5447807E-05  0.1202775E+04  0.7818609E-02  0.9110431E-01
       -1   -1    0    0    0  501  0.00000000000E+00  0.00000000000E+00  0.59178510132E+03  0.59178510134E+03  0.50400001928E-02 0. -1.
        1   -1    0    0  501    0  0.00000000000E+00  0.00000000000E+00 -0.61114605093E+03  0.61114605095E+03  0.50400001928E-02 0.  1.
    10030    2    1    2    0    0  0.00000000000E+00  0.00000000000E+00 -0.19360949615E+02  0.12029311523E+04  0.12027753368E+04 0.  0.
        2    1    3    3  502    0 -0.94199563424E+02 -0.61581837852E+02 -0.60052028129E+03  0.61097503120E+03  0.25500000920E-02 0.  1.
       -2    1    3    3    0  502  0.94199563424E+02  0.61581837852E+02  0.58115933167E+03  0.59195612109E+03  0.25500000920E-02 0. -1.
</event>
<event>
 5   0  0.9838215E-05  0.1200145E+04  0.7818609E-02  0.9112730E-01
        2   -1    0    0  501    0  0.00000000000E+00  0.00000000000E+00  0.19233667374E+04  0.19233667374E+04  0.25500000920E-02 0.  1.
       -2   -1    0    0    0  501  0.00000000000E+00  0.00000000000E+00 -0.18721706035E+03  0.18721706037E+03  0.25500000920E-02 0. -1.
    10030    2    1    2    0    0  0.00000000000E+00  0.00000000000E+00  0.17361496771E+04  0.21105837978E+04  0.12001451022E+04 0.  0.
        4    1    3    3  502    0  0.54705420248E+03  0.23569608836E+03  0.74047571154E+03  0.95032985789E+03  0.12699999809E+01 0. -1.
       -4    1    3    3    0  502 -0.54705420248E+03 -0.23569608836E+03  0.99567396552E+03  0.11602539399E+04  0.12699999809E+01 0.  1.
</event>
<event>
 5   0  0.9941209E-05  0.1199951E+04  0.7818609E-02  0.9112900E-01
        2   -1    0    0  501    0  0.00000000000E+00  0.00000000000E+00  0.76262111788E+03  0.76262111788E+03  0.25500000920E-02 0.  1.
       -2   -1    0    0    0  501  0.00000000000E+00  0.00000000000E+00 -0.47201734744E+03  0.47201734744E+03  0.25500000920E-02 0. -1.
    10030    2    1    2    0    0  0.00000000000E+00  0.00000000000E+00  0.29060377044E+03  0.12346384653E+04  0.11999506609E+04 0.  0.
        2    1    3    3  502    0 -0.32821161790E+03 -0.32212794352E+03 -0.25116966604E+03  0.52399950312E+03  0.25500000920E-02 0. -1.
       -2    1    3    3    0  502  0.32821161790E+03  0.32212794352E+03  0.54177343648E+03  0.71063896221E+03  0.25500000920E-02 0.  1.
</event>
<event>
 5   0  0.5745487E-05  0.1199540E+04  0.7818609E-02  0.9113259E-01
        1   -1    0    0  501    0  0.00000000000E+00  0.00000000000E+00  0.15449208331E+04  0.15449208331E+04  0.50400001928E-02 0.  1.
       -1   -1    0    0    0  501  0.00000000000E+00  0.00000000000E+00 -0.23284310778E+03  0.23284310783E+03  0.50400001928E-02 0. -1.
    10030    2    1    2    0    0  0.00000000000E+00  0.00000000000E+00  0.13120777253E+04  0.17777639409E+04  0.11995401921E+04 0.  0.
        3    1    3    3  502    0 -0.22838875153E+03  0.28492538080E+02 -0.16478924523E+03  0.28307022467E+03  0.10100000352E+00 0. -1.
       -3    1    3    3    0  502  0.22838875153E+03 -0.28492538080E+02  0.14768669706E+04  0.14946937163E+04  0.10100000352E+00 0.  1.
</event>
<event>
 5   0  0.5732931E-05  0.1199800E+04  0.7818609E-02  0.9113032E-01
        1   -1    0    0  501    0  0.00000000000E+00  0.00000000000E+00  0.54209868073E+03  0.54209868075E+03  0.50400001928E-02 0. -1.
       -1   -1    0    0    0  501  0.00000000000E+00  0.00000000000E+00 -0.66386431997E+03  0.66386431999E+03  0.50400001928E-02 0.  1.
    10030    2    1    2    0    0  0.00000000000E+00  0.00000000000E+00 -0.12176563924E+03  0.12059630007E+04  0.11997999368E+04 0.  0.
        4    1    3    3  502    0 -0.43361520056E+03 -0.31324121245E+03  0.21205606156E+03  0.57542296224E+03  0.12699999809E+01 0.  1.
       -4    1    3    3    0  502  0.43361520056E+03  0.31324121245E+03 -0.33382170080E+03  0.63054003850E+03  0.12699999809E+01 0. -1.
</event>
<event>
 5   0  0.5625746E-05  0.1200104E+04  0.7818609E-02  0.9112766E-01
       -1   -1    0    0    0  501  0.00000000000E+00  0.00000000000E+00  0.76453451022E+03  0.76453451024E+03  0.50400001928E-02 0.  1.
        1   -1    0    0  501    0  0.00000000000E+00  0.00000000000E+00 -0.47095630021E+03  0.47095630024E+03  0.50400001928E-02 0. -1.
    10030    2    1    2    0    0  0.00000000000E+00  0.00000000000E+00  0.29357821001E+03  0.12354908105E+04  0.12001039027E+04 0.  0.
        5    1    3    3  502    0  0.13994544557E+03 -0.37381347265E+03  0.60801632423E+03  0.72734254694E+03  0.46999998093E+01 0.  1.
       -5    1    3    3    0  502 -0.13994544557E+03  0.37381347265E+03 -0.31443811422E+03  0.50814826354E+03  0.46999998093E+01 0. -1.
</event>
<event>
 5   0  0.5732931E-05  0.1199869E+04  0.7818609E-02  0.9112971E-01
        1   -1    0    0  501    0  0.00000000000E+00  0.00000000000E+00  0.17283264031E+04  0.17283264031E+04  0.50400001928E-02 0. -1.
       -1   -1    0    0    0  501  0.00000000000E+00  0.00000000000E+00 -0.20824863940E+03  0.20824863947E+03  0.50400001928E-02 0.  1.
    10030    2    1    2    0    0  0.00000000000E+00  0.00000000000E+00  0.15200777637E+04  0.19365750426E+04  0.11998693628E+04 0.  0.
        4    1    3    3  502    0  0.57172085501E+02 -0.20531204564E+03 -0.14508814942E+03  0.25782526534E+03  0.12699999809E+01 0.  1.
       -4    1    3    3    0  502 -0.57172085501E+02  0.20531204564E+03  0.16651659131E+04  0.16787497772E+04  0.12699999809E+01 0. -1.
</event>
<event>
 5   0  0.5620246E-05  0.1199882E+04  0.7818609E-02  0.9112960E-01
        1   -1    0    0  501    0  0.00000000000E+00  0.00000000000E+00  0.18188934504E+04  0.18188934505E+04  0.50400001928E-02 0. -1.
       -1   -1    0    0    0  501  0.00000000000E+00  0.00000000000E+00 -0.19788358803E+03  0.19788358809E+03  0.50400001928E-02 0.  1.
    10030    2    1    2    0    0  0.00000000000E+00  0.00000000000E+00  0.16210098624E+04  0.20167770385E+04  0.11998819313E+04 0.  0.
        1    1    3    3  502    0  0.33589523778E+03  0.30517931271E+03  0.15097241083E+03  0.47828097655E+03  0.50400001928E-02 0.  1.
       -1    1    3    3    0  502 -0.33589523778E+03 -0.30517931271E+03  0.14700374516E+04  0.15384960620E+04  0.50400001928E-02 0. -1.
</event>
<event>
 5   0  0.1004006E-04  0.1195749E+04  0.7818609E-02  0.9116586E-01
       -2   -1    0    0    0  501  0.00000000000E+00  0.00000000000E+00  0.14795489862E+03  0.14795489864E+03  0.25500000920E-02 0. -1.
        2   -1    0    0  501    0  0.00000000000E+00  0.00000000000E+00 -0.24159647971E+04  0.24159647971E+04  0.25500000920E-02 0.  1.
    10030    2    1    2    0    0  0.00000000000E+00  0.00000000000E+00 -0.22680098985E+04  0.25639196957E+04  0.11957488476E+04 0.  0.
        5    1    3    3  502    0 -0.45525162783E+03 -0.19637833817E+03 -0.41765983057E+03  0.64829030566E+03  0.46999998093E+01 0. -1.
       -5    1    3    3    0  502  0.45525162783E+03  0.19637833817E+03 -0.18503500679E+04  0.19156293901E+04  0.46999998093E+01 0.  1.
</event>
<event>
 5   0  0.5732931E-05  0.1199257E+04  0.7818609E-02  0.9113507E-01
       -1   -1    0    0    0  501  0.00000000000E+00  0.00000000000E+00  0.47389403160E+03  0.47389403163E+03  0.50400001928E-02 0. -1.
        1   -1    0    0  501    0  0.00000000000E+00  0.00000000000E+00 -0.75872271240E+03  0.75872271241E+03  0.50400001928E-02 0.  1.
    10030    2    1    2    0    0  0.00000000000E+00  0.00000000000E+00 -0.28482868080E+03  0.12326167440E+04  0.11992567116E+04 0.  0.
        4    1    3    3  502    0 -0.28161119272E+03 -0.17175172491E+03  0.37226358178E+03  0.49737843348E+03  0.12699999809E+01 0. -1.
       -4    1    3    3    0  502  0.28161119272E+03  0.17175172491E+03 -0.65709226258E+03  0.73523831056E+03  0.12699999809E+01 0.  1.
</event>
<event>
 5   0  0.3839750E-05  0.1198932E+04  0.7818609E-02  0.9113792E-01
       -4   -1    0    0    0  501  0.00000000000E+00  0.00000000000E+00  0.64423397373E+03  0.64423522552E+03  0.12699999809E+01 0. -1.
        4   -1    0    0  501    0  0.00000000000E+00  0.00000000000E+00 -0.55780662454E+03  0.55780807029E+03  0.12699999809E+01 0.  1.
    10030    2    1    2    0    0  0.00000000000E+00  0.00000000000E+00  0.86427349191E+02  0.12020432958E+04  0.11989321909E+04 0.  0.
        2    1    3    3  502    0 -0.12322386603E+02 -0.58446257073E+03  0.17626546588E+03  0.61058811998E+03  0.25500000920E-02 0. -1.
       -2    1    3    3    0  502  0.12322386603E+02  0.58446257073E+03 -0.89838116693E+02  0.59145517583E+03  0.25500000920E-02 0.  1.
</event>
<event>
 5   0  0.1023063E-04  0.1199229E+04  0.7818609E-02  0.9113532E-01
        2   -1    0    0  501    0  0.00000000000E+00  0.00000000000E+00  0.11366928223E+04  0.11366928223E+04  0.25500000920E-02 0.  1.
       -2   -1    0    0    0  501  0.00000000000E+00  0.00000000000E+00 -0.31630132234E+03  0.31630132235E+03  0.25500000920E-02 0. -1.
    10030    2    1    2    0    0  0.00000000000E+00  0.00000000000E+00  0.82039149999E+03  0.14529941447E+04  0.11992288236E+04 0.  0.
        3    1    3    3  502    0  0.56279191803E+03  0.14297491266E+03  0.59137401464E+03  0.82879418678E+03  0.10100000352E+00 0. -1.
       -3    1    3    3    0  502 -0.56279191803E+03 -0.14297491266E+03  0.22901748535E+03  0.62419995791E+03  0.10100000352E+00 0.  1.
</event>
<event>
 5   0  0.1023063E-04  0.1200387E+04  0.7818609E-02  0.9112518E-01
        2   -1    0    0  501    0  0.00000000000E+00  0.00000000000E+00  0.50596809212E+03  0.50596809213E+03  0.25500000920E-02 0. -1.
       -2   -1    0    0    0  501  0.00000000000E+00  0.00000000000E+00 -0.71196574345E+03  0.71196574345E+03  0.25500000920E-02 0.  1.
    10030    2    1    2    0    0  0.00000000000E+00  0.00000000000E+00 -0.20599765133E+03  0.12179338356E+04  0.12003865192E+04 0.  0.
        3    1    3    3  502    0 -0.46988820887E+03 -0.29216632348E+03 -0.33894028471E+03  0.64887334374E+03  0.10100000352E+00 0. -1.
       -3    1    3    3    0  502  0.46988820887E+03  0.29216632348E+03  0.13294263338E+03  0.56906049185E+03  0.10100000352E+00 0.  1.
</event>
<event>
 5   0  0.5625746E-05  0.1199886E+04  0.7818609E-02  0.9112957E-01
        1   -1    0    0  501    0  0.00000000000E+00  0.00000000000E+00  0.68309512561E+03  0.68309512563E+03  0.50400001928E-02 0. -1.
       -1   -1    0    0    0  501  0.00000000000E+00  0.00000000000E+00 -0.52691244881E+03  0.52691244883E+03  0.50400001928E-02 0.  1.
    10030    2    1    2    0    0  0.00000000000E+00  0.00000000000E+00  0.15618267680E+03  0.12100075745E+04  0.11998855369E+04 0.  0.
        5    1    3    3  502    0 -0.32450782167E+03 -0.47331665218E+03  0.25442422643E+03  0.62776409307E+03  0.46999998093E+01 0.  1.
       -5    1    3    3    0  502  0.32450782167E+03  0.47331665218E+03 -0.98241549631E+02  0.58224348139E+03  0.46999998093E+01 0. -1.
</event>
<event>
 5   0  0.1004006E-04  0.1199696E+04  0.7818609E-02  0.9113123E-01
        2   -1    0    0  501    0  0.00000000000E+00  0.00000000000E+00  0.67779462442E+03  0.67779462442E+03  0.25500000920E-02 0. -1.
       -2   -1    0    0    0  501  0.00000000000E+00  0.00000000000E+00 -0.53086492467E+03  0.53086492467E+03  0.25500000920E-02 0.  1.
    10030    2    1    2    0    0  0.00000000000E+00  0.00000000000E+00  0.14692969975E+03  0.12086595491E+04  0.11996956151E+04 0.  0.
        5    1    3    3  502    0 -0.36550659136E+03 -0.23632229304E+03  0.48928597028E+03  0.65487872559E+03  0.46999998093E+01 0. -1.
       -5    1    3    3    0  502  0.36550659136E+03  0.23632229304E+03 -0.34235627053E+03  0.55378082351E+03  0.46999998093E+01 0.  1.
</event>
<event>
 5   0  0.1023063E-04  0.1197541E+04  0.7818609E-02  0.9115012E-01
        2   -1    0    0  501    0  0.00000000000E+00  0.00000000000E+00  0.13904499981E+04  0.13904499981E+04  0.25500000920E-02 0. -1.
       -2   -1    0    0    0  501  0.00000000000E+00  0.00000000000E+00 -0.25784885283E+03  0.25784885284E+03  0.25500000920E-02 0.  1.
    10030    2    1    2    0    0  0.00000000000E+00  0.00000000000E+00  0.11326011452E+04  0.16482988509E+04  0.11975407082E+04 0.  0.
        3    1    3    3  502    0 -0.22035444566E+02  0.72119887192E+02 -0.25128649972E+03  0.26235806465E+03  0.10100000352E+00 0.  1.
       -3    1    3    3    0  502  0.22035444566E+02 -0.72119887192E+02  0.13838876450E+04  0.13859407863E+04  0.10100000352E+00 0. -1.
</event>
<event>
 5   0  0.5745487E-05  0.1201218E+04  0.7818609E-02  0.9111791E-01
        1   -1    0    0  501    0  0.00000000000E+00  0.00000000000E+00  0.52051736054E+03  0.52051736057E+03  0.50400001928E-02 0.  1.
       -1   -1    0    0    0  501  0.00000000000E+00  0.00000000000E+00 -0.69302479463E+03  0.69302479465E+03  0.50400001928E-02 0. -1.
    10030    2    1    2    0    0  0.00000000000E+00  0.00000000000E+00 -0.17250743408E+03  0.12135421552E+04  0.12012184429E+04 0.  0.
        3    1    3    3  502    0 -0.39918929785E+03  0.28663739665E+03  0.26256871038E+03  0.55718527488E+03  0.10100000352E+00 0.  1.
       -3    1    3    3    0  502  0.39918929785E+03 -0.28663739665E+03 -0.43507614446E+03  0.65635688033E+03  0.10100000352E+00 0. -1.
</event>
<event>
 5   0  0.5745487E-05  0.1200325E+04  0.7818609E-02  0.9112572E-01
        1   -1    0    0  501    0  0.00000000000E+00  0.00000000000E+00  0.67198026771E+03  0.67198026773E+03  0.50400001928E-02 0.  1.
       -1   -1    0    0    0  501  0.00000000000E+00  0.00000000000E+00 -0.53602064744E+03  0.53602064746E+03  0.50400001928E-02 0. -1.
    10030    2    1    2    0    0  0.00000000000E+00  0.00000000000E+00  0.13595962027E+03  0.12080009152E+04  0.12003254528E+04 0.  0.
        3    1    3    3  502    0 -0.45047192475E+03 -0.35263506537E+03  0.25057550497E+03  0.62455146962E+03  0.10100000352E+00 0.  1.
       -3    1    3    3    0  502  0.45047192475E+03  0.35263506537E+03 -0.11461588470E+03  0.58344944557E+03  0.10100000352E+00 0. -1.
</event>
<event>
 5   0  0.5732931E-05  0.1199912E+04  0.7818609E-02  0.9112933E-01
        1   -1    0    0  501    0  0.00000000000E+00  0.00000000000E+00  0.35934080755E+03  0.35934080759E+03  0.50400001928E-02 0. -1.
       -1   -1    0    0    0  501  0.00000000000E+00  0.00000000000E+00 -0.10016877971E+04  0.10016877971E+04  0.50400001928E-02 0.  1.
    10030    2    1    2    0    0  0.00000000000E+00  0.00000000000E+00 -0.64234698950E+03  0.13610286047E+04  0.11999121667E+04 0.  0.
        4    1    3    3  502    0 -0.11601267365E+03  0.31395148860E+03  0.24360043147E+03  0.41396528931E+03  0.12699999809E+01 0. -1.
       -4    1    3    3    0  502  0.11601267365E+03 -0.31395148860E+03 -0.88594742097E+03  0.94706331534E+03  0.12699999809E+01 0.  1.
</event>
<event>
 5   0  0.1012657E-04  0.1199825E+04  0.7818609E-02  0.9113010E-01
       -2   -1    0    0    0  501  0.00000000000E+00  0.00000000000E+00  0.42669722526E+03  0.42669722527E+03  0.25500000920E-02 0.  1.
        2   -1    0    0  501    0  0.00000000000E+00  0.00000000000E+00 -0.84344345411E+03  0.84344345411E+03  0.25500000920E-02 0. -1.
    10030    2    1    2    0    0  0.00000000000E+00  0.00000000000E+00 -0.41674622885E+03  0.12701406794E+04  0.11998249565E+04 0.  0.
        1    1    3    3  502    0 -0.54419462560E+03  0.81725376708E+01  0.58765597732E+02  0.54741937891E+03  0.50400001928E-02 0.  1.
       -1    1    3    3    0  502  0.54419462560E+03 -0.81725376708E+01 -0.47551182658E+03  0.72272130047E+03  0.50400001928E-02 0. -1.
</event>
<event>
 5   0  0.3839750E-05  0.1200129E+04  0.7818609E-02  0.9112744E-01
        4   -1    0    0  501    0  0.00000000000E+00  0.00000000000E+00  0.76192561152E+03  0.76192666996E+03  0.12699999809E+01 0. -1.
       -4   -1    0    0    0  501  0.00000000000E+00  0.00000000000E+00 -0.47258638602E+03  0.47258809247E+03  0.12699999809E+01 0.  1.
    10030    2    1    2    0    0  0.00000000000E+00  0.00000000000E+00  0.28933922550E+03  0.12345147624E+04  0.12001289561E+04 0.  0.
        2    1    3    3  502    0 -0.42130463525E+03 -0.35858459372E+03 -0.94360530335E+02  0.56123472472E+03  0.25500000920E-02 0.  1.
       -2    1    3    3    0  502  0.42130463525E+03  0.35858459372E+03  0.38369975584E+03  0.67328003771E+03  0.25500000920E-02 0. -1.
</event>
<event>
 5   0  0.9941209E-05  0.1200098E+04  0.7818609E-02  0.9112771E-01
       -2   -1    0    0    0  501  0.00000000000E+00  0.00000000000E+00  0.82072348089E+03  0.82072348089E+03  0.25500000920E-02 0.  1.
        2   -1    0    0  501    0  0.00000000000E+00  0.00000000000E+00 -0.43870892012E+03  0.43870892013E+03  0.25500000920E-02 0. -1.
    10030    2    1    2    0    0  0.00000000000E+00  0.00000000000E+00  0.38201456077E+03  0.12594324010E+04  0.12000978494E+04 0.  0.
        2    1    3    3  502    0  0.53504073837E+03 -0.27163958818E+03  0.18950308295E+03  0.62925994313E+03  0.25500000920E-02 0. -1.
       -2    1    3    3    0  502 -0.53504073837E+03  0.27163958818E+03  0.19251147782E+03  0.63017245789E+03  0.25500000920E-02 0.  1.
</event>
<event>
 5   0  0.1023063E-04  0.1200123E+04  0.7818609E-02  0.9112749E-01
       -2   -1    0    0    0  501  0.00000000000E+00  0.00000000000E+00  0.25206913891E+03  0.25206913892E+03  0.25500000920E-02 0.  1.
        2   -1    0    0  501    0  0.00000000000E+00  0.00000000000E+00 -0.14284712679E+04  0.14284712679E+04  0.25500000920E-02 0. -1.
    10030    2    1    2    0    0  0.00000000000E+00  0.00000000000E+00 -0.11764021290E+04  0.16805404068E+04  0.12001225312E+04 0.  0.
        3    1    3    3  502    0  0.37967666889E+03  0.11667497573E+02  0.62276005874E+02  0.38492702491E+03  0.10100000352E+00 0.  1.
       -3    1    3    3    0  502 -0.37967666889E+03 -0.11667497573E+02 -0.12386781348E+04  0.12956133819E+04  0.10100000352E+00 0. -1.
</event>
<event>
 5   0  0.5447807E-05  0.1202199E+04  0.7818609E-02  0.9110934E-01
       -1   -1    0    0    0  501  0.00000000000E+00  0.00000000000E+00  0.26305528696E+03  0.26305528701E+03  0.50400001928E-02 0.  1.
        1   -1    0    0  501    0  0.00000000000E+00  0.00000000000E+00 -0.13735540585E+04  0.13735540585E+04  0.50400001928E-02 0. -1.
    10030    2    1    2    0    0  0.00000000000E+00  0.00000000000E+00 -0.11104987715E+04  0.16366093455E+04  0.12021990801E+04 0.  0.
        2    1    3    3  502    0 -0.42601332811E+03 -0.37617239147E+03 -0.82176621411E+03  0.99914600259E+03  0.25500000920E-02 0. -1.
       -2    1    3    3    0  502  0.42601332811E+03  0.37617239147E+03 -0.28873255742E+03  0.63746334291E+03  0.25500000920E-02 0.  1.
</event>
<event>
 5   0  0.5620246E-05  0.1199794E+04  0.7818609E-02  0.9113037E-01
        1   -1    0    0  501    0  0.00000000000E+00  0.00000000000E+00  0.12431581232E+04  0.12431581232E+04  0.50400001928E-02 0. -1.
       -1   -1    0    0    0  501  0.00000000000E+00  0.00000000000E+00 -0.28948581743E+03  0.28948581747E+03  0.50400001928E-02 0.  1.
    10030    2    1    2    0    0  0.00000000000E+00  0.00000000000E+00  0.95367230578E+03  0.15326439407E+04  0.11997943916E+04 0.  0.
        1    1    3    3  502    0  0.11569855494E+03 -0.17170971316E+03 -0.24239479625E+03  0.31878773265E+03  0.50400001928E-02 0.  1.
       -1    1    3    3    0  502 -0.11569855494E+03  0.17170971316E+03  0.11960671020E+04  0.12138562080E+04  0.50400001928E-02 0. -1.
</event>
<event>
 5   0  0.1023063E-04  0.1199856E+04  0.7818609E-02  0.9112982E-01
        2   -1    0    0  501    0  0.00000000000E+00  0.00000000000E+00  0.84562328705E+03  0.84562328706E+03  0.25500000920E-02 0.  1.
       -2   -1    0    0    0  501  0.00000000000E+00  0.00000000000E+00 -0.42561942515E+03  0.42561942515E+03  0.25500000920E-02 0. -1.
    10030    2    1    2    0    0  0.00000000000E+00  0.00000000000E+00  0.42000386191E+03  0.12712427122E+04  0.11998561536E+04 0.  0.
        3    1    3    3  502    0  0.59214490848E+03 -0.94529658175E+02  0.19040159356E+03  0.62914563175E+03  0.10100000352E+00 0. -1.
       -3    1    3    3    0  502 -0.59214490848E+03  0.94529658175E+02  0.22960226834E+03  0.64209708046E+03  0.10100000352E+00 0.  1.
</event>
<event>
 5   0  0.1004006E-04  0.1199925E+04  0.7818609E-02  0.9112922E-01
       -2   -1    0    0    0  501  0.00000000000E+00  0.00000000000E+00  0.23669665039E+03  0.23669665040E+03  0.25500000920E-02 0.  1.
        2   -1    0    0  501    0  0.00000000000E+00  0.00000000000E+00 -0.15207432536E+04  0.15207432536E+04  0.25500000920E-02 0. -1.
    10030    2    1    2    0    0  0.00000000000E+00  0.00000000000E+00 -0.12840466032E+04  0.17574399040E+04  0.11999247214E+04 0.  0.
        5    1    3    3  502    0 -0.40196364244E+03 -0.44526261852E+03 -0.65660900774E+03  0.88937677524E+03  0.46999998093E+01 0. -1.
       -5    1    3    3    0  502  0.40196364244E+03  0.44526261852E+03 -0.62743759544E+03  0.86806312874E+03  0.46999998093E+01 0.  1.
</event>
<event>
 5   0  0.5745487E-05  0.1199646E+04  0.7818609E-02  0.9113167E-01
       -1   -1    0    0    0  501  0.00000000000E+00  0.00000000000E+00  0.50097420211E+03  0.50097420214E+03  0.50400001928E-02 0. -1.
        1   -1    0    0  501    0  0.00000000000E+00  0.00000000000E+00 -0.71817545201E+03  0.71817545203E+03  0.50400001928E-02 0.  1.
    10030    2    1    2    0    0  0.00000000000E+00  0.00000000000E+00 -0.21720124990E+03  0.12191496542E+04  0.11996455711E+04 0.  0.
        3    1    3    3  502    0  0.64061979233E+02 -0.17802609609E+03 -0.68705613028E+03  0.71263129627E+03  0.10100000352E+00 0.  1.
       -3    1    3    3    0  502 -0.64061979233E+02  0.17802609609E+03  0.46985488038E+03  0.50651835790E+03  0.10100000352E+00 0. -1.
</event>
<event>
 5   0  0.5447807E-05  0.1200094E+04  0.7818609E-02  0.9112774E-01
       -1   -1    0    0    0  501  0.00000000000E+00  0.00000000000E+00  0.28172049873E+03  0.28172049878E+03  0.50400001928E-02 0. -1.
        1   -1    0    0  501    0  0.00000000000E+00  0.00000000000E+00 -0.12780627463E+04  0.12780627463E+04  0.50400001928E-02 0.  1.
    10030    2    1    2    0    0  0.00000000000E+00  0.00000000000E+00 -0.99634224759E+03  0.15597832451E+04  0.12000941202E+04 0.  0.
        2    1    3    3  502    0 -0.41305280764E+03  0.36257133212E+03 -0.18519581613E+03  0.57997248478E+03  0.25500000920E-02 0.  1.
       -2    1    3    3    0  502  0.41305280764E+03 -0.36257133212E+03 -0.81114643146E+03  0.97981076033E+03  0.25500000920E-02 0. -1.
</event>
<event>
 5   0  0.5447807E-05  0.1199926E+04  0.7818609E-02  0.9112922E-01
        1   -1    0    0  501    0  0.00000000000E+00  0.00000000000E+00  0.83445206113E+03  0.83445206115E+03  0.50400001928E-02 0.  1.
       -1   -1    0    0    0  501  0.00000000000E+00  0.00000000000E+00 -0.43136727299E+03  0.43136727301E+03  0.50400001928E-02 0. -1.
    10030    2    1    2    0    0  0.00000000000E+00  0.00000000000E+00  0.40308478815E+03  0.12658193342E+04  0.11999255145E+04 0.  0.
        2    1    3    3  502    0  0.24868836630E+03 -0.27312761638E+03 -0.29718888579E+03  0.47409475024E+03  0.25500000920E-02 0. -1.
       -2    1    3    3    0  502 -0.24868836630E+03  0.27312761638E+03  0.70027367394E+03  0.79172458392E+03  0.25500000920E-02 0.  1.
</event>
<event>
 5   0  0.9838215E-05  0.1200316E+04  0.7818609E-02  0.9112580E-01
        2   -1    0    0  501    0  0.00000000000E+00  0.00000000000E+00  0.51470739891E+03  0.51470739891E+03  0.25500000920E-02 0.  1.
       -2   -1    0    0    0  501  0.00000000000E+00  0.00000000000E+00 -0.69979448628E+03  0.69979448628E+03  0.25500000920E-02 0. -1.
    10030    2    1    2    0    0  0.00000000000E+00  0.00000000000E+00 -0.18508708737E+03  0.12145018852E+04  0.12003156248E+04 0.  0.
        4    1    3    3  502    0 -0.19149036841E+03 -0.30781964319E+03  0.39140451402E+03  0.53349845400E+03  0.12699999809E+01 0.  1.
       -4    1    3    3    0  502  0.19149036841E+03  0.30781964319E+03 -0.57649160139E+03  0.68100343119E+03  0.12699999809E+01 0. -1.
</event>
<event>
 5   0  0.5625746E-05  0.1200120E+04  0.7818609E-02  0.9112752E-01
       -1   -1    0    0    0  501  0.00000000000E+00  0.00000000000E+00  0.65371413381E+03  0.65371413383E+03  0.50400001928E-02 0.  1.
        1   -1    0    0  501    0  0.00000000000E+00  0.00000000000E+00 -0.55080926737E+03  0.55080926739E+03  0.50400001928E-02 0. -1.
    10030    2    1    2    0    0  0.00000000000E+00  0.00000000000E+00  0.10290486644E+03  0.12045234012E+04  0.12001196659E+04 0.  0.
        5    1    3    3  502    0 -0.13975945033E+03 -0.44379733417E+03  0.43173711240E+03  0.63475018865E+03  0.46999998093E+01 0.  1.
       -5    1    3    3    0  502  0.13975945033E+03  0.44379733417E+03 -0.32883224596E+03  0.56977321256E+03  0.46999998093E+01 0. -1.
</event>
<event>
 5   0  0.1004006E-04  0.1200098E+04  0.7818609E-02  0.9112771E-01
       -2   -1    0    0    0  501  0.00000000000E+00  0.00000000000E+00  0.24441567264E+03  0.24441567265E+03  0.25500000920E-02 0.  1.
        2   -1    0    0  501    0  0.00000000000E+00  0.00000000000E+00 -0.14731407044E+04  0.14731407044E+04  0.25500000920E-02 0. -1.
    10030    2    1    2    0    0  0.00000000000E+00  0.00000000000E+00 -0.12287250317E+04  0.17175563770E+04  0.12000977896E+04 0.  0.
        5    1    3    3  502    0  0.48976388002E+03  0.12737123414E+03 -0.15294389611E+03  0.52868328403E+03  0.46999998093E+01 0.  1.
       -5    1    3    3    0  502 -0.48976388002E+03 -0.12737123414E+03 -0.10757811356E+04  0.11888730930E+04  0.46999998093E+01 0. -1.
</event>
<event>
 5   0  0.5447807E-05  0.1199993E+04  0.7818609E-02  0.9112863E-01
        1   -1    0    0  501    0  0.00000000000E+00  0.00000000000E+00  0.76326195502E+03  0.76326195504E+03  0.50400001928E-02 0. -1.
       -1   -1    0    0    0  501  0.00000000000E+00  0.00000000000E+00 -0.47165428636E+03  0.47165428639E+03  0.50400001928E-02 0.  1.
    10030    2    1    2    0    0  0.00000000000E+00  0.00000000000E+00  0.29160766866E+03  0.12349162414E+04  0.11999929545E+04 0.  0.
        2    1    3    3  502    0 -0.47960586474E+03  0.34483732128E+03  0.25403693666E+03  0.64301580761E+03  0.25500000920E-02 0. -1.
       -2    1    3    3    0  502  0.47960586474E+03 -0.34483732128E+03  0.37570731995E+02  0.59190043381E+03  0.25500000920E-02 0.  1.
</event>
<event>
 5   0  0.1012657E-04  0.1200624E+04  0.7818609E-02  0.9112311E-01
        2   -1    0    0  501    0  0.00000000000E+00  0.00000000000E+00  0.10835836193E+04  0.10835836193E+04  0.25500000920E-02 0.  1.
       -2   -1    0    0    0  501  0.00000000000E+00  0.00000000000E+00 -0.33257629004E+03  0.33257629005E+03  0.25500000920E-02 0. -1.
    10030    2    1    2    0    0  0.00000000000E+00  0.00000000000E+00  0.75100732925E+03  0.14161599093E+04  0.12006235381E+04 0.  0.
        1    1    3    3  502    0 -0.11123953511E+03  0.53840691024E+03  0.65985856433E+03  0.85887691790E+03  0.50400001928E-02 0.  1.
       -1    1    3    3    0  502  0.11123953511E+03 -0.53840691024E+03  0.91148764919E+02  0.55728299143E+03  0.50400001928E-02 0. -1.
</event>
<event>
 5   0  0.5625746E-05  0.1199667E+04  0.7818609E-02  0.9113148E-01
       -1   -1    0    0    0  501  0.00000000000E+00  0.00000000000E+00  0.52509549093E+03  0.52509549095E+03  0.50400001928E-02 0. -1.
        1   -1    0    0  501    0  0.00000000000E+00  0.00000000000E+00 -0.68520880518E+03  0.68520880520E+03  0.50400001928E-02 0.  1.
    10030    2    1    2    0    0  0.00000000000E+00  0.00000000000E+00 -0.16011331425E+03  0.12103042962E+04  0.11996667103E+04 0.  0.
        5    1    3    3  502    0 -0.34097157702E+03  0.49347253895E+03 -0.81162248088E+02  0.60529840868E+03  0.46999998093E+01 0. -1.
       -5    1    3    3    0  502  0.34097157702E+03 -0.49347253895E+03 -0.78951066165E+02  0.60500588748E+03  0.46999998093E+01 0.  1.
</event>
<event>
 5   0  0.3839750E-05  0.1200330E+04  0.7818609E-02  0.9112568E-01
       -4   -1    0    0    0  501  0.00000000000E+00  0.00000000000E+00  0.59577273180E+03  0.59577408542E+03  0.12699999809E+01 0. -1.
        4   -1    0    0  501    0  0.00000000000E+00  0.00000000000E+00 -0.60458653402E+03  0.60458786791E+03  0.12699999809E+01 0.  1.
    10030    2    1    2    0    0  0.00000000000E+00  0.00000000000E+00 -0.88138022259E+01  0.12003619533E+04  0.12003295947E+04 0.  0.
        5    1    3    3  502    0  0.26827997384E+03  0.19451488809E+03 -0.50478576445E+03  0.60385506874E+03  0.46999998093E+01 0.  1.
       -5    1    3    3    0  502 -0.26827997384E+03 -0.19451488809E+03  0.49597196222E+03  0.59650688459E+03  0.46999998093E+01 0. -1.
</event>
<event>
 5   0  0.9941209E-05  0.1200141E+04  0.7818609E-02  0.9112733E-01
        2   -1    0    0  501    0  0.00000000000E+00  0.00000000000E+00  0.57253419362E+03  0.57253419363E+03  0.25500000920E-02 0.  1.
       -2   -1    0    0    0  501  0.00000000000E+00  0.00000000000E+00 -0.62893081284E+03  0.62893081285E+03  0.25500000920E-02 0. -1.
    10030    2    1    2    0    0  0.00000000000E+00  0.00000000000E+00 -0.56396619223E+02  0.12014650065E+04  0.12001406514E+04 0.  0.
        2    1    3    3  502    0 -0.17773221182E+03  0.57305600151E+03 -0.38332513223E+02  0.60120820151E+03  0.25500000920E-02 0. -1.
       -2    1    3    3    0  502  0.17773221182E+03 -0.57305600151E+03 -0.18064106000E+02  0.60025680497E+03  0.25500000920E-02 0.  1.
</event>
<event>
 5   0  0.9941209E-05  0.1199254E+04  0.7818609E-02  0.9113510E-01
        2   -1    0    0  501    0  0.00000000000E+00  0.00000000000E+00  0.83129871138E+03  0.83129871138E+03  0.25500000920E-02 0.  1.
       -2   -1    0    0    0  501  0.00000000000E+00  0.00000000000E+00 -0.43251921753E+03  0.43251921754E+03  0.25500000920E-02 0. -1.
    10030    2    1    2    0    0  0.00000000000E+00  0.00000000000E+00  0.39877949385E+03  0.12638179289E+04  0.11992542152E+04 0.  0.
        2    1    3    3  502    0  0.40251519279E+03  0.29313596539E+03  0.55144922813E+03  0.74299624888E+03  0.25500000920E-02 0.  1.
       -2    1    3    3    0  502 -0.40251519279E+03 -0.29313596539E+03 -0.15266973428E+03  0.52082168004E+03  0.25500000920E-02 0. -1.
</event>
<event>
 5   0  0.9838215E-05  0.1200238E+04  0.7818609E-02  0.9112648E-01
        2   -1    0    0  501    0  0.00000000000E+00  0.00000000000E+00  0.28642859104E+03  0.28642859105E+03  0.25500000920E-02 0.  1.
       -2   -1    0    0    0  501  0.00000000000E+00  0.00000000000E+00 -0.12573567063E+04  0.12573567063E+04  0.25500000920E-02 0. -1.
    10030    2    1    2    0    0  0.00000000000E+00  0.00000000000E+00 -0.97092811524E+03  0.15437852973E+04  0.12002381594E+04 0.  0.
        4    1    3    3  502    0 -0.15069848252E+03  0.35012735199E+03  0.11071836341E+03  0.39693748140E+03  0.12699999809E+01 0.  1.
       -4    1    3    3    0  502  0.15069848252E+03 -0.35012735199E+03 -0.10816464787E+04  0.11468478159E+04  0.12699999809E+01 0. -1.
</event>
<event>
 5   0  0.9941209E-05  0.1199800E+04  0.7818609E-02  0.9113032E-01
        2   -1    0    0  501    0  0.00000000000E+00  0.00000000000E+00  0.16104823793E+04  0.16104823793E+04  0.25500000920E-02 0.  1.
       -2   -1    0    0    0  501  0.00000000000E+00  0.00000000000E+00 -0.22346096127E+03  0.22346096129E+03  0.25500000920E-02 0. -1.
    10030    2    1    2    0    0  0.00000000000E+00  0.00000000000E+00  0.13870214180E+04  0.18339433406E+04  0.11997998843E+04 0.  0.
        2    1    3    3  502    0 -0.17820409199E+03  0.27743219875E+03  0.14595440665E+04  0.14963269046E+04  0.25500000920E-02 0.  1.
       -2    1    3    3    0  502  0.17820409199E+03 -0.27743219875E+03 -0.72522648485E+02  0.33761643600E+03  0.25500000920E-02 0. -1.
</event>
<event>
 5   0  0.9941209E-05  0.1200039E+04  0.7818609E-02  0.9112822E-01
        2   -1    0    0  501    0  0.00000000000E+00  0.00000000000E+00  0.12132474727E+04  0.12132474727E+04  0.25500000920E-02 0. -1.
       -2   -1    0    0    0  501  0.00000000000E+00  0.00000000000E+00 -0.29674369733E+03  0.29674369734E+03  0.25500000920E-02 0.  1.
    10030    2    1    2    0    0  0.00000000000E+00  0.00000000000E+00  0.91650377541E+03  0.15099911701E+04  0.12000392341E+04 0.  0.
        2    1    3    3  502    0  0.17309180985E+03  0.36370029322E+03  0.10178490299E+04  0.10946484940E+04  0.25500000920E-02 0. -1.
       -2    1    3    3    0  502 -0.17309180985E+03 -0.36370029322E+03 -0.10134525446E+03  0.41534267603E+03  0.25500000920E-02 0.  1.
</event>
<event>
 5   0  0.1023063E-04  0.1199975E+04  0.7818609E-02  0.9112879E-01
       -2   -1    0    0    0  501  0.00000000000E+00  0.00000000000E+00  0.57223120503E+03  0.57223120503E+03  0.25500000920E-02 0.  1.
        2   -1    0    0  501    0  0.00000000000E+00  0.00000000000E+00 -0.62908966552E+03  0.62908966553E+03  0.25500000920E-02 0. -1.
    10030    2    1    2    0    0  0.00000000000E+00  0.00000000000E+00 -0.56858460495E+02  0.12013208706E+04  0.11999745620E+04 0.  0.
        3    1    3    3  502    0  0.54336240879E+03  0.73408334305E+02  0.21546930090E+03  0.58911672923E+03  0.10100000352E+00 0.  1.
       -3    1    3    3    0  502 -0.54336240879E+03 -0.73408334305E+02 -0.27232776140E+03  0.61220414133E+03  0.10100000352E+00 0. -1.
</event>
<event>
 5   0  0.5732931E-05  0.1199738E+04  0.7818609E-02  0.9113086E-01
       -1   -1    0    0    0  501  0.00000000000E+00  0.00000000000E+00  0.79414750170E+03  0.79414750172E+03  0.50400001928E-02 0.  1.
        1   -1    0    0  501    0  0.00000000000E+00  0.00000000000E+00 -0.45311808250E+03  0.45311808253E+03  0.50400001928E-02 0. -1.
    10030    2    1    2    0    0  0.00000000000E+00  0.00000000000E+00  0.34102941920E+03  0.12472655843E+04  0.11997376267E+04 0.  0.
        4    1    3    3  502    0  0.10429877787E+03  0.33960314750E+03 -0.33198896130E+03  0.48623740722E+03  0.12699999809E+01 0. -1.
       -4    1    3    3    0  502 -0.10429877787E+03 -0.33960314750E+03  0.67301838049E+03  0.76102817703E+03  0.12699999809E+01 0.  1.
</event>
<event>
 5   0  0.5620246E-05  0.1199904E+04  0.7818609E-02  0.9112941E-01
        1   -1    0    0  501    0  0.00000000000E+00  0.00000000000E+00  0.41679570953E+03  0.41679570956E+03  0.50400001928E-02 0. -1.
       -1   -1    0    0    0  501  0.00000000000E+00  0.00000000000E+00 -0.86359361483E+03  0.86359361484E+03  0.50400001928E-02 0.  1.
    10030    2    1    2    0    0  0.00000000000E+00  0.00000000000E+00 -0.44679790530E+03  0.12803893244E+04  0.11999035186E+04 0.  0.
        1    1    3    3  502    0 -0.22100224530E+03 -0.22864241813E+03 -0.76627034260E+03  0.82963219909E+03  0.50400001928E-02 0.  1.
       -1    1    3    3    0  502  0.22100224530E+03  0.22864241813E+03  0.31947243730E+03  0.45075712531E+03  0.50400001928E-02 0. -1.
</event>
<event>
 5   0  0.5745487E-05  0.1200025E+04  0.7818609E-02  0.9112835E-01
        1   -1    0    0  501    0  0.00000000000E+00  0.00000000000E+00  0.10709272542E+04  0.10709272542E+04  0.50400001928E-02 0. -1.
       -1   -1    0    0    0  501  0.00000000000E+00  0.00000000000E+00 -0.33617123360E+03  0.33617123364E+03  0.50400001928E-02 0.  1.
    10030    2    1    2    0    0  0.00000000000E+00  0.00000000000E+00  0.73475602061E+03  0.14070984879E+04  0.12000248934E+04 0.  0.
        3    1    3    3  502    0 -0.33613676326E+03 -0.41427988577E+03  0.45406423090E+02  0.53542273096E+03  0.10100000352E+00 0.  1.
       -3    1    3    3    0  502  0.33613676326E+03  0.41427988577E+03  0.68934959752E+03  0.87167575691E+03  0.10100000352E+00 0. -1.
</event>
<event>
 5   0  0.3839750E-05  0.1199848E+04  0.7818609E-02  0.9112990E-01
        3   -1    0    0  501    0  0.00000000000E+00  0.00000000000E+00  0.26509394829E+04  0.26509394848E+04  0.10100000352E+00 0.  1.
       -3   -1    0    0    0  501  0.00000000000E+00  0.00000000000E+00 -0.13576640507E+03  0.13576644263E+03  0.10100000352E+00 0. -1.
    10030    2    1    2    0    0  0.00000000000E+00  0.00000000000E+00  0.25151730778E+04  0.27867059275E+04  0.11998476214E+04 0.  0.
        5    1    3    3  502    0 -0.19165588765E+03 -0.44085566047E+02  0.25739027578E+04  0.25814091138E+04  0.46999998093E+01 0.  1.
       -5    1    3    3    0  502  0.19165588765E+03  0.44085566047E+02 -0.58729679910E+02  0.20529681367E+03  0.46999998093E+01 0. -1.
</event>
<event>
 5   0  0.5447807E-05  0.1200083E+04  0.7818609E-02  0.9112784E-01
       -1   -1    0    0    0  501  0.00000000000E+00  0.00000000000E+00  0.12006559300E+04  0.12006559300E+04  0.50400001928E-02 0. -1.
        1   -1    0    0  501    0  0.00000000000E+00  0.00000000000E+00 -0.29987750295E+03  0.29987750299E+03  0.50400001928E-02 0.  1.
    10030    2    1    2    0    0  0.00000000000E+00  0.00000000000E+00  0.90077842700E+03  0.15005334330E+04  0.12000828342E+04 0.  0.
        2    1    3    3  502    0 -0.27246142985E+03 -0.20765490610E+03 -0.16558693096E+03  0.38049286786E+03  0.25500000920E-02 0.  1.
       -2    1    3    3    0  502  0.27246142985E+03  0.20765490610E+03  0.10663653580E+04  0.11200405651E+04  0.25500000920E-02 0. -1.
</event>
<event>
 5   0  0.5620246E-05  0.1199083E+04  0.7818609E-02  0.9113659E-01
       -1   -1    0    0    0  501  0.00000000000E+00  0.00000000000E+00  0.38045468534E+03  0.38045468538E+03  0.50400001928E-02 0. -1.
        1   -1    0    0  501    0  0.00000000000E+00  0.00000000000E+00 -0.94479077545E+03  0.94479077546E+03  0.50400001928E-02 0.  1.
    10030    2    1    2    0    0  0.00000000000E+00  0.00000000000E+00 -0.56433609011E+03  0.13252454608E+04  0.11990831117E+04 0.  0.
        1    1    3    3  502    0 -0.42120727321E+03  0.39366452674E+03 -0.46398442500E+03  0.74004653454E+03  0.50400001928E-02 0.  1.
       -1    1    3    3    0  502  0.42120727321E+03 -0.39366452674E+03 -0.10035166511E+03  0.58519892630E+03  0.50400001928E-02 0. -1.
</event>
<event>
 5   0  0.9838215E-05  0.1199585E+04  0.7818609E-02  0.9113220E-01
        2   -1    0    0  501    0  0.00000000000E+00  0.00000000000E+00  0.13691744925E+04  0.13691744925E+04  0.25500000920E-02 0. -1.
       -2   -1    0    0    0  501  0.00000000000E+00  0.00000000000E+00 -0.26275033794E+03  0.26275033795E+03  0.25500000920E-02 0.  1.
    10030    2    1    2    0    0  0.00000000000E+00  0.00000000000E+00  0.11064241545E+04  0.16319248304E+04  0.11995850293E+04 0.  0.
        4    1    3    3  502    0  0.49246875176E+03 -0.59990568066E+02  0.10117827407E+04  0.11268674576E+04  0.12699999809E+01 0. -1.
       -4    1    3    3    0  502 -0.49246875176E+03  0.59990568066E+02  0.94641413802E+02  0.50505737280E+03  0.12699999809E+01 0.  1.
</event>
<event>
 5   0  0.9838215E-05  0.1200289E+04  0.7818609E-02  0.9112603E-01
        2   -1    0    0  501    0  0.00000000000E+00  0.00000000000E+00  0.92176896411E+03  0.92176896412E+03  0.25500000920E-02 0.  1.
       -2   -1    0    0    0  501  0.00000000000E+00  0.00000000000E+00 -0.39074178605E+03  0.39074178606E+03  0.25500000920E-02 0. -1.
    10030    2    1    2    0    0  0.00000000000E+00  0.00000000000E+00  0.53102717806E+03  0.13125107502E+04  0.12002893841E+04 0.  0.
        4    1    3    3  502    0 -0.12856929247E+03 -0.25822810160E+03  0.84098745310E+03  0.88908566775E+03  0.12699999809E+01 0.  1.
       -4    1    3    3    0  502  0.12856929247E+03  0.25822810160E+03 -0.30996027504E+03  0.42342508243E+03  0.12699999809E+01 0. -1.
</event>
<event>
 5   0  0.9941209E-05  0.1199861E+04  0.7818609E-02  0.9112978E-01
        2   -1    0    0  501    0  0.00000000000E+00  0.00000000000E+00  0.13768666581E+04  0.13768666581E+04  0.25500000920E-02 0. -1.
       -2   -1    0    0    0  501  0.00000000000E+00  0.00000000000E+00 -0.26140286585E+03  0.26140286586E+03  0.25500000920E-02 0.  1.
    10030    2    1    2    0    0  0.00000000000E+00  0.00000000000E+00  0.11154637922E+04  0.16382695240E+04  0.11998614759E+04 0.  0.
        2    1    3    3  502    0 -0.11693797862E+03 -0.38669394079E+03  0.11633065336E+04  0.12314579919E+04  0.25500000920E-02 0. -1.
       -2    1    3    3    0  502  0.11693797862E+03  0.38669394079E+03 -0.47842741385E+02  0.40681153203E+03  0.25500000920E-02 0.  1.
</event>
<event>
 5   0  0.5625746E-05  0.1197643E+04  0.7818609E-02  0.9114922E-01
       -1   -1    0    0    0  501  0.00000000000E+00  0.00000000000E+00  0.22450742433E+03  0.22450742439E+03  0.50400001928E-02 0.  1.
        1   -1    0    0  501    0  0.00000000000E+00  0.00000000000E+00 -0.15972169058E+04  0.15972169058E+04  0.50400001928E-02 0. -1.
    10030    2    1    2    0    0  0.00000000000E+00  0.00000000000E+00 -0.13727094815E+04  0.18217243302E+04  0.11976427743E+04 0.  0.
        5    1    3    3  502    0  0.12644164074E+03 -0.49211188749E+03 -0.11683352708E+04  0.12740451301E+04  0.46999998093E+01 0. -1.
       -5    1    3    3    0  502 -0.12644164074E+03  0.49211188749E+03 -0.20437421065E+03  0.54767920016E+03  0.46999998093E+01 0.  1.
</event>
<event>
 5   0  0.5732931E-05  0.1199980E+04  0.7818609E-02  0.9112874E-01
        1   -1    0    0  501    0  0.00000000000E+00  0.00000000000E+00  0.10211521514E+04  0.10211521514E+04  0.50400001928E-02 0. -1.
       -1   -1    0    0    0  501  0.00000000000E+00  0.00000000000E+00 -0.35253129484E+03  0.35253129487E+03  0.50400001928E-02 0.  1.
    10030    2    1    2    0    0  0.00000000000E+00  0.00000000000E+00  0.66862085656E+03  0.13736834463E+04  0.11999801501E+04 0.  0.
        4    1    3    3  502    0 -0.42595695018E+03 -0.15539119704E+03 -0.11550803445E+03  0.46789899171E+03  0.12699999809E+01 0.  1.
       -4    1    3    3    0  502  0.42595695018E+03  0.15539119704E+03  0.78412889101E+03  0.90578445457E+03  0.12699999809E+01 0. -1.
</event>
<event>
 5   0  0.5745487E-05  0.1199307E+04  0.7818609E-02  0.9113464E-01
        1   -1    0    0  501    0  0.00000000000E+00  0.00000000000E+00  0.65837721197E+03  0.65837721199E+03  0.50400001928E-02 0. -1.
       -1   -1    0    0    0  501  0.00000000000E+00  0.00000000000E+00 -0.54616725881E+03  0.54616725884E+03  0.50400001928E-02 0.  1.
    10030    2    1    2    0    0  0.00000000000E+00  0.00000000000E+00  0.11220995316E+03  0.12045444708E+04  0.11993065949E+04 0.  0.
        3    1    3    3  502    0  0.34817627041E+03 -0.22951820042E+03  0.48889148665E+03  0.64258868300E+03  0.10100000352E+00 0. -1.
       -3    1    3    3    0  502 -0.34817627041E+03  0.22951820042E+03 -0.37668153349E+03  0.56195578783E+03  0.10100000352E+00 0.  1.
</event>
<event>
 5   0  0.3839750E-05  0.1200616E+04  0.7818609E-02  0.9112318E-01
       -3   -1    0    0    0  501  0.00000000000E+00  0.00000000000E+00  0.82737129853E+03  0.82737130470E+03  0.10100000352E+00 0.  1.
        3   -1    0    0  501    0  0.00000000000E+00  0.00000000000E+00 -0.43555976814E+03  0.43555977985E+03  0.10100000352E+00 0. -1.
    10030    2    1    2    0    0  0.00000000000E+00  0.00000000000E+00  0.39181153039E+03  0.12629310845E+04  0.12006159457E+04 0.  0.
        3    1    3    3  502    0  0.44438640803E+02 -0.42281716677E+03 -0.24990802626E+03  0.49315634549E+03  0.10100000352E+00 0. -1.
       -3    1    3    3    0  502 -0.44438640803E+02  0.42281716677E+03  0.64171955664E+03  0.76977473906E+03  0.10100000352E+00 0.  1.
</event>
<event>
 5   0  0.5732931E-05  0.1199888E+04  0.7818609E-02  0.9112955E-01
        1   -1    0    0  501    0  0.00000000000E+00  0.00000000000E+00  0.24499673052E+04  0.24499673052E+04  0.50400001928E-02 0. -1.
       -1   -1    0    0    0  501  0.00000000000E+00  0.00000000000E+00 -0.14691328729E+03  0.14691328738E+03  0.50400001928E-02 0.  1.
    10030    2    1    2    0    0  0.00000000000E+00  0.00000000000E+00  0.23030540179E+04  0.25968805926E+04  0.11998879126E+04 0.  0.
        4    1    3    3  502    0 -0.37718204899E+03 -0.43823210487E+03  0.80512583719E+03  0.99123302126E+03  0.12699999809E+01 0.  1.
       -4    1    3    3    0  502  0.37718204899E+03  0.43823210487E+03  0.14979281807E+04  0.16056475713E+04  0.12699999809E+01 0. -1.
</event>
<event>
 5   0  0.5447807E-05  0.1199997E+04  0.7818609E-02  0.9112859E-01
       -1   -1    0    0    0  501  0.00000000000E+00  0.00000000000E+00  0.42140418852E+03  0.42140418855E+03  0.50400001928E-02 0. -1.
        1   -1    0    0  501    0  0.00000000000E+00  0.00000000000E+00 -0.85428290592E+03  0.85428290594E+03  0.50400001928E-02 0.  1.
    10030    2    1    2    0    0  0.00000000000E+00  0.00000000000E+00 -0.43287871740E+03  0.12756870945E+04  0.11999973246E+04 0.  0.
        2    1    3    3  502    0 -0.19132903204E+02 -0.59600146602E+03 -0.14580621371E+03  0.61387561236E+03  0.25500000920E-02 0. -1.
       -2    1    3    3    0  502  0.19132903204E+02  0.59600146602E+03 -0.28707250370E+03  0.66181148213E+03  0.25500000920E-02 0.  1.
</event>
<event>
 5   0  0.1012657E-04  0.1200052E+04  0.7818609E-02  0.9112811E-01
       -2   -1    0    0    0  501  0.00000000000E+00  0.00000000000E+00  0.50056847646E+03  0.50056847647E+03  0.25500000920E-02 0. -1.
        2   -1    0    0  501    0  0.00000000000E+00  0.00000000000E+00 -0.71924412366E+03  0.71924412367E+03  0.25500000920E-02 0.  1.
    10030    2    1    2    0    0  0.00000000000E+00  0.00000000000E+00 -0.21867564720E+03  0.12198126001E+04  0.12000515575E+04 0.  0.
        1    1    3    3  502    0  0.43424676681E+03 -0.12915445330E+03 -0.50923686381E+03  0.68159614933E+03  0.50400001928E-02 0.  1.
       -1    1    3    3    0  502 -0.43424676681E+03  0.12915445330E+03  0.29056121661E+03  0.53821645080E+03  0.50400001928E-02 0. -1.
</event>
<event>
 5   0  0.9941209E-05  0.1199210E+04  0.7818609E-02  0.9113549E-01
       -2   -1    0    0    0  501  0.00000000000E+00  0.00000000000E+00  0.15987263497E+03  0.15987263499E+03  0.25500000920E-02 0.  1.
        2   -1    0    0  501    0  0.00000000000E+00  0.00000000000E+00 -0.22488274668E+04  0.22488274668E+04  0.25500000920E-02 0. -1.
    10030    2    1    2    0    0  0.00000000000E+00  0.00000000000E+00 -0.20889548319E+04  0.24087001018E+04  0.11992096943E+04 0.  0.
        2    1    3    3  502    0  0.21164350581E+03 -0.17995592369E+03  0.22808118595E+02  0.27874238699E+03  0.25500000920E-02 0.  1.
       -2    1    3    3    0  502 -0.21164350581E+03  0.17995592369E+03 -0.21117629504E+04  0.21299577148E+04  0.25500000920E-02 0. -1.
</event>
<event>
 5   0  0.1023063E-04  0.1199313E+04  0.7818609E-02  0.9113458E-01
       -2   -1    0    0    0  501  0.00000000000E+00  0.00000000000E+00  0.63048320593E+03  0.63048320594E+03  0.25500000920E-02 0. -1.
        2   -1    0    0  501    0  0.00000000000E+00  0.00000000000E+00 -0.57033719082E+03  0.57033719083E+03  0.25500000920E-02 0.  1.
    10030    2    1    2    0    0  0.00000000000E+00  0.00000000000E+00  0.60146015111E+02  0.12008203968E+04  0.11993131710E+04 0.  0.
        3    1    3    3  502    0 -0.19697360740E+03  0.41163305565E+03 -0.35945014239E+03  0.58089998243E+03  0.10100000352E+00 0.  1.
       -3    1    3    3    0  502  0.19697360740E+03 -0.41163305565E+03  0.41959615750E+03  0.61992041433E+03  0.10100000352E+00 0. -1.
</event>
<event>
 5   0  0.1004006E-04  0.1200350E+04  0.7818609E-02  0.9112550E-01
        2   -1    0    0  501    0  0.00000000000E+00  0.00000000000E+00  0.54468690711E+03  0.54468690711E+03  0.25500000920E-02 0.  1.
       -2   -1    0    0    0  501  0.00000000000E+00  0.00000000000E+00 -0.66131554445E+03  0.66131554445E+03  0.25500000920E-02 0. -1.
    10030    2    1    2    0    0  0.00000000000E+00  0.00000000000E+00 -0.11662863734E+03  0.12060024516E+04  0.12003498132E+04 0.  0.
        5    1    3    3  502    0 -0.45085224054E+03  0.29881553090E+03  0.20296679214E+03  0.57773356577E+03  0.46999998093E+01 0. -1.
       -5    1    3    3    0  502  0.45085224054E+03 -0.29881553090E+03 -0.31959542948E+03  0.62826888579E+03  0.46999998093E+01 0.  1.
</event>
<event>
 5   0  0.5625746E-05  0.1199948E+04  0.7818609E-02  0.9112902E-01
       -1   -1    0    0    0  501  0.00000000000E+00  0.00000000000E+00  0.39972140803E+03  0.39972140806E+03  0.50400001928E-02 0.  1.
        1   -1    0    0  501    0  0.00000000000E+00  0.00000000000E+00 -0.90054857772E+03  0.90054857774E+03  0.50400001928E-02 0. -1.
    10030    2    1    2    0    0  0.00000000000E+00  0.00000000000E+00 -0.50082716970E+03  0.13002699858E+04  0.11999475747E+04 0.  0.
        5    1    3    3  502    0  0.38907852029E+03 -0.38607731178E+02 -0.74351227173E+03  0.84006264056E+03  0.46999998093E+01 0. -1.
       -5    1    3    3    0  502 -0.38907852029E+03  0.38607731178E+02  0.24268510203E+03  0.46020734523E+03  0.46999998093E+01 0.  1.
</event>
<event>
 5   0  0.5447807E-05  0.1199867E+04  0.7818609E-02  0.9112973E-01
       -1   -1    0    0    0  501  0.00000000000E+00  0.00000000000E+00  0.42027108521E+03  0.42027108524E+03  0.50400001928E-02 0. -1.
        1   -1    0    0  501    0  0.00000000000E+00  0.00000000000E+00 -0.85639967935E+03  0.85639967937E+03  0.50400001928E-02 0.  1.
    10030    2    1    2    0    0  0.00000000000E+00  0.00000000000E+00 -0.43612859414E+03  0.12766707646E+04  0.11998666970E+04 0.  0.
        2    1    3    3  502    0  0.32938377947E+03 -0.13892339506E+03  0.29457088126E+03  0.46321203348E+03  0.25500000920E-02 0. -1.
       -2    1    3    3    0  502 -0.32938377947E+03  0.13892339506E+03 -0.73069947540E+03  0.81345873112E+03  0.25500000920E-02 0.  1.
</event>
<event>
 5   0  0.5625746E-05  0.1200388E+04  0.7818609E-02  0.9112517E-01
        1   -1    0    0  501    0  0.00000000000E+00  0.00000000000E+00  0.82252047658E+03  0.82252047659E+03  0.50400001928E-02 0.  1.
       -1   -1    0    0    0  501  0.00000000000E+00  0.00000000000E+00 -0.43796206291E+03  0.43796206294E+03  0.50400001928E-02 0. -1.
    10030    2    1    2    0    0  0.00000000000E+00  0.00000000000E+00  0.38455841367E+03  0.12604825395E+04  0.12003878785E+04 0.  0.
        5    1    3    3  502    0 -0.48124721342E+03 -0.35349973642E+03  0.12884176799E+03  0.61088725249E+03  0.46999998093E+01 0. -1.
       -5    1    3    3    0  502  0.48124721342E+03  0.35349973642E+03  0.25571664568E+03  0.64959528704E+03  0.46999998093E+01 0.  1.
</event>
<event>
 5   0  0.9941209E-05  0.1199837E+04  0.7818609E-02  0.9112999E-01
       -2   -1    0    0    0  501  0.00000000000E+00  0.00000000000E+00  0.78036259540E+03  0.78036259541E+03  0.25500000920E-02 0.  1.
        2   -1    0    0  501    0  0.00000000000E+00  0.00000000000E+00 -0.46119898433E+03  0.46119898434E+03  0.25500000920E-02 0. -1.
    10030    2    1    2    0    0  0.00000000000E+00  0.00000000000E+00  0.31916361108E+03  0.12415615797E+04  0.11998373830E+04 0.  0.
        2    1    3    3  502    0 -0.77952497299E+02  0.57718965746E+03  0.30838064778E+03  0.65903195404E+03  0.25500000920E-02 0.  1.
       -2    1    3    3    0  502  0.77952497299E+02 -0.57718965746E+03  0.10782963290E+02  0.58252962570E+03  0.25500000920E-02 0. -1.
</event>
<event>
 5   0  0.1012657E-04  0.1199416E+04  0.7818609E-02  0.9113368E-01
        2   -1    0    0  501    0  0.00000000000E+00  0.00000000000E+00  0.14084910926E+04  0.14084910926E+04  0.25500000920E-02 0.  1.
       -2   -1    0    0    0  501  0.00000000000E+00  0.00000000000E+00 -0.25534407696E+03  0.25534407697E+03  0.25500000920E-02 0. -1.
    10030    2    1    2    0    0  0.00000000000E+00  0.00000000000E+00  0.11531470157E+04  0.16638351696E+04  0.11994162880E+04 0.  0.
        1    1    3    3  502    0  0.32444803865E+03 -0.49540809963E+03  0.70783954367E+03  0.92289356622E+03  0.50400001928E-02 0.  1.
       -1    1    3    3    0  502 -0.32444803865E+03  0.49540809963E+03  0.44530747198E+03  0.74094160336E+03  0.50400001928E-02 0. -1.
</event>
<event>
 5   0  0.1012657E-04  0.1200203E+04  0.7818609E-02  0.9112679E-01
        2   -1    0    0  501    0  0.00000000000E+00  0.00000000000E+00  0.45910305003E+03  0.45910305003E+03  0.25500000920E-02 0. -1.
       -2   -1    0    0    0  501  0.00000000000E+00  0.00000000000E+00 -0.78440295629E+03  0.78440295629E+03  0.25500000920E-02 0.  1.
    10030    2    1    2    0    0  0.00000000000E+00  0.00000000000E+00 -0.32529990626E+03  0.12435060063E+04  0.12002029656E+04 0.  0.
        1    1    3    3  502    0  0.16474261036E+03 -0.43862223854E+03 -0.55113454256E+03  0.72338017656E+03  0.50400001928E-02 0.  1.
       -1    1    3    3    0  502 -0.16474261036E+03  0.43862223854E+03  0.22583463630E+03  0.52012582976E+03  0.50400001928E-02 0. -1.
</event>
<event>
 5   0  0.1023063E-04  0.1199565E+04  0.7818609E-02  0.9113237E-01
        2   -1    0    0  501    0  0.00000000000E+00  0.00000000000E+00  0.60856606999E+03  0.60856607000E+03  0.25500000920E-02 0. -1.
       -2   -1    0    0    0  501  0.00000000000E+00  0.00000000000E+00 -0.59112614095E+03  0.59112614096E+03  0.25500000920E-02 0.  1.
    10030    2    1    2    0    0  0.00000000000E+00  0.00000000000E+00  0.17439929041E+02  0.11996922110E+04  0.11995654421E+04 0.  0.
        3    1    3    3  502    0  0.14555371225E+03 -0.56355899605E+03  0.15349256644E+03  0.60195066520E+03  0.10100000352E+00 0.  1.
       -3    1    3    3    0  502 -0.14555371225E+03  0.56355899605E+03 -0.13605263740E+03  0.59774154576E+03  0.10100000352E+00 0. -1.
</event>
<event>
 5   0  0.5732931E-05  0.1199669E+04  0.7818609E-02  0.9113146E-01
       -1   -1    0    0    0  501  0.00000000000E+00  0.00000000000E+00  0.39410272039E+03  0.39410272042E+03  0.50400001928E-02 0. -1.
        1   -1    0    0  501    0  0.00000000000E+00  0.00000000000E+00 -0.91296420842E+03  0.91296420843E+03  0.50400001928E-02 0.  1.
    10030    2    1    2    0    0  0.00000000000E+00  0.00000000000E+00 -0.51886148803E+03  0.13070669289E+04  0.11996694181E+04 0.  0.
        4    1    3    3  502    0 -0.56215077014E+02  0.59685783224E+03 -0.23762236336E+03  0.64487627283E+03  0.12699999809E+01 0. -1.
       -4    1    3    3    0  502  0.56215077014E+02 -0.59685783224E+03 -0.28123912467E+03  0.66219065603E+03  0.12699999809E+01 0.  1.
</event>
<event>
 5   0  0.1023063E-04  0.1199314E+04  0.7818609E-02  0.9113458E-01
        2   -1    0    0  501    0  0.00000000000E+00  0.00000000000E+00  0.13818658200E+04  0.13818658201E+04  0.25500000920E-02 0. -1.
       -2   -1    0    0    0  501  0.00000000000E+00  0.00000000000E+00 -0.26021935196E+03  0.26021935197E+03  0.25500000920E-02 0.  1.
    10030    2    1    2    0    0  0.00000000000E+00  0.00000000000E+00  0.11216464681E+04  0.16420851720E+04  0.11993135173E+04 0.  0.
        3    1    3    3  502    0 -0.43537000480E+03  0.45225837178E+02 -0.36966059957E+00  0.43771287881E+03  0.10100000352E+00 0.  1.
       -3    1    3    3    0  502  0.43537000480E+03 -0.45225837178E+02  0.11220161287E+04  0.12043722932E+04  0.10100000352E+00 0. -1.
</event>
<event>
 5   0  0.5447807E-05  0.1198128E+04  0.7818609E-02  0.9114497E-01
       -1   -1    0    0    0  501  0.00000000000E+00  0.00000000000E+00  0.25907204428E+03  0.25907204433E+03  0.50400001928E-02 0.  1.
        1   -1    0    0  501    0  0.00000000000E+00  0.00000000000E+00 -0.13852420182E+04  0.13852420182E+04  0.50400001928E-02 0. -1.
    10030    2    1    2    0    0  0.00000000000E+00  0.00000000000E+00 -0.11261699739E+04  0.16443140625E+04  0.11981276752E+04 0.  0.
        2    1    3    3  502    0  0.31784020316E+03 -0.50509509817E+03 -0.49132486031E+03  0.77300942510E+03  0.25500000920E-02 0. -1.
       -2    1    3    3    0  502 -0.31784020316E+03  0.50509509817E+03 -0.63484511361E+03  0.87130463743E+03  0.25500000920E-02 0.  1.
</event>
<event>
 5   0  0.1004006E-04  0.1200189E+04  0.7818609E-02  0.9112691E-01
        2   -1    0    0  501    0  0.00000000000E+00  0.00000000000E+00  0.16977709235E+04  0.16977709235E+04  0.25500000920E-02 0. -1.
       -2   -1    0    0    0  501  0.00000000000E+00  0.00000000000E+00 -0.21210960841E+03  0.21210960843E+03  0.25500000920E-02 0.  1.
    10030    2    1    2    0    0  0.00000000000E+00  0.00000000000E+00  0.14856613150E+04  0.19098805319E+04  0.12001891947E+04 0.  0.
        5    1    3    3  502    0 -0.15103845782E+03 -0.50721327800E+03  0.29270045674E+03  0.60479217298E+03  0.46999998093E+01 0.  1.
       -5    1    3    3    0  502  0.15103845782E+03  0.50721327800E+03  0.11929608583E+04  0.13050883589E+04  0.46999998093E+01 0. -1.
</event>
<event>
 5   0  0.1023063E-04  0.1198447E+04  0.7818609E-02  0.9114217E-01
       -2   -1    0    0    0  501  0.00000000000E+00  0.00000000000E+00  0.60930931292E+03  0.60930931293E+03  0.25500000920E-02 0. -1.
        2   -1    0    0  501    0  0.00000000000E+00  0.00000000000E+00 -0.58930478086E+03  0.58930478087E+03  0.25500000920E-02 0.  1.
    10030    2    1    2    0    0  0.00000000000E+00  0.00000000000E+00  0.20004532055E+02  0.11986140938E+04  0.11984471472E+04 0.  0.
        3    1    3    3  502    0  0.20367143819E+03 -0.55844206208E+03  0.85704880400E+02  0.60057050224E+03  0.10100000352E+00 0. -1.
       -3    1    3    3    0  502 -0.20367143819E+03  0.55844206208E+03 -0.65700348345E+02  0.59804359156E+03  0.10100000352E+00 0.  1.
</event>
<event>
 5   0  0.5447807E-05  0.1199930E+04  0.7818609E-02  0.9112918E-01
       -1   -1    0    0    0  501  0.00000000000E+00  0.00000000000E+00  0.15687665138E+03  0.15687665146E+03  0.50400001928E-02 0. -1.
        1   -1    0    0  501    0  0.00000000000E+00  0.00000000000E+00 -0.22945285466E+04  0.22945285466E+04  0.50400001928E-02 0.  1.
    10030    2    1    2    0    0  0.00000000000E+00  0.00000000000E+00 -0.21376518952E+04  0.24514051980E+04  0.11999299229E+04 0.  0.
        2    1    3    3  502    0  0.39589181438E+03 -0.21825010497E+03 -0.18746799456E+04  0.19284160172E+04  0.25500000920E-02 0.  1.
       -2    1    3    3    0  502 -0.39589181438E+03  0.21825010497E+03 -0.26297194963E+03  0.52298918087E+03  0.25500000920E-02 0. -1.
</event>
<event>
 5   0  0.5447807E-05  0.1199852E+04  0.7818609E-02  0.9112986E-01
       -1   -1    0    0    0  501  0.00000000000E+00  0.00000000000E+00  0.45438754620E+03  0.45438754623E+03  0.50400001928E-02 0.  1.
        1   -1    0    0  501    0  0.00000000000E+00  0.00000000000E+00 -0.79207969902E+03  0.79207969903E+03  0.50400001928E-02 0. -1.
    10030    2    1    2    0    0  0.00000000000E+00  0.00000000000E+00 -0.33769215281E+03  0.12464672453E+04  0.11998519090E+04 0.  0.
        2    1    3    3  502    0  0.25040926817E+03  0.29184698517E+03  0.30951254725E+03  0.49363699340E+03  0.25500000920E-02 0.  1.
       -2    1    3    3    0  502 -0.25040926817E+03 -0.29184698517E+03 -0.64720470006E+03  0.75283025187E+03  0.25500000920E-02 0. -1.
</event>
<event>
 5   0  0.5625746E-05  0.1199972E+04  0.7818609E-02  0.9112881E-01
        1   -1    0    0  501    0  0.00000000000E+00  0.00000000000E+00  0.72366065505E+03  0.72366065507E+03  0.50400001928E-02 0. -1.
       -1   -1    0    0    0  501  0.00000000000E+00  0.00000000000E+00 -0.49744787266E+03  0.49744787268E+03  0.50400001928E-02 0.  1.
    10030    2    1    2    0    0  0.00000000000E+00  0.00000000000E+00  0.22621278240E+03  0.12211085278E+04  0.11999724220E+04 0.  0.
        5    1    3    3  502    0  0.57385424858E+02  0.50217087955E+03  0.44205340008E+03  0.67149235124E+03  0.46999998093E+01 0. -1.
       -5    1    3    3    0  502 -0.57385424858E+02 -0.50217087955E+03 -0.21584061768E+03  0.54961617652E+03  0.46999998093E+01 0.  1.
</event>
<event>
 5   0  0.9941209E-05  0.1200106E+04  0.7818609E-02  0.9112764E-01
       -2   -1    0    0    0  501  0.00000000000E+00  0.00000000000E+00  0.61510743149E+03  0.61510743149E+03  0.25500000920E-02 0.  1.
        2   -1    0    0  501    0  0.00000000000E+00  0.00000000000E+00 -0.58536720998E+03  0.58536720999E+03  0.25500000920E-02 0. -1.
    10030    2    1    2    0    0  0.00000000000E+00  0.00000000000E+00  0.29740221503E+02  0.12004746415E+04  0.12001061970E+04 0.  0.
        2    1    3    3  502    0 -0.20115312873E+03  0.55460089918E+03 -0.94794666961E+02  0.59752051635E+03  0.25500000920E-02 0.  1.
       -2    1    3    3    0  502  0.20115312873E+03 -0.55460089918E+03  0.12453488846E+03  0.60295412513E+03  0.25500000920E-02 0. -1.
</event>
<event>
 5   0  0.9941209E-05  0.1199200E+04  0.7818609E-02  0.9113557E-01
       -2   -1    0    0    0  501  0.00000000000E+00  0.00000000000E+00  0.26052661230E+03  0.26052661231E+03  0.25500000920E-02 0.  1.
        2   -1    0    0  501    0  0.00000000000E+00  0.00000000000E+00 -0.13799737762E+04  0.13799737762E+04  0.25500000920E-02 0. -1.
    10030    2    1    2    0    0  0.00000000000E+00  0.00000000000E+00 -0.11194471638E+04  0.16405003885E+04  0.11991995547E+04 0.  0.
        2    1    3    3  502    0  0.36260326705E+03 -0.39946251585E+03 -0.91768000990E+03  0.10645130490E+04  0.25500000920E-02 0. -1.
       -2    1    3    3    0  502 -0.36260326705E+03  0.39946251585E+03 -0.20176715395E+03  0.57598733950E+03  0.25500000920E-02 0.  1.
</event>
<event>
 5   0  0.5745487E-05  0.1198954E+04  0.7818609E-02  0.9113773E-01
       -1   -1    0    0    0  501  0.00000000000E+00  0.00000000000E+00  0.66042875111E+03  0.66042875113E+03  0.50400001928E-02 0.  1.
        1   -1    0    0  501    0  0.00000000000E+00  0.00000000000E+00 -0.54415011131E+03  0.54415011134E+03  0.50400001928E-02 0. -1.
    10030    2    1    2    0    0  0.00000000000E+00  0.00000000000E+00  0.11627863979E+03  0.12045788625E+04  0.11989535078E+04 0.  0.
        3    1    3    3  502    0  0.59544487964E+03 -0.35636612897E+02  0.11798215737E+03  0.60806609224E+03  0.10100000352E+00 0.  1.
       -3    1    3    3    0  502 -0.59544487964E+03  0.35636612897E+02 -0.17035175765E+01  0.59651277023E+03  0.10100000352E+00 0. -1.
</event>
<event>
 5   0  0.9838215E-05  0.1200146E+04  0.7818609E-02  0.9112729E-01
       -2   -1    0    0    0  501  0.00000000000E+00  0.00000000000E+00  0.62517700206E+03  0.62517700207E+03  0.25500000920E-02 0. -1.
        2   -1    0    0  501    0  0.00000000000E+00  0.00000000000E+00 -0.57597688779E+03  0.57597688780E+03  0.25500000920E-02 0.  1.
    10030    2    1    2    0    0  0.00000000000E+00  0.00000000000E+00  0.49200114269E+02  0.12011538899E+04  0.12001458311E+04 0.  0.
        4    1    3    3  502    0  0.18949907238E+03 -0.21303424909E+03 -0.50385139728E+03  0.57893119899E+03  0.12699999809E+01 0. -1.
       -4    1    3    3    0  502 -0.18949907238E+03  0.21303424909E+03  0.55305151155E+03  0.62222269088E+03  0.12699999809E+01 0.  1.
</event>
<event>
 5   0  0.5620246E-05  0.1200828E+04  0.7818609E-02  0.9112132E-01
       -1   -1    0    0    0  501  0.00000000000E+00  0.00000000000E+00  0.14178745361E+03  0.14178745370E+03  0.50400001928E-02 0. -1.
        1   -1    0    0  501    0  0.00000000000E+00  0.00000000000E+00 -0.25425186770E+04  0.25425186770E+04  0.50400001928E-02 0.  1.
    10030    2    1    2    0    0  0.00000000000E+00  0.00000000000E+00 -0.24007312234E+04  0.26843061307E+04  0.12008284625E+04 0.  0.
        1    1    3    3  502    0 -0.11652242961E+03  0.10755980680E+03  0.94130210296E+02  0.18441010047E+03  0.50400001928E-02 0. -1.
       -1    1    3    3    0  502  0.11652242961E+03 -0.10755980680E+03 -0.24948614337E+04  0.24998960303E+04  0.50400001928E-02 0.  1.
</event>
<event>
 5   0  0.9941209E-05  0.1200080E+04  0.7818609E-02  0.9112786E-01
       -2   -1    0    0    0  501  0.00000000000E+00  0.00000000000E+00  0.23306966914E+03  0.23306966916E+03  0.25500000920E-02 0. -1.
        2   -1    0    0  501    0  0.00000000000E+00  0.00000000000E+00 -0.15448092499E+04  0.15448092499E+04  0.25500000920E-02 0.  1.
    10030    2    1    2    0    0  0.00000000000E+00  0.00000000000E+00 -0.13117395808E+04  0.17778789191E+04  0.12000802986E+04 0.  0.
        2    1    3    3  502    0  0.32431725110E+03 -0.16744747592E+02  0.91626825814E+02  0.33742783102E+03  0.25500000920E-02 0. -1.
       -2    1    3    3    0  502 -0.32431725110E+03  0.16744747592E+02 -0.14033664066E+04  0.14404510880E+04  0.25500000920E-02 0.  1.
</event>
<event>
 5   0  0.5745487E-05  0.1200133E+04  0.7818609E-02  0.9112740E-01
       -1   -1    0    0    0  501  0.00000000000E+00  0.00000000000E+00  0.82737967754E+03  0.82737967755E+03  0.50400001928E-02 0.  1.
        1   -1    0    0  501    0  0.00000000000E+00  0.00000000000E+00 -0.43520483392E+03  0.43520483395E+03  0.50400001928E-02 0. -1.
    10030    2    1    2    0    0  0.00000000000E+00  0.00000000000E+00  0.39217484362E+03  0.12625845115E+04  0.12001327180E+04 0.  0.
        3    1    3    3  502    0 -0.10097995224E+03  0.10277960028E+03 -0.41673590609E+03  0.44094151836E+03  0.10100000352E+00 0. -1.
       -3    1    3    3    0  502  0.10097995224E+03 -0.10277960028E+03  0.80891074971E+03  0.82164299314E+03  0.10100000352E+00 0.  1.
</event>
<event>
 5   0  0.1012657E-04  0.1200618E+04  0.7818609E-02  0.9112316E-01
       -2   -1    0    0    0  501  0.00000000000E+00  0.00000000000E+00  0.60496101543E+03  0.60496101544E+03  0.25500000920E-02 0.  1.
        2   -1    0    0  501    0  0.00000000000E+00  0.00000000000E+00 -0.59569260811E+03  0.59569260812E+03  0.25500000920E-02 0. -1.
    10030    2    1    2    0    0  0.00000000000E+00  0.00000000000E+00  0.92684073220E+01  0.12006536236E+04  0.12006178494E+04 0.  0.
        1    1    3    3  502    0  0.58437941518E+03 -0.13480679962E+03 -0.21798211810E+02  0.60012276759E+03  0.50400001928E-02 0. -1.
       -1    1    3    3    0  502 -0.58437941518E+03  0.13480679962E+03  0.31066619132E+02  0.60053085596E+03  0.50400001928E-02 0.  1.
</event>
<event>
 5   0  0.1004006E-04  0.1200152E+04  0.7818609E-02  0.9112723E-01
       -2   -1    0    0    0  501  0.00000000000E+00  0.00000000000E+00  0.27904952917E+03  0.27904952919E+03  0.25500000920E-02 0. -1.
        2   -1    0    0  501    0  0.00000000000E+00  0.00000000000E+00 -0.12904213172E+04  0.12904213172E+04  0.25500000920E-02 0.  1.
    10030    2    1    2    0    0  0.00000000000E+00  0.00000000000E+00 -0.10113717881E+04  0.15694708464E+04  0.12001524254E+04 0.  0.
        5    1    3    3  502    0 -0.32612392760E+03 -0.42446796291E+03 -0.15105448957E+03  0.55620986733E+03  0.46999998093E+01 0. -1.
       -5    1    3    3    0  502  0.32612392760E+03  0.42446796291E+03 -0.86031729850E+03  0.10132609791E+04  0.46999998093E+01 0.  1.
</event>
<event>
 5   0  0.5620246E-05  0.1200137E+04  0.7818609E-02  0.9112737E-01
        1   -1    0    0  501    0  0.00000000000E+00  0.00000000000E+00  0.17276210968E+04  0.17276210969E+04  0.50400001928E-02 0. -1.
       -1   -1    0    0    0  501  0.00000000000E+00  0.00000000000E+00 -0.20842665451E+03  0.20842665457E+03  0.50400001928E-02 0.  1.
    10030    2    1    2    0    0  0.00000000000E+00  0.00000000000E+00  0.15191944423E+04  0.19360477514E+04  0.12001371347E+04 0.  0.
        1    1    3    3  502    0  0.11722943209E+03  0.36634830604E+03  0.15025901232E+04  0.15510418755E+04  0.50400001928E-02 0. -1.
       -1    1    3    3    0  502 -0.11722943209E+03 -0.36634830604E+03  0.16604319136E+02  0.38500587596E+03  0.50400001928E-02 0.  1.
</event>
<event>
 5   0  0.5447807E-05  0.1200096E+04  0.7818609E-02  0.9112773E-01
       -1   -1    0    0    0  501  0.00000000000E+00  0.00000000000E+00  0.50323151040E+03  0.50323151043E+03  0.50400001928E-02 0.  1.
        1   -1    0    0  501    0  0.00000000000E+00  0.00000000000E+00 -0.71549054195E+03  0.71549054197E+03  0.50400001928E-02 0. -1.
    10030    2    1    2    0    0  0.00000000000E+00  0.00000000000E+00 -0.21225903155E+03  0.12187220524E+04  0.12000956397E+04 0.  0.
        2    1    3    3  502    0 -0.42371525586E+03 -0.32908084115E+03  0.16679548129E+03  0.56182697572E+03  0.25500000920E-02 0. -1.
       -2    1    3    3    0  502  0.42371525586E+03  0.32908084115E+03 -0.37905451284E+03  0.65689507668E+03  0.25500000920E-02 0.  1.
</event>
<event>
 5   0  0.5732931E-05  0.1198531E+04  0.7818609E-02  0.9114143E-01
       -1   -1    0    0    0  501  0.00000000000E+00  0.00000000000E+00  0.15887958693E+03  0.15887958701E+03  0.50400001928E-02 0.  1.
        1   -1    0    0  501    0  0.00000000000E+00  0.00000000000E+00 -0.22603220980E+04  0.22603220980E+04  0.50400001928E-02 0. -1.
    10030    2    1    2    0    0  0.00000000000E+00  0.00000000000E+00 -0.21014425110E+04  0.24192016850E+04  0.11985308362E+04 0.  0.
        4    1    3    3  502    0 -0.48161134698E+03 -0.94475469446E+02 -0.35664155381E+03  0.60668765825E+03  0.12699999809E+01 0.  1.
       -4    1    3    3    0  502  0.48161134698E+03  0.94475469446E+02 -0.17448009572E+04  0.18125140267E+04  0.12699999809E+01 0. -1.
</event>
<event>
 5   0  0.9941209E-05  0.1200061E+04  0.7818609E-02  0.9112803E-01
       -2   -1    0    0    0  501  0.00000000000E+00  0.00000000000E+00  0.46871949224E+03  0.46871949224E+03  0.25500000920E-02 0. -1.
        2   -1    0    0  501    0  0.00000000000E+00  0.00000000000E+00 -0.76812782624E+03  0.76812782624E+03  0.25500000920E-02 0.  1.
    10030    2    1    2    0    0  0.00000000000E+00  0.00000000000E+00 -0.29940833400E+03  0.12368473185E+04  0.12000608063E+04 0.  0.
        2    1    3    3  502    0  0.38321260436E+03 -0.31797016626E+03 -0.49474941010E+03  0.70195007342E+03  0.25500000920E-02 0.  1.
       -2    1    3    3    0  502 -0.38321260436E+03  0.31797016626E+03  0.19534107609E+03  0.53489724507E+03  0.25500000920E-02 0. -1.
</event>
<event>
 5   0  0.9941209E-05  0.1200199E+04  0.7818609E-02  0.9112683E-01
        2   -1    0    0  501    0  0.00000000000E+00  0.00000000000E+00  0.73547456950E+03  0.73547456950E+03  0.25500000920E-02 0. -1.
       -2   -1    0    0    0  501  0.00000000000E+00  0.00000000000E+00 -0.48964188051E+03  0.48964188052E+03  0.25500000920E-02 0.  1.
    10030    2    1    2    0    0  0.00000000000E+00  0.00000000000E+00  0.24583268899E+03  0.12251164500E+04  0.12001985690E+04 0.  0.
        2    1    3    3  502    0 -0.39156009589E+03  0.43459379813E+03  0.25959197159E+03  0.63998364806E+03  0.25500000920E-02 0.  1.
       -2    1    3    3    0  502  0.39156009589E+03 -0.43459379813E+03 -0.13759282595E+02  0.58513280196E+03  0.25500000920E-02 0. -1.
</event>
<event>
 5   0  0.9838215E-05  0.1200532E+04  0.7818609E-02  0.9112391E-01
        2   -1    0    0  501    0  0.00000000000E+00  0.00000000000E+00  0.82242346862E+03  0.82242346863E+03  0.25500000920E-02 0. -1.
       -2   -1    0    0    0  501  0.00000000000E+00  0.00000000000E+00 -0.43811907795E+03  0.43811907796E+03  0.25500000920E-02 0.  1.
    10030    2    1    2    0    0  0.00000000000E+00  0.00000000000E+00  0.38430439067E+03  0.12605425466E+04  0.12005322349E+04 0.  0.
        4    1    3    3  502    0  0.27454573330E+03 -0.46586917726E+03  0.46577057632E+03  0.71368991352E+03  0.12699999809E+01 0. -1.
       -4    1    3    3    0  502 -0.27454573330E+03  0.46586917726E+03 -0.81466185647E+02  0.54685263307E+03  0.12699999809E+01 0.  1.
</event>
<event>
 5   0  0.1004006E-04  0.1200051E+04  0.7818609E-02  0.9112812E-01
        2   -1    0    0  501    0  0.00000000000E+00  0.00000000000E+00  0.85590299003E+03  0.85590299003E+03  0.25500000920E-02 0. -1.
       -2   -1    0    0    0  501  0.00000000000E+00  0.00000000000E+00 -0.42064389303E+03  0.42064389304E+03  0.25500000920E-02 0.  1.
    10030    2    1    2    0    0  0.00000000000E+00  0.00000000000E+00  0.43525909700E+03  0.12765468831E+04  0.12000506086E+04 0.  0.
        5    1    3    3  502    0  0.19174261486E+03  0.36236082156E+03  0.68366325533E+03  0.79717509497E+03  0.46999998093E+01 0. -1.
       -5    1    3    3    0  502 -0.19174261486E+03 -0.36236082156E+03 -0.24840415833E+03  0.47937178810E+03  0.46999998093E+01 0.  1.
</event>
<event>
 5   0  0.9941209E-05  0.1201550E+04  0.7818609E-02  0.9111501E-01
        2   -1    0    0  501    0  0.00000000000E+00  0.00000000000E+00  0.10547266927E+04  0.10547266927E+04  0.25500000920E-02 0.  1.
       -2   -1    0    0    0  501  0.00000000000E+00  0.00000000000E+00 -0.34220277796E+03  0.34220277797E+03  0.25500000920E-02 0. -1.
    10030    2    1    2    0    0  0.00000000000E+00  0.00000000000E+00  0.71252391470E+03  0.13969294706E+04  0.12015496731E+04 0.  0.
        2    1    3    3  502    0 -0.46773540122E+03  0.26820652139E+03  0.66434009190E+03  0.85560440706E+03  0.25500000920E-02 0. -1.
       -2    1    3    3    0  502  0.46773540122E+03 -0.26820652139E+03  0.48183822803E+02  0.54132506358E+03  0.25500000920E-02 0.  1.
</event>
<event>
 5   0  0.1012657E-04  0.1201212E+04  0.7818609E-02  0.9111797E-01
        2   -1    0    0  501    0  0.00000000000E+00  0.00000000000E+00  0.24005648607E+04  0.24005648607E+04  0.25500000920E-02 0. -1.
       -2   -1    0    0    0  501  0.00000000000E+00  0.00000000000E+00 -0.15026766880E+03  0.15026766882E+03  0.25500000920E-02 0.  1.
    10030    2    1    2    0    0  0.00000000000E+00  0.00000000000E+00  0.22502971919E+04  0.25508325296E+04  0.12012115308E+04 0.  0.
        1    1    3    3  502    0 -0.94892984780E+02  0.42045431402E+03  0.20133428911E+04  0.20589648142E+04  0.50400001928E-02 0. -1.
       -1    1    3    3    0  502  0.94892984780E+02 -0.42045431402E+03  0.23695430081E+03  0.49186771538E+03  0.50400001928E-02 0.  1.
</event>
<event>
 5   0  0.9838215E-05  0.1199585E+04  0.7818609E-02  0.9113220E-01
       -2   -1    0    0    0  501  0.00000000000E+00  0.00000000000E+00  0.21663106237E+03  0.21663106238E+03  0.25500000920E-02 0.  1.
        2   -1    0    0  501    0  0.00000000000E+00  0.00000000000E+00 -0.16606610287E+04  0.16606610287E+04  0.25500000920E-02 0. -1.
    10030    2    1    2    0    0  0.00000000000E+00  0.00000000000E+00 -0.14440299664E+04  0.18772920911E+04  0.11995845329E+04 0.  0.
        4    1    3    3  502    0 -0.34480920384E+03 -0.34715929206E+03 -0.12648890797E+04  0.13562296848E+04  0.12699999809E+01 0. -1.
       -4    1    3    3    0  502  0.34480920384E+03  0.34715929206E+03 -0.17914088670E+03  0.52106240634E+03  0.12699999809E+01 0.  1.
</event>
<event>
 5   0  0.9838215E-05  0.1193512E+04  0.7818609E-02  0.9118555E-01
       -2   -1    0    0    0  501  0.00000000000E+00  0.00000000000E+00  0.61957030886E+03  0.61957030887E+03  0.25500000920E-02 0.  1.
        2   -1    0    0  501    0  0.00000000000E+00  0.00000000000E+00 -0.57478157400E+03  0.57478157401E+03  0.25500000920E-02 0. -1.
    10030    2    1    2    0    0  0.00000000000E+00  0.00000000000E+00  0.44788734858E+02  0.11943518829E+04  0.11935117885E+04 0.  0.
        4    1    3    3  502    0  0.23299076656E+02 -0.45235056941E+02 -0.57260545310E+03  0.57486317953E+03  0.12699999809E+01 0. -1.
       -4    1    3    3    0  502 -0.23299076656E+02  0.45235056941E+02  0.61739418796E+03  0.61948870335E+03  0.12699999809E+01 0.  1.
</event>
<event>
 5   0  0.1004006E-04  0.1200387E+04  0.7818609E-02  0.9112518E-01
       -2   -1    0    0    0  501  0.00000000000E+00  0.00000000000E+00  0.22695882624E+03  0.22695882626E+03  0.25500000920E-02 0.  1.
        2   -1    0    0  501    0  0.00000000000E+00  0.00000000000E+00 -0.15872142132E+04  0.15872142132E+04  0.25500000920E-02 0. -1.
    10030    2    1    2    0    0  0.00000000000E+00  0.00000000000E+00 -0.13602553870E+04  0.18141730395E+04  0.12003870623E+04 0.  0.
        5    1    3    3  502    0 -0.48511416326E+03 -0.20038287260E+03 -0.24022837162E+03  0.57725281078E+03  0.46999998093E+01 0.  1.
       -5    1    3    3    0  502  0.48511416326E+03  0.20038287260E+03 -0.11200270154E+04  0.12369202287E+04  0.46999998093E+01 0. -1.
</event>
<event>
 5   0  0.5447807E-05  0.1200673E+04  0.7818609E-02  0.9112268E-01
        1   -1    0    0  501    0  0.00000000000E+00  0.00000000000E+00  0.91426562847E+03  0.91426562848E+03  0.50400001928E-02 0.  1.
       -1   -1    0    0    0  501  0.00000000000E+00  0.00000000000E+00 -0.39420051688E+03  0.39420051691E+03  0.50400001928E-02 0. -1.
    10030    2    1    2    0    0  0.00000000000E+00  0.00000000000E+00  0.52006511159E+03  0.13084661454E+04  0.12006731168E+04 0.  0.
        2    1    3    3  502    0 -0.78721057080E+02 -0.30989647897E+03  0.81375427534E+03  0.87431622034E+03  0.25500000920E-02 0.  1.
       -2    1    3    3    0  502  0.78721057080E+02  0.30989647897E+03 -0.29368916376E+03  0.43414992505E+03  0.25500000920E-02 0. -1.
</event>
<event>
 5   0  0.1004006E-04  0.1200020E+04  0.7818609E-02  0.9112839E-01
        2   -1    0    0  501    0  0.00000000000E+00  0.00000000000E+00  0.12581216838E+04  0.12581216838E+04  0.25500000920E-02 0. -1.
       -2   -1    0    0    0  501  0.00000000000E+00  0.00000000000E+00 -0.28615059002E+03  0.28615059003E+03  0.25500000920E-02 0.  1.
    10030    2    1    2    0    0  0.00000000000E+00  0.00000000000E+00  0.97197109375E+03  0.15442722738E+04  0.12000204367E+04 0.  0.
        5    1    3    3  502    0  0.27280196938E+03 -0.41745383987E+03  0.56660885039E+02  0.50191749203E+03  0.46999998093E+01 0.  1.
       -5    1    3    3    0  502 -0.27280196938E+03  0.41745383987E+03  0.91531020871E+03  0.10423547818E+04  0.46999998093E+01 0. -1.
</event>
<event>
 5   0  0.1023063E-04  0.1199754E+04  0.7818609E-02  0.9113072E-01
        2   -1    0    0  501    0  0.00000000000E+00  0.00000000000E+00  0.13360950157E+04  0.13360950157E+04  0.25500000920E-02 0.  1.
       -2   -1    0    0    0  501  0.00000000000E+00  0.00000000000E+00 -0.26933139173E+03  0.26933139174E+03  0.25500000920E-02 0. -1.
    10030    2    1    2    0    0  0.00000000000E+00  0.00000000000E+00  0.10667636239E+04  0.16054264074E+04  0.11997538582E+04 0.  0.
        3    1    3    3  502    0 -0.24536425841E+03  0.11896942042E+02 -0.19893980510E+03  0.31610474971E+03  0.10100000352E+00 0. -1.
       -3    1    3    3    0  502  0.24536425841E+03 -0.11896942042E+02  0.12657034290E+04  0.12893216577E+04  0.10100000352E+00 0.  1.
</event>
<event>
 5   0  0.3839750E-05  0.1199842E+04  0.7818609E-02  0.9112995E-01
        4   -1    0    0  501    0  0.00000000000E+00  0.00000000000E+00  0.43386381396E+03  0.43386567272E+03  0.12699999809E+01 0.  1.
       -4   -1    0    0    0  501  0.00000000000E+00  0.00000000000E+00 -0.82953126333E+03  0.82953223551E+03  0.12699999809E+01 0. -1.
    10030    2    1    2    0    0  0.00000000000E+00  0.00000000000E+00 -0.39566744937E+03  0.12633979082E+04  0.11998422996E+04 0.  0.
        4    1    3    3  502    0 -0.17282738344E+02 -0.42961716744E+03 -0.63836566707E+03  0.76966352479E+03  0.12699999809E+01 0. -1.
       -4    1    3    3    0  502  0.17282738344E+02  0.42961716744E+03  0.24269821770E+03  0.49373438343E+03  0.12699999809E+01 0.  1.
</event>
<event>
 5   0  0.5620246E-05  0.1201609E+04  0.7818609E-02  0.9111449E-01
       -1   -1    0    0    0  501  0.00000000000E+00  0.00000000000E+00  0.23072289010E+03  0.23072289016E+03  0.50400001928E-02 0.  1.
        1   -1    0    0  501    0  0.00000000000E+00  0.00000000000E+00 -0.15645014430E+04  0.15645014431E+04  0.50400001928E-02 0. -1.
    10030    2    1    2    0    0  0.00000000000E+00  0.00000000000E+00 -0.13337785529E+04  0.17952243332E+04  0.12016094117E+04 0.  0.
        1    1    3    3  502    0 -0.26935419171E+03  0.53343585805E+03 -0.57405806509E+03  0.82864235794E+03  0.50400001928E-02 0. -1.
       -1    1    3    3    0  502  0.26935419171E+03 -0.53343585805E+03 -0.75972048785E+03  0.96658197528E+03  0.50400001928E-02 0.  1.
</event>
<event>
 5   0  0.5625746E-05  0.1200172E+04  0.7818609E-02  0.9112706E-01
       -1   -1    0    0    0  501  0.00000000000E+00  0.00000000000E+00  0.40020586698E+03  0.40020586701E+03  0.50400001928E-02 0. -1.
        1   -1    0    0  501    0  0.00000000000E+00  0.00000000000E+00 -0.89979437553E+03  0.89979437554E+03  0.50400001928E-02 0.  1.
    10030    2    1    2    0    0  0.00000000000E+00  0.00000000000E+00 -0.49958850855E+03  0.13000002426E+04  0.12001716347E+04 0.  0.
        5    1    3    3  502    0 -0.10550304211E+03  0.15544027767E+03  0.36751143663E+03  0.41277029674E+03  0.46999998093E+01 0. -1.
       -5    1    3    3    0  502  0.10550304211E+03 -0.15544027767E+03 -0.86709994518E+03  0.88722994582E+03  0.46999998093E+01 0.  1.
</event>
<event>
 5   0  0.5625746E-05  0.1199365E+04  0.7818609E-02  0.9113413E-01
       -1   -1    0    0    0  501  0.00000000000E+00  0.00000000000E+00  0.20722288072E+03  0.20722288078E+03  0.50400001928E-02 0. -1.
        1   -1    0    0  501    0  0.00000000000E+00  0.00000000000E+00 -0.17354213626E+04  0.17354213626E+04  0.50400001928E-02 0.  1.
    10030    2    1    2    0    0  0.00000000000E+00  0.00000000000E+00 -0.15281984819E+04  0.19426442434E+04  0.11993648554E+04 0.  0.
        5    1    3    3  502    0  0.30523913279E+03  0.48160436317E+03 -0.46332132425E+03  0.73471248139E+03  0.46999998093E+01 0. -1.
       -5    1    3    3    0  502 -0.30523913279E+03 -0.48160436317E+03 -0.10648771577E+04  0.12079317620E+04  0.46999998093E+01 0.  1.
</event>
<event>
 5   0  0.3839750E-05  0.1199996E+04  0.7818609E-02  0.9112860E-01
        3   -1    0    0  501    0  0.00000000000E+00  0.00000000000E+00  0.36025638830E+03  0.36025640246E+03  0.10100000352E+00 0.  1.
       -3   -1    0    0    0  501  0.00000000000E+00  0.00000000000E+00 -0.99928135138E+03  0.99928135648E+03  0.10100000352E+00 0. -1.
    10030    2    1    2    0    0  0.00000000000E+00  0.00000000000E+00 -0.63902496308E+03  0.13595377589E+04  0.11999958394E+04 0.  0.
        5    1    3    3  502    0  0.25468872280E+03  0.39347338076E+03 -0.74385977300E+03  0.87922528329E+03  0.46999998093E+01 0. -1.
       -5    1    3    3    0  502 -0.25468872280E+03 -0.39347338076E+03  0.10483480993E+03  0.48031247565E+03  0.46999998093E+01 0.  1.
</event>
<event>
 5   0  0.1012657E-04  0.1199872E+04  0.7818609E-02  0.9112969E-01
       -2   -1    0    0    0  501  0.00000000000E+00  0.00000000000E+00  0.44401465866E+03  0.44401465867E+03  0.25500000920E-02 0. -1.
        2   -1    0    0  501    0  0.00000000000E+00  0.00000000000E+00 -0.81061112646E+03  0.81061112646E+03  0.25500000920E-02 0.  1.
    10030    2    1    2    0    0  0.00000000000E+00  0.00000000000E+00 -0.36659646780E+03  0.12546257851E+04  0.11998720309E+04 0.  0.
        1    1    3    3  502    0  0.39191742788E+03 -0.44352219526E+03 -0.28581301546E+03  0.65726728794E+03  0.50400001928E-02 0. -1.
       -1    1    3    3    0  502 -0.39191742788E+03  0.44352219526E+03 -0.80783452336E+02  0.59735849719E+03  0.50400001928E-02 0.  1.
</event>
<event>
 5   0  0.1012657E-04  0.1198483E+04  0.7818609E-02  0.9114185E-01
        2   -1    0    0  501    0  0.00000000000E+00  0.00000000000E+00  0.83480246182E+03  0.83480246183E+03  0.25500000920E-02 0.  1.
       -2   -1    0    0    0  501  0.00000000000E+00  0.00000000000E+00 -0.43015035651E+03  0.43015035652E+03  0.25500000920E-02 0. -1.
    10030    2    1    2    0    0  0.00000000000E+00  0.00000000000E+00  0.40465210531E+03  0.12649528183E+04  0.11984833359E+04 0.  0.
        1    1    3    3  502    0 -0.24708116702E+03  0.43735889355E+03 -0.14253480820E+03  0.52215713769E+03  0.50400001928E-02 0. -1.
       -1    1    3    3    0  502  0.24708116702E+03 -0.43735889355E+03  0.54718691351E+03  0.74279568066E+03  0.50400001928E-02 0.  1.
</event>
<event>
 5   0  0.5732931E-05  0.1199861E+04  0.7818609E-02  0.9112978E-01
       -1   -1    0    0    0  501  0.00000000000E+00  0.00000000000E+00  0.27332477727E+03  0.27332477732E+03  0.50400001928E-02 0. -1.
        1   -1    0    0  501    0  0.00000000000E+00  0.00000000000E+00 -0.13168095731E+04  0.13168095731E+04  0.50400001928E-02 0.  1.
    10030    2    1    2    0    0  0.00000000000E+00  0.00000000000E+00 -0.10434847958E+04  0.15901343504E+04  0.11998611308E+04 0.  0.
        4    1    3    3  502    0  0.65736869025E+02 -0.50118094893E+03 -0.94997208865E+03  0.10760819028E+04  0.12699999809E+01 0. -1.
       -4    1    3    3    0  502 -0.65736869025E+02  0.50118094893E+03 -0.93512707129E+02  0.51405244753E+03  0.12699999809E+01 0.  1.
</event>
<event>
 5   0  0.9941209E-05  0.1199687E+04  0.7818609E-02  0.9113130E-01
        2   -1    0    0  501    0  0.00000000000E+00  0.00000000000E+00  0.72583423619E+03  0.72583423620E+03  0.25500000920E-02 0.  1.
       -2   -1    0    0    0  501  0.00000000000E+00  0.00000000000E+00 -0.49572258955E+03  0.49572258956E+03  0.25500000920E-02 0. -1.
    10030    2    1    2    0    0  0.00000000000E+00  0.00000000000E+00  0.23011164665E+03  0.12215568258E+04  0.11996873379E+04 0.  0.
        2    1    3    3  502    0  0.33890113918E+03 -0.49274798880E+03  0.67756199239E+02  0.60186831213E+03  0.25500000920E-02 0.  1.
       -2    1    3    3    0  502 -0.33890113918E+03  0.49274798880E+03  0.16235544741E+03  0.61968851362E+03  0.25500000920E-02 0. -1.
</event>
<event>
 5   0  0.3839750E-05  0.1201777E+04  0.7818609E-02  0.9111303E-01
        3   -1    0    0  501    0  0.00000000000E+00  0.00000000000E+00  0.30386383422E+03  0.30386385100E+03  0.10100000352E+00 0.  1.
       -3   -1    0    0    0  501  0.00000000000E+00  0.00000000000E+00 -0.11882519470E+04  0.11882519513E+04  0.10100000352E+00 0. -1.
    10030    2    1    2    0    0  0.00000000000E+00  0.00000000000E+00 -0.88438811274E+03  0.14921158023E+04  0.12017766986E+04 0.  0.
        2    1    3    3  502    0 -0.59433136994E+03 -0.41425256655E+02 -0.34505604670E+03  0.68848348169E+03  0.25500000920E-02 0.  1.
       -2    1    3    3    0  502  0.59433136994E+03  0.41425256655E+02 -0.53933206604E+03  0.80363232056E+03  0.25500000920E-02 0. -1.
</event>
<event>
 5   0  0.1004006E-04  0.1199723E+04  0.7818609E-02  0.9113099E-01
       -2   -1    0    0    0  501  0.00000000000E+00  0.00000000000E+00  0.14448759643E+04  0.14448759643E+04  0.25500000920E-02 0. -1.
        2   -1    0    0  501    0  0.00000000000E+00  0.00000000000E+00 -0.24904149536E+03  0.24904149538E+03  0.25500000920E-02 0.  1.
    10030    2    1    2    0    0  0.00000000000E+00  0.00000000000E+00  0.11958344689E+04  0.16939174597E+04  0.11997234194E+04 0.  0.
        5    1    3    3  502    0  0.28740759126E+03 -0.21057226725E+03 -0.83426364083E+02  0.36595881117E+03  0.46999998093E+01 0.  1.
       -5    1    3    3    0  502 -0.28740759126E+03  0.21057226725E+03  0.12792608330E+04  0.13279586485E+04  0.46999998093E+01 0. -1.
</event>
<event>
 5   0  0.1004006E-04  0.1200001E+04  0.7818609E-02  0.9112855E-01
       -2   -1    0    0    0  501  0.00000000000E+00  0.00000000000E+00  0.30383975903E+03  0.30383975904E+03  0.25500000920E-02 0. -1.
        2   -1    0    0  501    0  0.00000000000E+00  0.00000000000E+00 -0.11848374749E+04  0.11848374749E+04  0.25500000920E-02 0.  1.
    10030    2    1    2    0    0  0.00000000000E+00  0.00000000000E+00 -0.88099771592E+03  0.14886772340E+04  0.12000012215E+04 0.  0.
        5    1    3    3  502    0  0.52526889582E+03 -0.23700884614E+03 -0.64770645785E+03  0.86696386984E+03  0.46999998093E+01 0.  1.
       -5    1    3    3    0  502 -0.52526889582E+03  0.23700884614E+03 -0.23329125806E+03  0.62171336414E+03  0.46999998093E+01 0. -1.
</event>
<event>
 5   0  0.5620246E-05  0.1199906E+04  0.7818609E-02  0.9112939E-01
        1   -1    0    0  501    0  0.00000000000E+00  0.00000000000E+00  0.46906525968E+03  0.46906525971E+03  0.50400001928E-02 0. -1.
       -1   -1    0    0    0  501  0.00000000000E+00  0.00000000000E+00 -0.76736350834E+03  0.76736350836E+03  0.50400001928E-02 0.  1.
    10030    2    1    2    0    0  0.00000000000E+00  0.00000000000E+00 -0.29829824866E+03  0.12364287681E+04  0.11999059352E+04 0.  0.
        1    1    3    3  502    0 -0.29613671956E+03  0.10618892844E+03  0.37725298836E+03  0.49121569849E+03  0.50400001928E-02 0. -1.
       -1    1    3    3    0  502  0.29613671956E+03 -0.10618892844E+03 -0.67555123702E+03  0.74521306957E+03  0.50400001928E-02 0.  1.
</event>
<event>
 5   0  0.5732931E-05  0.1200418E+04  0.7818609E-02  0.9112491E-01
        1   -1    0    0  501    0  0.00000000000E+00  0.00000000000E+00  0.20093483398E+04  0.20093483398E+04  0.50400001928E-02 0.  1.
       -1   -1    0    0    0  501  0.00000000000E+00  0.00000000000E+00 -0.17928740357E+03  0.17928740364E+03  0.50400001928E-02 0. -1.
    10030    2    1    2    0    0  0.00000000000E+00  0.00000000000E+00  0.18300609362E+04  0.21886357434E+04  0.12004180052E+04 0.  0.
        4    1    3    3  502    0  0.39316786231E+03 -0.10912467808E+03  0.11247856535E+03  0.42325193901E+03  0.12699999809E+01 0. -1.
       -4    1    3    3    0  502 -0.39316786231E+03  0.10912467808E+03  0.17175823709E+04  0.17653838044E+04  0.12699999809E+01 0.  1.
</event>
<event>
 5   0  0.1023063E-04  0.1200412E+04  0.7818609E-02  0.9112496E-01
        2   -1    0    0  501    0  0.00000000000E+00  0.00000000000E+00  0.54386728914E+03  0.54386728914E+03  0.25500000920E-02 0.  1.
       -2   -1    0    0    0  501  0.00000000000E+00  0.00000000000E+00 -0.66238068990E+03  0.66238068990E+03  0.25500000920E-02 0. -1.
    10030    2    1    2    0    0  0.00000000000E+00  0.00000000000E+00 -0.11851340076E+03  0.12062479790E+04  0.12004119130E+04 0.  0.
        3    1    3    3  502    0 -0.47324216996E+03  0.22523270039E+03  0.23467052157E+03  0.57424575283E+03  0.10100000352E+00 0.  1.
       -3    1    3    3    0  502  0.47324216996E+03 -0.22523270039E+03 -0.35318392233E+03  0.63200222622E+03  0.10100000352E+00 0. -1.
</event>
<event>
 5   0  0.1012657E-04  0.1199695E+04  0.7818609E-02  0.9113123E-01
        2   -1    0    0  501    0  0.00000000000E+00  0.00000000000E+00  0.69020399188E+03  0.69020399189E+03  0.25500000920E-02 0.  1.
       -2   -1    0    0    0  501  0.00000000000E+00  0.00000000000E+00 -0.52132020857E+03  0.52132020858E+03  0.25500000920E-02 0. -1.
    10030    2    1    2    0    0  0.00000000000E+00  0.00000000000E+00  0.16888378331E+03  0.12115242005E+04  0.11996954430E+04 0.  0.
        1    1    3    3  502    0 -0.73990197443E+02  0.21558745391E+03 -0.47588452153E+03  0.52765384246E+03  0.50400001928E-02 0. -1.
       -1    1    3    3    0  502  0.73990197443E+02 -0.21558745391E+03  0.64476830484E+03  0.68387035800E+03  0.50400001928E-02 0.  1.
</event>
<event>
 5   0  0.1004006E-04  0.1198027E+04  0.7818609E-02  0.9114586E-01
       -2   -1    0    0    0  501  0.00000000000E+00  0.00000000000E+00  0.15043799117E+03  0.15043799120E+03  0.25500000920E-02 0. -1.
        2   -1    0    0  501    0  0.00000000000E+00  0.00000000000E+00 -0.23851480617E+04  0.23851480617E+04  0.25500000920E-02 0.  1.
    10030    2    1    2    0    0  0.00000000000E+00  0.00000000000E+00 -0.22347100705E+04  0.25355860529E+04  0.11980265157E+04 0.  0.
        5    1    3    3  502    0  0.55641923946E+03 -0.21052972668E+03 -0.12650484462E+04  0.13979609426E+04  0.46999998093E+01 0.  1.
       -5    1    3    3    0  502 -0.55641923946E+03  0.21052972668E+03 -0.96966162437E+03  0.11376251103E+04  0.46999998093E+01 0. -1.
</event>
<event>
 5   0  0.3839750E-05  0.1199490E+04  0.7818609E-02  0.9113303E-01
        4   -1    0    0  501    0  0.00000000000E+00  0.00000000000E+00  0.34270150913E+03  0.34270386233E+03  0.12699999809E+01 0. -1.
       -4   -1    0    0    0  501  0.00000000000E+00  0.00000000000E+00 -0.10495772876E+04  0.10495780560E+04  0.12699999809E+01 0.  1.
    10030    2    1    2    0    0  0.00000000000E+00  0.00000000000E+00 -0.70687577851E+03  0.13922819183E+04  0.11994897139E+04 0.  0.
        4    1    3    3  502    0  0.50699833113E+03 -0.79184943839E+02  0.69018946885E+01  0.51319276315E+03  0.12699999809E+01 0. -1.
       -4    1    3    3    0  502 -0.50699833113E+03  0.79184943839E+02 -0.71377767320E+03  0.87908915518E+03  0.12699999809E+01 0.  1.
</event>
<event>
 5   0  0.1023063E-04  0.1199975E+04  0.7818609E-02  0.9112879E-01
       -2   -1    0    0    0  501  0.00000000000E+00  0.00000000000E+00  0.13002048624E+03  0.13002048627E+03  0.25500000920E-02 0. -1.
        2   -1    0    0  501    0  0.00000000000E+00  0.00000000000E+00 -0.27686768838E+04  0.27686768838E+04  0.25500000920E-02 0.  1.
    10030    2    1    2    0    0  0.00000000000E+00  0.00000000000E+00 -0.26386563975E+04  0.28986973701E+04  0.11999745243E+04 0.  0.
        3    1    3    3  502    0 -0.37401556809E+01  0.34990175763E+03 -0.24966596539E+04  0.25210622099E+04  0.10100000352E+00 0.  1.
       -3    1    3    3    0  502  0.37401556809E+01 -0.34990175763E+03 -0.14199674366E+03  0.37763516014E+03  0.10100000352E+00 0. -1.
</event>
<event>
 5   0  0.9838215E-05  0.1198985E+04  0.7818609E-02  0.9113745E-01
        2   -1    0    0  501    0  0.00000000000E+00  0.00000000000E+00  0.11299592040E+04  0.11299592040E+04  0.25500000920E-02 0.  1.
       -2   -1    0    0    0  501  0.00000000000E+00  0.00000000000E+00 -0.31805698449E+03  0.31805698450E+03  0.25500000920E-02 0. -1.
    10030    2    1    2    0    0  0.00000000000E+00  0.00000000000E+00  0.81190221947E+03  0.14480161885E+04  0.11989852660E+04 0.  0.
        4    1    3    3  502    0  0.40604027236E+03  0.37522497562E+03  0.68588608051E+03  0.88096754393E+03  0.12699999809E+01 0.  1.
       -4    1    3    3    0  502 -0.40604027236E+03 -0.37522497562E+03  0.12601613896E+03  0.56704864455E+03  0.12699999809E+01 0. -1.
</event>
<event>
 5   0  0.5625746E-05  0.1200532E+04  0.7818609E-02  0.9112391E-01
        1   -1    0    0  501    0  0.00000000000E+00  0.00000000000E+00  0.91236769831E+03  0.91236769833E+03  0.50400001928E-02 0. -1.
       -1   -1    0    0    0  501  0.00000000000E+00  0.00000000000E+00 -0.39492750787E+03  0.39492750790E+03  0.50400001928E-02 0.  1.
    10030    2    1    2    0    0  0.00000000000E+00  0.00000000000E+00  0.51744019045E+03  0.13072952062E+04  0.12005317178E+04 0.  0.
        5    1    3    3  502    0  0.45629017450E+03 -0.16819383579E+03  0.64187363626E+03  0.80530351090E+03  0.46999998093E+01 0. -1.
       -5    1    3    3    0  502 -0.45629017450E+03  0.16819383579E+03 -0.12443344581E+03  0.50199169533E+03  0.46999998093E+01 0.  1.
</event>
<event>
 5   0  0.1023063E-04  0.1199403E+04  0.7818609E-02  0.9113379E-01
        2   -1    0    0  501    0  0.00000000000E+00  0.00000000000E+00  0.17496218907E+04  0.17496218907E+04  0.25500000920E-02 0.  1.
       -2   -1    0    0    0  501  0.00000000000E+00  0.00000000000E+00 -0.20555413661E+03  0.20555413663E+03  0.25500000920E-02 0. -1.
    10030    2    1    2    0    0  0.00000000000E+00  0.00000000000E+00  0.15440677541E+04  0.19551760273E+04  0.11994032135E+04 0.  0.
        3    1    3    3  502    0  0.39031386505E+02  0.17306130915E+03  0.17058664026E+04  0.17150667216E+04  0.10100000352E+00 0.  1.
       -3    1    3    3    0  502 -0.39031386505E+02 -0.17306130915E+03 -0.16179864848E+03  0.24010930575E+03  0.10100000352E+00 0. -1.
</event>
<event>
 5   0  0.9838215E-05  0.1200310E+04  0.7818609E-02  0.9112585E-01
       -2   -1    0    0    0  501  0.00000000000E+00  0.00000000000E+00  0.76129725581E+03  0.76129725581E+03  0.25500000920E-02 0. -1.
        2   -1    0    0  501    0  0.00000000000E+00  0.00000000000E+00 -0.47312126838E+03  0.47312126839E+03  0.25500000920E-02 0.  1.
    10030    2    1    2    0    0  0.00000000000E+00  0.00000000000E+00  0.28817598742E+03  0.12344185242E+04  0.12003098322E+04 0.  0.
        4    1    3    3  502    0 -0.32436093790E+03  0.50487331968E+03  0.13505059127E+03  0.61509947330E+03  0.12699999809E+01 0.  1.
       -4    1    3    3    0  502  0.32436093790E+03 -0.50487331968E+03  0.15312539616E+03  0.61931905090E+03  0.12699999809E+01 0. -1.
</event>
<event>
 5   0  0.1012657E-04  0.1199936E+04  0.7818609E-02  0.9112913E-01
        2   -1    0    0  501    0  0.00000000000E+00  0.00000000000E+00  0.16053516918E+04  0.16053516918E+04  0.25500000920E-02 0. -1.
       -2   -1    0    0    0  501  0.00000000000E+00  0.00000000000E+00 -0.22422582415E+03  0.22422582417E+03  0.25500000920E-02 0.  1.
    10030    2    1    2    0    0  0.00000000000E+00  0.00000000000E+00  0.13811258676E+04  0.18295775159E+04  0.11999355085E+04 0.  0.
        1    1    3    3  502    0 -0.13570738482E+03 -0.19211565103E+02 -0.20003559324E+03  0.24248673597E+03  0.50400001928E-02 0.  1.
       -1    1    3    3    0  502  0.13570738482E+03  0.19211565103E+02  0.15811614609E+04  0.15870907800E+04  0.50400001928E-02 0. -1.
</event>
<event>
 5   0  0.5732931E-05  0.1199572E+04  0.7818609E-02  0.9113231E-01
       -1   -1    0    0    0  501  0.00000000000E+00  0.00000000000E+00  0.34375185734E+03  0.34375185737E+03  0.50400001928E-02 0. -1.
        1   -1    0    0  501    0  0.00000000000E+00  0.00000000000E+00 -0.10465205330E+04  0.10465205330E+04  0.50400001928E-02 0.  1.
    10030    2    1    2    0    0  0.00000000000E+00  0.00000000000E+00 -0.70276867567E+03  0.13902723904E+04  0.11995722187E+04 0.  0.
        4    1    3    3  502    0 -0.15001291706E+03  0.22524001327E+03 -0.97173816975E+03  0.10087188024E+04  0.12699999809E+01 0.  1.
       -4    1    3    3    0  502  0.15001291706E+03 -0.22524001327E+03  0.26896949408E+03  0.38155358799E+03  0.12699999809E+01 0. -1.
</event>
<event>
 5   0  0.1023063E-04  0.1201426E+04  0.7818609E-02  0.9111609E-01
       -2   -1    0    0    0  501  0.00000000000E+00  0.00000000000E+00  0.25175110621E+03  0.25175110623E+03  0.25500000920E-02 0.  1.
        2   -1    0    0  501    0  0.00000000000E+00  0.00000000000E+00 -0.14333849675E+04  0.14333849675E+04  0.25500000920E-02 0. -1.
    10030    2    1    2    0    0  0.00000000000E+00  0.00000000000E+00 -0.11816338613E+04  0.16851360737E+04  0.12014262378E+04 0.  0.
        3    1    3    3  502    0 -0.91963474186E+02 -0.15332232734E+03  0.21356814872E+03  0.27852536867E+03  0.10100000352E+00 0.  1.
       -3    1    3    3    0  502  0.91963474186E+02  0.15332232734E+03 -0.13952020100E+04  0.14066107050E+04  0.10100000352E+00 0. -1.
</event>
<event>
 5   0  0.1004006E-04  0.1199908E+04  0.7818609E-02  0.9112937E-01
        2   -1    0    0  501    0  0.00000000000E+00  0.00000000000E+00  0.12516001151E+04  0.12516001151E+04  0.25500000920E-02 0. -1.
       -2   -1    0    0    0  501  0.00000000000E+00  0.00000000000E+00 -0.28758779718E+03  0.28758779719E+03  0.25500000920E-02 0.  1.
    10030    2    1    2    0    0  0.00000000000E+00  0.00000000000E+00  0.96401231794E+03  0.15391879123E+04  0.11999081966E+04 0.  0.
        5    1    3    3  502    0 -0.25744009829E+03 -0.43460554529E+03  0.66810640826E+02  0.50955189719E+03  0.46999998093E+01 0.  1.
       -5    1    3    3    0  502  0.25744009829E+03  0.43460554529E+03  0.89720167711E+03  0.10296360151E+04  0.46999998093E+01 0. -1.
</event>
<event>
 5   0  0.5745487E-05  0.1200095E+04  0.7818609E-02  0.9112773E-01
       -1   -1    0    0    0  501  0.00000000000E+00  0.00000000000E+00  0.79589644372E+03  0.79589644373E+03  0.50400001928E-02 0.  1.
        1   -1    0    0  501    0  0.00000000000E+00  0.00000000000E+00 -0.45239204832E+03  0.45239204835E+03  0.50400001928E-02 0. -1.
    10030    2    1    2    0    0  0.00000000000E+00  0.00000000000E+00  0.34350439539E+03  0.12482884921E+04  0.12000953670E+04 0.  0.
        3    1    3    3  502    0 -0.14062821372E+03 -0.38936061953E+03 -0.28006343190E+03  0.49981348784E+03  0.10100000352E+00 0. -1.
       -3    1    3    3    0  502  0.14062821372E+03  0.38936061953E+03  0.62356782730E+03  0.74847500424E+03  0.10100000352E+00 0.  1.
</event>
<event>
 5   0  0.3839750E-05  0.1200851E+04  0.7818609E-02  0.9112112E-01
        3   -1    0    0  501    0  0.00000000000E+00  0.00000000000E+00  0.75313495409E+03  0.75313496086E+03  0.10100000352E+00 0. -1.
       -3   -1    0    0    0  501  0.00000000000E+00  0.00000000000E+00 -0.47868039069E+03  0.47868040134E+03  0.10100000352E+00 0.  1.
    10030    2    1    2    0    0  0.00000000000E+00  0.00000000000E+00  0.27445456340E+03  0.12318153622E+04  0.12008512727E+04 0.  0.
        1    1    3    3  502    0 -0.45835295651E+03 -0.34154569986E+03 -0.51277436720E+02  0.57390789625E+03  0.50400001928E-02 0.  1.
       -1    1    3    3    0  502  0.45835295651E+03  0.34154569986E+03  0.32573200012E+03  0.65790746596E+03  0.50400001928E-02 0. -1.
</event>
<event>
 5   0  0.5732931E-05  0.1200851E+04  0.7818609E-02  0.9112112E-01
       -1   -1    0    0    0  501  0.00000000000E+00  0.00000000000E+00  0.22563844174E+03  0.22563844180E+03  0.50400001928E-02 0.  1.
        1   -1    0    0  501    0  0.00000000000E+00  0.00000000000E+00 -0.15977363676E+04  0.15977363676E+04  0.50400001928E-02 0. -1.
    10030    2    1    2    0    0  0.00000000000E+00  0.00000000000E+00 -0.13720979259E+04  0.18233748094E+04  0.12008509389E+04 0.  0.
        4    1    3    3  502    0  0.36354348576E+03  0.34874702524E+03 -0.19001508416E+03  0.53841963074E+03  0.12699999809E+01 0.  1.
       -4    1    3    3    0  502 -0.36354348576E+03 -0.34874702524E+03 -0.11820828417E+04  0.12849551787E+04  0.12699999809E+01 0. -1.
</event>
<event>
 5   0  0.9838215E-05  0.1198707E+04  0.7818609E-02  0.9113989E-01
       -2   -1    0    0    0  501  0.00000000000E+00  0.00000000000E+00  0.85538353861E+03  0.85538353861E+03  0.25500000920E-02 0.  1.
        2   -1    0    0  501    0  0.00000000000E+00  0.00000000000E+00 -0.41995732349E+03  0.41995732350E+03  0.25500000920E-02 0. -1.
    10030    2    1    2    0    0  0.00000000000E+00  0.00000000000E+00  0.43542621512E+03  0.12753408621E+04  0.11987069391E+04 0.  0.
        4    1    3    3  502    0 -0.24191683751E+03 -0.50089980541E+03 -0.19709357610E+02  0.55660977624E+03  0.12699999809E+01 0. -1.
       -4    1    3    3    0  502  0.24191683751E+03  0.50089980541E+03  0.45513557273E+03  0.71873108587E+03  0.12699999809E+01 0.  1.
</event>
<event>
 5   0  0.5745487E-05  0.1200003E+04  0.7818609E-02  0.9112854E-01
       -1   -1    0    0    0  501  0.00000000000E+00  0.00000000000E+00  0.41760892927E+03  0.41760892930E+03  0.50400001928E-02 0. -1.
        1   -1    0    0  501    0  0.00000000000E+00  0.00000000000E+00 -0.86205526578E+03  0.86205526579E+03  0.50400001928E-02 0.  1.
    10030    2    1    2    0    0  0.00000000000E+00  0.00000000000E+00 -0.44444633650E+03  0.12796641951E+04  0.12000032942E+04 0.  0.
        3    1    3    3  502    0  0.39683243897E+03 -0.44011721511E+03 -0.12205787712E+03  0.60504320773E+03  0.10100000352E+00 0.  1.
       -3    1    3    3    0  502 -0.39683243897E+03  0.44011721511E+03 -0.32238845938E+03  0.67462098737E+03  0.10100000352E+00 0. -1.
</event>
<event>
 5   0  0.1004006E-04  0.1199661E+04  0.7818609E-02  0.9113153E-01
       -2   -1    0    0    0  501  0.00000000000E+00  0.00000000000E+00  0.14794285418E+03  0.14794285420E+03  0.25500000920E-02 0. -1.
        2   -1    0    0  501    0  0.00000000000E+00  0.00000000000E+00 -0.24319968708E+04  0.24319968708E+04  0.25500000920E-02 0.  1.
    10030    2    1    2    0    0  0.00000000000E+00  0.00000000000E+00 -0.22840540166E+04  0.25799397250E+04  0.11996608828E+04 0.  0.
        5    1    3    3  502    0 -0.21037346477E+03  0.12108935826E+02  0.65680688591E+02  0.22077061366E+03  0.46999998093E+01 0. -1.
       -5    1    3    3    0  502  0.21037346477E+03 -0.12108935826E+02 -0.23497347052E+04  0.23591691113E+04  0.46999998093E+01 0.  1.
</event>
<event>
 5   0  0.9941209E-05  0.1200385E+04  0.7818609E-02  0.9112520E-01
        2   -1    0    0  501    0  0.00000000000E+00  0.00000000000E+00  0.57661190260E+03  0.57661190261E+03  0.25500000920E-02 0.  1.
       -2   -1    0    0    0  501  0.00000000000E+00  0.00000000000E+00 -0.62473744851E+03  0.62473744852E+03  0.25500000920E-02 0. -1.
    10030    2    1    2    0    0  0.00000000000E+00  0.00000000000E+00 -0.48125545907E+02  0.12013493511E+04  0.12003850196E+04 0.  0.
        2    1    3    3  502    0  0.28489723427E+02  0.59949956737E+03 -0.19626018563E+02  0.60049694106E+03  0.25500000920E-02 0. -1.
       -2    1    3    3    0  502 -0.28489723427E+02 -0.59949956737E+03 -0.28499527344E+02  0.60085241006E+03  0.25500000920E-02 0.  1.
</event>
<event>
 5   0  0.1004006E-04  0.1199793E+04  0.7818609E-02  0.9113038E-01
       -2   -1    0    0    0  501  0.00000000000E+00  0.00000000000E+00  0.50014618549E+03  0.50014618549E+03  0.25500000920E-02 0. -1.
        2   -1    0    0  501    0  0.00000000000E+00  0.00000000000E+00 -0.71954074094E+03  0.71954074095E+03  0.25500000920E-02 0.  1.
    10030    2    1    2    0    0  0.00000000000E+00  0.00000000000E+00 -0.21939455546E+03  0.12196869264E+04  0.11997925769E+04 0.  0.
        5    1    3    3  502    0 -0.59122128146E+03  0.85104975402E+02 -0.16600530720E+03  0.61997202558E+03  0.46999998093E+01 0.  1.
       -5    1    3    3    0  502  0.59122128146E+03 -0.85104975402E+02 -0.53389248256E+02  0.59971490086E+03  0.46999998093E+01 0. -1.
</event>
<event>
 5   0  0.5745487E-05  0.1200274E+04  0.7818609E-02  0.9112617E-01
        1   -1    0    0  501    0  0.00000000000E+00  0.00000000000E+00  0.10307003068E+04  0.10307003068E+04  0.50400001928E-02 0.  1.
       -1   -1    0    0    0  501  0.00000000000E+00  0.00000000000E+00 -0.34943637076E+03  0.34943637080E+03  0.50400001928E-02 0. -1.
    10030    2    1    2    0    0  0.00000000000E+00  0.00000000000E+00  0.68126393608E+03  0.13801366776E+04  0.12002735931E+04 0.  0.
        3    1    3    3  502    0  0.55345467981E+02  0.29280917822E+03 -0.25835562276E+03  0.39439570699E+03  0.10100000352E+00 0. -1.
       -3    1    3    3    0  502 -0.55345467981E+02 -0.29280917822E+03  0.93961955884E+03  0.98574097066E+03  0.10100000352E+00 0.  1.
</event>
<event>
 5   0  0.5732931E-05  0.1200116E+04  0.7818609E-02  0.9112755E-01
       -1   -1    0    0    0  501  0.00000000000E+00  0.00000000000E+00  0.34575855162E+03  0.34575855165E+03  0.50400001928E-02 0. -1.
        1   -1    0    0  501    0  0.00000000000E+00  0.00000000000E+00 -0.10413901762E+04  0.10413901762E+04  0.50400001928E-02 0.  1.
    10030    2    1    2    0    0  0.00000000000E+00  0.00000000000E+00 -0.69563162457E+03  0.13871487278E+04  0.12001159261E+04 0.  0.
        4    1    3    3  502    0  0.30500951370E+03  0.36085324896E+03  0.79725332443E+02  0.47916971134E+03  0.12699999809E+01 0. -1.
       -4    1    3    3    0  502 -0.30500951370E+03 -0.36085324896E+03 -0.77535695701E+03  0.90797901651E+03  0.12699999809E+01 0.  1.
</event>
<event>
 5   0  0.1023063E-04  0.1199871E+04  0.7818609E-02  0.9112969E-01
        2   -1    0    0  501    0  0.00000000000E+00  0.00000000000E+00  0.10151071012E+04  0.10151071012E+04  0.25500000920E-02 0. -1.
       -2   -1    0    0    0  501  0.00000000000E+00  0.00000000000E+00 -0.35456618782E+03  0.35456618783E+03  0.25500000920E-02 0.  1.
    10030    2    1    2    0    0  0.00000000000E+00  0.00000000000E+00  0.66054091337E+03  0.13696732890E+04  0.11998710849E+04 0.  0.
        3    1    3    3  502    0  0.58609099748E+03 -0.59554552793E+01  0.47638695709E+03  0.75530303049E+03  0.10100000352E+00 0. -1.
       -3    1    3    3    0  502 -0.58609099748E+03  0.59554552793E+01  0.18415395628E+03  0.61437025854E+03  0.10100000352E+00 0.  1.
</event>
<event>
 5   0  0.5447807E-05  0.1201456E+04  0.7818609E-02  0.9111583E-01
       -1   -1    0    0    0  501  0.00000000000E+00  0.00000000000E+00  0.26549700772E+03  0.26549700777E+03  0.50400001928E-02 0. -1.
        1   -1    0    0  501    0  0.00000000000E+00  0.00000000000E+00 -0.13592401330E+04  0.13592401330E+04  0.50400001928E-02 0.  1.
    10030    2    1    2    0    0  0.00000000000E+00  0.00000000000E+00 -0.10937431253E+04  0.16247371408E+04  0.12014560968E+04 0.  0.
        2    1    3    3  502    0  0.45081210432E+03  0.23815425893E+03 -0.11726097390E+03  0.52316263289E+03  0.25500000920E-02 0. -1.
       -2    1    3    3    0  502 -0.45081210432E+03 -0.23815425893E+03 -0.97648215137E+03  0.11015745079E+04  0.25500000920E-02 0.  1.
</event>
<event>
 5   0  0.9838215E-05  0.1199978E+04  0.7818609E-02  0.9112876E-01
       -2   -1    0    0    0  501  0.00000000000E+00  0.00000000000E+00  0.50128763299E+03  0.50128763300E+03  0.25500000920E-02 0.  1.
        2   -1    0    0  501    0  0.00000000000E+00  0.00000000000E+00 -0.71812462714E+03  0.71812462715E+03  0.25500000920E-02 0. -1.
    10030    2    1    2    0    0  0.00000000000E+00  0.00000000000E+00 -0.21683699416E+03  0.12194122601E+04  0.11999783240E+04 0.  0.
        4    1    3    3  502    0  0.65117270254E+02  0.87063789621E+02  0.49119268496E+03  0.50308272581E+03  0.12699999809E+01 0.  1.
       -4    1    3    3    0  502 -0.65117270254E+02 -0.87063789621E+02 -0.70802967912E+03  0.71632953433E+03  0.12699999809E+01 0. -1.
</event>
<event>
 5   0  0.5732931E-05  0.1199811E+04  0.7818609E-02  0.9113022E-01
       -1   -1    0    0    0  501  0.00000000000E+00  0.00000000000E+00  0.38390989987E+03  0.38390989990E+03  0.50400001928E-02 0. -1.
        1   -1    0    0  501    0  0.00000000000E+00  0.00000000000E+00 -0.93742402023E+03  0.93742402024E+03  0.50400001928E-02 0.  1.
    10030    2    1    2    0    0  0.00000000000E+00  0.00000000000E+00 -0.55351412036E+03  0.13213339201E+04  0.11998105880E+04 0.  0.
        4    1    3    3  502    0 -0.15384673408E+03 -0.35144921094E+03  0.23114854923E+03  0.44790247841E+03  0.12699999809E+01 0.  1.
       -4    1    3    3    0  502  0.15384673408E+03  0.35144921094E+03 -0.78466266959E+03  0.87343144173E+03  0.12699999809E+01 0. -1.
</event>
<event>
 5   0  0.5620246E-05  0.1200318E+04  0.7818609E-02  0.9112578E-01
        1   -1    0    0  501    0  0.00000000000E+00  0.00000000000E+00  0.11695842439E+04  0.11695842439E+04  0.50400001928E-02 0. -1.
       -1   -1    0    0    0  501  0.00000000000E+00  0.00000000000E+00 -0.30796474800E+03  0.30796474804E+03  0.50400001928E-02 0.  1.
    10030    2    1    2    0    0  0.00000000000E+00  0.00000000000E+00  0.86161949589E+03  0.14775489919E+04  0.12003178195E+04 0.  0.
        1    1    3    3  502    0 -0.51106609700E+03  0.25565528965E+03  0.20502739822E+03  0.60711153561E+03  0.50400001928E-02 0.  1.
       -1    1    3    3    0  502  0.51106609700E+03 -0.25565528965E+03  0.65659209767E+03  0.87043745633E+03  0.50400001928E-02 0. -1.
</event>
<event>
 5   0  0.5625746E-05  0.1199435E+04  0.7818609E-02  0.9113351E-01
       -1   -1    0    0    0  501  0.00000000000E+00  0.00000000000E+00  0.59768312973E+03  0.59768312976E+03  0.50400001928E-02 0.  1.
        1   -1    0    0  501    0  0.00000000000E+00  0.00000000000E+00 -0.60175862135E+03  0.60175862138E+03  0.50400001928E-02 0. -1.
    10030    2    1    2    0    0  0.00000000000E+00  0.00000000000E+00 -0.40754916201E+01  0.11994417511E+04  0.11994348272E+04 0.  0.
        5    1    3    3  502    0  0.45412150920E+03  0.85997082720E+02 -0.38416171606E+03  0.60101926545E+03  0.46999998093E+01 0. -1.
       -5    1    3    3    0  502 -0.45412150920E+03 -0.85997082720E+02  0.38008622444E+03  0.59842248568E+03  0.46999998093E+01 0.  1.
</event>
<event>
 5   0  0.5745487E-05  0.1201038E+04  0.7818609E-02  0.9111949E-01
       -1   -1    0    0    0  501  0.00000000000E+00  0.00000000000E+00  0.35718874676E+03  0.35718874680E+03  0.50400001928E-02 0. -1.
        1   -1    0    0  501    0  0.00000000000E+00  0.00000000000E+00 -0.10096141368E+04  0.10096141368E+04  0.50400001928E-02 0.  1.
    10030    2    1    2    0    0  0.00000000000E+00  0.00000000000E+00 -0.65242539005E+03  0.13668028836E+04  0.12010375652E+04 0.  0.
        3    1    3    3  502    0 -0.12927712589E+03  0.40719648472E+03 -0.80647972502E+03  0.91265059553E+03  0.10100000352E+00 0.  1.
       -3    1    3    3    0  502  0.12927712589E+03 -0.40719648472E+03  0.15405433498E+03  0.45415228809E+03  0.10100000352E+00 0. -1.
</event>
<event>
 5   0  0.9941209E-05  0.1200330E+04  0.7818609E-02  0.9112568E-01
        2   -1    0    0  501    0  0.00000000000E+00  0.00000000000E+00  0.99443363065E+03  0.99443363065E+03  0.25500000920E-02 0. -1.
       -2   -1    0    0    0  501  0.00000000000E+00  0.00000000000E+00 -0.36221434578E+03  0.36221434579E+03  0.25500000920E-02 0.  1.
    10030    2    1    2    0    0  0.00000000000E+00  0.00000000000E+00  0.63221928487E+03  0.13566479764E+04  0.12003301662E+04 0.  0.
        2    1    3    3  502    0  0.59758465377E+03 -0.32992756254E+02  0.36668264304E+03  0.70189180156E+03  0.25500000920E-02 0. -1.
       -2    1    3    3    0  502 -0.59758465377E+03  0.32992756254E+02  0.26553664183E+03  0.65475617488E+03  0.25500000920E-02 0.  1.
</event>
<event>
 5   0  0.5732931E-05  0.1200328E+04  0.7818609E-02  0.9112569E-01
        1   -1    0    0  501    0  0.00000000000E+00  0.00000000000E+00  0.12206067460E+04  0.12206067460E+04  0.50400001928E-02 0.  1.
       -1   -1    0    0    0  501  0.00000000000E+00  0.00000000000E+00 -0.29509659770E+03  0.29509659774E+03  0.50400001928E-02 0. -1.
    10030    2    1    2    0    0  0.00000000000E+00  0.00000000000E+00  0.92551014834E+03  0.15157033438E+04  0.12003281183E+04 0.  0.
        4    1    3    3  502    0  0.52912537612E+03  0.27064515024E+03  0.56819827504E+03  0.82223679902E+03  0.12699999809E+01 0. -1.
       -4    1    3    3    0  502 -0.52912537612E+03 -0.27064515024E+03  0.35731187330E+03  0.69346654476E+03  0.12699999809E+01 0.  1.
</event>
<event>
 5   0  0.1004006E-04  0.1199601E+04  0.7818609E-02  0.9113206E-01
       -2   -1    0    0    0  501  0.00000000000E+00  0.00000000000E+00  0.19919059100E+03  0.19919059101E+03  0.25500000920E-02 0.  1.
        2   -1    0    0  501    0  0.00000000000E+00  0.00000000000E+00 -0.18061127216E+04  0.18061127216E+04  0.25500000920E-02 0. -1.
    10030    2    1    2    0    0  0.00000000000E+00  0.00000000000E+00 -0.16069221306E+04  0.20053033126E+04  0.11996010344E+04 0.  0.
        5    1    3    3  502    0 -0.55561211175E+03  0.19292423354E+03 -0.60698808317E+03  0.84521074397E+03  0.46999998093E+01 0. -1.
       -5    1    3    3    0  502  0.55561211175E+03 -0.19292423354E+03 -0.99993404743E+03  0.11600925686E+04  0.46999998093E+01 0.  1.
</event>
<event>
 5   0  0.3839750E-05  0.1200939E+04  0.7818609E-02  0.9112035E-01
        3   -1    0    0  501    0  0.00000000000E+00  0.00000000000E+00  0.50610569785E+03  0.50610570792E+03  0.10100000352E+00 0.  1.
       -3   -1    0    0    0  501  0.00000000000E+00  0.00000000000E+00 -0.71242748794E+03  0.71242749510E+03  0.10100000352E+00 0. -1.
    10030    2    1    2    0    0  0.00000000000E+00  0.00000000000E+00 -0.20632179010E+03  0.12185332030E+04  0.12009390017E+04 0.  0.
        1    1    3    3  502    0 -0.39837154669E+03 -0.91741105902E+02  0.34310917030E+03  0.53370424628E+03  0.50400001928E-02 0.  1.
       -1    1    3    3    0  502  0.39837154669E+03  0.91741105902E+02 -0.54943096040E+03  0.68482895675E+03  0.50400001928E-02 0. -1.
</event>
<event>
 5   0  0.9838215E-05  0.1200140E+04  0.7818609E-02  0.9112734E-01
       -2   -1    0    0    0  501  0.00000000000E+00  0.00000000000E+00  0.27638229182E+03  0.27638229183E+03  0.25500000920E-02 0.  1.
        2   -1    0    0  501    0  0.00000000000E+00  0.00000000000E+00 -0.13028486149E+04  0.13028486149E+04  0.25500000920E-02 0. -1.
    10030    2    1    2    0    0  0.00000000000E+00  0.00000000000E+00 -0.10264663230E+04  0.15792309067E+04  0.12001404686E+04 0.  0.
        4    1    3    3  502    0 -0.18497296356E+03  0.38964808420E+02  0.23617793105E+03  0.30251426670E+03  0.12699999809E+01 0.  1.
       -4    1    3    3    0  502  0.18497296356E+03 -0.38964808420E+02 -0.12626442541E+04  0.12767166400E+04  0.12699999809E+01 0. -1.
</event>
<event>
 5   0  0.5620246E-05  0.1199932E+04  0.7818609E-02  0.9112916E-01
        1   -1    0    0  501    0  0.00000000000E+00  0.00000000000E+00  0.63631198047E+03  0.63631198049E+03  0.50400001928E-02 0.  1.
       -1   -1    0    0    0  501  0.00000000000E+00  0.00000000000E+00 -0.56569632440E+03  0.56569632442E+03  0.50400001928E-02 0. -1.
    10030    2    1    2    0    0  0.00000000000E+00  0.00000000000E+00  0.70615656072E+02  0.12020083049E+04  0.11999322457E+04 0.  0.
        1    1    3    3  502    0  0.22446883038E+03  0.15266068105E+03  0.57127353300E+03  0.63249109787E+03  0.50400001928E-02 0.  1.
       -1    1    3    3    0  502 -0.22446883038E+03 -0.15266068105E+03 -0.50065787693E+03  0.56951720704E+03  0.50400001928E-02 0. -1.
</event>
<event>
 5   0  0.1004006E-04  0.1200896E+04  0.7818609E-02  0.9112072E-01
        2   -1    0    0  501    0  0.00000000000E+00  0.00000000000E+00  0.21502536546E+04  0.21502536546E+04  0.25500000920E-02 0.  1.
       -2   -1    0    0    0  501  0.00000000000E+00  0.00000000000E+00 -0.16767232508E+03  0.16767232510E+03  0.25500000920E-02 0. -1.
    10030    2    1    2    0    0  0.00000000000E+00  0.00000000000E+00  0.19825813295E+04  0.23179259797E+04  0.12008963815E+04 0.  0.
        5    1    3    3  502    0  0.40535218367E+03  0.30834914076E+03  0.37749162807E+03  0.63396498695E+03  0.46999998093E+01 0. -1.
       -5    1    3    3    0  502 -0.40535218367E+03 -0.30834914076E+03  0.16050897014E+04  0.16839609927E+04  0.46999998093E+01 0.  1.
</event>
<event>
 5   0  0.3839750E-05  0.1202675E+04  0.7818609E-02  0.9110519E-01
       -3   -1    0    0    0  501  0.00000000000E+00  0.00000000000E+00  0.38635255484E+03  0.38635256805E+03  0.10100000352E+00 0.  1.
        3   -1    0    0  501    0  0.00000000000E+00  0.00000000000E+00 -0.93594993850E+03  0.93594994395E+03  0.10100000352E+00 0. -1.
    10030    2    1    2    0    0  0.00000000000E+00  0.00000000000E+00 -0.54959738366E+03  0.13223025120E+04  0.12026747894E+04 0.  0.
        4    1    3    3  502    0 -0.30600223558E+03 -0.19291573769E+03 -0.80294542658E+03  0.88066839445E+03  0.12699999809E+01 0. -1.
       -4    1    3    3    0  502  0.30600223558E+03  0.19291573769E+03  0.25334804292E+03  0.44163411754E+03  0.12699999809E+01 0.  1.
</event>
<event>
 5   0  0.1012657E-04  0.1200053E+04  0.7818609E-02  0.9112810E-01
       -2   -1    0    0    0  501  0.00000000000E+00  0.00000000000E+00  0.14996507398E+03  0.14996507400E+03  0.25500000920E-02 0.  1.
        2   -1    0    0  501    0  0.00000000000E+00  0.00000000000E+00 -0.24007713740E+04  0.24007713740E+04  0.25500000920E-02 0. -1.
    10030    2    1    2    0    0  0.00000000000E+00  0.00000000000E+00 -0.22508063000E+04  0.25507364480E+04  0.12000530934E+04 0.  0.
        1    1    3    3  502    0  0.14546634517E+02 -0.56458852099E+03 -0.15561031640E+04  0.16554240724E+04  0.50400001928E-02 0. -1.
       -1    1    3    3    0  502 -0.14546634517E+02  0.56458852099E+03 -0.69470313605E+03  0.89531237558E+03  0.50400001928E-02 0.  1.
</event>
<event>
 5   0  0.1023063E-04  0.1199564E+04  0.7818609E-02  0.9113239E-01
       -2   -1    0    0    0  501  0.00000000000E+00  0.00000000000E+00  0.33987971879E+03  0.33987971880E+03  0.25500000920E-02 0. -1.
        2   -1    0    0  501    0  0.00000000000E+00  0.00000000000E+00 -0.10584281399E+04  0.10584281399E+04  0.25500000920E-02 0.  1.
    10030    2    1    2    0    0  0.00000000000E+00  0.00000000000E+00 -0.71854842114E+03  0.13983078587E+04  0.11995636850E+04 0.  0.
        3    1    3    3  502    0  0.17242542256E+03  0.36108409421E+03  0.16154625327E+03  0.43151993185E+03  0.10100000352E+00 0. -1.
       -3    1    3    3    0  502 -0.17242542256E+03 -0.36108409421E+03 -0.88009467441E+03  0.96678792688E+03  0.10100000352E+00 0.  1.
</event>
<event>
 5   0  0.5620246E-05  0.1200547E+04  0.7818609E-02  0.9112378E-01
       -1   -1    0    0    0  501  0.00000000000E+00  0.00000000000E+00  0.60322795995E+03  0.60322795998E+03  0.50400001928E-02 0. -1.
        1   -1    0    0  501    0  0.00000000000E+00  0.00000000000E+00 -0.59733352318E+03  0.59733352320E+03  0.50400001928E-02 0.  1.
    10030    2    1    2    0    0  0.00000000000E+00  0.00000000000E+00  0.58944367712E+01  0.12005614832E+04  0.12005470130E+04 0.  0.
        1    1    3    3  502    0 -0.44529414859E+03  0.26112852493E+03 -0.30341132930E+03  0.59877660281E+03  0.50400001928E-02 0.  1.
       -1    1    3    3    0  502  0.44529414859E+03 -0.26112852493E+03  0.30930576607E+03  0.60178488037E+03  0.50400001928E-02 0. -1.
</event>
<event>
 5   0  0.5447807E-05  0.1200345E+04  0.7818609E-02  0.9112555E-01
        1   -1    0    0  501    0  0.00000000000E+00  0.00000000000E+00  0.82293726040E+03  0.82293726042E+03  0.50400001928E-02 0.  1.
       -1   -1    0    0    0  501  0.00000000000E+00  0.00000000000E+00 -0.43770895353E+03  0.43770895356E+03  0.50400001928E-02 0. -1.
    10030    2    1    2    0    0  0.00000000000E+00  0.00000000000E+00  0.38522830687E+03  0.12606462140E+04  0.12003449622E+04 0.  0.
        2    1    3    3  502    0  0.17809410068E+03  0.47105853546E+03 -0.15027378995E+03  0.52554339924E+03  0.25500000920E-02 0. -1.
       -2    1    3    3    0  502 -0.17809410068E+03 -0.47105853546E+03  0.53550209682E+03  0.73510281474E+03  0.25500000920E-02 0.  1.
</event>
<event>
 5   0  0.1012657E-04  0.1200205E+04  0.7818609E-02  0.9112677E-01
       -2   -1    0    0    0  501  0.00000000000E+00  0.00000000000E+00  0.74254689264E+03  0.74254689264E+03  0.25500000920E-02 0.  1.
        2   -1    0    0  501    0  0.00000000000E+00  0.00000000000E+00 -0.48498323498E+03  0.48498323499E+03  0.25500000920E-02 0. -1.
    10030    2    1    2    0    0  0.00000000000E+00  0.00000000000E+00  0.25756365766E+03  0.12275301276E+04  0.12002046394E+04 0.  0.
        1    1    3    3  502    0  0.51341701410E+03 -0.62584343781E+02  0.44002753646E+03  0.67907147144E+03  0.50400001928E-02 0.  1.
       -1    1    3    3    0  502 -0.51341701410E+03  0.62584343781E+02 -0.18246387880E+03  0.54845865619E+03  0.50400001928E-02 0. -1.
</event>
<event>
 5   0  0.1023063E-04  0.1199939E+04  0.7818609E-02  0.9112910E-01
        2   -1    0    0  501    0  0.00000000000E+00  0.00000000000E+00  0.16328366295E+04  0.16328366295E+04  0.25500000920E-02 0. -1.
       -2   -1    0    0    0  501  0.00000000000E+00  0.00000000000E+00 -0.22045287686E+03  0.22045287688E+03  0.25500000920E-02 0.  1.
    10030    2    1    2    0    0  0.00000000000E+00  0.00000000000E+00  0.14123837527E+04  0.18532895064E+04  0.11999392192E+04 0.  0.
        3    1    3    3  502    0 -0.10872581352E+03  0.77113387217E+02  0.16096776555E+04  0.16151872777E+04  0.10100000352E+00 0. -1.
       -3    1    3    3    0  502  0.10872581352E+03 -0.77113387217E+02 -0.19729390287E+03  0.23810222873E+03  0.10100000352E+00 0.  1.
</event>
<event>
 5   0  0.5625746E-05  0.1201118E+04  0.7818609E-02  0.9111879E-01
        1   -1    0    0  501    0  0.00000000000E+00  0.00000000000E+00  0.45495727154E+03  0.45495727156E+03  0.50400001928E-02 0. -1.
       -1   -1    0    0    0  501  0.00000000000E+00  0.00000000000E+00 -0.79275772161E+03  0.79275772163E+03  0.50400001928E-02 0.  1.
    10030    2    1    2    0    0  0.00000000000E+00  0.00000000000E+00 -0.33780045008E+03  0.12477149932E+04  0.12011176296E+04 0.  0.
        5    1    3    3  502    0 -0.25536228148E+03  0.14548972269E+03  0.37512659265E+03  0.47657025161E+03  0.46999998093E+01 0. -1.
       -5    1    3    3    0  502  0.25536228148E+03 -0.14548972269E+03 -0.71292704273E+03  0.77114474158E+03  0.46999998093E+01 0.  1.
</event>
<event>
 5   0  0.1023063E-04  0.1199960E+04  0.7818609E-02  0.9112892E-01
       -2   -1    0    0    0  501  0.00000000000E+00  0.00000000000E+00  0.13586658428E+04  0.13586658428E+04  0.25500000920E-02 0. -1.
        2   -1    0    0  501    0  0.00000000000E+00  0.00000000000E+00 -0.26494804567E+03  0.26494804568E+03  0.25500000920E-02 0.  1.
    10030    2    1    2    0    0  0.00000000000E+00  0.00000000000E+00  0.10937177971E+04  0.16236138885E+04  0.11999597656E+04 0.  0.
        3    1    3    3  502    0 -0.33363857772E+03  0.35658562223E+03  0.10185071502E+04  0.11295241617E+04  0.10100000352E+00 0. -1.
       -3    1    3    3    0  502  0.33363857772E+03 -0.35658562223E+03  0.75210646899E+02  0.49408972681E+03  0.10100000352E+00 0.  1.
</event>
<event>
 5   0  0.5447807E-05  0.1199806E+04  0.7818609E-02  0.9113026E-01
       -1   -1    0    0    0  501  0.00000000000E+00  0.00000000000E+00  0.40838378441E+03  0.40838378444E+03  0.50400001928E-02 0. -1.
        1   -1    0    0  501    0  0.00000000000E+00  0.00000000000E+00 -0.88123896569E+03  0.88123896570E+03  0.50400001928E-02 0.  1.
    10030    2    1    2    0    0  0.00000000000E+00  0.00000000000E+00 -0.47285518128E+03  0.12896227501E+04  0.11998061574E+04 0.  0.
        2    1    3    3  502    0  0.35774977263E+03 -0.37669432329E+03 -0.55888570834E+03  0.76304439452E+03  0.25500000920E-02 0.  1.
       -2    1    3    3    0  502 -0.35774977263E+03  0.37669432329E+03  0.86030527058E+02  0.52657835562E+03  0.25500000920E-02 0. -1.
</event>
<event>
 5   0  0.5732931E-05  0.1200708E+04  0.7818609E-02  0.9112237E-01
       -1   -1    0    0    0  501  0.00000000000E+00  0.00000000000E+00  0.23717341394E+03  0.23717341399E+03  0.50400001928E-02 0.  1.
        1   -1    0    0  501    0  0.00000000000E+00  0.00000000000E+00 -0.15196671863E+04  0.15196671863E+04  0.50400001928E-02 0. -1.
    10030    2    1    2    0    0  0.00000000000E+00  0.00000000000E+00 -0.12824937724E+04  0.17568406003E+04  0.12007075492E+04 0.  0.
        4    1    3    3  502    0 -0.31245130737E+03 -0.14765531969E+03  0.77042171342E+02  0.35406923331E+03  0.12699999809E+01 0.  1.
       -4    1    3    3    0  502  0.31245130737E+03  0.14765531969E+03 -0.13595359437E+04  0.14027713670E+04  0.12699999809E+01 0. -1.
</event>
<event>
 5   0  0.1023063E-04  0.1200209E+04  0.7818609E-02  0.9112674E-01
        2   -1    0    0  501    0  0.00000000000E+00  0.00000000000E+00  0.15447658119E+04  0.15447658119E+04  0.25500000920E-02 0. -1.
       -2   -1    0    0    0  501  0.00000000000E+00  0.00000000000E+00 -0.23312612253E+03  0.23312612254E+03  0.25500000920E-02 0.  1.
    10030    2    1    2    0    0  0.00000000000E+00  0.00000000000E+00  0.13116396893E+04  0.17778919344E+04  0.12002087551E+04 0.  0.
        3    1    3    3  502    0  0.32298244456E+03 -0.21053769058E+03 -0.25395990449E+02  0.38637901752E+03  0.10100000352E+00 0.  1.
       -3    1    3    3    0  502 -0.32298244456E+03  0.21053769058E+03  0.13370356798E+04  0.13915129169E+04  0.10100000352E+00 0. -1.
</event>
<event>
 5   0  0.5745487E-05  0.1200182E+04  0.7818609E-02  0.9112698E-01
        1   -1    0    0  501    0  0.00000000000E+00  0.00000000000E+00  0.53234410368E+03  0.53234410370E+03  0.50400001928E-02 0.  1.
       -1   -1    0    0    0  501  0.00000000000E+00  0.00000000000E+00 -0.67645894621E+03  0.67645894623E+03  0.50400001928E-02 0. -1.
    10030    2    1    2    0    0  0.00000000000E+00  0.00000000000E+00 -0.14411484253E+03  0.12088030499E+04  0.12001815386E+04 0.  0.
        3    1    3    3  502    0 -0.21686556522E+03  0.55177348597E+03 -0.16559146866E+03  0.61555275801E+03  0.10100000352E+00 0. -1.
       -3    1    3    3    0  502  0.21686556522E+03 -0.55177348597E+03  0.21476626124E+02  0.59325029192E+03  0.10100000352E+00 0.  1.
</event>
<event>
 5   0  0.5620246E-05  0.1198545E+04  0.7818609E-02  0.9114131E-01
        1   -1    0    0  501    0  0.00000000000E+00  0.00000000000E+00  0.38134267743E+03  0.38134267747E+03  0.50400001928E-02 0.  1.
       -1   -1    0    0    0  501  0.00000000000E+00  0.00000000000E+00 -0.94174520058E+03  0.94174520059E+03  0.50400001928E-02 0. -1.
    10030    2    1    2    0    0  0.00000000000E+00  0.00000000000E+00 -0.56040252314E+03  0.13230878781E+04  0.11985451786E+04 0.  0.
        1    1    3    3  502    0  0.51808683076E+03 -0.22240482866E+03 -0.55996404550E+02  0.56658050564E+03  0.50400001928E-02 0.  1.
       -1    1    3    3    0  502 -0.51808683076E+03  0.22240482866E+03 -0.50440611859E+03  0.75650737242E+03  0.50400001928E-02 0. -1.
</event>
<event>
 5   0  0.5732931E-05  0.1199477E+04  0.7818609E-02  0.9113315E-01
        1   -1    0    0  501    0  0.00000000000E+00  0.00000000000E+00  0.69480588588E+03  0.69480588589E+03  0.50400001928E-02 0.  1.
       -1   -1    0    0    0  501  0.00000000000E+00  0.00000000000E+00 -0.51767836798E+03  0.51767836801E+03  0.50400001928E-02 0. -1.
    10030    2    1    2    0    0  0.00000000000E+00  0.00000000000E+00  0.17712751789E+03  0.12124842539E+04  0.11994765143E+04 0.  0.
        4    1    3    3  502    0  0.25753559287E+03 -0.30776810035E+03 -0.36195840167E+03  0.54042694477E+03  0.12699999809E+01 0. -1.
       -4    1    3    3    0  502 -0.25753559287E+03  0.30776810035E+03  0.53908591956E+03  0.67205730913E+03  0.12699999809E+01 0.  1.
</event>
<event>
 5   0  0.9941209E-05  0.1199521E+04  0.7818609E-02  0.9113276E-01
       -2   -1    0    0    0  501  0.00000000000E+00  0.00000000000E+00  0.44539309136E+03  0.44539309137E+03  0.25500000920E-02 0. -1.
        2   -1    0    0  501    0  0.00000000000E+00  0.00000000000E+00 -0.80762999678E+03  0.80762999678E+03  0.25500000920E-02 0.  1.
    10030    2    1    2    0    0  0.00000000000E+00  0.00000000000E+00 -0.36223690542E+03  0.12530230881E+04  0.11995212728E+04 0.  0.
        2    1    3    3  502    0 -0.23442754383E+03 -0.25808495727E+03 -0.69088957396E+03  0.77388146501E+03  0.25500000920E-02 0.  1.
       -2    1    3    3    0  502  0.23442754383E+03  0.25808495727E+03  0.32865266854E+03  0.47914162314E+03  0.25500000920E-02 0. -1.
</event>
<event>
 5   0  0.9941209E-05  0.1200447E+04  0.7818609E-02  0.9112465E-01
       -2   -1    0    0    0  501  0.00000000000E+00  0.00000000000E+00  0.33377578090E+03  0.33377578091E+03  0.25500000920E-02 0.  1.
        2   -1    0    0  501    0  0.00000000000E+00  0.00000000000E+00 -0.10793723413E+04  0.10793723413E+04  0.25500000920E-02 0. -1.
    10030    2    1    2    0    0  0.00000000000E+00  0.00000000000E+00 -0.74559656037E+03  0.14131481222E+04  0.12004471602E+04 0.  0.
        2    1    3    3  502    0  0.31489535311E+03 -0.17980838777E+03 -0.93585476228E+03  0.10036504749E+04  0.25500000920E-02 0. -1.
       -2    1    3    3    0  502 -0.31489535311E+03  0.17980838777E+03  0.19025820190E+03  0.40949764727E+03  0.25500000920E-02 0.  1.
</event>
<event>
 5   0  0.9941209E-05  0.1200138E+04  0.7818609E-02  0.9112736E-01
       -2   -1    0    0    0  501  0.00000000000E+00  0.00000000000E+00  0.29034170728E+03  0.29034170729E+03  0.25500000920E-02 0.  1.
        2   -1    0    0  501    0  0.00000000000E+00  0.00000000000E+00 -0.12402036027E+04  0.12402036027E+04  0.25500000920E-02 0. -1.
    10030    2    1    2    0    0  0.00000000000E+00  0.00000000000E+00 -0.94986189537E+03  0.15305453100E+04  0.12001380444E+04 0.  0.
        2    1    3    3  502    0 -0.36987511674E+03 -0.44398819180E+03 -0.68115934528E+03  0.89325873637E+03  0.25500000920E-02 0. -1.
       -2    1    3    3    0  502  0.36987511674E+03  0.44398819180E+03 -0.26870255009E+03  0.63728657358E+03  0.25500000920E-02 0.  1.
</event>
<event>
 5   0  0.5447807E-05  0.1200083E+04  0.7818609E-02  0.9112784E-01
        1   -1    0    0  501    0  0.00000000000E+00  0.00000000000E+00  0.36683644864E+03  0.36683644868E+03  0.50400001928E-02 0.  1.
       -1   -1    0    0    0  501  0.00000000000E+00  0.00000000000E+00 -0.98149930847E+03  0.98149930848E+03  0.50400001928E-02 0. -1.
    10030    2    1    2    0    0  0.00000000000E+00  0.00000000000E+00 -0.61466285982E+03  0.13483357572E+04  0.12000828650E+04 0.  0.
        2    1    3    3  502    0 -0.25531980480E+03  0.54137393812E+03 -0.25998567544E+03  0.65258447349E+03  0.25500000920E-02 0. -1.
       -2    1    3    3    0  502  0.25531980480E+03 -0.54137393812E+03 -0.35467718439E+03  0.69575128367E+03  0.25500000920E-02 0.  1.
</event>
<event>
 5   0  0.5732931E-05  0.1199944E+04  0.7818609E-02  0.9112906E-01
        1   -1    0    0  501    0  0.00000000000E+00  0.00000000000E+00  0.83720791867E+03  0.83720791868E+03  0.50400001928E-02 0.  1.
       -1   -1    0    0    0  501  0.00000000000E+00  0.00000000000E+00 -0.42996027536E+03  0.42996027539E+03  0.50400001928E-02 0. -1.
    10030    2    1    2    0    0  0.00000000000E+00  0.00000000000E+00  0.40724764331E+03  0.12671681941E+04  0.11999435775E+04 0.  0.
        4    1    3    3  502    0  0.21296406785E+03  0.11240429216E+03 -0.37668575144E+03  0.44708185753E+03  0.12699999809E+01 0. -1.
       -4    1    3    3    0  502 -0.21296406785E+03 -0.11240429216E+03  0.78393339475E+03  0.82008633655E+03  0.12699999809E+01 0.  1.
</event>
<event>
 5   0  0.5745487E-05  0.1200660E+04  0.7818609E-02  0.9112279E-01
       -1   -1    0    0    0  501  0.00000000000E+00  0.00000000000E+00  0.26474315409E+03  0.26474315414E+03  0.50400001928E-02 0. -1.
        1   -1    0    0  501    0  0.00000000000E+00  0.00000000000E+00 -0.13613051643E+04  0.13613051643E+04  0.50400001928E-02 0.  1.
    10030    2    1    2    0    0  0.00000000000E+00  0.00000000000E+00 -0.10965620102E+04  0.16260483185E+04  0.12006601899E+04 0.  0.
        3    1    3    3  502    0 -0.78804706553E+02 -0.20455292572E+03 -0.13051662011E+04  0.13234466003E+04  0.10100000352E+00 0.  1.
       -3    1    3    3    0  502  0.78804706553E+02  0.20455292572E+03  0.20860419085E+03  0.30260171817E+03  0.10100000352E+00 0. -1.
</event>
<event>
 5   0  0.1004006E-04  0.1199292E+04  0.7818609E-02  0.9113476E-01
        2   -1    0    0  501    0  0.00000000000E+00  0.00000000000E+00  0.24463298762E+03  0.24463298764E+03  0.25500000920E-02 0.  1.
       -2   -1    0    0    0  501  0.00000000000E+00  0.00000000000E+00 -0.14698567804E+04  0.14698567804E+04  0.25500000920E-02 0. -1.
    10030    2    1    2    0    0  0.00000000000E+00  0.00000000000E+00 -0.12252237928E+04  0.17144897680E+04  0.11992922172E+04 0.  0.
        5    1    3    3  502    0 -0.14311655063E+03 -0.24515817265E+01  0.21982509051E+03  0.26236142577E+03  0.46999998093E+01 0.  1.
       -5    1    3    3    0  502  0.14311655063E+03  0.24515817265E+01 -0.14450488833E+04  0.14521283423E+04  0.46999998093E+01 0. -1.
</event>
<event>
 5   0  0.5732931E-05  0.1200553E+04  0.7818609E-02  0.9112373E-01
        1   -1    0    0  501    0  0.00000000000E+00  0.00000000000E+00  0.75090142291E+03  0.75090142292E+03  0.50400001928E-02 0.  1.
       -1   -1    0    0    0  501  0.00000000000E+00  0.00000000000E+00 -0.47986575193E+03  0.47986575196E+03  0.50400001928E-02 0. -1.
    10030    2    1    2    0    0  0.00000000000E+00  0.00000000000E+00  0.27103567098E+03  0.12307671749E+04  0.12005529992E+04 0.  0.
        4    1    3    3  502    0  0.82502171710E+02  0.15478301165E+03 -0.45300820705E+03  0.48578023590E+03  0.12699999809E+01 0. -1.
       -4    1    3    3    0  502 -0.82502171710E+02 -0.15478301165E+03  0.72404387803E+03  0.74498693898E+03  0.12699999809E+01 0.  1.
</event>
<event>
 5   0  0.1004006E-04  0.1199694E+04  0.7818609E-02  0.9113125E-01
       -2   -1    0    0    0  501  0.00000000000E+00  0.00000000000E+00  0.32899683231E+03  0.32899683232E+03  0.25500000920E-02 0. -1.
        2   -1    0    0  501    0  0.00000000000E+00  0.00000000000E+00 -0.10936767843E+04  0.10936767843E+04  0.25500000920E-02 0.  1.
    10030    2    1    2    0    0  0.00000000000E+00  0.00000000000E+00 -0.76467995199E+03  0.14226736166E+04  0.11996936236E+04 0.  0.
        5    1    3    3  502    0 -0.19362890323E+03 -0.47299773880E+03 -0.10018122303E+02  0.51121567449E+03  0.46999998093E+01 0. -1.
       -5    1    3    3    0  502  0.19362890323E+03  0.47299773880E+03 -0.75466182968E+03  0.91145794212E+03  0.46999998093E+01 0.  1.
</event>
<event>
 5   0  0.5732931E-05  0.1199103E+04  0.7818609E-02  0.9113642E-01
        1   -1    0    0  501    0  0.00000000000E+00  0.00000000000E+00  0.12011230298E+04  0.12011230298E+04  0.50400001928E-02 0.  1.
       -1   -1    0    0    0  501  0.00000000000E+00  0.00000000000E+00 -0.29927158122E+03  0.29927158127E+03  0.50400001928E-02 0. -1.
    10030    2    1    2    0    0  0.00000000000E+00  0.00000000000E+00  0.90185144858E+03  0.15003946111E+04  0.11991029788E+04 0.  0.
        4    1    3    3  502    0 -0.45947528000E+03  0.30846161796E+02 -0.29454391274E+02  0.46145226481E+03  0.12699999809E+01 0. -1.
       -4    1    3    3    0  502  0.45947528000E+03 -0.30846161796E+02  0.93130583985E+03  0.10389423463E+04  0.12699999809E+01 0.  1.
</event>
<event>
 5   0  0.5625746E-05  0.1198978E+04  0.7818609E-02  0.9113751E-01
        1   -1    0    0  501    0  0.00000000000E+00  0.00000000000E+00  0.18429261619E+04  0.18429261619E+04  0.50400001928E-02 0.  1.
       -1   -1    0    0    0  501  0.00000000000E+00  0.00000000000E+00 -0.19500899627E+03  0.19500899633E+03  0.50400001928E-02 0. -1.
    10030    2    1    2    0    0  0.00000000000E+00  0.00000000000E+00  0.16479171656E+04  0.20379351582E+04  0.11989782001E+04 0.  0.
        5    1    3    3  502    0  0.16807259946E+02  0.11957590320E+03  0.18220096410E+04  0.18260126238E+04  0.46999998093E+01 0.  1.
       -5    1    3    3    0  502 -0.16807259946E+02 -0.11957590320E+03 -0.17409247535E+03  0.21192253439E+03  0.46999998093E+01 0. -1.
</event>
<event>
 5   0  0.5745487E-05  0.1203009E+04  0.7818609E-02  0.9110226E-01
       -1   -1    0    0    0  501  0.00000000000E+00  0.00000000000E+00  0.86964786916E+03  0.86964786918E+03  0.50400001928E-02 0. -1.
        1   -1    0    0  501    0  0.00000000000E+00  0.00000000000E+00 -0.41603956758E+03  0.41603956761E+03  0.50400001928E-02 0.  1.
    10030    2    1    2    0    0  0.00000000000E+00  0.00000000000E+00  0.45360830158E+03  0.12856874368E+04  0.12030094322E+04 0.  0.
        3    1    3    3  502    0  0.20661507311E+03  0.18986147359E+03 -0.34180502302E+03  0.44223054118E+03  0.10100000352E+00 0.  1.
       -3    1    3    3    0  502 -0.20661507311E+03 -0.18986147359E+03  0.79541332460E+03  0.84345689560E+03  0.10100000352E+00 0. -1.
</event>
<event>
 5   0  0.5620246E-05  0.1200188E+04  0.7818609E-02  0.9112692E-01
        1   -1    0    0  501    0  0.00000000000E+00  0.00000000000E+00  0.41002224564E+03  0.41002224567E+03  0.50400001928E-02 0.  1.
       -1   -1    0    0    0  501  0.00000000000E+00  0.00000000000E+00 -0.87827581472E+03  0.87827581473E+03  0.50400001928E-02 0. -1.
    10030    2    1    2    0    0  0.00000000000E+00  0.00000000000E+00 -0.46825356908E+03  0.12882980604E+04  0.12001876884E+04 0.  0.
        1    1    3    3  502    0 -0.39324253181E+03 -0.27717588781E+03 -0.61913155075E+03  0.78408547925E+03  0.50400001928E-02 0. -1.
       -1    1    3    3    0  502  0.39324253181E+03  0.27717588781E+03  0.15087798167E+03  0.50421258115E+03  0.50400001928E-02 0.  1.
</event>
<event>
 5   0  0.9838215E-05  0.1199651E+04  0.7818609E-02  0.9113162E-01
       -2   -1    0    0    0  501  0.00000000000E+00  0.00000000000E+00  0.36101447471E+03  0.36101447472E+03  0.25500000920E-02 0. -1.
        2   -1    0    0  501    0  0.00000000000E+00  0.00000000000E+00 -0.99661050321E+03  0.99661050321E+03  0.25500000920E-02 0.  1.
    10030    2    1    2    0    0  0.00000000000E+00  0.00000000000E+00 -0.63559602849E+03  0.13576249779E+04  0.11996513115E+04 0.  0.
        4    1    3    3  502    0  0.11589114274E+02 -0.59958024323E+03 -0.33204233767E+03  0.68548121969E+03  0.12699999809E+01 0. -1.
       -4    1    3    3    0  502 -0.11589114274E+02  0.59958024323E+03 -0.30355369083E+03  0.67214375825E+03  0.12699999809E+01 0.  1.
</event>
<event>
 5   0  0.9941209E-05  0.1200292E+04  0.7818609E-02  0.9112601E-01
       -2   -1    0    0    0  501  0.00000000000E+00  0.00000000000E+00  0.45012641808E+03  0.45012641809E+03  0.25500000920E-02 0. -1.
        2   -1    0    0  501    0  0.00000000000E+00  0.00000000000E+00 -0.80016397422E+03  0.80016397422E+03  0.25500000920E-02 0.  1.
    10030    2    1    2    0    0  0.00000000000E+00  0.00000000000E+00 -0.35003755614E+03  0.12502903923E+04  0.12002915373E+04 0.  0.
        2    1    3    3  502    0 -0.17439357824E+03  0.10756723626E+02 -0.77308342591E+03  0.79258236838E+03  0.25500000920E-02 0.  1.
       -2    1    3    3    0  502  0.17439357824E+03 -0.10756723626E+02  0.42304586978E+03  0.45770802394E+03  0.25500000920E-02 0. -1.
</event>
<event>
 5   0  0.5745487E-05  0.1199929E+04  0.7818609E-02  0.9112919E-01
       -1   -1    0    0    0  501  0.00000000000E+00  0.00000000000E+00  0.18794647121E+03  0.18794647128E+03  0.50400001928E-02 0. -1.
        1   -1    0    0  501    0  0.00000000000E+00  0.00000000000E+00 -0.19152120829E+04  0.19152120829E+04  0.50400001928E-02 0.  1.
    10030    2    1    2    0    0  0.00000000000E+00  0.00000000000E+00 -0.17272656117E+04  0.21031585542E+04  0.11999289190E+04 0.  0.
        3    1    3    3  502    0  0.35625876397E+02  0.47660436003E+03 -0.14993142129E+04  0.15736467323E+04  0.10100000352E+00 0.  1.
       -3    1    3    3    0  502 -0.35625876397E+02 -0.47660436003E+03 -0.22795139883E+03  0.52951182187E+03  0.10100000352E+00 0. -1.
</event>
<event>
 5   0  0.1023063E-04  0.1199690E+04  0.7818609E-02  0.9113128E-01
        2   -1    0    0  501    0  0.00000000000E+00  0.00000000000E+00  0.60100243982E+03  0.60100243982E+03  0.25500000920E-02 0.  1.
       -2   -1    0    0    0  501  0.00000000000E+00  0.00000000000E+00 -0.59868937562E+03  0.59868937562E+03  0.25500000920E-02 0. -1.
    10030    2    1    2    0    0  0.00000000000E+00  0.00000000000E+00  0.23130642005E+01  0.11996918154E+04  0.11996895856E+04 0.  0.
        3    1    3    3  502    0 -0.33928535140E+03  0.45363145364E+03 -0.19611958026E+03  0.59946554978E+03  0.10100000352E+00 0. -1.
       -3    1    3    3    0  502  0.33928535140E+03 -0.45363145364E+03  0.19843264446E+03  0.60022626567E+03  0.10100000352E+00 0.  1.
</event>
<event>
 5   0  0.5620246E-05  0.1199936E+04  0.7818609E-02  0.9112912E-01
        1   -1    0    0  501    0  0.00000000000E+00  0.00000000000E+00  0.12681001249E+04  0.12681001249E+04  0.50400001928E-02 0. -1.
       -1   -1    0    0    0  501  0.00000000000E+00  0.00000000000E+00 -0.28385916673E+03  0.28385916678E+03  0.50400001928E-02 0.  1.
    10030    2    1    2    0    0  0.00000000000E+00  0.00000000000E+00  0.98424095819E+03  0.15519592917E+04  0.11999364064E+04 0.  0.
        1    1    3    3  502    0 -0.54577755166E+03  0.10024291598E+03  0.19707360514E+03  0.58886312838E+03  0.50400001928E-02 0.  1.
       -1    1    3    3    0  502  0.54577755166E+03 -0.10024291598E+03  0.78716735306E+03  0.96309616334E+03  0.50400001928E-02 0. -1.
</event>
<event>
 5   0  0.5732931E-05  0.1200432E+04  0.7818609E-02  0.9112478E-01
       -1   -1    0    0    0  501  0.00000000000E+00  0.00000000000E+00  0.84096997786E+03  0.84096997788E+03  0.50400001928E-02 0. -1.
        1   -1    0    0  501    0  0.00000000000E+00  0.00000000000E+00 -0.42838572972E+03  0.42838572975E+03  0.50400001928E-02 0.  1.
    10030    2    1    2    0    0  0.00000000000E+00  0.00000000000E+00  0.41258424814E+03  0.12693557076E+04  0.12004324849E+04 0.  0.
        4    1    3    3  502    0  0.29287379819E+03  0.33444161784E+03 -0.22013827628E+03  0.49607331211E+03  0.12699999809E+01 0.  1.
       -4    1    3    3    0  502 -0.29287379819E+03 -0.33444161784E+03  0.63272252442E+03  0.77328239552E+03  0.12699999809E+01 0. -1.
</event>
<event>
 5   0  0.5625746E-05  0.1199735E+04  0.7818609E-02  0.9113089E-01
       -1   -1    0    0    0  501  0.00000000000E+00  0.00000000000E+00  0.31292009423E+03  0.31292009427E+03  0.50400001928E-02 0. -1.
        1   -1    0    0  501    0  0.00000000000E+00  0.00000000000E+00 -0.11499448218E+04  0.11499448218E+04  0.50400001928E-02 0.  1.
    10030    2    1    2    0    0  0.00000000000E+00  0.00000000000E+00 -0.83702472756E+03  0.14628649161E+04  0.11997347074E+04 0.  0.
        5    1    3    3  502    0  0.17686482762E+03 -0.44649479141E+03  0.19732281273E+02  0.48067683419E+03  0.46999998093E+01 0. -1.
       -5    1    3    3    0  502 -0.17686482762E+03  0.44649479141E+03 -0.85675700883E+03  0.98218808188E+03  0.46999998093E+01 0.  1.
</event>
<event>
 5   0  0.1023063E-04  0.1200148E+04  0.7818609E-02  0.9112727E-01
       -2   -1    0    0    0  501  0.00000000000E+00  0.00000000000E+00  0.28064897051E+03  0.28064897052E+03  0.25500000920E-02 0.  1.
        2   -1    0    0  501    0  0.00000000000E+00  0.00000000000E+00 -0.12830582016E+04  0.12830582016E+04  0.25500000920E-02 0. -1.
    10030    2    1    2    0    0  0.00000000000E+00  0.00000000000E+00 -0.10024092311E+04  0.15637071721E+04  0.12001482632E+04 0.  0.
        3    1    3    3  502    0  0.19597984515E+03  0.11559683433E+03  0.22226471634E+03  0.31807600058E+03  0.10100000352E+00 0.  1.
       -3    1    3    3    0  502 -0.19597984515E+03 -0.11559683433E+03 -0.12246739474E+04  0.12456311715E+04  0.10100000352E+00 0. -1.
</event>
<event>
 5   0  0.5620246E-05  0.1200050E+04  0.7818609E-02  0.9112813E-01
        1   -1    0    0  501    0  0.00000000000E+00  0.00000000000E+00  0.10545426284E+04  0.10545426284E+04  0.50400001928E-02 0. -1.
       -1   -1    0    0    0  501  0.00000000000E+00  0.00000000000E+00 -0.34140859725E+03  0.34140859729E+03  0.50400001928E-02 0.  1.
    10030    2    1    2    0    0  0.00000000000E+00  0.00000000000E+00  0.71313403118E+03  0.13959512257E+04  0.12000498649E+04 0.  0.
        1    1    3    3  502    0 -0.27621999729E+03 -0.16361664527E+03 -0.23309808656E+03  0.39673997970E+03  0.50400001928E-02 0.  1.
       -1    1    3    3    0  502  0.27621999729E+03  0.16361664527E+03  0.94623211774E+03  0.99921124602E+03  0.50400001928E-02 0. -1.
</event>
<event>
 5   0  0.1012657E-04  0.1200174E+04  0.7818609E-02  0.9112704E-01
        2   -1    0    0  501    0  0.00000000000E+00  0.00000000000E+00  0.14145294442E+04  0.14145294442E+04  0.25500000920E-02 0.  1.
       -2   -1    0    0    0  501  0.00000000000E+00  0.00000000000E+00 -0.25457561422E+03  0.25457561423E+03  0.25500000920E-02 0. -1.
    10030    2    1    2    0    0  0.00000000000E+00  0.00000000000E+00  0.11599538299E+04  0.16691050584E+04  0.12001744908E+04 0.  0.
        1    1    3    3  502    0 -0.39540327902E+03  0.33261949900E+03  0.15557930208E+03  0.53961505116E+03  0.50400001928E-02 0. -1.
       -1    1    3    3    0  502  0.39540327902E+03 -0.33261949900E+03  0.10043745279E+04  0.11294900072E+04  0.50400001928E-02 0.  1.
</event>
<event>
 5   0  0.5732931E-05  0.1199250E+04  0.7818609E-02  0.9113513E-01
       -1   -1    0    0    0  501  0.00000000000E+00  0.00000000000E+00  0.66390586388E+03  0.66390586389E+03  0.50400001928E-02 0.  1.
        1   -1    0    0  501    0  0.00000000000E+00  0.00000000000E+00 -0.54156790494E+03  0.54156790496E+03  0.50400001928E-02 0. -1.
    10030    2    1    2    0    0  0.00000000000E+00  0.00000000000E+00  0.12233795894E+03  0.12054737689E+04  0.11992499453E+04 0.  0.
        4    1    3    3  502    0 -0.19477960733E+03  0.31927350040E+03 -0.40995718038E+03  0.55492446886E+03  0.12699999809E+01 0. -1.
       -4    1    3    3    0  502  0.19477960733E+03 -0.31927350040E+03  0.53229513932E+03  0.65054930000E+03  0.12699999809E+01 0.  1.
</event>
<event>
 5   0  0.5625746E-05  0.1199957E+04  0.7818609E-02  0.9112894E-01
        1   -1    0    0  501    0  0.00000000000E+00  0.00000000000E+00  0.68728137979E+03  0.68728137981E+03  0.50400001928E-02 0. -1.
       -1   -1    0    0    0  501  0.00000000000E+00  0.00000000000E+00 -0.52376520059E+03  0.52376520062E+03  0.50400001928E-02 0.  1.
    10030    2    1    2    0    0  0.00000000000E+00  0.00000000000E+00  0.16351617920E+03  0.12110465804E+04  0.11999567822E+04 0.  0.
        5    1    3    3  502    0  0.20161572961E+03  0.38825682886E+03  0.49611265999E+03  0.66146967351E+03  0.46999998093E+01 0. -1.
       -5    1    3    3    0  502 -0.20161572961E+03 -0.38825682886E+03 -0.33259648079E+03  0.54957690691E+03  0.46999998093E+01 0.  1.
</event>
<event>
 5   0  0.5447807E-05  0.1198879E+04  0.7818609E-02  0.9113838E-01
       -1   -1    0    0    0  501  0.00000000000E+00  0.00000000000E+00  0.48528718319E+03  0.48528718321E+03  0.50400001928E-02 0. -1.
        1   -1    0    0  501    0  0.00000000000E+00  0.00000000000E+00 -0.74044401884E+03  0.74044401886E+03  0.50400001928E-02 0.  1.
    10030    2    1    2    0    0  0.00000000000E+00  0.00000000000E+00 -0.25515683565E+03  0.12257312021E+04  0.11988794639E+04 0.  0.
        2    1    3    3  502    0  0.42218381569E+03  0.79425771695E+01 -0.56257904032E+03  0.70341839283E+03  0.25500000920E-02 0.  1.
       -2    1    3    3    0  502 -0.42218381569E+03 -0.79425771695E+01  0.30742220467E+03  0.52231280924E+03  0.25500000920E-02 0. -1.
</event>
<event>
 5   0  0.5447807E-05  0.1201030E+04  0.7818609E-02  0.9111955E-01
        1   -1    0    0  501    0  0.00000000000E+00  0.00000000000E+00  0.17759120543E+04  0.17759120543E+04  0.50400001928E-02 0. -1.
       -1   -1    0    0    0  501  0.00000000000E+00  0.00000000000E+00 -0.20306093596E+03  0.20306093602E+03  0.50400001928E-02 0.  1.
    10030    2    1    2    0    0  0.00000000000E+00  0.00000000000E+00  0.15728511183E+04  0.19789729903E+04  0.12010301645E+04 0.  0.
        2    1    3    3  502    0  0.15628204866E+03  0.14219781542E+03 -0.13978914536E+03  0.25334818455E+03  0.25500000920E-02 0.  1.
       -2    1    3    3    0  502 -0.15628204866E+03 -0.14219781542E+03  0.17126402637E+04  0.17256248058E+04  0.25500000920E-02 0. -1.
</event>
<event>
 5   0  0.5625746E-05  0.1200973E+04  0.7818609E-02  0.9112006E-01
        1   -1    0    0  501    0  0.00000000000E+00  0.00000000000E+00  0.12512601295E+04  0.12512601295E+04  0.50400001928E-02 0. -1.
       -1   -1    0    0    0  501  0.00000000000E+00  0.00000000000E+00 -0.28817654463E+03  0.28817654467E+03  0.50400001928E-02 0.  1.
    10030    2    1    2    0    0  0.00000000000E+00  0.00000000000E+00  0.96308358491E+03  0.15394366742E+04  0.12009726402E+04 0.  0.
        5    1    3    3  502    0  0.51174628602E+03 -0.28562680371E+03  0.31394692816E+03  0.66486968343E+03  0.46999998093E+01 0.  1.
       -5    1    3    3    0  502 -0.51174628602E+03  0.28562680371E+03  0.64913665675E+03  0.87456699079E+03  0.46999998093E+01 0. -1.
</event>
<event>
 5   0  0.9941209E-05  0.1200095E+04  0.7818609E-02  0.9112773E-01
        2   -1    0    0  501    0  0.00000000000E+00  0.00000000000E+00  0.18483820528E+04  0.18483820528E+04  0.25500000920E-02 0.  1.
       -2   -1    0    0    0  501  0.00000000000E+00  0.00000000000E+00 -0.19479583670E+03  0.19479583672E+03  0.25500000920E-02 0. -1.
    10030    2    1    2    0    0  0.00000000000E+00  0.00000000000E+00  0.16535862161E+04  0.20431778895E+04  0.12000952104E+04 0.  0.
        2    1    3    3  502    0 -0.13759501738E+03 -0.56314489605E+03  0.10905044596E+04  0.12350160077E+04  0.25500000920E-02 0. -1.
       -2    1    3    3    0  502  0.13759501738E+03  0.56314489605E+03  0.56308175641E+03  0.80816188178E+03  0.25500000920E-02 0.  1.
</event>
<event>
 5   0  0.5732931E-05  0.1200007E+04  0.7818609E-02  0.9112850E-01
        1   -1    0    0  501    0  0.00000000000E+00  0.00000000000E+00  0.54036134527E+03  0.54036134530E+03  0.50400001928E-02 0. -1.
       -1   -1    0    0    0  501  0.00000000000E+00  0.00000000000E+00 -0.66622884863E+03  0.66622884865E+03  0.50400001928E-02 0.  1.
    10030    2    1    2    0    0  0.00000000000E+00  0.00000000000E+00 -0.12586750336E+03  0.12065901940E+04  0.12000071949E+04 0.  0.
        4    1    3    3  502    0  0.21352410820E+03  0.64790625488E+02 -0.62295624683E+03  0.66171479377E+03  0.12699999809E+01 0.  1.
       -4    1    3    3    0  502 -0.21352410820E+03 -0.64790625488E+02  0.49708874347E+03  0.54487540018E+03  0.12699999809E+01 0. -1.
</event>
<event>
 5   0  0.5620246E-05  0.1200407E+04  0.7818609E-02  0.9112501E-01
        1   -1    0    0  501    0  0.00000000000E+00  0.00000000000E+00  0.62477555120E+03  0.62477555122E+03  0.50400001928E-02 0. -1.
       -1   -1    0    0    0  501  0.00000000000E+00  0.00000000000E+00 -0.57659753430E+03  0.57659753432E+03  0.50400001928E-02 0.  1.
    10030    2    1    2    0    0  0.00000000000E+00  0.00000000000E+00  0.48178016899E+02  0.12013730855E+04  0.12004066683E+04 0.  0.
        1    1    3    3  502    0  0.26845370384E+03  0.27625499974E+03  0.48474190346E+03  0.61915985737E+03  0.50400001928E-02 0. -1.
       -1    1    3    3    0  502 -0.26845370384E+03 -0.27625499974E+03 -0.43656388656E+03  0.58221322817E+03  0.50400001928E-02 0.  1.
</event>
<event>
 5   0  0.5620246E-05  0.1200153E+04  0.7818609E-02  0.9112723E-01
       -1   -1    0    0    0  501  0.00000000000E+00  0.00000000000E+00  0.51787513576E+03  0.51787513578E+03  0.50400001928E-02 0.  1.
        1   -1    0    0  501    0  0.00000000000E+00  0.00000000000E+00 -0.69532557714E+03  0.69532557716E+03  0.50400001928E-02 0. -1.
    10030    2    1    2    0    0  0.00000000000E+00  0.00000000000E+00 -0.17745044138E+03  0.12132007129E+04  0.12001530364E+04 0.  0.
        1    1    3    3  502    0  0.15776144796E+03 -0.15407351264E+03  0.47543220605E+03  0.52408310824E+03  0.50400001928E-02 0.  1.
       -1    1    3    3    0  502 -0.15776144796E+03  0.15407351264E+03 -0.65288264744E+03  0.68911760470E+03  0.50400001928E-02 0. -1.
</event>
<event>
 5   0  0.3839750E-05  0.1200557E+04  0.7818609E-02  0.9112369E-01
        3   -1    0    0  501    0  0.00000000000E+00  0.00000000000E+00  0.69808068897E+03  0.69808069628E+03  0.10100000352E+00 0.  1.
       -3   -1    0    0    0  501  0.00000000000E+00  0.00000000000E+00 -0.51617844358E+03  0.51617845346E+03  0.10100000352E+00 0. -1.
    10030    2    1    2    0    0  0.00000000000E+00  0.00000000000E+00  0.18190224539E+03  0.12142591497E+04  0.12005568940E+04 0.  0.
        3    1    3    3  502    0  0.11390679176E+03  0.14066241030E+03 -0.48792154072E+03  0.52041148237E+03  0.10100000352E+00 0. -1.
       -3    1    3    3    0  502 -0.11390679176E+03 -0.14066241030E+03  0.66982378611E+03  0.69384766737E+03  0.10100000352E+00 0.  1.
</event>
<event>
 5   0  0.9838215E-05  0.1200347E+04  0.7818609E-02  0.9112553E-01
       -2   -1    0    0    0  501  0.00000000000E+00  0.00000000000E+00  0.47518889133E+03  0.47518889133E+03  0.25500000920E-02 0.  1.
        2   -1    0    0  501    0  0.00000000000E+00  0.00000000000E+00 -0.75803206038E+03  0.75803206038E+03  0.25500000920E-02 0. -1.
    10030    2    1    2    0    0  0.00000000000E+00  0.00000000000E+00 -0.28284316905E+03  0.12332209517E+04  0.12003473070E+04 0.  0.
        4    1    3    3  502    0 -0.59393132011E+03  0.74346754613E+02 -0.96345775083E+02  0.60627219481E+03  0.12699999809E+01 0. -1.
       -4    1    3    3    0  502  0.59393132011E+03 -0.74346754613E+02 -0.18649739397E+03  0.62694875691E+03  0.12699999809E+01 0.  1.
</event>
<event>
 5   0  0.5620246E-05  0.1199822E+04  0.7818609E-02  0.9113012E-01
        1   -1    0    0  501    0  0.00000000000E+00  0.00000000000E+00  0.60934243422E+03  0.60934243424E+03  0.50400001928E-02 0.  1.
       -1   -1    0    0    0  501  0.00000000000E+00  0.00000000000E+00 -0.59062593330E+03  0.59062593332E+03  0.50400001928E-02 0. -1.
    10030    2    1    2    0    0  0.00000000000E+00  0.00000000000E+00  0.18716500925E+02  0.11999683676E+04  0.11998223934E+04 0.  0.
        1    1    3    3  502    0 -0.58070068595E+02 -0.57106698028E+03  0.18374636236E+03  0.60270420153E+03  0.50400001928E-02 0.  1.
       -1    1    3    3    0  502  0.58070068595E+02  0.57106698028E+03 -0.16502986143E+03  0.59726416603E+03  0.50400001928E-02 0. -1.
</event>
<event>
 5   0  0.9838215E-05  0.1200093E+04  0.7818609E-02  0.9112775E-01
       -2   -1    0    0    0  501  0.00000000000E+00  0.00000000000E+00  0.43257613589E+03  0.43257613590E+03  0.25500000920E-02 0.  1.
        2   -1    0    0  501    0  0.00000000000E+00  0.00000000000E+00 -0.83235290358E+03  0.83235290359E+03  0.25500000920E-02 0. -1.
    10030    2    1    2    0    0  0.00000000000E+00  0.00000000000E+00 -0.39977676769E+03  0.12649290395E+04  0.12000933343E+04 0.  0.
        4    1    3    3  502    0  0.53966112519E+03 -0.19619056993E+03 -0.38345086044E+03  0.69047885199E+03  0.12699999809E+01 0. -1.
       -4    1    3    3    0  502 -0.53966112519E+03  0.19619056993E+03 -0.16325907247E+02  0.57445018750E+03  0.12699999809E+01 0.  1.
</event>
<event>
 5   0  0.1023063E-04  0.1199965E+04  0.7818609E-02  0.9112887E-01
       -2   -1    0    0    0  501  0.00000000000E+00  0.00000000000E+00  0.33338647044E+03  0.33338647045E+03  0.25500000920E-02 0.  1.
        2   -1    0    0  501    0  0.00000000000E+00  0.00000000000E+00 -0.10797654349E+04  0.10797654349E+04  0.25500000920E-02 0. -1.
    10030    2    1    2    0    0  0.00000000000E+00  0.00000000000E+00 -0.74637896450E+03  0.14131519054E+04  0.11999653116E+04 0.  0.
        3    1    3    3  502    0  0.19072637752E+03  0.35642632078E+03 -0.89531021207E+03  0.98234243483E+03  0.10100000352E+00 0. -1.
       -3    1    3    3    0  502 -0.19072637752E+03 -0.35642632078E+03  0.14893124757E+03  0.43080947057E+03  0.10100000352E+00 0.  1.
</event>
<event>
 5   0  0.1012657E-04  0.1203410E+04  0.7818609E-02  0.9109877E-01
        2   -1    0    0  501    0  0.00000000000E+00  0.00000000000E+00  0.96359592443E+03  0.96359592444E+03  0.25500000920E-02 0.  1.
       -2   -1    0    0    0  501  0.00000000000E+00  0.00000000000E+00 -0.37572714954E+03  0.37572714955E+03  0.25500000920E-02 0. -1.
    10030    2    1    2    0    0  0.00000000000E+00  0.00000000000E+00  0.58786877489E+03  0.13393230740E+04  0.12034104038E+04 0.  0.
        1    1    3    3  502    0 -0.98140915502E+02  0.55372319471E+03  0.53213500947E+03  0.77421488231E+03  0.50400001928E-02 0.  1.
       -1    1    3    3    0  502  0.98140915502E+02 -0.55372319471E+03  0.55733765422E+02  0.56510819167E+03  0.50400001928E-02 0. -1.
</event>
<event>
 5   0  0.9838215E-05  0.1208059E+04  0.7818609E-02  0.9105832E-01
       -2   -1    0    0    0  501  0.00000000000E+00  0.00000000000E+00  0.22151607196E+03  0.22151607198E+03  0.25500000920E-02 0.  1.
        2   -1    0    0  501    0  0.00000000000E+00  0.00000000000E+00 -0.16470650190E+04  0.16470650190E+04  0.25500000920E-02 0. -1.
    10030    2    1    2    0    0  0.00000000000E+00  0.00000000000E+00 -0.14255489470E+04  0.18685810909E+04  0.12080585636E+04 0.  0.
        4    1    3    3  502    0  0.10827944075E+03 -0.53453946697E+03 -0.11143164698E+04  0.12406287466E+04  0.12699999809E+01 0. -1.
       -4    1    3    3    0  502 -0.10827944075E+03  0.53453946697E+03 -0.31123247718E+03  0.62795234436E+03  0.12699999809E+01 0.  1.
</event>
<event>
 5   0  0.5620246E-05  0.1199710E+04  0.7818609E-02  0.9113110E-01
        1   -1    0    0  501    0  0.00000000000E+00  0.00000000000E+00  0.76799938760E+03  0.76799938761E+03  0.50400001928E-02 0.  1.
       -1   -1    0    0    0  501  0.00000000000E+00  0.00000000000E+00 -0.46852391261E+03  0.46852391263E+03  0.50400001928E-02 0. -1.
    10030    2    1    2    0    0  0.00000000000E+00  0.00000000000E+00  0.29947547499E+03  0.12365233002E+04  0.11997100950E+04 0.  0.
        1    1    3    3  502    0  0.14595241875E+03  0.19041660612E+03  0.71639475433E+03  0.75550118232E+03  0.50400001928E-02 0.  1.
       -1    1    3    3    0  502 -0.14595241875E+03 -0.19041660612E+03 -0.41691927934E+03  0.48102211793E+03  0.50400001928E-02 0. -1.
</event>
<event>
 5   0  0.1023063E-04  0.1198424E+04  0.7818609E-02  0.9114237E-01
        2   -1    0    0  501    0  0.00000000000E+00  0.00000000000E+00  0.17716787700E+04  0.17716787700E+04  0.25500000920E-02 0. -1.
       -2   -1    0    0    0  501  0.00000000000E+00  0.00000000000E+00 -0.20266386190E+03  0.20266386192E+03  0.25500000920E-02 0.  1.
    10030    2    1    2    0    0  0.00000000000E+00  0.00000000000E+00  0.15690149081E+04  0.19743426319E+04  0.11984244016E+04 0.  0.
        3    1    3    3  502    0  0.17325984733E+03  0.28120806348E+03  0.16081630677E+04  0.16417324423E+04  0.10100000352E+00 0. -1.
       -3    1    3    3    0  502 -0.17325984733E+03 -0.28120806348E+03 -0.39148159547E+02  0.33261018965E+03  0.10100000352E+00 0.  1.
</event>
<event>
 5   0  0.5620246E-05  0.1199808E+04  0.7818609E-02  0.9113024E-01
       -1   -1    0    0    0  501  0.00000000000E+00  0.00000000000E+00  0.41815829156E+03  0.41815829159E+03  0.50400001928E-02 0.  1.
        1   -1    0    0  501    0  0.00000000000E+00  0.00000000000E+00 -0.86064291160E+03  0.86064291161E+03  0.50400001928E-02 0. -1.
    10030    2    1    2    0    0  0.00000000000E+00  0.00000000000E+00 -0.44248462004E+03  0.12788012032E+04  0.11998082673E+04 0.  0.
        1    1    3    3  502    0 -0.72581215847E+02  0.44891603556E+03  0.19578690797E+03  0.49510216444E+03  0.50400001928E-02 0.  1.
       -1    1    3    3    0  502  0.72581215847E+02 -0.44891603556E+03 -0.63827152801E+03  0.78369903877E+03  0.50400001928E-02 0. -1.
</event>
<event>
 5   0  0.9838215E-05  0.1200167E+04  0.7818609E-02  0.9112710E-01
       -2   -1    0    0    0  501  0.00000000000E+00  0.00000000000E+00  0.47166240556E+03  0.47166240556E+03  0.25500000920E-02 0. -1.
        2   -1    0    0  501    0  0.00000000000E+00  0.00000000000E+00 -0.76347084014E+03  0.76347084015E+03  0.25500000920E-02 0.  1.
    10030    2    1    2    0    0  0.00000000000E+00  0.00000000000E+00 -0.29180843459E+03  0.12351332457E+04  0.12001674767E+04 0.  0.
        4    1    3    3  502    0  0.46694995717E+03 -0.49716723490E+02 -0.53039959525E+03  0.70840621019E+03  0.12699999809E+01 0.  1.
       -4    1    3    3    0  502 -0.46694995717E+03  0.49716723490E+02  0.23859116066E+03  0.52672703552E+03  0.12699999809E+01 0. -1.
</event>
<event>
 5   0  0.9941209E-05  0.1200023E+04  0.7818609E-02  0.9112837E-01
        2   -1    0    0  501    0  0.00000000000E+00  0.00000000000E+00  0.35294769486E+03  0.35294769487E+03  0.25500000920E-02 0. -1.
       -2   -1    0    0    0  501  0.00000000000E+00  0.00000000000E+00 -0.10200197229E+04  0.10200197229E+04  0.25500000920E-02 0.  1.
    10030    2    1    2    0    0  0.00000000000E+00  0.00000000000E+00 -0.66707202799E+03  0.13729674177E+04  0.12000226830E+04 0.  0.
        2    1    3    3  502    0  0.55225306149E+03  0.17770449784E+02 -0.60115782509E+03  0.81651084713E+03  0.25500000920E-02 0.  1.
       -2    1    3    3    0  502 -0.55225306149E+03 -0.17770449784E+02 -0.65914202899E+02  0.55645657059E+03  0.25500000920E-02 0. -1.
</event>
<event>
 5   0  0.1012657E-04  0.1202428E+04  0.7818609E-02  0.9110734E-01
        2   -1    0    0  501    0  0.00000000000E+00  0.00000000000E+00  0.30082853251E+03  0.30082853252E+03  0.25500000920E-02 0. -1.
       -2   -1    0    0    0  501  0.00000000000E+00  0.00000000000E+00 -0.12015432953E+04  0.12015432953E+04  0.25500000920E-02 0.  1.
    10030    2    1    2    0    0  0.00000000000E+00  0.00000000000E+00 -0.90071476280E+03  0.15023718278E+04  0.12024283867E+04 0.  0.
        1    1    3    3  502    0 -0.47409039390E+03 -0.75556376399E+02  0.18462341661E+01  0.48007694822E+03  0.50400001928E-02 0. -1.
       -1    1    3    3    0  502  0.47409039390E+03  0.75556376399E+02 -0.90256099697E+03  0.10222948796E+04  0.50400001928E-02 0.  1.
</event>
<event>
 5   0  0.1023063E-04  0.1200473E+04  0.7818609E-02  0.9112442E-01
       -2   -1    0    0    0  501  0.00000000000E+00  0.00000000000E+00  0.31350152175E+03  0.31350152176E+03  0.25500000920E-02 0.  1.
        2   -1    0    0  501    0  0.00000000000E+00  0.00000000000E+00 -0.11492258520E+04  0.11492258520E+04  0.25500000920E-02 0. -1.
    10030    2    1    2    0    0  0.00000000000E+00  0.00000000000E+00 -0.83572433029E+03  0.14627273738E+04  0.12004733291E+04 0.  0.
        3    1    3    3  502    0  0.35208126500E+03  0.12637931902E+03 -0.98982588040E+03  0.10581532182E+04  0.10100000352E+00 0. -1.
       -3    1    3    3    0  502 -0.35208126500E+03 -0.12637931902E+03  0.15410155011E+03  0.40457415561E+03  0.10100000352E+00 0.  1.
</event>
<event>
 5   0  0.3839750E-05  0.1196515E+04  0.7818609E-02  0.9115913E-01
        3   -1    0    0  501    0  0.00000000000E+00  0.00000000000E+00  0.11839192984E+04  0.11839193028E+04  0.10100000352E+00 0.  1.
       -3   -1    0    0    0  501  0.00000000000E+00  0.00000000000E+00 -0.30231099901E+03  0.30231101588E+03  0.10100000352E+00 0. -1.
    10030    2    1    2    0    0  0.00000000000E+00  0.00000000000E+00  0.88160829944E+03  0.14862303186E+04  0.11965146745E+04 0.  0.
        3    1    3    3  502    0 -0.56163388989E+03 -0.16573158705E+03  0.59299583493E+03  0.83339285794E+03  0.10100000352E+00 0. -1.
       -3    1    3    3    0  502  0.56163388989E+03  0.16573158705E+03  0.28861246451E+03  0.65283746069E+03  0.10100000352E+00 0.  1.
</event>
<event>
 5   0  0.9941209E-05  0.1200325E+04  0.7818609E-02  0.9112573E-01
       -2   -1    0    0    0  501  0.00000000000E+00  0.00000000000E+00  0.47841691012E+03  0.47841691013E+03  0.25500000920E-02 0.  1.
        2   -1    0    0  501    0  0.00000000000E+00  0.00000000000E+00 -0.75288885250E+03  0.75288885250E+03  0.25500000920E-02 0. -1.
    10030    2    1    2    0    0  0.00000000000E+00  0.00000000000E+00 -0.27447194237E+03  0.12313057626E+04  0.12003245536E+04 0.  0.
        2    1    3    3  502    0  0.33148544658E+03  0.47875655550E+03 -0.28625882657E+03  0.64887175661E+03  0.25500000920E-02 0. -1.
       -2    1    3    3    0  502 -0.33148544658E+03 -0.47875655550E+03  0.11786884193E+02  0.58243400603E+03  0.25500000920E-02 0.  1.
</event>
<event>
 5   0  0.5447807E-05  0.1200274E+04  0.7818609E-02  0.9112617E-01
       -1   -1    0    0    0  501  0.00000000000E+00  0.00000000000E+00  0.94797784474E+03  0.94797784475E+03  0.50400001928E-02 0. -1.
        1   -1    0    0  501    0  0.00000000000E+00  0.00000000000E+00 -0.37992905070E+03  0.37992905073E+03  0.50400001928E-02 0.  1.
    10030    2    1    2    0    0  0.00000000000E+00  0.00000000000E+00  0.56804879404E+03  0.13279068955E+04  0.12002738399E+04 0.  0.
        2    1    3    3  502    0 -0.46310709305E+03 -0.20165552767E+03 -0.74522881865E+02  0.51057496159E+03  0.25500000920E-02 0. -1.
       -2    1    3    3    0  502  0.46310709305E+03  0.20165552767E+03  0.64257167591E+03  0.81733193389E+03  0.25500000920E-02 0.  1.
</event>
<event>
 5   0  0.5447807E-05  0.1200037E+04  0.7818609E-02  0.9112824E-01
       -1   -1    0    0    0  501  0.00000000000E+00  0.00000000000E+00  0.31919488915E+03  0.31919488919E+03  0.50400001928E-02 0. -1.
        1   -1    0    0  501    0  0.00000000000E+00  0.00000000000E+00 -0.11279075216E+04  0.11279075216E+04  0.50400001928E-02 0.  1.
    10030    2    1    2    0    0  0.00000000000E+00  0.00000000000E+00 -0.80871263242E+03  0.14471024108E+04  0.12000371934E+04 0.  0.
        2    1    3    3  502    0 -0.35772367269E+03  0.44516114511E+03 -0.18237048453E+03  0.59949450770E+03  0.25500000920E-02 0. -1.
       -2    1    3    3    0  502  0.35772367269E+03 -0.44516114511E+03 -0.62634214789E+03  0.84760790308E+03  0.25500000920E-02 0.  1.
</event>
<event>
 5   0  0.5732931E-05  0.1199813E+04  0.7818609E-02  0.9113020E-01
       -1   -1    0    0    0  501  0.00000000000E+00  0.00000000000E+00  0.25517130193E+03  0.25517130198E+03  0.50400001928E-02 0. -1.
        1   -1    0    0  501    0  0.00000000000E+00  0.00000000000E+00 -0.14103775012E+04  0.14103775013E+04  0.50400001928E-02 0.  1.
    10030    2    1    2    0    0  0.00000000000E+00  0.00000000000E+00 -0.11552061993E+04  0.16655488032E+04  0.11998130909E+04 0.  0.
        4    1    3    3  502    0 -0.10946682685E+03 -0.36570059637E+03  0.64817372152E+02  0.38719867898E+03  0.12699999809E+01 0. -1.
       -4    1    3    3    0  502  0.10946682685E+03  0.36570059637E+03 -0.12200235715E+04  0.12783501243E+04  0.12699999809E+01 0.  1.
</event>
<event>
 5   0  0.5625746E-05  0.1200152E+04  0.7818609E-02  0.9112724E-01
        1   -1    0    0  501    0  0.00000000000E+00  0.00000000000E+00  0.15252808026E+04  0.15252808026E+04  0.50400001928E-02 0. -1.
       -1   -1    0    0    0  501  0.00000000000E+00  0.00000000000E+00 -0.23608176399E+03  0.23608176405E+03  0.50400001928E-02 0.  1.
    10030    2    1    2    0    0  0.00000000000E+00  0.00000000000E+00  0.12891990386E+04  0.17613625666E+04  0.12001516279E+04 0.  0.
        5    1    3    3  502    0 -0.41701161061E+03  0.18258365588E+02  0.12772714271E+04  0.13437546055E+04  0.46999998093E+01 0. -1.
       -5    1    3    3    0  502  0.41701161061E+03 -0.18258365588E+02  0.11927611500E+02  0.41760796115E+03  0.46999998093E+01 0.  1.
</event>
<event>
 5   0  0.5625746E-05  0.1199602E+04  0.7818609E-02  0.9113205E-01
       -1   -1    0    0    0  501  0.00000000000E+00  0.00000000000E+00  0.35008071537E+03  0.35008071541E+03  0.50400001928E-02 0. -1.
        1   -1    0    0  501    0  0.00000000000E+00  0.00000000000E+00 -0.10276519851E+04  0.10276519851E+04  0.50400001928E-02 0.  1.
    10030    2    1    2    0    0  0.00000000000E+00  0.00000000000E+00 -0.67757126975E+03  0.13777327005E+04  0.11996018375E+04 0.  0.
        5    1    3    3  502    0  0.42473136773E+03 -0.53843416737E+02  0.14363992749E+03  0.45160864366E+03  0.46999998093E+01 0. -1.
       -5    1    3    3    0  502 -0.42473136773E+03  0.53843416737E+02 -0.82121119723E+03  0.92612405687E+03  0.46999998093E+01 0.  1.
</event>
<event>
 5   0  0.1023063E-04  0.1201142E+04  0.7818609E-02  0.9111857E-01
       -2   -1    0    0    0  501  0.00000000000E+00  0.00000000000E+00  0.96393594876E+03  0.96393594876E+03  0.25500000920E-02 0. -1.
        2   -1    0    0  501    0  0.00000000000E+00  0.00000000000E+00 -0.37418017982E+03  0.37418017983E+03  0.25500000920E-02 0.  1.
    10030    2    1    2    0    0  0.00000000000E+00  0.00000000000E+00  0.58975576894E+03  0.13381161286E+04  0.12011423340E+04 0.  0.
        3    1    3    3  502    0 -0.49627776258E+03 -0.22676665559E+03  0.57443436674E+03  0.79226863223E+03  0.10100000352E+00 0. -1.
       -3    1    3    3    0  502  0.49627776258E+03  0.22676665559E+03  0.15321402199E+02  0.54584749636E+03  0.10100000352E+00 0.  1.
</event>
<event>
 5   0  0.1023063E-04  0.1200298E+04  0.7818609E-02  0.9112596E-01
       -2   -1    0    0    0  501  0.00000000000E+00  0.00000000000E+00  0.58819857538E+03  0.58819857538E+03  0.25500000920E-02 0.  1.
        2   -1    0    0  501    0  0.00000000000E+00  0.00000000000E+00 -0.61234195630E+03  0.61234195630E+03  0.25500000920E-02 0. -1.
    10030    2    1    2    0    0  0.00000000000E+00  0.00000000000E+00 -0.24143380921E+02  0.12005405317E+04  0.12002977403E+04 0.  0.
        3    1    3    3  502    0 -0.16991717413E+01  0.17408569185E+03  0.56238753687E+03  0.58871764635E+03  0.10100000352E+00 0.  1.
       -3    1    3    3    0  502  0.16991717413E+01 -0.17408569185E+03 -0.58653091779E+03  0.61182288533E+03  0.10100000352E+00 0. -1.
</event>
<event>
 5   0  0.5625746E-05  0.1203397E+04  0.7818609E-02  0.9109888E-01
       -1   -1    0    0    0  501  0.00000000000E+00  0.00000000000E+00  0.35957929681E+03  0.35957929685E+03  0.50400001928E-02 0.  1.
        1   -1    0    0  501    0  0.00000000000E+00  0.00000000000E+00 -0.10068462095E+04  0.10068462095E+04  0.50400001928E-02 0. -1.
    10030    2    1    2    0    0  0.00000000000E+00  0.00000000000E+00 -0.64726691268E+03  0.13664255064E+04  0.12033969454E+04 0.  0.
        5    1    3    3  502    0  0.22904695414E+03  0.54476697569E+03 -0.19524257947E+03  0.62239482633E+03  0.46999998093E+01 0.  1.
       -5    1    3    3    0  502 -0.22904695414E+03 -0.54476697569E+03 -0.45202433321E+03  0.74403068003E+03  0.46999998093E+01 0. -1.
</event>
<event>
 5   0  0.1012657E-04  0.1200810E+04  0.7818609E-02  0.9112148E-01
       -2   -1    0    0    0  501  0.00000000000E+00  0.00000000000E+00  0.37879894854E+03  0.37879894855E+03  0.25500000920E-02 0. -1.
        2   -1    0    0  501    0  0.00000000000E+00  0.00000000000E+00 -0.95165584691E+03  0.95165584692E+03  0.25500000920E-02 0.  1.
    10030    2    1    2    0    0  0.00000000000E+00  0.00000000000E+00 -0.57285689837E+03  0.13304547955E+04  0.12008101169E+04 0.  0.
        1    1    3    3  502    0  0.28541742542E+03 -0.34588934539E+03 -0.72875979951E+03  0.85568299703E+03  0.50400001928E-02 0.  1.
       -1    1    3    3    0  502 -0.28541742542E+03  0.34588934539E+03  0.15590290114E+03  0.47477179844E+03  0.50400001928E-02 0. -1.
</event>
<event>
 5   0  0.5447807E-05  0.1199653E+04  0.7818609E-02  0.9113161E-01
        1   -1    0    0  501    0  0.00000000000E+00  0.00000000000E+00  0.37832159148E+03  0.37832159152E+03  0.50400001928E-02 0. -1.
       -1   -1    0    0    0  501  0.00000000000E+00  0.00000000000E+00 -0.95102079733E+03  0.95102079734E+03  0.50400001928E-02 0.  1.
    10030    2    1    2    0    0  0.00000000000E+00  0.00000000000E+00 -0.57269920584E+03  0.13293423889E+04  0.11996527858E+04 0.  0.
        2    1    3    3  502    0 -0.50533238914E+03  0.25003333487E+03 -0.59487514041E+02  0.56693584857E+03  0.25500000920E-02 0. -1.
       -2    1    3    3    0  502  0.50533238914E+03 -0.25003333487E+03 -0.51321169180E+03  0.76240654029E+03  0.25500000920E-02 0.  1.
</event>
<event>
 5   0  0.1023063E-04  0.1199928E+04  0.7818609E-02  0.9112920E-01
        2   -1    0    0  501    0  0.00000000000E+00  0.00000000000E+00  0.75663866924E+03  0.75663866924E+03  0.25500000920E-02 0.  1.
       -2   -1    0    0    0  501  0.00000000000E+00  0.00000000000E+00 -0.47573104266E+03  0.47573104267E+03  0.25500000920E-02 0. -1.
    10030    2    1    2    0    0  0.00000000000E+00  0.00000000000E+00  0.28090762658E+03  0.12323697119E+04  0.11999275029E+04 0.  0.
        3    1    3    3  502    0  0.49474545388E+03 -0.13607322112E+03  0.45977392175E+03  0.68897101170E+03  0.10100000352E+00 0.  1.
       -3    1    3    3    0  502 -0.49474545388E+03  0.13607322112E+03 -0.17886629517E+03  0.54339870021E+03  0.10100000352E+00 0. -1.
</event>
<event>
 5   0  0.9838215E-05  0.1199503E+04  0.7818609E-02  0.9113291E-01
        2   -1    0    0  501    0  0.00000000000E+00  0.00000000000E+00  0.42966858296E+03  0.42966858296E+03  0.25500000920E-02 0.  1.
       -2   -1    0    0    0  501  0.00000000000E+00  0.00000000000E+00 -0.83716171573E+03  0.83716171573E+03  0.25500000920E-02 0. -1.
    10030    2    1    2    0    0  0.00000000000E+00  0.00000000000E+00 -0.40749313277E+03  0.12668302987E+04  0.11995033774E+04 0.  0.
        4    1    3    3  502    0 -0.24571531159E+03 -0.51562413747E+03 -0.10569602698E+02  0.57127716118E+03  0.12699999809E+01 0.  1.
       -4    1    3    3    0  502  0.24571531159E+03  0.51562413747E+03 -0.39692353007E+03  0.69555313752E+03  0.12699999809E+01 0. -1.
</event>
<event>
 5   0  0.1004006E-04  0.1200010E+04  0.7818609E-02  0.9112847E-01
        2   -1    0    0  501    0  0.00000000000E+00  0.00000000000E+00  0.59801864392E+03  0.59801864393E+03  0.25500000920E-02 0. -1.
       -2   -1    0    0    0  501  0.00000000000E+00  0.00000000000E+00 -0.60199841129E+03  0.60199841130E+03  0.25500000920E-02 0.  1.
    10030    2    1    2    0    0  0.00000000000E+00  0.00000000000E+00 -0.39797673751E+01  0.12000170552E+04  0.12000104559E+04 0.  0.
        5    1    3    3  502    0 -0.18187841900E+03  0.11378949647E+03  0.55833129913E+03  0.59815026405E+03  0.46999998093E+01 0. -1.
       -5    1    3    3    0  502  0.18187841900E+03 -0.11378949647E+03 -0.56231106650E+03  0.60186679117E+03  0.46999998093E+01 0.  1.
</event>
<event>
 5   0  0.5620246E-05  0.1199846E+04  0.7818609E-02  0.9112991E-01
        1   -1    0    0  501    0  0.00000000000E+00  0.00000000000E+00  0.67858512937E+03  0.67858512939E+03  0.50400001928E-02 0. -1.
       -1   -1    0    0    0  501  0.00000000000E+00  0.00000000000E+00 -0.53037984205E+03  0.53037984207E+03  0.50400001928E-02 0.  1.
    10030    2    1    2    0    0  0.00000000000E+00  0.00000000000E+00  0.14820528733E+03  0.12089649715E+04  0.11998464464E+04 0.  0.
        1    1    3    3  502    0  0.18169089405E+03  0.37157947325E+02  0.64897832581E+03  0.67495567367E+03  0.50400001928E-02 0. -1.
       -1    1    3    3    0  502 -0.18169089405E+03 -0.37157947325E+02 -0.50077303848E+03  0.53400929779E+03  0.50400001928E-02 0.  1.
</event>
<event>
 5   0  0.5745487E-05  0.1199818E+04  0.7818609E-02  0.9113016E-01
        1   -1    0    0  501    0  0.00000000000E+00  0.00000000000E+00  0.13934497204E+04  0.13934497204E+04  0.50400001928E-02 0. -1.
       -1   -1    0    0    0  501  0.00000000000E+00  0.00000000000E+00 -0.25827322872E+03  0.25827322877E+03  0.50400001928E-02 0.  1.
    10030    2    1    2    0    0  0.00000000000E+00  0.00000000000E+00  0.11351764917E+04  0.16517229492E+04  0.11998179169E+04 0.  0.
        3    1    3    3  502    0 -0.15431949411E+03 -0.54962515877E+03  0.31379071569E+03  0.65143452847E+03  0.10100000352E+00 0.  1.
       -3    1    3    3    0  502  0.15431949411E+03  0.54962515877E+03  0.82138577603E+03  0.10002884208E+04  0.10100000352E+00 0. -1.
</event>
<event>
 5   0  0.5732931E-05  0.1199948E+04  0.7818609E-02  0.9112902E-01
       -1   -1    0    0    0  501  0.00000000000E+00  0.00000000000E+00  0.81041455331E+03  0.81041455333E+03  0.50400001928E-02 0.  1.
        1   -1    0    0  501    0  0.00000000000E+00  0.00000000000E+00 -0.44417890851E+03  0.44417890854E+03  0.50400001928E-02 0. -1.
    10030    2    1    2    0    0  0.00000000000E+00  0.00000000000E+00  0.36623564480E+03  0.12545934619E+04  0.11999484185E+04 0.  0.
        4    1    3    3  502    0 -0.10578607855E+03 -0.46375594714E+03  0.56542969406E+03  0.73889960397E+03  0.12699999809E+01 0.  1.
       -4    1    3    3    0  502  0.10578607855E+03  0.46375594714E+03 -0.19919404926E+03  0.51569385790E+03  0.12699999809E+01 0. -1.
</event>
<event>
 5   0  0.5625746E-05  0.1201221E+04  0.7818609E-02  0.9111789E-01
       -1   -1    0    0    0  501  0.00000000000E+00  0.00000000000E+00  0.15535635472E+04  0.15535635473E+04  0.50400001928E-02 0. -1.
        1   -1    0    0  501    0  0.00000000000E+00  0.00000000000E+00 -0.23219696190E+03  0.23219696195E+03  0.50400001928E-02 0.  1.
    10030    2    1    2    0    0  0.00000000000E+00  0.00000000000E+00  0.13213665854E+04  0.17857605092E+04  0.12012206056E+04 0.  0.
        5    1    3    3  502    0  0.58492632803E+03  0.72830970874E+02  0.48944741454E+03  0.76617492855E+03  0.46999998093E+01 0. -1.
       -5    1    3    3    0  502 -0.58492632803E+03 -0.72830970874E+02  0.83191917081E+03  0.10195855807E+04  0.46999998093E+01 0.  1.
</event>
<event>
 5   0  0.1023063E-04  0.1196511E+04  0.7818609E-02  0.9115916E-01
       -2   -1    0    0    0  501  0.00000000000E+00  0.00000000000E+00  0.23081351703E+03  0.23081351704E+03  0.25500000920E-02 0.  1.
        2   -1    0    0  501    0  0.00000000000E+00  0.00000000000E+00 -0.15506444903E+04  0.15506444903E+04  0.25500000920E-02 0. -1.
    10030    2    1    2    0    0  0.00000000000E+00  0.00000000000E+00 -0.13198309733E+04  0.17814580073E+04  0.11965111090E+04 0.  0.
        3    1    3    3  502    0 -0.14927012447E+03  0.51447604651E+03 -0.26335249904E+03  0.59692689791E+03  0.10100000352E+00 0.  1.
       -3    1    3    3    0  502  0.14927012447E+03 -0.51447604651E+03 -0.10564784742E+04  0.11845311094E+04  0.10100000352E+00 0. -1.
</event>
<event>
 5   0  0.5447807E-05  0.1200012E+04  0.7818609E-02  0.9112846E-01
        1   -1    0    0  501    0  0.00000000000E+00  0.00000000000E+00  0.18740363011E+04  0.18740363011E+04  0.50400001928E-02 0.  1.
       -1   -1    0    0    0  501  0.00000000000E+00  0.00000000000E+00 -0.19210262940E+03  0.19210262947E+03  0.50400001928E-02 0. -1.
    10030    2    1    2    0    0  0.00000000000E+00  0.00000000000E+00  0.16819336717E+04  0.20661389306E+04  0.12000121685E+04 0.  0.
        2    1    3    3  502    0 -0.16793574216E+03 -0.28388388569E+03  0.17039384391E+04  0.17355686902E+04  0.25500000920E-02 0.  1.
       -2    1    3    3    0  502  0.16793574216E+03  0.28388388569E+03 -0.22004767394E+02  0.33057024041E+03  0.25500000920E-02 0. -1.
</event>
<event>
 5   0  0.5732931E-05  0.1200028E+04  0.7818609E-02  0.9112832E-01
       -1   -1    0    0    0  501  0.00000000000E+00  0.00000000000E+00  0.48531962602E+03  0.48531962605E+03  0.50400001928E-02 0. -1.
        1   -1    0    0  501    0  0.00000000000E+00  0.00000000000E+00 -0.74181342287E+03  0.74181342288E+03  0.50400001928E-02 0.  1.
    10030    2    1    2    0    0  0.00000000000E+00  0.00000000000E+00 -0.25649379684E+03  0.12271330489E+04  0.12000276880E+04 0.  0.
        4    1    3    3  502    0  0.39210651815E+03 -0.43864900135E+03 -0.24861081700E+03  0.63872483840E+03  0.12699999809E+01 0.  1.
       -4    1    3    3    0  502 -0.39210651815E+03  0.43864900135E+03 -0.78829798467E+01  0.58840821054E+03  0.12699999809E+01 0. -1.
</event>
<event>
 5   0  0.5745487E-05  0.1201238E+04  0.7818609E-02  0.9111774E-01
       -1   -1    0    0    0  501  0.00000000000E+00  0.00000000000E+00  0.52835822238E+03  0.52835822240E+03  0.50400001928E-02 0. -1.
        1   -1    0    0  501    0  0.00000000000E+00  0.00000000000E+00 -0.68276227277E+03  0.68276227279E+03  0.50400001928E-02 0.  1.
    10030    2    1    2    0    0  0.00000000000E+00  0.00000000000E+00 -0.15440405039E+03  0.12111204952E+04  0.12012377962E+04 0.  0.
        3    1    3    3  502    0 -0.17583542103E+03 -0.45875769467E+03  0.27113472108E+03  0.56115128520E+03  0.10100000352E+00 0. -1.
       -3    1    3    3    0  502  0.17583542103E+03  0.45875769467E+03 -0.42553877147E+03  0.64996920999E+03  0.10100000352E+00 0.  1.
</event>
<event>
 5   0  0.5732931E-05  0.1200156E+04  0.7818609E-02  0.9112720E-01
       -1   -1    0    0    0  501  0.00000000000E+00  0.00000000000E+00  0.15368692510E+04  0.15368692510E+04  0.50400001928E-02 0. -1.
        1   -1    0    0  501    0  0.00000000000E+00  0.00000000000E+00 -0.23430337220E+03  0.23430337225E+03  0.50400001928E-02 0.  1.
    10030    2    1    2    0    0  0.00000000000E+00  0.00000000000E+00  0.13025658788E+04  0.17711726232E+04  0.12001560702E+04 0.  0.
        4    1    3    3  502    0 -0.44399212092E+03 -0.14234634293E+03  0.12087715368E+04  0.12955777575E+04  0.12699999809E+01 0. -1.
       -4    1    3    3    0  502  0.44399212092E+03  0.14234634293E+03  0.93794341985E+02  0.47559486569E+03  0.12699999809E+01 0.  1.
</event>
<event>
 5   0  0.9941209E-05  0.1198492E+04  0.7818609E-02  0.9114177E-01
        2   -1    0    0  501    0  0.00000000000E+00  0.00000000000E+00  0.22230193663E+04  0.22230193663E+04  0.25500000920E-02 0.  1.
       -2   -1    0    0    0  501  0.00000000000E+00  0.00000000000E+00 -0.16153524452E+03  0.16153524454E+03  0.25500000920E-02 0. -1.
    10030    2    1    2    0    0  0.00000000000E+00  0.00000000000E+00  0.20614841217E+04  0.23845546108E+04  0.11984923478E+04 0.  0.
        2    1    3    3  502    0 -0.14620944776E+03 -0.33182349732E+03  0.19799678496E+04  0.20128975933E+04  0.25500000920E-02 0.  1.
       -2    1    3    3    0  502  0.14620944776E+03  0.33182349732E+03  0.81516272182E+02  0.37165701745E+03  0.25500000920E-02 0. -1.
</event>
<event>
 5   0  0.1004006E-04  0.1200138E+04  0.7818609E-02  0.9112736E-01
       -2   -1    0    0    0  501  0.00000000000E+00  0.00000000000E+00  0.70405127964E+03  0.70405127964E+03  0.25500000920E-02 0.  1.
        2   -1    0    0  501    0  0.00000000000E+00  0.00000000000E+00 -0.51144394638E+03  0.51144394639E+03  0.25500000920E-02 0. -1.
    10030    2    1    2    0    0  0.00000000000E+00  0.00000000000E+00  0.19260733325E+03  0.12154952260E+04  0.12001379336E+04 0.  0.
        5    1    3    3  502    0  0.81341164361E+02 -0.13791526371E+03  0.68199742880E+03  0.70055662717E+03  0.46999998093E+01 0.  1.
       -5    1    3    3    0  502 -0.81341164361E+02  0.13791526371E+03 -0.48939009554E+03  0.51493859886E+03  0.46999998093E+01 0. -1.
</event>
<event>
 5   0  0.1023063E-04  0.1200086E+04  0.7818609E-02  0.9112781E-01
        2   -1    0    0  501    0  0.00000000000E+00  0.00000000000E+00  0.95714885610E+03  0.95714885610E+03  0.25500000920E-02 0. -1.
       -2   -1    0    0    0  501  0.00000000000E+00  0.00000000000E+00 -0.37617122288E+03  0.37617122289E+03  0.25500000920E-02 0.  1.
    10030    2    1    2    0    0  0.00000000000E+00  0.00000000000E+00  0.58097763322E+03  0.13333200790E+04  0.12000864230E+04 0.  0.
        3    1    3    3  502    0 -0.76976160370E+02 -0.28010844720E+03  0.87381748540E+03  0.92083824825E+03  0.10100000352E+00 0. -1.
       -3    1    3    3    0  502  0.76976160370E+02  0.28010844720E+03 -0.29283985218E+03  0.41248183074E+03  0.10100000352E+00 0.  1.
</event>
<event>
 5   0  0.1004006E-04  0.1200615E+04  0.7818609E-02  0.9112318E-01
       -2   -1    0    0    0  501  0.00000000000E+00  0.00000000000E+00  0.32160041106E+03  0.32160041107E+03  0.25500000920E-02 0.  1.
        2   -1    0    0  501    0  0.00000000000E+00  0.00000000000E+00 -0.11205495372E+04  0.11205495372E+04  0.25500000920E-02 0. -1.
    10030    2    1    2    0    0  0.00000000000E+00  0.00000000000E+00 -0.79894912612E+03  0.14421499483E+04  0.12006151620E+04 0.  0.
        5    1    3    3  502    0  0.99221757097E+02  0.44401236593E+03 -0.86986208977E+03  0.98166902945E+03  0.46999998093E+01 0. -1.
       -5    1    3    3    0  502 -0.99221757097E+02 -0.44401236593E+03  0.70912963643E+02  0.46048091881E+03  0.46999998093E+01 0.  1.
</event>
<event>
 5   0  0.5732931E-05  0.1199900E+04  0.7818609E-02  0.9112944E-01
       -1   -1    0    0    0  501  0.00000000000E+00  0.00000000000E+00  0.69283020371E+03  0.69283020373E+03  0.50400001928E-02 0. -1.
        1   -1    0    0  501    0  0.00000000000E+00  0.00000000000E+00 -0.51952109726E+03  0.51952109729E+03  0.50400001928E-02 0.  1.
    10030    2    1    2    0    0  0.00000000000E+00  0.00000000000E+00  0.17330910645E+03  0.12123513010E+04  0.11998998419E+04 0.  0.
        4    1    3    3  502    0  0.48272880285E+03 -0.34656091490E+03  0.17001360133E+03  0.61809206626E+03  0.12699999809E+01 0.  1.
       -4    1    3    3    0  502 -0.48272880285E+03  0.34656091490E+03  0.32955051121E+01  0.59425923475E+03  0.12699999809E+01 0. -1.
</event>
<event>
 5   0  0.5745487E-05  0.1199636E+04  0.7818609E-02  0.9113176E-01
        1   -1    0    0  501    0  0.00000000000E+00  0.00000000000E+00  0.17316075503E+04  0.17316075503E+04  0.50400001928E-02 0. -1.
       -1   -1    0    0    0  501  0.00000000000E+00  0.00000000000E+00 -0.20777302571E+03  0.20777302577E+03  0.50400001928E-02 0.  1.
    10030    2    1    2    0    0  0.00000000000E+00  0.00000000000E+00  0.15238345246E+04  0.19393805761E+04  0.11996355115E+04 0.  0.
        3    1    3    3  502    0  0.32060335544E+03 -0.35325777404E+03  0.13497254588E+04  0.14315503452E+04  0.10100000352E+00 0. -1.
       -3    1    3    3    0  502 -0.32060335544E+03  0.35325777404E+03  0.17410906580E+03  0.50783023092E+03  0.10100000352E+00 0.  1.
</event>
<event>
 5   0  0.5745487E-05  0.1200070E+04  0.7818609E-02  0.9112796E-01
        1   -1    0    0  501    0  0.00000000000E+00  0.00000000000E+00  0.92675843989E+03  0.92675843990E+03  0.50400001928E-02 0.  1.
       -1   -1    0    0    0  501  0.00000000000E+00  0.00000000000E+00 -0.38849583499E+03  0.38849583503E+03  0.50400001928E-02 0. -1.
    10030    2    1    2    0    0  0.00000000000E+00  0.00000000000E+00  0.53826260489E+03  0.13152542749E+04  0.12000696546E+04 0.  0.
        3    1    3    3  502    0 -0.39643273500E+03  0.44926216228E+03  0.30458389251E+03  0.67213596959E+03  0.10100000352E+00 0.  1.
       -3    1    3    3    0  502  0.39643273500E+03 -0.44926216228E+03  0.23367871238E+03  0.64311830534E+03  0.10100000352E+00 0. -1.
</event>
<event>
 5   0  0.5625746E-05  0.1199626E+04  0.7818609E-02  0.9113184E-01
        1   -1    0    0  501    0  0.00000000000E+00  0.00000000000E+00  0.37763827713E+03  0.37763827717E+03  0.50400001928E-02 0.  1.
       -1   -1    0    0    0  501  0.00000000000E+00  0.00000000000E+00 -0.95269843670E+03  0.95269843671E+03  0.50400001928E-02 0. -1.
    10030    2    1    2    0    0  0.00000000000E+00  0.00000000000E+00 -0.57506015957E+03  0.13303367139E+04  0.11996256021E+04 0.  0.
        5    1    3    3  502    0  0.20110887389E+03  0.52517012521E+03 -0.51883494736E+03  0.76515373107E+03  0.46999998093E+01 0.  1.
       -5    1    3    3    0  502 -0.20110887389E+03 -0.52517012521E+03 -0.56225212210E+02  0.56518298281E+03  0.46999998093E+01 0. -1.
</event>
<event>
 5   0  0.9941209E-05  0.1199843E+04  0.7818609E-02  0.9112994E-01
       -2   -1    0    0    0  501  0.00000000000E+00  0.00000000000E+00  0.17645160036E+03  0.17645160037E+03  0.25500000920E-02 0. -1.
        2   -1    0    0  501    0  0.00000000000E+00  0.00000000000E+00 -0.20396864713E+04  0.20396864713E+04  0.25500000920E-02 0.  1.
    10030    2    1    2    0    0  0.00000000000E+00  0.00000000000E+00 -0.18632348709E+04  0.22161380717E+04  0.11998432266E+04 0.  0.
        2    1    3    3  502    0 -0.72580564227E+02  0.53410366917E+03 -0.14180942503E+04  0.15170781029E+04  0.25500000920E-02 0.  1.
       -2    1    3    3    0  502  0.72580564227E+02 -0.53410366917E+03 -0.44514062065E+03  0.69905996873E+03  0.25500000920E-02 0. -1.
</event>
<event>
 5   0  0.1023063E-04  0.1200102E+04  0.7818609E-02  0.9112767E-01
        2   -1    0    0  501    0  0.00000000000E+00  0.00000000000E+00  0.10364594317E+04  0.10364594317E+04  0.25500000920E-02 0. -1.
       -2   -1    0    0    0  501  0.00000000000E+00  0.00000000000E+00 -0.34739556754E+03  0.34739556755E+03  0.25500000920E-02 0.  1.
    10030    2    1    2    0    0  0.00000000000E+00  0.00000000000E+00  0.68906386416E+03  0.13838549992E+04  0.12001023498E+04 0.  0.
        3    1    3    3  502    0  0.93086050776E+02  0.57294326835E+03  0.16915088674E+03  0.60459989603E+03  0.10100000352E+00 0.  1.
       -3    1    3    3    0  502 -0.93086050776E+02 -0.57294326835E+03  0.51991297742E+03  0.77925510322E+03  0.10100000352E+00 0. -1.
</event>
<event>
 5   0  0.1023063E-04  0.1199780E+04  0.7818609E-02  0.9113049E-01
       -2   -1    0    0    0  501  0.00000000000E+00  0.00000000000E+00  0.58847127757E+03  0.58847127757E+03  0.25500000920E-02 0.  1.
        2   -1    0    0  501    0  0.00000000000E+00  0.00000000000E+00 -0.61153003393E+03  0.61153003393E+03  0.25500000920E-02 0. -1.
    10030    2    1    2    0    0  0.00000000000E+00  0.00000000000E+00 -0.23058756362E+02  0.12000013115E+04  0.11997797470E+04 0.  0.
        3    1    3    3  502    0 -0.16100816428E+03  0.57182262479E+02  0.56361977920E+03  0.58894881425E+03  0.10100000352E+00 0.  1.
       -3    1    3    3    0  502  0.16100816428E+03 -0.57182262479E+02 -0.58667853556E+03  0.61105249725E+03  0.10100000352E+00 0. -1.
</event>
<event>
 5   0  0.5447807E-05  0.1199200E+04  0.7818609E-02  0.9113557E-01
       -1   -1    0    0    0  501  0.00000000000E+00  0.00000000000E+00  0.62134628752E+03  0.62134628754E+03  0.50400001928E-02 0.  1.
        1   -1    0    0  501    0  0.00000000000E+00  0.00000000000E+00 -0.57861493018E+03  0.57861493020E+03  0.50400001928E-02 0. -1.
    10030    2    1    2    0    0  0.00000000000E+00  0.00000000000E+00  0.42731357349E+02  0.11999612177E+04  0.11992001314E+04 0.  0.
        2    1    3    3  502    0 -0.36919544100E+02 -0.57309894176E+03 -0.15112350547E+03  0.59383816288E+03  0.25500000920E-02 0. -1.
       -2    1    3    3    0  502  0.36919544100E+02  0.57309894176E+03  0.19385486282E+03  0.60612305486E+03  0.25500000920E-02 0.  1.
</event>
<event>
 5   0  0.9838215E-05  0.1200150E+04  0.7818609E-02  0.9112725E-01
       -2   -1    0    0    0  501  0.00000000000E+00  0.00000000000E+00  0.28617840685E+03  0.28617840686E+03  0.25500000920E-02 0.  1.
        2   -1    0    0  501    0  0.00000000000E+00  0.00000000000E+00 -0.12582707999E+04  0.12582707999E+04  0.25500000920E-02 0. -1.
    10030    2    1    2    0    0  0.00000000000E+00  0.00000000000E+00 -0.97209239309E+03  0.15444492068E+04  0.12001498789E+04 0.  0.
        4    1    3    3  502    0 -0.93494273796E+02  0.17197146823E+03  0.24393708488E+03  0.31276553422E+03  0.12699999809E+01 0.  1.
       -4    1    3    3    0  502  0.93494273796E+02 -0.17197146823E+03 -0.12160294780E+04  0.12316836726E+04  0.12699999809E+01 0. -1.
</event>
<event>
 5   0  0.1023063E-04  0.1200396E+04  0.7818609E-02  0.9112510E-01
        2   -1    0    0  501    0  0.00000000000E+00  0.00000000000E+00  0.30106575285E+03  0.30106575286E+03  0.25500000920E-02 0.  1.
       -2   -1    0    0    0  501  0.00000000000E+00  0.00000000000E+00 -0.11965404670E+04  0.11965404671E+04  0.25500000920E-02 0. -1.
    10030    2    1    2    0    0  0.00000000000E+00  0.00000000000E+00 -0.89547471420E+03  0.14976062199E+04  0.12003955291E+04 0.  0.
        3    1    3    3  502    0 -0.23050609931E+02 -0.92203483916E+02 -0.11870928819E+04  0.11908914029E+04  0.10100000352E+00 0. -1.
       -3    1    3    3    0  502  0.23050609931E+02  0.92203483916E+02  0.29161816768E+03  0.30671481703E+03  0.10100000352E+00 0.  1.
</event>
<event>
 5   0  0.1023063E-04  0.1199208E+04  0.7818609E-02  0.9113550E-01
        2   -1    0    0  501    0  0.00000000000E+00  0.00000000000E+00  0.14152624562E+04  0.14152624562E+04  0.25500000920E-02 0. -1.
       -2   -1    0    0    0  501  0.00000000000E+00  0.00000000000E+00 -0.25403407057E+03  0.25403407058E+03  0.25500000920E-02 0.  1.
    10030    2    1    2    0    0  0.00000000000E+00  0.00000000000E+00  0.11612283856E+04  0.16692965268E+04  0.11992078764E+04 0.  0.
        3    1    3    3  502    0  0.43344184788E+03  0.41297353137E+03  0.62690522068E+03  0.86685012489E+03  0.10100000352E+00 0. -1.
       -3    1    3    3    0  502 -0.43344184788E+03 -0.41297353137E+03  0.53432316494E+03  0.80244640189E+03  0.10100000352E+00 0.  1.
</event>
<event>
 5   0  0.3839750E-05  0.1200055E+04  0.7818609E-02  0.9112808E-01
       -3   -1    0    0    0  501  0.00000000000E+00  0.00000000000E+00  0.56067198645E+03  0.56067199555E+03  0.10100000352E+00 0.  1.
        3   -1    0    0  501    0  0.00000000000E+00  0.00000000000E+00 -0.64214547058E+03  0.64214547852E+03  0.10100000352E+00 0. -1.
    10030    2    1    2    0    0  0.00000000000E+00  0.00000000000E+00 -0.81473484128E+02  0.12028174741E+04  0.12000549768E+04 0.  0.
        5    1    3    3  502    0 -0.51144599900E+03  0.20453088518E+03 -0.27919405930E+03  0.61756077080E+03  0.46999998093E+01 0. -1.
       -5    1    3    3    0  502  0.51144599900E+03 -0.20453088518E+03  0.19772057517E+03  0.58525670327E+03  0.46999998093E+01 0.  1.
</event>
<event>
 5   0  0.1023063E-04  0.1199951E+04  0.7818609E-02  0.9112900E-01
       -2   -1    0    0    0  501  0.00000000000E+00  0.00000000000E+00  0.55514430368E+03  0.55514430369E+03  0.25500000920E-02 0.  1.
        2   -1    0    0  501    0  0.00000000000E+00  0.00000000000E+00 -0.64842680524E+03  0.64842680524E+03  0.25500000920E-02 0. -1.
    10030    2    1    2    0    0  0.00000000000E+00  0.00000000000E+00 -0.93282501555E+02  0.12035711089E+04  0.11999507445E+04 0.  0.
        3    1    3    3  502    0  0.13428244393E+03  0.11546661108E+03 -0.62161254276E+03  0.64634857201E+03  0.10100000352E+00 0. -1.
       -3    1    3    3    0  502 -0.13428244393E+03 -0.11546661108E+03  0.52833004120E+03  0.55722253693E+03  0.10100000352E+00 0.  1.
</event>
<event>
 5   0  0.1004006E-04  0.1199879E+04  0.7818609E-02  0.9112962E-01
       -2   -1    0    0    0  501  0.00000000000E+00  0.00000000000E+00  0.32127578726E+03  0.32127578727E+03  0.25500000920E-02 0.  1.
        2   -1    0    0  501    0  0.00000000000E+00  0.00000000000E+00 -0.11203075731E+04  0.11203075731E+04  0.25500000920E-02 0. -1.
    10030    2    1    2    0    0  0.00000000000E+00  0.00000000000E+00 -0.79903178583E+03  0.14415833604E+04  0.11998794898E+04 0.  0.
        5    1    3    3  502    0 -0.37937046339E+03  0.36672923615E+03 -0.56540348928E+02  0.53068934622E+03  0.46999998093E+01 0.  1.
       -5    1    3    3    0  502  0.37937046339E+03 -0.36672923615E+03 -0.74249143690E+03  0.91089401415E+03  0.46999998093E+01 0. -1.
</event>
<event>
 5   0  0.5745487E-05  0.1199562E+04  0.7818609E-02  0.9113240E-01
        1   -1    0    0  501    0  0.00000000000E+00  0.00000000000E+00  0.14411513378E+04  0.14411513379E+04  0.50400001928E-02 0.  1.
       -1   -1    0    0    0  501  0.00000000000E+00  0.00000000000E+00 -0.24961777612E+03  0.24961777617E+03  0.50400001928E-02 0. -1.
    10030    2    1    2    0    0  0.00000000000E+00  0.00000000000E+00  0.11915335617E+04  0.16907691140E+04  0.11995615733E+04 0.  0.
        3    1    3    3  502    0  0.14632338026E+03  0.57122119532E+03  0.75037943741E+03  0.95434453730E+03  0.10100000352E+00 0.  1.
       -3    1    3    3    0  502 -0.14632338026E+03 -0.57122119532E+03  0.44115412432E+03  0.73642457672E+03  0.10100000352E+00 0. -1.
</event>
<event>
 5   0  0.3839750E-05  0.1199902E+04  0.7818609E-02  0.9112942E-01
       -3   -1    0    0    0  501  0.00000000000E+00  0.00000000000E+00  0.87323928186E+03  0.87323928770E+03  0.10100000352E+00 0. -1.
        3   -1    0    0  501    0  0.00000000000E+00  0.00000000000E+00 -0.41219112309E+03  0.41219113546E+03  0.10100000352E+00 0.  1.
    10030    2    1    2    0    0  0.00000000000E+00  0.00000000000E+00  0.46104815877E+03  0.12854304232E+04  0.11999024827E+04 0.  0.
        3    1    3    3  502    0 -0.37703528413E+03  0.10613873993E+03 -0.25631355984E+03  0.46810008412E+03  0.10100000352E+00 0.  1.
       -3    1    3    3    0  502  0.37703528413E+03 -0.10613873993E+03  0.71736171861E+03  0.81733033904E+03  0.10100000352E+00 0. -1.
</event>
<event>
 5   0  0.5447807E-05  0.1199940E+04  0.7818609E-02  0.9112909E-01
       -1   -1    0    0    0  501  0.00000000000E+00  0.00000000000E+00  0.46650423840E+03  0.46650423843E+03  0.50400001928E-02 0. -1.
        1   -1    0    0  501    0  0.00000000000E+00  0.00000000000E+00 -0.77161947498E+03  0.77161947499E+03  0.50400001928E-02 0.  1.
    10030    2    1    2    0    0  0.00000000000E+00  0.00000000000E+00 -0.30511523657E+03  0.12381237134E+04  0.11999395910E+04 0.  0.
        2    1    3    3  502    0  0.23750731104E+01  0.57149473028E+03  0.35878812487E+02  0.57262479592E+03  0.25500000920E-02 0.  1.
       -2    1    3    3    0  502 -0.23750731104E+01 -0.57149473028E+03 -0.34099404906E+03  0.66549891751E+03  0.25500000920E-02 0. -1.
</event>
<event>
 5   0  0.5732931E-05  0.1201440E+04  0.7818609E-02  0.9111597E-01
       -1   -1    0    0    0  501  0.00000000000E+00  0.00000000000E+00  0.32604328285E+03  0.32604328289E+03  0.50400001928E-02 0. -1.
        1   -1    0    0  501    0  0.00000000000E+00  0.00000000000E+00 -0.11067988403E+04  0.11067988403E+04  0.50400001928E-02 0.  1.
    10030    2    1    2    0    0  0.00000000000E+00  0.00000000000E+00 -0.78075555741E+03  0.14328421232E+04  0.12014396820E+04 0.  0.
        4    1    3    3  502    0  0.88328553322E+02 -0.14511519725E+03  0.29679659356E+03  0.34197980153E+03  0.12699999809E+01 0. -1.
       -4    1    3    3    0  502 -0.88328553322E+02  0.14511519725E+03 -0.10775521510E+04  0.10908623216E+04  0.12699999809E+01 0.  1.
</event>
<event>
 5   0  0.1023063E-04  0.1199685E+04  0.7818609E-02  0.9113133E-01
        2   -1    0    0  501    0  0.00000000000E+00  0.00000000000E+00  0.26450839220E+04  0.26450839220E+04  0.25500000920E-02 0. -1.
       -2   -1    0    0    0  501  0.00000000000E+00  0.00000000000E+00 -0.13603003487E+03  0.13603003490E+03  0.25500000920E-02 0.  1.
    10030    2    1    2    0    0  0.00000000000E+00  0.00000000000E+00  0.25090538871E+04  0.27811139569E+04  0.11996847222E+04 0.  0.
        3    1    3    3  502    0 -0.31341422603E+03  0.32089389936E+03  0.21777703652E+04  0.22234849101E+04  0.10100000352E+00 0. -1.
       -3    1    3    3    0  502  0.31341422603E+03 -0.32089389936E+03  0.33128352192E+03  0.55762904679E+03  0.10100000352E+00 0.  1.
</event>
<event>
 5   0  0.1023063E-04  0.1192276E+04  0.7818609E-02  0.9119644E-01
        2   -1    0    0  501    0  0.00000000000E+00  0.00000000000E+00  0.68003079150E+03  0.68003079150E+03  0.25500000920E-02 0.  1.
       -2   -1    0    0    0  501  0.00000000000E+00  0.00000000000E+00 -0.52259498335E+03  0.52259498336E+03  0.25500000920E-02 0. -1.
    10030    2    1    2    0    0  0.00000000000E+00  0.00000000000E+00  0.15743580815E+03  0.12026257749E+04  0.11922762770E+04 0.  0.
        3    1    3    3  502    0 -0.83786719395E+02 -0.58818793075E+03  0.29350092883E+02  0.59485014448E+03  0.10100000352E+00 0. -1.
       -3    1    3    3    0  502  0.83786719395E+02  0.58818793075E+03  0.12808571526E+03  0.60777563038E+03  0.10100000352E+00 0.  1.
</event>
<event>
 5   0  0.1012657E-04  0.1199728E+04  0.7818609E-02  0.9113095E-01
       -2   -1    0    0    0  501  0.00000000000E+00  0.00000000000E+00  0.17166736926E+03  0.17166736928E+03  0.25500000920E-02 0.  1.
        2   -1    0    0  501    0  0.00000000000E+00  0.00000000000E+00 -0.20961266400E+04  0.20961266400E+04  0.25500000920E-02 0. -1.
    10030    2    1    2    0    0  0.00000000000E+00  0.00000000000E+00 -0.19244592708E+04  0.22677940093E+04  0.11997275456E+04 0.  0.
        1    1    3    3  502    0  0.36834134026E+02  0.48382121352E+03 -0.29553705359E+03  0.56813895321E+03  0.50400001928E-02 0.  1.
       -1    1    3    3    0  502 -0.36834134026E+02 -0.48382121352E+03 -0.16289222172E+04  0.16996550561E+04  0.50400001928E-02 0. -1.
</event>
<event>
 5   0  0.5620246E-05  0.1199633E+04  0.7818609E-02  0.9113178E-01
       -1   -1    0    0    0  501  0.00000000000E+00  0.00000000000E+00  0.21578244880E+03  0.21578244885E+03  0.50400001928E-02 0. -1.
        1   -1    0    0  501    0  0.00000000000E+00  0.00000000000E+00 -0.16673252988E+04  0.16673252988E+04  0.50400001928E-02 0.  1.
    10030    2    1    2    0    0  0.00000000000E+00  0.00000000000E+00 -0.14515428500E+04  0.18831077477E+04  0.11996325037E+04 0.  0.
        1    1    3    3  502    0 -0.38776332962E+03  0.20889940584E+03 -0.13649073685E+04  0.14342145886E+04  0.50400001928E-02 0.  1.
       -1    1    3    3    0  502  0.38776332962E+03 -0.20889940584E+03 -0.86635481489E+02  0.44889315904E+03  0.50400001928E-02 0. -1.
</event>
<event>
 5   0  0.9941209E-05  0.1200163E+04  0.7818609E-02  0.9112714E-01
        2   -1    0    0  501    0  0.00000000000E+00  0.00000000000E+00  0.14190787255E+04  0.14190787255E+04  0.25500000920E-02 0. -1.
       -2   -1    0    0    0  501  0.00000000000E+00  0.00000000000E+00 -0.25375465794E+03  0.25375465795E+03  0.25500000920E-02 0.  1.
    10030    2    1    2    0    0  0.00000000000E+00  0.00000000000E+00  0.11653240676E+04  0.16728333835E+04  0.12001630499E+04 0.  0.
        2    1    3    3  502    0 -0.57526476849E+03 -0.16310537495E+03  0.51207104025E+03  0.78724181004E+03  0.25500000920E-02 0.  1.
       -2    1    3    3    0  502  0.57526476849E+03  0.16310537495E+03  0.65325302733E+03  0.88559157343E+03  0.25500000920E-02 0. -1.
</event>
<event>
 5   0  0.1023063E-04  0.1192389E+04  0.7818609E-02  0.9119545E-01
        2   -1    0    0  501    0  0.00000000000E+00  0.00000000000E+00  0.60013933752E+03  0.60013933753E+03  0.25500000920E-02 0. -1.
       -2   -1    0    0    0  501  0.00000000000E+00  0.00000000000E+00 -0.59227557184E+03  0.59227557185E+03  0.25500000920E-02 0.  1.
    10030    2    1    2    0    0  0.00000000000E+00  0.00000000000E+00  0.78637656813E+01  0.11924149094E+04  0.11923889790E+04 0.  0.
        3    1    3    3  502    0  0.28480540783E+03  0.26516782195E+03  0.45562717676E+03  0.59918630536E+03  0.10100000352E+00 0. -1.
       -3    1    3    3    0  502 -0.28480540783E+03 -0.26516782195E+03 -0.44776341108E+03  0.59322860402E+03  0.10100000352E+00 0.  1.
</event>
<event>
 5   0  0.5620246E-05  0.1199377E+04  0.7818609E-02  0.9113402E-01
       -1   -1    0    0    0  501  0.00000000000E+00  0.00000000000E+00  0.31706941057E+03  0.31706941061E+03  0.50400001928E-02 0.  1.
        1   -1    0    0  501    0  0.00000000000E+00  0.00000000000E+00 -0.11342202427E+04  0.11342202427E+04  0.50400001928E-02 0. -1.
    10030    2    1    2    0    0  0.00000000000E+00  0.00000000000E+00 -0.81715083216E+03  0.14512896533E+04  0.11993774116E+04 0.  0.
        1    1    3    3  502    0 -0.13701260731E+03 -0.54471105722E+03 -0.66280954230E+03  0.86879173558E+03  0.50400001928E-02 0.  1.
       -1    1    3    3    0  502  0.13701260731E+03  0.54471105722E+03 -0.15434128986E+03  0.58249791776E+03  0.50400001928E-02 0. -1.
</event>
<event>
 5   0  0.9838215E-05  0.1199927E+04  0.7818609E-02  0.9112920E-01
        2   -1    0    0  501    0  0.00000000000E+00  0.00000000000E+00  0.64428942133E+03  0.64428942134E+03  0.25500000920E-02 0.  1.
       -2   -1    0    0    0  501  0.00000000000E+00  0.00000000000E+00 -0.55868709637E+03  0.55868709638E+03  0.25500000920E-02 0. -1.
    10030    2    1    2    0    0  0.00000000000E+00  0.00000000000E+00  0.85602324963E+02  0.12029765177E+04  0.11999269745E+04 0.  0.
        4    1    3    3  502    0  0.21419792565E+03  0.40632402529E+03  0.42975437764E+03  0.62902337229E+03  0.12699999809E+01 0.  1.
       -4    1    3    3    0  502 -0.21419792565E+03 -0.40632402529E+03 -0.34415205268E+03  0.57395314543E+03  0.12699999809E+01 0. -1.
</event>
<event>
 5   0  0.5625746E-05  0.1202152E+04  0.7818609E-02  0.9110975E-01
        1   -1    0    0  501    0  0.00000000000E+00  0.00000000000E+00  0.46306054448E+03  0.46306054451E+03  0.50400001928E-02 0. -1.
       -1   -1    0    0    0  501  0.00000000000E+00  0.00000000000E+00 -0.78022722955E+03  0.78022722957E+03  0.50400001928E-02 0.  1.
    10030    2    1    2    0    0  0.00000000000E+00  0.00000000000E+00 -0.31716668507E+03  0.12432877741E+04  0.12021521464E+04 0.  0.
        5    1    3    3  502    0  0.31530939484E+03  0.20117559501E+03  0.32802568772E+03  0.49750836808E+03  0.46999998093E+01 0. -1.
       -5    1    3    3    0  502 -0.31530939484E+03 -0.20117559501E+03 -0.64519237279E+03  0.74577940600E+03  0.46999998093E+01 0.  1.
</event>
<event>
 5   0  0.1004006E-04  0.1199301E+04  0.7818609E-02  0.9113469E-01
        2   -1    0    0  501    0  0.00000000000E+00  0.00000000000E+00  0.50092520092E+03  0.50092520093E+03  0.25500000920E-02 0. -1.
       -2   -1    0    0    0  501  0.00000000000E+00  0.00000000000E+00 -0.71783261031E+03  0.71783261031E+03  0.25500000920E-02 0.  1.
    10030    2    1    2    0    0  0.00000000000E+00  0.00000000000E+00 -0.21690740938E+03  0.12187578112E+04  0.11993005371E+04 0.  0.
        5    1    3    3  502    0  0.77505022666E+02 -0.31570096356E+03  0.40359025193E+03  0.51824830765E+03  0.46999998093E+01 0. -1.
       -5    1    3    3    0  502 -0.77505022666E+02  0.31570096356E+03 -0.62049766131E+03  0.70050950359E+03  0.46999998093E+01 0.  1.
</event>
<event>
 5   0  0.9838215E-05  0.1200160E+04  0.7818609E-02  0.9112717E-01
        2   -1    0    0  501    0  0.00000000000E+00  0.00000000000E+00  0.66951005301E+03  0.66951005301E+03  0.25500000920E-02 0.  1.
       -2   -1    0    0    0  501  0.00000000000E+00  0.00000000000E+00 -0.53785002336E+03  0.53785002337E+03  0.25500000920E-02 0. -1.
    10030    2    1    2    0    0  0.00000000000E+00  0.00000000000E+00  0.13166002965E+03  0.12073600764E+04  0.12001599854E+04 0.  0.
        4    1    3    3  502    0  0.40070921293E+03  0.44280619717E+03  0.12491209777E+03  0.61012281276E+03  0.12699999809E+01 0. -1.
       -4    1    3    3    0  502 -0.40070921293E+03 -0.44280619717E+03  0.67479318736E+01  0.59723726362E+03  0.12699999809E+01 0.  1.
</event>
<event>
 5   0  0.1023063E-04  0.1199854E+04  0.7818609E-02  0.9112984E-01
       -2   -1    0    0    0  501  0.00000000000E+00  0.00000000000E+00  0.31686997951E+03  0.31686997952E+03  0.25500000920E-02 0.  1.
        2   -1    0    0  501    0  0.00000000000E+00  0.00000000000E+00 -0.11358358956E+04  0.11358358956E+04  0.25500000920E-02 0. -1.
    10030    2    1    2    0    0  0.00000000000E+00  0.00000000000E+00 -0.81896591610E+03  0.14527058751E+04  0.11998538194E+04 0.  0.
        3    1    3    3  502    0  0.36156279770E+03 -0.42171698087E+03 -0.13515199649E+03  0.57169829543E+03  0.10100000352E+00 0.  1.
       -3    1    3    3    0  502 -0.36156279770E+03  0.42171698087E+03 -0.68381391960E+03  0.88100757969E+03  0.10100000352E+00 0. -1.
</event>
<event>
 5   0  0.1023063E-04  0.1209250E+04  0.7818609E-02  0.9104798E-01
       -2   -1    0    0    0  501  0.00000000000E+00  0.00000000000E+00  0.34783770408E+03  0.34783770409E+03  0.25500000920E-02 0. -1.
        2   -1    0    0  501    0  0.00000000000E+00  0.00000000000E+00 -0.10509833121E+04  0.10509833121E+04  0.25500000920E-02 0.  1.
    10030    2    1    2    0    0  0.00000000000E+00  0.00000000000E+00 -0.70314560803E+03  0.13988210162E+04  0.12092503832E+04 0.  0.
        3    1    3    3  502    0  0.12428985293E+03 -0.10003056422E+03  0.32304907776E+03  0.36029820727E+03  0.10100000352E+00 0. -1.
       -3    1    3    3    0  502 -0.12428985293E+03  0.10003056422E+03 -0.10261946858E+04  0.10385228089E+04  0.10100000352E+00 0.  1.
</event>
<event>
 5   0  0.9838215E-05  0.1200538E+04  0.7818609E-02  0.9112386E-01
        2   -1    0    0  501    0  0.00000000000E+00  0.00000000000E+00  0.68519225775E+03  0.68519225776E+03  0.25500000920E-02 0.  1.
       -2   -1    0    0    0  501  0.00000000000E+00  0.00000000000E+00 -0.52587101990E+03  0.52587101991E+03  0.25500000920E-02 0. -1.
    10030    2    1    2    0    0  0.00000000000E+00  0.00000000000E+00  0.15932123785E+03  0.12110632777E+04  0.12005377985E+04 0.  0.
        4    1    3    3  502    0  0.95049446563E+02 -0.50271002584E+03  0.39637077492E+03  0.64719639329E+03  0.12699999809E+01 0.  1.
       -4    1    3    3    0  502 -0.95049446563E+02  0.50271002584E+03 -0.23704953707E+03  0.56386688438E+03  0.12699999809E+01 0. -1.
</event>
<event>
 5   0  0.1023063E-04  0.1200267E+04  0.7818609E-02  0.9112623E-01
        2   -1    0    0  501    0  0.00000000000E+00  0.00000000000E+00  0.15939888939E+04  0.15939888939E+04  0.25500000920E-02 0.  1.
       -2   -1    0    0    0  501  0.00000000000E+00  0.00000000000E+00 -0.22594896409E+03  0.22594896410E+03  0.25500000920E-02 0. -1.
    10030    2    1    2    0    0  0.00000000000E+00  0.00000000000E+00  0.13680399298E+04  0.18199378580E+04  0.12002668693E+04 0.  0.
        3    1    3    3  502    0  0.69584250841E+02  0.28387592884E+03 -0.11073610445E+03  0.31255400488E+03  0.10100000352E+00 0. -1.
       -3    1    3    3    0  502 -0.69584250841E+02 -0.28387592884E+03  0.14787760343E+04  0.15073838531E+04  0.10100000352E+00 0.  1.
</event>
<event>
 5   0  0.3839750E-05  0.1199725E+04  0.7818609E-02  0.9113097E-01
       -3   -1    0    0    0  501  0.00000000000E+00  0.00000000000E+00  0.55774522708E+03  0.55774523623E+03  0.10100000352E+00 0.  1.
        3   -1    0    0  501    0  0.00000000000E+00  0.00000000000E+00 -0.64516002621E+03  0.64516003411E+03  0.10100000352E+00 0. -1.
    10030    2    1    2    0    0  0.00000000000E+00  0.00000000000E+00 -0.87414799124E+02  0.12029052703E+04  0.11997248611E+04 0.  0.
        3    1    3    3  502    0 -0.78811532638E+02  0.58067823236E+03 -0.17225201474E+03  0.61079393743E+03  0.10100000352E+00 0. -1.
       -3    1    3    3    0  502  0.78811532638E+02 -0.58067823236E+03  0.84837215614E+02  0.59211133292E+03  0.10100000352E+00 0.  1.
</event>
<event>
 5   0  0.5625746E-05  0.1199702E+04  0.7818609E-02  0.9113117E-01
       -1   -1    0    0    0  501  0.00000000000E+00  0.00000000000E+00  0.97692180718E+03  0.97692180719E+03  0.50400001928E-02 0. -1.
        1   -1    0    0  501    0  0.00000000000E+00  0.00000000000E+00 -0.36832156636E+03  0.36832156639E+03  0.50400001928E-02 0.  1.
    10030    2    1    2    0    0  0.00000000000E+00  0.00000000000E+00  0.60860024082E+03  0.13452433736E+04  0.11997022468E+04 0.  0.
        5    1    3    3  502    0 -0.43785898449E+03 -0.25350828285E+03  0.66558674243E+03  0.83607101461E+03  0.46999998093E+01 0. -1.
       -5    1    3    3    0  502  0.43785898449E+03  0.25350828285E+03 -0.56986501609E+02  0.50917235897E+03  0.46999998093E+01 0.  1.
</event>
<event>
 5   0  0.1012657E-04  0.1198234E+04  0.7818609E-02  0.9114404E-01
        2   -1    0    0  501    0  0.00000000000E+00  0.00000000000E+00  0.17018301001E+04  0.17018301001E+04  0.25500000920E-02 0. -1.
       -2   -1    0    0    0  501  0.00000000000E+00  0.00000000000E+00 -0.21091486893E+03  0.21091486895E+03  0.25500000920E-02 0.  1.
    10030    2    1    2    0    0  0.00000000000E+00  0.00000000000E+00  0.14909152312E+04  0.19127449690E+04  0.11982341550E+04 0.  0.
        1    1    3    3  502    0 -0.97793801427E+02 -0.37668661753E+02  0.16870853333E+04  0.16903370899E+04  0.50400001928E-02 0. -1.
       -1    1    3    3    0  502  0.97793801427E+02  0.37668661753E+02 -0.19617010217E+03  0.22240787910E+03  0.50400001928E-02 0.  1.
</event>
<event>
 5   0  0.5620246E-05  0.1199458E+04  0.7818609E-02  0.9113331E-01
       -1   -1    0    0    0  501  0.00000000000E+00  0.00000000000E+00  0.38350270392E+03  0.38350270395E+03  0.50400001928E-02 0. -1.
        1   -1    0    0  501    0  0.00000000000E+00  0.00000000000E+00 -0.93786799326E+03  0.93786799327E+03  0.50400001928E-02 0.  1.
    10030    2    1    2    0    0  0.00000000000E+00  0.00000000000E+00 -0.55436528934E+03  0.13213706972E+04  0.11994580632E+04 0.  0.
        1    1    3    3  502    0 -0.23647711858E+03 -0.41262951940E+03  0.12531612863E+03  0.49182179701E+03  0.50400001928E-02 0.  1.
       -1    1    3    3    0  502  0.23647711858E+03  0.41262951940E+03 -0.67968141797E+03  0.82954890021E+03  0.50400001928E-02 0. -1.
</event>
<event>
 5   0  0.9838215E-05  0.1200488E+04  0.7818609E-02  0.9112430E-01
        2   -1    0    0  501    0  0.00000000000E+00  0.00000000000E+00  0.52541324270E+03  0.52541324271E+03  0.25500000920E-02 0. -1.
       -2   -1    0    0    0  501  0.00000000000E+00  0.00000000000E+00 -0.68573183496E+03  0.68573183496E+03  0.25500000920E-02 0.  1.
    10030    2    1    2    0    0  0.00000000000E+00  0.00000000000E+00 -0.16031859226E+03  0.12111450777E+04  0.12004875460E+04 0.  0.
        4    1    3    3  502    0  0.31100237170E+03  0.15399526805E+03  0.41393740317E+03  0.54016923684E+03  0.12699999809E+01 0. -1.
       -4    1    3    3    0  502 -0.31100237170E+03 -0.15399526805E+03 -0.57425599543E+03  0.67097584082E+03  0.12699999809E+01 0.  1.
</event>
<event>
 5   0  0.9838215E-05  0.1200111E+04  0.7818609E-02  0.9112760E-01
       -2   -1    0    0    0  501  0.00000000000E+00  0.00000000000E+00  0.30281112664E+03  0.30281112665E+03  0.25500000920E-02 0. -1.
        2   -1    0    0  501    0  0.00000000000E+00  0.00000000000E+00 -0.11890794666E+04  0.11890794666E+04  0.25500000920E-02 0.  1.
    10030    2    1    2    0    0  0.00000000000E+00  0.00000000000E+00 -0.88626833992E+03  0.14918905932E+04  0.12001108165E+04 0.  0.
        4    1    3    3  502    0  0.48061300364E+03 -0.34887002380E+03 -0.54982410303E+03  0.80932521890E+03  0.12699999809E+01 0.  1.
       -4    1    3    3    0  502 -0.48061300364E+03  0.34887002380E+03 -0.33644423689E+03  0.68256537431E+03  0.12699999809E+01 0. -1.
</event>
<event>
 5   0  0.3839750E-05  0.1199787E+04  0.7818609E-02  0.9113043E-01
        3   -1    0    0  501    0  0.00000000000E+00  0.00000000000E+00  0.94852119385E+03  0.94852119922E+03  0.10100000352E+00 0.  1.
       -3   -1    0    0    0  501  0.00000000000E+00  0.00000000000E+00 -0.37940344682E+03  0.37940346026E+03  0.10100000352E+00 0. -1.
    10030    2    1    2    0    0  0.00000000000E+00  0.00000000000E+00  0.56911774703E+03  0.13279246595E+04  0.11997870191E+04 0.  0.
        2    1    3    3  502    0  0.12336169739E+03  0.53866604723E+03  0.54292742578E+03  0.77469310601E+03  0.25500000920E-02 0.  1.
       -2    1    3    3    0  502 -0.12336169739E+03 -0.53866604723E+03  0.26190321251E+02  0.55323155347E+03  0.25500000920E-02 0. -1.
</event>
<event>
 5   0  0.9838215E-05  0.1199894E+04  0.7818609E-02  0.9112949E-01
       -2   -1    0    0    0  501  0.00000000000E+00  0.00000000000E+00  0.33614944837E+03  0.33614944838E+03  0.25500000920E-02 0. -1.
        2   -1    0    0  501    0  0.00000000000E+00  0.00000000000E+00 -0.10707639205E+04  0.10707639205E+04  0.25500000920E-02 0.  1.
    10030    2    1    2    0    0  0.00000000000E+00  0.00000000000E+00 -0.73461447209E+03  0.14069133688E+04  0.11998944974E+04 0.  0.
        4    1    3    3  502    0  0.33197645607E+03 -0.43936236403E+02  0.21636861874E+03  0.39869255365E+03  0.12699999809E+01 0. -1.
       -4    1    3    3    0  502 -0.33197645607E+03  0.43936236403E+02 -0.95098309083E+03  0.10082208152E+04  0.12699999809E+01 0.  1.
</event>
<event>
 5   0  0.1012657E-04  0.1199003E+04  0.7818609E-02  0.9113730E-01
       -2   -1    0    0    0  501  0.00000000000E+00  0.00000000000E+00  0.32569989060E+03  0.32569989061E+03  0.25500000920E-02 0. -1.
        2   -1    0    0  501    0  0.00000000000E+00  0.00000000000E+00 -0.11034760888E+04  0.11034760888E+04  0.25500000920E-02 0.  1.
    10030    2    1    2    0    0  0.00000000000E+00  0.00000000000E+00 -0.77777619817E+03  0.14291759794E+04  0.11990029882E+04 0.  0.
        1    1    3    3  502    0  0.48461122086E+03  0.13904217296E+03 -0.22387945025E+01  0.50416839793E+03  0.50400001928E-02 0. -1.
       -1    1    3    3    0  502 -0.48461122086E+03 -0.13904217296E+03 -0.77553740366E+03  0.92500758146E+03  0.50400001928E-02 0.  1.
</event>
<event>
 5   0  0.5732931E-05  0.1199999E+04  0.7818609E-02  0.9112858E-01
       -1   -1    0    0    0  501  0.00000000000E+00  0.00000000000E+00  0.38232829075E+03  0.38232829078E+03  0.50400001928E-02 0.  1.
        1   -1    0    0  501    0  0.00000000000E+00  0.00000000000E+00 -0.94159707424E+03  0.94159707425E+03  0.50400001928E-02 0. -1.
    10030    2    1    2    0    0  0.00000000000E+00  0.00000000000E+00 -0.55926878349E+03  0.13239253650E+04  0.11999986667E+04 0.  0.
        4    1    3    3  502    0 -0.16729172432E+03  0.14134487776E+03  0.33665229786E+03  0.40162330367E+03  0.12699999809E+01 0.  1.
       -4    1    3    3    0  502  0.16729172432E+03 -0.14134487776E+03 -0.89592108135E+03  0.92230206137E+03  0.12699999809E+01 0. -1.
</event>
<event>
 5   0  0.3839750E-05  0.1199902E+04  0.7818609E-02  0.9112942E-01
       -3   -1    0    0    0  501  0.00000000000E+00  0.00000000000E+00  0.29332166695E+03  0.29332168434E+03  0.10100000352E+00 0.  1.
        3   -1    0    0  501    0  0.00000000000E+00  0.00000000000E+00 -0.12271209912E+04  0.12271209953E+04  0.10100000352E+00 0. -1.
    10030    2    1    2    0    0  0.00000000000E+00  0.00000000000E+00 -0.93379932421E+03  0.15204426796E+04  0.11999019811E+04 0.  0.
        4    1    3    3  502    0  0.48362487138E+02 -0.59799254104E+03 -0.46988990879E+03  0.76205783808E+03  0.12699999809E+01 0.  1.
       -4    1    3    3    0  502 -0.48362487138E+02  0.59799254104E+03 -0.46390941541E+03  0.75838484156E+03  0.12699999809E+01 0. -1.
</event>
<event>
 5   0  0.5625746E-05  0.1199408E+04  0.7818609E-02  0.9113375E-01
        1   -1    0    0  501    0  0.00000000000E+00  0.00000000000E+00  0.10963147637E+04  0.10963147637E+04  0.50400001928E-02 0. -1.
       -1   -1    0    0    0  501  0.00000000000E+00  0.00000000000E+00 -0.32804871480E+03  0.32804871484E+03  0.50400001928E-02 0.  1.
    10030    2    1    2    0    0  0.00000000000E+00  0.00000000000E+00  0.76826604890E+03  0.14243634785E+04  0.11994076026E+04 0.  0.
        5    1    3    3  502    0  0.43824402999E+03 -0.72282290968E+02 -0.94350295657E+02  0.45409979928E+03  0.46999998093E+01 0.  1.
       -5    1    3    3    0  502 -0.43824402999E+03  0.72282290968E+02  0.86261634456E+03  0.97026367927E+03  0.46999998093E+01 0. -1.
</event>
<event>
 5   0  0.9838215E-05  0.1199984E+04  0.7818609E-02  0.9112871E-01
        2   -1    0    0  501    0  0.00000000000E+00  0.00000000000E+00  0.19521734957E+04  0.19521734957E+04  0.25500000920E-02 0. -1.
       -2   -1    0    0    0  501  0.00000000000E+00  0.00000000000E+00 -0.18440492548E+03  0.18440492550E+03  0.25500000920E-02 0.  1.
    10030    2    1    2    0    0  0.00000000000E+00  0.00000000000E+00  0.17677685702E+04  0.21365784212E+04  0.11999840133E+04 0.  0.
        4    1    3    3  502    0 -0.50802498576E+03 -0.22822470257E+03  0.48649672751E+03  0.73949751845E+03  0.12699999809E+01 0. -1.
       -4    1    3    3    0  502  0.50802498576E+03  0.22822470257E+03  0.12812718427E+04  0.13970809028E+04  0.12699999809E+01 0.  1.
</event>
<event>
 5   0  0.1012657E-04  0.1199321E+04  0.7818609E-02  0.9113451E-01
       -2   -1    0    0    0  501  0.00000000000E+00  0.00000000000E+00  0.37991635061E+03  0.37991635061E+03  0.25500000920E-02 0.  1.
        2   -1    0    0  501    0  0.00000000000E+00  0.00000000000E+00 -0.94650507919E+03  0.94650507920E+03  0.25500000920E-02 0. -1.
    10030    2    1    2    0    0  0.00000000000E+00  0.00000000000E+00 -0.56658872859E+03  0.13264214298E+04  0.11993210671E+04 0.  0.
        1    1    3    3  502    0 -0.77834857608E+02 -0.31647235997E+03 -0.84000818978E+03  0.90101430544E+03  0.50400001928E-02 0. -1.
       -1    1    3    3    0  502  0.77834857608E+02  0.31647235997E+03  0.27341946119E+03  0.42540712437E+03  0.50400001928E-02 0.  1.
</event>
<event>
 5   0  0.9941209E-05  0.1199463E+04  0.7818609E-02  0.9113327E-01
       -2   -1    0    0    0  501  0.00000000000E+00  0.00000000000E+00  0.17445973912E+03  0.17445973914E+03  0.25500000920E-02 0.  1.
        2   -1    0    0  501    0  0.00000000000E+00  0.00000000000E+00 -0.20616652498E+04  0.20616652498E+04  0.25500000920E-02 0. -1.
    10030    2    1    2    0    0  0.00000000000E+00  0.00000000000E+00 -0.18872055107E+04  0.22361249889E+04  0.11994625157E+04 0.  0.
        2    1    3    3  502    0  0.36377289575E+03 -0.39655858875E+03 -0.45005215371E+03  0.70152432250E+03  0.25500000920E-02 0.  1.
       -2    1    3    3    0  502 -0.36377289575E+03  0.39655858875E+03 -0.14371533570E+04  0.15346006664E+04  0.25500000920E-02 0. -1.
</event>
<event>
 5   0  0.1004006E-04  0.1200905E+04  0.7818609E-02  0.9112064E-01
        2   -1    0    0  501    0  0.00000000000E+00  0.00000000000E+00  0.22935391461E+04  0.22935391461E+04  0.25500000920E-02 0.  1.
       -2   -1    0    0    0  501  0.00000000000E+00  0.00000000000E+00 -0.15719962131E+03  0.15719962133E+03  0.25500000920E-02 0. -1.
    10030    2    1    2    0    0  0.00000000000E+00  0.00000000000E+00  0.21363395248E+04  0.24507387674E+04  0.12009054672E+04 0.  0.
        5    1    3    3  502    0  0.48086395460E+03 -0.18444472042E+03  0.43827286848E+03  0.67628041149E+03  0.46999998093E+01 0.  1.
       -5    1    3    3    0  502 -0.48086395460E+03  0.18444472042E+03  0.16980666563E+04  0.17744583559E+04  0.46999998093E+01 0. -1.
</event>
<event>
 5   0  0.9941209E-05  0.1200390E+04  0.7818609E-02  0.9112516E-01
       -2   -1    0    0    0  501  0.00000000000E+00  0.00000000000E+00  0.51442733981E+03  0.51442733982E+03  0.25500000920E-02 0.  1.
        2   -1    0    0  501    0  0.00000000000E+00  0.00000000000E+00 -0.70026179522E+03  0.70026179522E+03  0.25500000920E-02 0. -1.
    10030    2    1    2    0    0  0.00000000000E+00  0.00000000000E+00 -0.18583445541E+03  0.12146891350E+04  0.12003896242E+04 0.  0.
        2    1    3    3  502    0  0.41495319242E+03  0.29904465363E+03 -0.41069631667E+03  0.65596137180E+03  0.25500000920E-02 0. -1.
       -2    1    3    3    0  502 -0.41495319242E+03 -0.29904465363E+03  0.22486186126E+03  0.55872776324E+03  0.25500000920E-02 0.  1.
</event>
<event>
 5   0  0.5745487E-05  0.1203942E+04  0.7818609E-02  0.9109413E-01
        1   -1    0    0  501    0  0.00000000000E+00  0.00000000000E+00  0.83300808205E+03  0.83300808207E+03  0.50400001928E-02 0. -1.
       -1   -1    0    0    0  501  0.00000000000E+00  0.00000000000E+00 -0.43501293653E+03  0.43501293656E+03  0.50400001928E-02 0.  1.
    10030    2    1    2    0    0  0.00000000000E+00  0.00000000000E+00  0.39799514552E+03  0.12680210186E+04  0.12039423441E+04 0.  0.
        3    1    3    3  502    0 -0.47954836812E+03 -0.22299126703E+03 -0.10384333134E+03  0.53895750315E+03  0.10100000352E+00 0.  1.
       -3    1    3    3    0  502  0.47954836812E+03  0.22299126703E+03  0.50183847686E+03  0.72906351548E+03  0.10100000352E+00 0. -1.
</event>
<event>
 5   0  0.1012657E-04  0.1200340E+04  0.7818609E-02  0.9112559E-01
        2   -1    0    0  501    0  0.00000000000E+00  0.00000000000E+00  0.25099054730E+03  0.25099054731E+03  0.25500000920E-02 0.  1.
       -2   -1    0    0    0  501  0.00000000000E+00  0.00000000000E+00 -0.14351294273E+04  0.14351294273E+04  0.25500000920E-02 0. -1.
    10030    2    1    2    0    0  0.00000000000E+00  0.00000000000E+00 -0.11841388800E+04  0.16861199746E+04  0.12003398192E+04 0.  0.
        1    1    3    3  502    0 -0.28784139045E+03 -0.11370713610E+03 -0.13143950364E+04  0.13503393243E+04  0.50400001928E-02 0. -1.
       -1    1    3    3    0  502  0.28784139045E+03  0.11370713610E+03  0.13025615640E+03  0.33578065037E+03  0.50400001928E-02 0.  1.
</event>
<event>
 5   0  0.5447807E-05  0.1198615E+04  0.7818609E-02  0.9114070E-01
       -1   -1    0    0    0  501  0.00000000000E+00  0.00000000000E+00  0.21108256802E+03  0.21108256808E+03  0.50400001928E-02 0. -1.
        1   -1    0    0  501    0  0.00000000000E+00  0.00000000000E+00 -0.17015597075E+04  0.17015597075E+04  0.50400001928E-02 0.  1.
    10030    2    1    2    0    0  0.00000000000E+00  0.00000000000E+00 -0.14904771394E+04  0.19126422756E+04  0.11986151889E+04 0.  0.
        2    1    3    3  502    0  0.85661339281E+02 -0.27749389116E+03 -0.15817755583E+04  0.16082147374E+04  0.25500000920E-02 0.  1.
       -2    1    3    3    0  502 -0.85661339281E+02  0.27749389116E+03  0.91298418901E+02  0.30442753814E+03  0.25500000920E-02 0. -1.
</event>
<event>
 5   0  0.5732931E-05  0.1205606E+04  0.7818609E-02  0.9107964E-01
        1   -1    0    0  501    0  0.00000000000E+00  0.00000000000E+00  0.61626922436E+03  0.61626922438E+03  0.50400001928E-02 0.  1.
       -1   -1    0    0    0  501  0.00000000000E+00  0.00000000000E+00 -0.58963121558E+03  0.58963121560E+03  0.50400001928E-02 0. -1.
    10030    2    1    2    0    0  0.00000000000E+00  0.00000000000E+00  0.26638008776E+02  0.12059004400E+04  0.12056061909E+04 0.  0.
        4    1    3    3  502    0  0.20559949239E+03  0.55226655255E+03  0.14023757209E+03  0.60575381622E+03  0.12699999809E+01 0.  1.
       -4    1    3    3    0  502 -0.20559949239E+03 -0.55226655255E+03 -0.11359956332E+03  0.60014662377E+03  0.12699999809E+01 0. -1.
</event>
<event>
 5   0  0.1023063E-04  0.1199633E+04  0.7818609E-02  0.9113178E-01
       -2   -1    0    0    0  501  0.00000000000E+00  0.00000000000E+00  0.35101546310E+03  0.35101546311E+03  0.25500000920E-02 0. -1.
        2   -1    0    0  501    0  0.00000000000E+00  0.00000000000E+00 -0.10249685618E+04  0.10249685618E+04  0.25500000920E-02 0.  1.
    10030    2    1    2    0    0  0.00000000000E+00  0.00000000000E+00 -0.67395309868E+03  0.13759840249E+04  0.11996329678E+04 0.  0.
        3    1    3    3  502    0 -0.29125201790E+03 -0.19585637273E+01 -0.93841399481E+03  0.98257437874E+03  0.10100000352E+00 0.  1.
       -3    1    3    3    0  502  0.29125201790E+03  0.19585637273E+01  0.26446089613E+03  0.39340964615E+03  0.10100000352E+00 0. -1.
</event>
<event>
 5   0  0.1004006E-04  0.1199796E+04  0.7818609E-02  0.9113035E-01
        2   -1    0    0  501    0  0.00000000000E+00  0.00000000000E+00  0.64164912161E+03  0.64164912161E+03  0.25500000920E-02 0.  1.
       -2   -1    0    0    0  501  0.00000000000E+00  0.00000000000E+00 -0.56086340792E+03  0.56086340793E+03  0.25500000920E-02 0. -1.
    10030    2    1    2    0    0  0.00000000000E+00  0.00000000000E+00  0.80785713682E+02  0.12025125295E+04  0.11997958377E+04 0.  0.
        5    1    3    3  502    0 -0.54028411384E+03  0.23155968479E+03 -0.79580363635E+02  0.59319637184E+03  0.46999998093E+01 0. -1.
       -5    1    3    3    0  502  0.54028411384E+03 -0.23155968479E+03  0.16036607732E+03  0.60931615770E+03  0.46999998093E+01 0.  1.
</event>
<event>
 5   0  0.3839750E-05  0.1200740E+04  0.7818609E-02  0.9112209E-01
       -3   -1    0    0    0  501  0.00000000000E+00  0.00000000000E+00  0.93001279866E+03  0.93001280415E+03  0.10100000352E+00 0.  1.
        3   -1    0    0  501    0  0.00000000000E+00  0.00000000000E+00 -0.38756915263E+03  0.38756916579E+03  0.10100000352E+00 0. -1.
    10030    2    1    2    0    0  0.00000000000E+00  0.00000000000E+00  0.54244364603E+03  0.13175819699E+04  0.12007402460E+04 0.  0.
        5    1    3    3  502    0 -0.73260259394E+02 -0.12955645641E+03 -0.36698358547E+03  0.39604416800E+03  0.46999998093E+01 0. -1.
       -5    1    3    3    0  502  0.73260259394E+02  0.12955645641E+03  0.90942723150E+03  0.92153780194E+03  0.46999998093E+01 0.  1.
</event>
<event>
 5   0  0.3839750E-05  0.1199271E+04  0.7818609E-02  0.9113495E-01
        3   -1    0    0  501    0  0.00000000000E+00  0.00000000000E+00  0.90112413391E+03  0.90112413957E+03  0.10100000352E+00 0.  1.
       -3   -1    0    0    0  501  0.00000000000E+00  0.00000000000E+00 -0.39901563112E+03  0.39901564390E+03  0.10100000352E+00 0. -1.
    10030    2    1    2    0    0  0.00000000000E+00  0.00000000000E+00  0.50210850279E+03  0.13001397835E+04  0.11992708235E+04 0.  0.
        4    1    3    3  502    0  0.22821392443E+03  0.14506386847E+03 -0.32915747050E+03  0.42599457100E+03  0.12699999809E+01 0. -1.
       -4    1    3    3    0  502 -0.22821392443E+03 -0.14506386847E+03  0.83126597329E+03  0.87414521247E+03  0.12699999809E+01 0.  1.
</event>
<event>
 5   0  0.1004006E-04  0.1199644E+04  0.7818609E-02  0.9113168E-01
       -2   -1    0    0    0  501  0.00000000000E+00  0.00000000000E+00  0.24879627968E+03  0.24879627969E+03  0.25500000920E-02 0.  1.
        2   -1    0    0  501    0  0.00000000000E+00  0.00000000000E+00 -0.14461087879E+04  0.14461087879E+04  0.25500000920E-02 0. -1.
    10030    2    1    2    0    0  0.00000000000E+00  0.00000000000E+00 -0.11973125082E+04  0.16949050676E+04  0.11996440913E+04 0.  0.
        5    1    3    3  502    0  0.52383090835E+03 -0.15810916029E+03 -0.25152556923E+03  0.60223295251E+03  0.46999998093E+01 0.  1.
       -5    1    3    3    0  502 -0.52383090835E+03  0.15810916029E+03 -0.94578693897E+03  0.10926721151E+04  0.46999998093E+01 0. -1.
</event>
<event>
 5   0  0.1012657E-04  0.1201331E+04  0.7818609E-02  0.9111693E-01
        2   -1    0    0  501    0  0.00000000000E+00  0.00000000000E+00  0.95393562921E+03  0.95393562921E+03  0.25500000920E-02 0. -1.
       -2   -1    0    0    0  501  0.00000000000E+00  0.00000000000E+00 -0.37822132612E+03  0.37822132612E+03  0.25500000920E-02 0.  1.
    10030    2    1    2    0    0  0.00000000000E+00  0.00000000000E+00  0.57571430309E+03  0.13321569553E+04  0.12013305935E+04 0.  0.
        1    1    3    3  502    0 -0.72826415499E+02  0.58337530881E+03  0.15128498875E+03  0.60705649290E+03  0.50400001928E-02 0.  1.
       -1    1    3    3    0  502  0.72826415499E+02 -0.58337530881E+03  0.42442931434E+03  0.72510046244E+03  0.50400001928E-02 0. -1.
</event>
<event>
 5   0  0.5732931E-05  0.1200254E+04  0.7818609E-02  0.9112634E-01
       -1   -1    0    0    0  501  0.00000000000E+00  0.00000000000E+00  0.21114688768E+03  0.21114688774E+03  0.50400001928E-02 0.  1.
        1   -1    0    0  501    0  0.00000000000E+00  0.00000000000E+00 -0.17056958232E+04  0.17056958232E+04  0.50400001928E-02 0. -1.
    10030    2    1    2    0    0  0.00000000000E+00  0.00000000000E+00 -0.14945489355E+04  0.19168427109E+04  0.12002539139E+04 0.  0.
        4    1    3    3  502    0 -0.75551710925E+02  0.26397992750E+03  0.10494366650E+03  0.29395280095E+03  0.12699999809E+01 0.  1.
       -4    1    3    3    0  502  0.75551710925E+02 -0.26397992750E+03 -0.15994926020E+04  0.16228899100E+04  0.12699999809E+01 0. -1.
</event>
<event>
 5   0  0.5625746E-05  0.1203286E+04  0.7818609E-02  0.9109985E-01
        1   -1    0    0  501    0  0.00000000000E+00  0.00000000000E+00  0.70414738734E+03  0.70414738736E+03  0.50400001928E-02 0. -1.
       -1   -1    0    0    0  501  0.00000000000E+00  0.00000000000E+00 -0.51406035941E+03  0.51406035943E+03  0.50400001928E-02 0.  1.
    10030    2    1    2    0    0  0.00000000000E+00  0.00000000000E+00  0.19008702793E+03  0.12182077468E+04  0.12032859328E+04 0.  0.
        5    1    3    3  502    0  0.46390274179E+03  0.26229803285E+03  0.37769408799E+03  0.65320817966E+03  0.46999998093E+01 0. -1.
       -5    1    3    3    0  502 -0.46390274179E+03 -0.26229803285E+03 -0.18760706006E+03  0.56499956713E+03  0.46999998093E+01 0.  1.
</event>
<event>
 5   0  0.1004006E-04  0.1200272E+04  0.7818609E-02  0.9112619E-01
        2   -1    0    0  501    0  0.00000000000E+00  0.00000000000E+00  0.47324791068E+03  0.47324791068E+03  0.25500000920E-02 0. -1.
       -2   -1    0    0    0  501  0.00000000000E+00  0.00000000000E+00 -0.76104532332E+03  0.76104532333E+03  0.25500000920E-02 0.  1.
    10030    2    1    2    0    0  0.00000000000E+00  0.00000000000E+00 -0.28779741265E+03  0.12342932340E+04  0.12002718179E+04 0.  0.
        5    1    3    3  502    0  0.18221274552E+03  0.95514633224E+02  0.43583286538E+03  0.48197189372E+03  0.46999998093E+01 0. -1.
       -5    1    3    3    0  502 -0.18221274552E+03 -0.95514633224E+02 -0.72363027802E+03  0.75232134029E+03  0.46999998093E+01 0.  1.
</event>
<event>
 5   0  0.9941209E-05  0.1199979E+04  0.7818609E-02  0.9112875E-01
       -2   -1    0    0    0  501  0.00000000000E+00  0.00000000000E+00  0.38613818467E+03  0.38613818468E+03  0.25500000920E-02 0.  1.
        2   -1    0    0  501    0  0.00000000000E+00  0.00000000000E+00 -0.93227585001E+03  0.93227585001E+03  0.25500000920E-02 0. -1.
    10030    2    1    2    0    0  0.00000000000E+00  0.00000000000E+00 -0.54613766534E+03  0.13184140347E+04  0.11999788404E+04 0.  0.
        2    1    3    3  502    0  0.33474968427E+03  0.49594369379E+03 -0.22430588654E+03  0.63900753460E+03  0.25500000920E-02 0.  1.
       -2    1    3    3    0  502 -0.33474968427E+03 -0.49594369379E+03 -0.32183177880E+03  0.67940650010E+03  0.25500000920E-02 0. -1.
</event>
<event>
 5   0  0.1023063E-04  0.1200623E+04  0.7818609E-02  0.9112311E-01
       -2   -1    0    0    0  501  0.00000000000E+00  0.00000000000E+00  0.74767671023E+03  0.74767671024E+03  0.25500000920E-02 0. -1.
        2   -1    0    0  501    0  0.00000000000E+00  0.00000000000E+00 -0.48199182675E+03  0.48199182675E+03  0.25500000920E-02 0.  1.
    10030    2    1    2    0    0  0.00000000000E+00  0.00000000000E+00  0.26568488349E+03  0.12296685370E+04  0.12006232771E+04 0.  0.
        3    1    3    3  502    0 -0.38356463870E+03 -0.45951697788E+03  0.17973620431E+03  0.62496623778E+03  0.10100000352E+00 0.  1.
       -3    1    3    3    0  502  0.38356463870E+03  0.45951697788E+03  0.85948679175E+02  0.60470229921E+03  0.10100000352E+00 0. -1.
</event>
<event>
 5   0  0.5620246E-05  0.1200235E+04  0.7818609E-02  0.9112651E-01
       -1   -1    0    0    0  501  0.00000000000E+00  0.00000000000E+00  0.34383575518E+03  0.34383575522E+03  0.50400001928E-02 0. -1.
        1   -1    0    0  501    0  0.00000000000E+00  0.00000000000E+00 -0.10474209158E+04  0.10474209158E+04  0.50400001928E-02 0.  1.
    10030    2    1    2    0    0  0.00000000000E+00  0.00000000000E+00 -0.70358516064E+03  0.13912566711E+04  0.12002345798E+04 0.  0.
        1    1    3    3  502    0  0.43148090913E+03  0.22192358213E+03 -0.76114778282E+03  0.90264710633E+03  0.50400001928E-02 0.  1.
       -1    1    3    3    0  502 -0.43148090913E+03 -0.22192358213E+03  0.57562622171E+02  0.48860956473E+03  0.50400001928E-02 0. -1.
</event>
<event>
 5   0  0.1023063E-04  0.1200349E+04  0.7818609E-02  0.9112551E-01
        2   -1    0    0  501    0  0.00000000000E+00  0.00000000000E+00  0.61744756987E+03  0.61744756987E+03  0.25500000920E-02 0. -1.
       -2   -1    0    0    0  501  0.00000000000E+00  0.00000000000E+00 -0.58338506704E+03  0.58338506705E+03  0.25500000920E-02 0.  1.
    10030    2    1    2    0    0  0.00000000000E+00  0.00000000000E+00  0.34062502827E+02  0.12008326369E+04  0.12003494357E+04 0.  0.
        3    1    3    3  502    0  0.23654965629E+03 -0.54639965556E+03  0.92568986049E+02  0.60255900198E+03  0.10100000352E+00 0.  1.
       -3    1    3    3    0  502 -0.23654965629E+03  0.54639965556E+03 -0.58506483222E+02  0.59827363494E+03  0.10100000352E+00 0. -1.
</event>
<event>
 5   0  0.1004006E-04  0.1199949E+04  0.7818609E-02  0.9112901E-01
        2   -1    0    0  501    0  0.00000000000E+00  0.00000000000E+00  0.90056733948E+03  0.90056733948E+03  0.25500000920E-02 0. -1.
       -2   -1    0    0    0  501  0.00000000000E+00  0.00000000000E+00 -0.39971379619E+03  0.39971379620E+03  0.25500000920E-02 0.  1.
    10030    2    1    2    0    0  0.00000000000E+00  0.00000000000E+00  0.50085354329E+03  0.13002811357E+04  0.11999486489E+04 0.  0.
        5    1    3    3  502    0  0.12521623523E+03 -0.41192806713E+03  0.70319495696E+03  0.82454173670E+03  0.46999998093E+01 0. -1.
       -5    1    3    3    0  502 -0.12521623523E+03  0.41192806713E+03 -0.20234141367E+03  0.47573939898E+03  0.46999998093E+01 0.  1.
</event>
<event>
 5   0  0.5620246E-05  0.1198611E+04  0.7818609E-02  0.9114073E-01
       -1   -1    0    0    0  501  0.00000000000E+00  0.00000000000E+00  0.40366023338E+03  0.40366023341E+03  0.50400001928E-02 0. -1.
        1   -1    0    0  501    0  0.00000000000E+00  0.00000000000E+00 -0.88977574983E+03  0.88977574985E+03  0.50400001928E-02 0.  1.
    10030    2    1    2    0    0  0.00000000000E+00  0.00000000000E+00 -0.48611551646E+03  0.12934359833E+04  0.11986110076E+04 0.  0.
        1    1    3    3  502    0 -0.10329054149E+03  0.43997730850E+00 -0.88009789427E+03  0.88613849542E+03  0.50400001928E-02 0.  1.
       -1    1    3    3    0  502  0.10329054149E+03 -0.43997730850E+00  0.39398237781E+03  0.40729748783E+03  0.50400001928E-02 0. -1.
</event>
<event>
 5   0  0.5447807E-05  0.1199994E+04  0.7818609E-02  0.9112862E-01
       -1   -1    0    0    0  501  0.00000000000E+00  0.00000000000E+00  0.50692964623E+03  0.50692964625E+03  0.50400001928E-02 0.  1.
        1   -1    0    0  501    0  0.00000000000E+00  0.00000000000E+00 -0.71015099218E+03  0.71015099220E+03  0.50400001928E-02 0. -1.
    10030    2    1    2    0    0  0.00000000000E+00  0.00000000000E+00 -0.20322134596E+03  0.12170806385E+04  0.11999943188E+04 0.  0.
        2    1    3    3  502    0 -0.53685292321E+03 -0.26664713560E+03 -0.75068700697E+02  0.60410848853E+03  0.25500000920E-02 0.  1.
       -2    1    3    3    0  502  0.53685292321E+03  0.26664713560E+03 -0.12815264526E+03  0.61297214992E+03  0.25500000920E-02 0. -1.
</event>
<event>
 5   0  0.9838215E-05  0.1200155E+04  0.7818609E-02  0.9112721E-01
        2   -1    0    0  501    0  0.00000000000E+00  0.00000000000E+00  0.11871968567E+04  0.11871968567E+04  0.25500000920E-02 0.  1.
       -2   -1    0    0    0  501  0.00000000000E+00  0.00000000000E+00 -0.30331357649E+03  0.30331357650E+03  0.25500000920E-02 0. -1.
    10030    2    1    2    0    0  0.00000000000E+00  0.00000000000E+00  0.88388328024E+03  0.14905104332E+04  0.12001548644E+04 0.  0.
        4    1    3    3  502    0 -0.29452152202E+03 -0.13592689669E+03 -0.18504605630E+03  0.37344705653E+03  0.12699999809E+01 0. -1.
       -4    1    3    3    0  502  0.29452152202E+03  0.13592689669E+03  0.10689293365E+04  0.11170633767E+04  0.12699999809E+01 0.  1.
</event>
<event>
 5   0  0.9838215E-05  0.1200155E+04  0.7818609E-02  0.9112721E-01
        2   -1    0    0  501    0  0.00000000000E+00  0.00000000000E+00  0.59497176818E+03  0.59497176818E+03  0.25500000920E-02 0. -1.
       -2   -1    0    0    0  501  0.00000000000E+00  0.00000000000E+00 -0.60522714037E+03  0.60522714038E+03  0.25500000920E-02 0.  1.
    10030    2    1    2    0    0  0.00000000000E+00  0.00000000000E+00 -0.10255372199E+02  0.12001989086E+04  0.12001550931E+04 0.  0.
        4    1    3    3  502    0 -0.49221337111E+02  0.42798937881E+03  0.41261211533E+03  0.59652998166E+03  0.12699999809E+01 0. -1.
       -4    1    3    3    0  502  0.49221337111E+02 -0.42798937881E+03 -0.42286748753E+03  0.60366892690E+03  0.12699999809E+01 0.  1.
</event>
<event>
 5   0  0.9941209E-05  0.1200133E+04  0.7818609E-02  0.9112740E-01
       -2   -1    0    0    0  501  0.00000000000E+00  0.00000000000E+00  0.16972264918E+03  0.16972264920E+03  0.25500000920E-02 0. -1.
        2   -1    0    0  501    0  0.00000000000E+00  0.00000000000E+00 -0.21215781765E+04  0.21215781765E+04  0.25500000920E-02 0.  1.
    10030    2    1    2    0    0  0.00000000000E+00  0.00000000000E+00 -0.19518555273E+04  0.22913008257E+04  0.12001331069E+04 0.  0.
        2    1    3    3  502    0 -0.57634970964E+03  0.13170770962E+03 -0.11720651651E+04  0.13127309929E+04  0.25500000920E-02 0.  1.
       -2    1    3    3    0  502  0.57634970964E+03 -0.13170770962E+03 -0.77979036226E+03  0.97856983279E+03  0.25500000920E-02 0. -1.
</event>
<event>
 5   0  0.1012657E-04  0.1200098E+04  0.7818609E-02  0.9112771E-01
       -2   -1    0    0    0  501  0.00000000000E+00  0.00000000000E+00  0.12184146614E+04  0.12184146614E+04  0.25500000920E-02 0.  1.
        2   -1    0    0  501    0  0.00000000000E+00  0.00000000000E+00 -0.29551418118E+03  0.29551418120E+03  0.25500000920E-02 0. -1.
    10030    2    1    2    0    0  0.00000000000E+00  0.00000000000E+00  0.92290048020E+03  0.15139288426E+04  0.12000980144E+04 0.  0.
        1    1    3    3  502    0 -0.44784278949E+03  0.36751357044E+03  0.65862228723E+03  0.87716173299E+03  0.50400001928E-02 0. -1.
       -1    1    3    3    0  502  0.44784278949E+03 -0.36751357044E+03  0.26427819298E+03  0.63676710960E+03  0.50400001928E-02 0.  1.
</event>
<event>
 5   0  0.9838215E-05  0.1200270E+04  0.7818609E-02  0.9112620E-01
        2   -1    0    0  501    0  0.00000000000E+00  0.00000000000E+00  0.14764308270E+04  0.14764308270E+04  0.25500000920E-02 0.  1.
       -2   -1    0    0    0  501  0.00000000000E+00  0.00000000000E+00 -0.24394090065E+03  0.24394090066E+03  0.25500000920E-02 0. -1.
    10030    2    1    2    0    0  0.00000000000E+00  0.00000000000E+00  0.12324899264E+04  0.17203717277E+04  0.12002697458E+04 0.  0.
        4    1    3    3  502    0  0.37805974945E+03  0.20388540010E+03  0.12169788480E+04  0.12905570735E+04  0.12699999809E+01 0.  1.
       -4    1    3    3    0  502 -0.37805974945E+03 -0.20388540010E+03  0.15511078390E+02  0.42981465422E+03  0.12699999809E+01 0. -1.
</event>
<event>
 5   0  0.1023063E-04  0.1201068E+04  0.7818609E-02  0.9111922E-01
       -2   -1    0    0    0  501  0.00000000000E+00  0.00000000000E+00  0.13499310986E+03  0.13499310989E+03  0.25500000920E-02 0.  1.
        2   -1    0    0  501    0  0.00000000000E+00  0.00000000000E+00 -0.26715514291E+04  0.26715514291E+04  0.25500000920E-02 0. -1.
    10030    2    1    2    0    0  0.00000000000E+00  0.00000000000E+00 -0.25365583192E+04  0.28065445390E+04  0.12010679175E+04 0.  0.
        3    1    3    3  502    0 -0.16911181621E+03 -0.86317300695E+02  0.63011767571E+02  0.20004993335E+03  0.10100000352E+00 0.  1.
       -3    1    3    3    0  502  0.16911181621E+03  0.86317300695E+02 -0.25995700868E+04  0.26064946056E+04  0.10100000352E+00 0. -1.
</event>
<event>
 5   0  0.5620246E-05  0.1200000E+04  0.7818609E-02  0.9112857E-01
       -1   -1    0    0    0  501  0.00000000000E+00  0.00000000000E+00  0.33869125550E+03  0.33869125554E+03  0.50400001928E-02 0. -1.
        1   -1    0    0  501    0  0.00000000000E+00  0.00000000000E+00 -0.10629146343E+04  0.10629146343E+04  0.50400001928E-02 0.  1.
    10030    2    1    2    0    0  0.00000000000E+00  0.00000000000E+00 -0.72422337881E+03  0.14016058899E+04  0.11999998200E+04 0.  0.
        1    1    3    3  502    0 -0.14463078490E+03 -0.44849368543E+03 -0.79590450377E+03  0.92494790607E+03  0.50400001928E-02 0. -1.
       -1    1    3    3    0  502  0.14463078490E+03  0.44849368543E+03  0.71681124959E+02  0.47665798379E+03  0.50400001928E-02 0.  1.
</event>
<event>
 5   0  0.5620246E-05  0.1199260E+04  0.7818609E-02  0.9113504E-01
       -1   -1    0    0    0  501  0.00000000000E+00  0.00000000000E+00  0.70323759378E+03  0.70323759380E+03  0.50400001928E-02 0.  1.
        1   -1    0    0  501    0  0.00000000000E+00  0.00000000000E+00 -0.51128715212E+03  0.51128715215E+03  0.50400001928E-02 0. -1.
    10030    2    1    2    0    0  0.00000000000E+00  0.00000000000E+00  0.19195044166E+03  0.12145247460E+04  0.11992603497E+04 0.  0.
        1    1    3    3  502    0  0.31715622242E+03 -0.33484947561E+03 -0.29210468158E+03  0.54592800419E+03  0.50400001928E-02 0. -1.
       -1    1    3    3    0  502 -0.31715622242E+03  0.33484947561E+03  0.48405512324E+03  0.66859674176E+03  0.50400001928E-02 0.  1.
</event>
<event>
 5   0  0.5732931E-05  0.1199574E+04  0.7818609E-02  0.9113230E-01
       -1   -1    0    0    0  501  0.00000000000E+00  0.00000000000E+00  0.66034177755E+03  0.66034177757E+03  0.50400001928E-02 0.  1.
        1   -1    0    0  501    0  0.00000000000E+00  0.00000000000E+00 -0.54478501271E+03  0.54478501274E+03  0.50400001928E-02 0. -1.
    10030    2    1    2    0    0  0.00000000000E+00  0.00000000000E+00  0.11555676483E+03  0.12051267903E+04  0.11995737638E+04 0.  0.
        4    1    3    3  502    0  0.24619872088E+03  0.53477605952E+03 -0.57397200319E+02  0.59151948024E+03  0.12699999809E+01 0.  1.
       -4    1    3    3    0  502 -0.24619872088E+03 -0.53477605952E+03  0.17295396515E+03  0.61360731006E+03  0.12699999809E+01 0. -1.
</event>
<event>
 5   0  0.5620246E-05  0.1199067E+04  0.7818609E-02  0.9113673E-01
        1   -1    0    0  501    0  0.00000000000E+00  0.00000000000E+00  0.66172114199E+03  0.66172114201E+03  0.50400001928E-02 0.  1.
       -1   -1    0    0    0  501  0.00000000000E+00  0.00000000000E+00 -0.54319055512E+03  0.54319055514E+03  0.50400001928E-02 0. -1.
    10030    2    1    2    0    0  0.00000000000E+00  0.00000000000E+00  0.11853058688E+03  0.12049116972E+04  0.11990674284E+04 0.  0.
        1    1    3    3  502    0  0.20469456550E+03  0.25890843784E+03 -0.44368115653E+03  0.55297957739E+03  0.50400001928E-02 0. -1.
       -1    1    3    3    0  502 -0.20469456550E+03 -0.25890843784E+03  0.56221174340E+03  0.65193211976E+03  0.50400001928E-02 0.  1.
</event>
<event>
 5   0  0.1012657E-04  0.1198971E+04  0.7818609E-02  0.9113758E-01
       -2   -1    0    0    0  501  0.00000000000E+00  0.00000000000E+00  0.20737971761E+03  0.20737971762E+03  0.25500000920E-02 0.  1.
        2   -1    0    0  501    0  0.00000000000E+00  0.00000000000E+00 -0.17329704692E+04  0.17329704692E+04  0.25500000920E-02 0. -1.
    10030    2    1    2    0    0  0.00000000000E+00  0.00000000000E+00 -0.15255907515E+04  0.19403501868E+04  0.11989711031E+04 0.  0.
        1    1    3    3  502    0 -0.22185935611E+02 -0.80784269932E+02 -0.17234505888E+04  0.17254855102E+04  0.50400001928E-02 0. -1.
       -1    1    3    3    0  502  0.22185935611E+02  0.80784269932E+02  0.19785983724E+03  0.21486467655E+03  0.50400001928E-02 0.  1.
</event>
<event>
 5   0  0.9838215E-05  0.1200855E+04  0.7818609E-02  0.9112109E-01
        2   -1    0    0  501    0  0.00000000000E+00  0.00000000000E+00  0.90945372397E+03  0.90945372397E+03  0.25500000920E-02 0.  1.
       -2   -1    0    0    0  501  0.00000000000E+00  0.00000000000E+00 -0.39640619644E+03  0.39640619644E+03  0.25500000920E-02 0. -1.
    10030    2    1    2    0    0  0.00000000000E+00  0.00000000000E+00  0.51304752753E+03  0.13058599204E+04  0.12008548481E+04 0.  0.
        4    1    3    3  502    0  0.58091669339E+03 -0.19173670098E+02  0.42028993560E+03  0.71727057457E+03  0.12699999809E+01 0. -1.
       -4    1    3    3    0  502 -0.58091669339E+03  0.19173670098E+02  0.92757591930E+02  0.58858934584E+03  0.12699999809E+01 0.  1.
</event>
<event>
 5   0  0.9941209E-05  0.1201953E+04  0.7818609E-02  0.9111149E-01
       -2   -1    0    0    0  501  0.00000000000E+00  0.00000000000E+00  0.24222472840E+03  0.24222472842E+03  0.25500000920E-02 0. -1.
        2   -1    0    0  501    0  0.00000000000E+00  0.00000000000E+00 -0.14910640632E+04  0.14910640632E+04  0.25500000920E-02 0.  1.
    10030    2    1    2    0    0  0.00000000000E+00  0.00000000000E+00 -0.12488393348E+04  0.17332887916E+04  0.12019527241E+04 0.  0.
        2    1    3    3  502    0 -0.15266462728E+03  0.10980582579E+03  0.19870370649E+03  0.27358174424E+03  0.25500000920E-02 0. -1.
       -2    1    3    3    0  502  0.15266462728E+03 -0.10980582579E+03 -0.14475430413E+04  0.14597070474E+04  0.25500000920E-02 0.  1.
</event>
<event>
 5   0  0.5625746E-05  0.1200838E+04  0.7818609E-02  0.9112124E-01
       -1   -1    0    0    0  501  0.00000000000E+00  0.00000000000E+00  0.37323361185E+03  0.37323361188E+03  0.50400001928E-02 0. -1.
        1   -1    0    0  501    0  0.00000000000E+00  0.00000000000E+00 -0.96589048900E+03  0.96589048901E+03  0.50400001928E-02 0.  1.
    10030    2    1    2    0    0  0.00000000000E+00  0.00000000000E+00 -0.59265687715E+03  0.13391241009E+04  0.12008377008E+04 0.  0.
        5    1    3    3  502    0 -0.42042720247E+03 -0.25708081657E+03 -0.67879867220E+03  0.83883210847E+03  0.46999998093E+01 0.  1.
       -5    1    3    3    0  502  0.42042720247E+03  0.25708081657E+03  0.86141795049E+02  0.50029199242E+03  0.46999998093E+01 0. -1.
</event>
<event>
 5   0  0.5745487E-05  0.1200010E+04  0.7818609E-02  0.9112848E-01
       -1   -1    0    0    0  501  0.00000000000E+00  0.00000000000E+00  0.45927873328E+03  0.45927873331E+03  0.50400001928E-02 0.  1.
        1   -1    0    0  501    0  0.00000000000E+00  0.00000000000E+00 -0.78385111579E+03  0.78385111580E+03  0.50400001928E-02 0. -1.
    10030    2    1    2    0    0  0.00000000000E+00  0.00000000000E+00 -0.32457238250E+03  0.12431298491E+04  0.12000102459E+04 0.  0.
        3    1    3    3  502    0  0.26094945179E+03 -0.28921029221E+03 -0.63504951911E+03  0.74500007479E+03  0.10100000352E+00 0. -1.
       -3    1    3    3    0  502 -0.26094945179E+03  0.28921029221E+03  0.31047713661E+03  0.49812977432E+03  0.10100000352E+00 0.  1.
</event>
<event>
 5   0  0.1012657E-04  0.1199769E+04  0.7818609E-02  0.9113059E-01
        2   -1    0    0  501    0  0.00000000000E+00  0.00000000000E+00  0.19634753087E+04  0.19634753087E+04  0.25500000920E-02 0. -1.
       -2   -1    0    0    0  501  0.00000000000E+00  0.00000000000E+00 -0.18327768934E+03  0.18327768936E+03  0.25500000920E-02 0.  1.
    10030    2    1    2    0    0  0.00000000000E+00  0.00000000000E+00  0.17801976194E+04  0.21467529981E+04  0.11997686738E+04 0.  0.
        1    1    3    3  502    0  0.29612164599E+03 -0.52124721505E+03  0.85112112428E+03  0.10410542045E+04  0.50400001928E-02 0. -1.
       -1    1    3    3    0  502 -0.29612164599E+03  0.52124721505E+03  0.92907649508E+03  0.11056987936E+04  0.50400001928E-02 0.  1.
</event>
<event>
 5   0  0.5732931E-05  0.1200006E+04  0.7818609E-02  0.9112852E-01
       -1   -1    0    0    0  501  0.00000000000E+00  0.00000000000E+00  0.48579719001E+03  0.48579719004E+03  0.50400001928E-02 0. -1.
        1   -1    0    0  501    0  0.00000000000E+00  0.00000000000E+00 -0.74105680558E+03  0.74105680559E+03  0.50400001928E-02 0.  1.
    10030    2    1    2    0    0  0.00000000000E+00  0.00000000000E+00 -0.25525961556E+03  0.12268539956E+04  0.12000055230E+04 0.  0.
        4    1    3    3  502    0  0.45517419929E+03  0.20773627125E+03 -0.46619418734E+03  0.68386880562E+03  0.12699999809E+01 0.  1.
       -4    1    3    3    0  502 -0.45517419929E+03 -0.20773627125E+03  0.21093457178E+03  0.54298519001E+03  0.12699999809E+01 0. -1.
</event>
<event>
 5   0  0.5745487E-05  0.1200330E+04  0.7818609E-02  0.9112568E-01
       -1   -1    0    0    0  501  0.00000000000E+00  0.00000000000E+00  0.85165631899E+03  0.85165631900E+03  0.50400001928E-02 0.  1.
        1   -1    0    0  501    0  0.00000000000E+00  0.00000000000E+00 -0.42293797204E+03  0.42293797207E+03  0.50400001928E-02 0. -1.
    10030    2    1    2    0    0  0.00000000000E+00  0.00000000000E+00  0.42871834695E+03  0.12745942911E+04  0.12003296155E+04 0.  0.
        3    1    3    3  502    0 -0.57043001834E+03 -0.26209556003E+02  0.18213489454E+02  0.57132222786E+03  0.10100000352E+00 0. -1.
       -3    1    3    3    0  502  0.57043001834E+03  0.26209556003E+02  0.41050485750E+03  0.70327206320E+03  0.10100000352E+00 0.  1.
</event>
<event>
 5   0  0.5620246E-05  0.1199469E+04  0.7818609E-02  0.9113321E-01
       -1   -1    0    0    0  501  0.00000000000E+00  0.00000000000E+00  0.56611324488E+03  0.56611324490E+03  0.50400001928E-02 0. -1.
        1   -1    0    0  501    0  0.00000000000E+00  0.00000000000E+00 -0.63535269055E+03  0.63535269057E+03  0.50400001928E-02 0.  1.
    10030    2    1    2    0    0  0.00000000000E+00  0.00000000000E+00 -0.69239445668E+02  0.12014659355E+04  0.11994691714E+04 0.  0.
        1    1    3    3  502    0 -0.28676664804E+03  0.36223595060E+03  0.34841924319E+03  0.57865876247E+03  0.50400001928E-02 0. -1.
       -1    1    3    3    0  502  0.28676664804E+03 -0.36223595060E+03 -0.41765868886E+03  0.62280717300E+03  0.50400001928E-02 0.  1.
</event>
<event>
 5   0  0.3839750E-05  0.1200186E+04  0.7818609E-02  0.9112694E-01
       -3   -1    0    0    0  501  0.00000000000E+00  0.00000000000E+00  0.12286569523E+04  0.12286569564E+04  0.10100000352E+00 0. -1.
        3   -1    0    0  501    0  0.00000000000E+00  0.00000000000E+00 -0.29309368937E+03  0.29309370678E+03  0.10100000352E+00 0.  1.
    10030    2    1    2    0    0  0.00000000000E+00  0.00000000000E+00  0.93556326291E+03  0.15217506632E+04  0.12001860114E+04 0.  0.
        3    1    3    3  502    0  0.16549115204E+03  0.33300836264E+03  0.10649610052E+04  0.11280176612E+04  0.10100000352E+00 0. -1.
       -3    1    3    3    0  502 -0.16549115204E+03 -0.33300836264E+03 -0.12939774233E+03  0.39373300206E+03  0.10100000352E+00 0.  1.
</event>
<event>
 5   0  0.5625746E-05  0.1198785E+04  0.7818609E-02  0.9113921E-01
        1   -1    0    0  501    0  0.00000000000E+00  0.00000000000E+00  0.10393512454E+04  0.10393512454E+04  0.50400001928E-02 0.  1.
       -1   -1    0    0    0  501  0.00000000000E+00  0.00000000000E+00 -0.34566885181E+03  0.34566885185E+03  0.50400001928E-02 0. -1.
    10030    2    1    2    0    0  0.00000000000E+00  0.00000000000E+00  0.69368239359E+03  0.13850200973E+04  0.11987849710E+04 0.  0.
        5    1    3    3  502    0  0.90131525837E+02  0.64489184040E+02  0.10273890882E+04  0.10333600415E+04  0.46999998093E+01 0.  1.
       -5    1    3    3    0  502 -0.90131525837E+02 -0.64489184040E+02 -0.33370669460E+03  0.35166005577E+03  0.46999998093E+01 0. -1.
</event>
<event>
 5   0  0.5745487E-05  0.1200148E+04  0.7818609E-02  0.9112727E-01
        1   -1    0    0  501    0  0.00000000000E+00  0.00000000000E+00  0.12630265267E+04  0.12630265267E+04  0.50400001928E-02 0.  1.
       -1   -1    0    0    0  501  0.00000000000E+00  0.00000000000E+00 -0.28509983686E+03  0.28509983690E+03  0.50400001928E-02 0. -1.
    10030    2    1    2    0    0  0.00000000000E+00  0.00000000000E+00  0.97792668986E+03  0.15481263636E+04  0.12001477522E+04 0.  0.
        3    1    3    3  502    0 -0.18930679494E+03  0.20199624167E+03 -0.19780336214E+03  0.34024362527E+03  0.10100000352E+00 0. -1.
       -3    1    3    3    0  502  0.18930679494E+03 -0.20199624167E+03  0.11757300520E+04  0.12078827384E+04  0.10100000352E+00 0.  1.
</event>
<event>
 5   0  0.9838215E-05  0.1199937E+04  0.7818609E-02  0.9112911E-01
        2   -1    0    0  501    0  0.00000000000E+00  0.00000000000E+00  0.11128724860E+04  0.11128724860E+04  0.25500000920E-02 0.  1.
       -2   -1    0    0    0  501  0.00000000000E+00  0.00000000000E+00 -0.32345341729E+03  0.32345341730E+03  0.25500000920E-02 0. -1.
    10030    2    1    2    0    0  0.00000000000E+00  0.00000000000E+00  0.78941906870E+03  0.14363259033E+04  0.11999373461E+04 0.  0.
        4    1    3    3  502    0 -0.15990606861E+03 -0.10324375090E+03  0.10757720076E+04  0.10924816924E+04  0.12699999809E+01 0.  1.
       -4    1    3    3    0  502  0.15990606861E+03  0.10324375090E+03 -0.28635293891E+03  0.34384421094E+03  0.12699999809E+01 0. -1.
</event>
<event>
 5   0  0.1012657E-04  0.1199793E+04  0.7818609E-02  0.9113037E-01
        2   -1    0    0  501    0  0.00000000000E+00  0.00000000000E+00  0.12839645753E+04  0.12839645753E+04  0.25500000920E-02 0. -1.
       -2   -1    0    0    0  501  0.00000000000E+00  0.00000000000E+00 -0.28028503839E+03  0.28028503841E+03  0.25500000920E-02 0.  1.
    10030    2    1    2    0    0  0.00000000000E+00  0.00000000000E+00  0.10036795369E+04  0.15642496137E+04  0.11997934160E+04 0.  0.
        1    1    3    3  502    0  0.17259848042E+03  0.46807585509E+03  0.67486484396E+02  0.50342791655E+03  0.50400001928E-02 0.  1.
       -1    1    3    3    0  502 -0.17259848042E+03 -0.46807585509E+03  0.93619305250E+03  0.10608216971E+04  0.50400001928E-02 0. -1.
</event>
<event>
 5   0  0.5732931E-05  0.1199746E+04  0.7818609E-02  0.9113079E-01
        1   -1    0    0  501    0  0.00000000000E+00  0.00000000000E+00  0.94787553429E+03  0.94787553430E+03  0.50400001928E-02 0. -1.
       -1   -1    0    0    0  501  0.00000000000E+00  0.00000000000E+00 -0.37963616523E+03  0.37963616526E+03  0.50400001928E-02 0.  1.
    10030    2    1    2    0    0  0.00000000000E+00  0.00000000000E+00  0.56823936906E+03  0.13275116996E+04  0.11997463615E+04 0.  0.
        4    1    3    3  502    0  0.30101055229E+03  0.56397863857E+02 -0.28661885287E+03  0.41945208470E+03  0.12699999809E+01 0.  1.
       -4    1    3    3    0  502 -0.30101055229E+03 -0.56397863857E+02  0.85485822193E+03  0.90805961486E+03  0.12699999809E+01 0. -1.
</event>
<event>
 5   0  0.1004006E-04  0.1200429E+04  0.7818609E-02  0.9112481E-01
       -2   -1    0    0    0  501  0.00000000000E+00  0.00000000000E+00  0.19856914332E+03  0.19856914334E+03  0.25500000920E-02 0.  1.
        2   -1    0    0  501    0  0.00000000000E+00  0.00000000000E+00 -0.18142669622E+04  0.18142669622E+04  0.25500000920E-02 0. -1.
    10030    2    1    2    0    0  0.00000000000E+00  0.00000000000E+00 -0.16156978189E+04  0.20128361055E+04  0.12004289841E+04 0.  0.
        5    1    3    3  502    0  0.22818418602E+03 -0.38279673929E+03 -0.13372725986E+03  0.46530252137E+03  0.46999998093E+01 0.  1.
       -5    1    3    3    0  502 -0.22818418602E+03  0.38279673929E+03 -0.14819705590E+04  0.15475335842E+04  0.46999998093E+01 0. -1.
</event>
<event>
 5   0  0.5732931E-05  0.1198808E+04  0.7818609E-02  0.9113901E-01
       -1   -1    0    0    0  501  0.00000000000E+00  0.00000000000E+00  0.25402718852E+03  0.25402718857E+03  0.50400001928E-02 0.  1.
        1   -1    0    0  501    0  0.00000000000E+00  0.00000000000E+00 -0.14143559144E+04  0.14143559144E+04  0.50400001928E-02 0. -1.
    10030    2    1    2    0    0  0.00000000000E+00  0.00000000000E+00 -0.11603287259E+04  0.16683831030E+04  0.11988075017E+04 0.  0.
        4    1    3    3  502    0 -0.53507072800E+03  0.60073405739E+02 -0.94672337604E+03  0.10891263754E+04  0.12699999809E+01 0. -1.
       -4    1    3    3    0  502  0.53507072800E+03 -0.60073405739E+02 -0.21360534987E+03  0.57925672757E+03  0.12699999809E+01 0.  1.
</event>
<event>
 5   0  0.5620246E-05  0.1193511E+04  0.7818609E-02  0.9118555E-01
       -1   -1    0    0    0  501  0.00000000000E+00  0.00000000000E+00  0.23570617939E+03  0.23570617945E+03  0.50400001928E-02 0. -1.
        1   -1    0    0  501    0  0.00000000000E+00  0.00000000000E+00 -0.15108531155E+04  0.15108531155E+04  0.50400001928E-02 0.  1.
    10030    2    1    2    0    0  0.00000000000E+00  0.00000000000E+00 -0.12751469361E+04  0.17465592949E+04  0.11935114839E+04 0.  0.
        1    1    3    3  502    0 -0.68607368328E+02  0.56717333480E+03 -0.38527385261E+03  0.68907801026E+03  0.50400001928E-02 0. -1.
       -1    1    3    3    0  502  0.68607368328E+02 -0.56717333480E+03 -0.88987308346E+03  0.10574812847E+04  0.50400001928E-02 0.  1.
</event>
<event>
 5   0  0.5620246E-05  0.1199034E+04  0.7818609E-02  0.9113702E-01
       -1   -1    0    0    0  501  0.00000000000E+00  0.00000000000E+00  0.47967573710E+03  0.47967573713E+03  0.50400001928E-02 0. -1.
        1   -1    0    0  501    0  0.00000000000E+00  0.00000000000E+00 -0.74929972343E+03  0.74929972345E+03  0.50400001928E-02 0.  1.
    10030    2    1    2    0    0  0.00000000000E+00  0.00000000000E+00 -0.26962398633E+03  0.12289754606E+04  0.11990344402E+04 0.  0.
        1    1    3    3  502    0  0.30970523400E+03 -0.27646812949E+03 -0.57812696082E+03  0.71174626198E+03  0.50400001928E-02 0.  1.
       -1    1    3    3    0  502 -0.30970523400E+03  0.27646812949E+03  0.30850297449E+03  0.51722919860E+03  0.50400001928E-02 0. -1.
</event>
<event>
 5   0  0.5745487E-05  0.1200112E+04  0.7818609E-02  0.9112759E-01
        1   -1    0    0  501    0  0.00000000000E+00  0.00000000000E+00  0.77999494787E+03  0.77999494788E+03  0.50400001928E-02 0. -1.
       -1   -1    0    0    0  501  0.00000000000E+00  0.00000000000E+00 -0.46162741915E+03  0.46162741918E+03  0.50400001928E-02 0.  1.
    10030    2    1    2    0    0  0.00000000000E+00  0.00000000000E+00  0.31836752871E+03  0.12416223671E+04  0.12001117527E+04 0.  0.
        3    1    3    3  502    0 -0.10967884682E+03 -0.30211124392E+03 -0.36506441090E+03  0.48638738414E+03  0.10100000352E+00 0.  1.
       -3    1    3    3    0  502  0.10967884682E+03  0.30211124392E+03  0.68343193962E+03  0.75523498292E+03  0.10100000352E+00 0. -1.
</event>
<event>
 5   0  0.1004006E-04  0.1200263E+04  0.7818609E-02  0.9112626E-01
        2   -1    0    0  501    0  0.00000000000E+00  0.00000000000E+00  0.25538079914E+03  0.25538079915E+03  0.25500000920E-02 0.  1.
       -2   -1    0    0    0  501  0.00000000000E+00  0.00000000000E+00 -0.14102777207E+04  0.14102777207E+04  0.25500000920E-02 0. -1.
    10030    2    1    2    0    0  0.00000000000E+00  0.00000000000E+00 -0.11548969216E+04  0.16656585198E+04  0.12002630567E+04 0.  0.
        5    1    3    3  502    0 -0.22984282841E+03 -0.55060845169E+03 -0.66672227914E+03  0.89472793650E+03  0.46999998093E+01 0. -1.
       -5    1    3    3    0  502  0.22984282841E+03  0.55060845169E+03 -0.48817464241E+03  0.77093058334E+03  0.46999998093E+01 0.  1.
</event>
<event>
 5   0  0.1012657E-04  0.1199473E+04  0.7818609E-02  0.9113318E-01
        2   -1    0    0  501    0  0.00000000000E+00  0.00000000000E+00  0.16446960963E+04  0.16446960963E+04  0.25500000920E-02 0.  1.
       -2   -1    0    0    0  501  0.00000000000E+00  0.00000000000E+00 -0.21869336896E+03  0.21869336898E+03  0.25500000920E-02 0. -1.
    10030    2    1    2    0    0  0.00000000000E+00  0.00000000000E+00  0.14260027274E+04  0.18633894653E+04  0.11994734349E+04 0.  0.
        1    1    3    3  502    0  0.57459327110E+03 -0.16966571803E+03  0.67073436855E+03  0.89934891796E+03  0.50400001928E-02 0. -1.
       -1    1    3    3    0  502 -0.57459327110E+03  0.16966571803E+03  0.75526835881E+03  0.96404054734E+03  0.50400001928E-02 0.  1.
</event>
<event>
 5   0  0.5732931E-05  0.1197819E+04  0.7818609E-02  0.9114768E-01
        1   -1    0    0  501    0  0.00000000000E+00  0.00000000000E+00  0.62593607859E+03  0.62593607861E+03  0.50400001928E-02 0. -1.
       -1   -1    0    0    0  501  0.00000000000E+00  0.00000000000E+00 -0.57305005996E+03  0.57305005998E+03  0.50400001928E-02 0.  1.
    10030    2    1    2    0    0  0.00000000000E+00  0.00000000000E+00  0.52886018633E+02  0.11989861386E+04  0.11978191974E+04 0.  0.
        4    1    3    3  502    0 -0.58684042844E+03  0.70008161366E+02  0.12353370806E+03  0.60377563799E+03  0.12699999809E+01 0.  1.
       -4    1    3    3    0  502  0.58684042844E+03 -0.70008161366E+02 -0.70647689426E+02  0.59521050060E+03  0.12699999809E+01 0. -1.
</event>
<event>
 5   0  0.5745487E-05  0.1195980E+04  0.7818609E-02  0.9116382E-01
       -1   -1    0    0    0  501  0.00000000000E+00  0.00000000000E+00  0.84734047158E+03  0.84734047160E+03  0.50400001928E-02 0. -1.
        1   -1    0    0  501    0  0.00000000000E+00  0.00000000000E+00 -0.42201705291E+03  0.42201705294E+03  0.50400001928E-02 0.  1.
    10030    2    1    2    0    0  0.00000000000E+00  0.00000000000E+00  0.42532341867E+03  0.12693575245E+04  0.11959801481E+04 0.  0.
        3    1    3    3  502    0 -0.38809452402E+03  0.15809039451E+03 -0.24010494036E+03  0.48297031482E+03  0.10100000352E+00 0.  1.
       -3    1    3    3    0  502  0.38809452402E+03 -0.15809039451E+03  0.66542835903E+03  0.78638720972E+03  0.10100000352E+00 0. -1.
</event>
<event>
 5   0  0.1004006E-04  0.1200555E+04  0.7818609E-02  0.9112371E-01
        2   -1    0    0  501    0  0.00000000000E+00  0.00000000000E+00  0.13916391895E+04  0.13916391895E+04  0.25500000920E-02 0.  1.
       -2   -1    0    0    0  501  0.00000000000E+00  0.00000000000E+00 -0.25892704212E+03  0.25892704213E+03  0.25500000920E-02 0. -1.
    10030    2    1    2    0    0  0.00000000000E+00  0.00000000000E+00  0.11327121474E+04  0.16505662317E+04  0.12005549034E+04 0.  0.
        5    1    3    3  502    0  0.12943234157E+03  0.47631499801E+03  0.96728840922E+02  0.50299827737E+03  0.46999998093E+01 0.  1.
       -5    1    3    3    0  502 -0.12943234157E+03 -0.47631499801E+03  0.10359833065E+04  0.11475679543E+04  0.46999998093E+01 0. -1.
</event>
<event>
 5   0  0.5745487E-05  0.1199983E+04  0.7818609E-02  0.9112871E-01
        1   -1    0    0  501    0  0.00000000000E+00  0.00000000000E+00  0.15502606124E+04  0.15502606125E+04  0.50400001928E-02 0.  1.
       -1   -1    0    0    0  501  0.00000000000E+00  0.00000000000E+00 -0.23221255261E+03  0.23221255267E+03  0.50400001928E-02 0. -1.
    10030    2    1    2    0    0  0.00000000000E+00  0.00000000000E+00  0.13180480598E+04  0.17824731651E+04  0.11999832900E+04 0.  0.
        3    1    3    3  502    0  0.36212891967E+03  0.43200380504E+03  0.96425899853E+03  0.11169422852E+04  0.10100000352E+00 0. -1.
       -3    1    3    3    0  502 -0.36212891967E+03 -0.43200380504E+03  0.35378906131E+03  0.66553087992E+03  0.10100000352E+00 0.  1.
</event>
<event>
 5   0  0.5620246E-05  0.1199996E+04  0.7818609E-02  0.9112860E-01
       -1   -1    0    0    0  501  0.00000000000E+00  0.00000000000E+00  0.38594014801E+03  0.38594014804E+03  0.50400001928E-02 0.  1.
        1   -1    0    0  501    0  0.00000000000E+00  0.00000000000E+00 -0.93278071604E+03  0.93278071606E+03  0.50400001928E-02 0. -1.
    10030    2    1    2    0    0  0.00000000000E+00  0.00000000000E+00 -0.54684056803E+03  0.13187208641E+04  0.11999958794E+04 0.  0.
        1    1    3    3  502    0 -0.28468404442E+03  0.51748502029E+03 -0.15731826324E+03  0.61121582714E+03  0.50400001928E-02 0.  1.
       -1    1    3    3    0  502  0.28468404442E+03 -0.51748502029E+03 -0.38952230480E+03  0.70750503696E+03  0.50400001928E-02 0. -1.
</event>
<event>
 5   0  0.9838215E-05  0.1201767E+04  0.7818609E-02  0.9111312E-01
       -2   -1    0    0    0  501  0.00000000000E+00  0.00000000000E+00  0.49933979716E+03  0.49933979717E+03  0.25500000920E-02 0. -1.
        2   -1    0    0  501    0  0.00000000000E+00  0.00000000000E+00 -0.72307636516E+03  0.72307636517E+03  0.25500000920E-02 0.  1.
    10030    2    1    2    0    0  0.00000000000E+00  0.00000000000E+00 -0.22373656800E+03  0.12224161623E+04  0.12017667087E+04 0.  0.
        4    1    3    3  502    0 -0.10591072200E+02 -0.39771846021E+03  0.34616559661E+03  0.52737498763E+03  0.12699999809E+01 0. -1.
       -4    1    3    3    0  502  0.10591072200E+02  0.39771846021E+03 -0.56990216461E+03  0.69504117470E+03  0.12699999809E+01 0.  1.
</event>
<event>
 5   0  0.9941209E-05  0.1199390E+04  0.7818609E-02  0.9113391E-01
       -2   -1    0    0    0  501  0.00000000000E+00  0.00000000000E+00  0.21812065320E+03  0.21812065322E+03  0.25500000920E-02 0. -1.
        2   -1    0    0  501    0  0.00000000000E+00  0.00000000000E+00 -0.16487843526E+04  0.16487843526E+04  0.25500000920E-02 0.  1.
    10030    2    1    2    0    0  0.00000000000E+00  0.00000000000E+00 -0.14306636994E+04  0.18669050058E+04  0.11993897115E+04 0.  0.
        2    1    3    3  502    0 -0.32177541942E+03  0.46476009559E+03 -0.40366274239E+03  0.69461138530E+03  0.25500000920E-02 0. -1.
       -2    1    3    3    0  502  0.32177541942E+03 -0.46476009559E+03 -0.10270009570E+04  0.11722936205E+04  0.25500000920E-02 0.  1.
</event>
<event>
 5   0  0.5447807E-05  0.1199720E+04  0.7818609E-02  0.9113101E-01
       -1   -1    0    0    0  501  0.00000000000E+00  0.00000000000E+00  0.27750404826E+03  0.27750404830E+03  0.50400001928E-02 0.  1.
        1   -1    0    0  501    0  0.00000000000E+00  0.00000000000E+00 -0.12966739299E+04  0.12966739299E+04  0.50400001928E-02 0. -1.
    10030    2    1    2    0    0  0.00000000000E+00  0.00000000000E+00 -0.10191698816E+04  0.15741779782E+04  0.11997204088E+04 0.  0.
        2    1    3    3  502    0 -0.49723120194E+03  0.32312090446E+03 -0.39086681715E+03  0.71022732687E+03  0.25500000920E-02 0.  1.
       -2    1    3    3    0  502  0.49723120194E+03 -0.32312090446E+03 -0.62830306444E+03  0.86395065129E+03  0.25500000920E-02 0. -1.
</event>
<event>
 5   0  0.9941209E-05  0.1199686E+04  0.7818609E-02  0.9113131E-01
        2   -1    0    0  501    0  0.00000000000E+00  0.00000000000E+00  0.75087734098E+03  0.75087734098E+03  0.25500000920E-02 0. -1.
       -2   -1    0    0    0  501  0.00000000000E+00  0.00000000000E+00 -0.47918848149E+03  0.47918848150E+03  0.25500000920E-02 0.  1.
    10030    2    1    2    0    0  0.00000000000E+00  0.00000000000E+00  0.27168885949E+03  0.12300658225E+04  0.11996862470E+04 0.  0.
        2    1    3    3  502    0 -0.43449032963E+03  0.11541534115E+03  0.54302703871E+03  0.70496873143E+03  0.25500000920E-02 0. -1.
       -2    1    3    3    0  502  0.43449032963E+03 -0.11541534115E+03 -0.27133817923E+03  0.52509709105E+03  0.25500000920E-02 0.  1.
</event>
<event>
 5   0  0.5447807E-05  0.1199750E+04  0.7818609E-02  0.9113075E-01
       -1   -1    0    0    0  501  0.00000000000E+00  0.00000000000E+00  0.43557470387E+03  0.43557470390E+03  0.50400001928E-02 0. -1.
        1   -1    0    0  501    0  0.00000000000E+00  0.00000000000E+00 -0.82614984661E+03  0.82614984662E+03  0.50400001928E-02 0.  1.
    10030    2    1    2    0    0  0.00000000000E+00  0.00000000000E+00 -0.39057514274E+03  0.12617245505E+04  0.11997499320E+04 0.  0.
        2    1    3    3  502    0 -0.35146605121E+03 -0.28347381605E+03  0.22003569418E+03  0.50229622361E+03  0.25500000920E-02 0. -1.
       -2    1    3    3    0  502  0.35146605121E+03  0.28347381605E+03 -0.61061083693E+03  0.75942832691E+03  0.25500000920E-02 0.  1.
</event>
<event>
 5   0  0.3839750E-05  0.1200397E+04  0.7818609E-02  0.9112509E-01
        3   -1    0    0  501    0  0.00000000000E+00  0.00000000000E+00  0.26851645511E+03  0.26851647411E+03  0.10100000352E+00 0. -1.
       -3   -1    0    0    0  501  0.00000000000E+00  0.00000000000E+00 -0.13415876344E+04  0.13415876382E+04  0.10100000352E+00 0.  1.
    10030    2    1    2    0    0  0.00000000000E+00  0.00000000000E+00 -0.10730711793E+04  0.16101041123E+04  0.12003972245E+04 0.  0.
        2    1    3    3  502    0 -0.29627238789E+03  0.31927420105E+03 -0.10904249783E+04  0.11741975884E+04  0.25500000920E-02 0.  1.
       -2    1    3    3    0  502  0.29627238789E+03 -0.31927420105E+03  0.17353798971E+02  0.43590652395E+03  0.25500000920E-02 0. -1.
</event>
<event>
 5   0  0.5620246E-05  0.1200119E+04  0.7818609E-02  0.9112753E-01
        1   -1    0    0  501    0  0.00000000000E+00  0.00000000000E+00  0.16158249612E+04  0.16158249612E+04  0.50400001928E-02 0.  1.
       -1   -1    0    0    0  501  0.00000000000E+00  0.00000000000E+00 -0.22284052138E+03  0.22284052143E+03  0.50400001928E-02 0. -1.
    10030    2    1    2    0    0  0.00000000000E+00  0.00000000000E+00  0.13929844398E+04  0.18386654827E+04  0.12001187889E+04 0.  0.
        1    1    3    3  502    0 -0.15295225533E+03  0.11189774029E+03 -0.17578669188E+03  0.25848879620E+03  0.50400001928E-02 0. -1.
       -1    1    3    3    0  502  0.15295225533E+03 -0.11189774029E+03  0.15687711317E+04  0.15801766865E+04  0.50400001928E-02 0.  1.
</event>
<event>
 5   0  0.9941209E-05  0.1200149E+04  0.7818609E-02  0.9112726E-01
        2   -1    0    0  501    0  0.00000000000E+00  0.00000000000E+00  0.86964074291E+03  0.86964074291E+03  0.25500000920E-02 0.  1.
       -2   -1    0    0    0  501  0.00000000000E+00  0.00000000000E+00 -0.41406667593E+03  0.41406667594E+03  0.25500000920E-02 0. -1.
    10030    2    1    2    0    0  0.00000000000E+00  0.00000000000E+00  0.45557406698E+03  0.12837074189E+04  0.12001487436E+04 0.  0.
        2    1    3    3  502    0  0.23268023243E+03 -0.23590942575E+03  0.76291524541E+03  0.83176500251E+03  0.25500000920E-02 0.  1.
       -2    1    3    3    0  502 -0.23268023243E+03  0.23590942575E+03 -0.30734117843E+03  0.45194241634E+03  0.25500000920E-02 0. -1.
</event>
<event>
 5   0  0.9838215E-05  0.1200108E+04  0.7818609E-02  0.9112762E-01
        2   -1    0    0  501    0  0.00000000000E+00  0.00000000000E+00  0.81442842135E+03  0.81442842136E+03  0.25500000920E-02 0. -1.
       -2   -1    0    0    0  501  0.00000000000E+00  0.00000000000E+00 -0.44210754253E+03  0.44210754254E+03  0.25500000920E-02 0.  1.
    10030    2    1    2    0    0  0.00000000000E+00  0.00000000000E+00  0.37232087883E+03  0.12565359639E+04  0.12001082417E+04 0.  0.
        4    1    3    3  502    0 -0.41516592435E+03  0.10874932654E+03 -0.25293157690E+03  0.49816177719E+03  0.12699999809E+01 0.  1.
       -4    1    3    3    0  502  0.41516592435E+03 -0.10874932654E+03  0.62525245572E+03  0.75837418670E+03  0.12699999809E+01 0. -1.
</event>
<event>
 5   0  0.1012657E-04  0.1197091E+04  0.7818609E-02  0.9115407E-01
        2   -1    0    0  501    0  0.00000000000E+00  0.00000000000E+00  0.80268231790E+03  0.80268231790E+03  0.25500000920E-02 0. -1.
       -2   -1    0    0    0  501  0.00000000000E+00  0.00000000000E+00 -0.44632436773E+03  0.44632436774E+03  0.25500000920E-02 0.  1.
    10030    2    1    2    0    0  0.00000000000E+00  0.00000000000E+00  0.35635795017E+03  0.12490066856E+04  0.11970909373E+04 0.  0.
        1    1    3    3  502    0 -0.51574849081E+03 -0.78488787826E+02 -0.12797393711E+03  0.53715391108E+03  0.50400001928E-02 0. -1.
       -1    1    3    3    0  502  0.51574849081E+03  0.78488787826E+02  0.48433188727E+03  0.71185277456E+03  0.50400001928E-02 0.  1.
</event>
<event>
 5   0  0.1012657E-04  0.1199729E+04  0.7818609E-02  0.9113094E-01
        2   -1    0    0  501    0  0.00000000000E+00  0.00000000000E+00  0.41753488725E+03  0.41753488726E+03  0.25500000920E-02 0.  1.
       -2   -1    0    0    0  501  0.00000000000E+00  0.00000000000E+00 -0.86181444702E+03  0.86181444703E+03  0.25500000920E-02 0. -1.
    10030    2    1    2    0    0  0.00000000000E+00  0.00000000000E+00 -0.44427955977E+03  0.12793493343E+04  0.11997292994E+04 0.  0.
        1    1    3    3  502    0 -0.12723785509E+03  0.38041293811E+03  0.25348067484E+03  0.47450598289E+03  0.50400001928E-02 0.  1.
       -1    1    3    3    0  502  0.12723785509E+03 -0.38041293811E+03 -0.69776023462E+03  0.80484335140E+03  0.50400001928E-02 0. -1.
</event>
<event>
 5   0  0.5447807E-05  0.1199818E+04  0.7818609E-02  0.9113016E-01
       -1   -1    0    0    0  501  0.00000000000E+00  0.00000000000E+00  0.28433929718E+03  0.28433929722E+03  0.50400001928E-02 0.  1.
        1   -1    0    0  501    0  0.00000000000E+00  0.00000000000E+00 -0.12657081699E+04  0.12657081699E+04  0.50400001928E-02 0. -1.
    10030    2    1    2    0    0  0.00000000000E+00  0.00000000000E+00 -0.98136887268E+03  0.15500474671E+04  0.11998176053E+04 0.  0.
        2    1    3    3  502    0 -0.55343739443E+03  0.19682106763E+03 -0.64816460217E+03  0.87472786267E+03  0.25500000920E-02 0. -1.
       -2    1    3    3    0  502  0.55343739443E+03 -0.19682106763E+03 -0.33320427051E+03  0.67531960442E+03  0.25500000920E-02 0.  1.
</event>
<event>
 5   0  0.3839750E-05  0.1200457E+04  0.7818609E-02  0.9112456E-01
        4   -1    0    0  501    0  0.00000000000E+00  0.00000000000E+00  0.81090719350E+03  0.81090818800E+03  0.12699999809E+01 0.  1.
       -4   -1    0    0    0  501  0.00000000000E+00  0.00000000000E+00 -0.44428342625E+03  0.44428524142E+03  0.12699999809E+01 0. -1.
    10030    2    1    2    0    0  0.00000000000E+00  0.00000000000E+00  0.36662376724E+03  0.12551934294E+04  0.12004572290E+04 0.  0.
        4    1    3    3  502    0 -0.13094159539E+02 -0.39068761976E+03  0.65956284621E+03  0.76670270265E+03  0.12699999809E+01 0.  1.
       -4    1    3    3    0  502  0.13094159539E+02  0.39068761976E+03 -0.29293907897E+03  0.48849072677E+03  0.12699999809E+01 0. -1.
</event>
<event>
 5   0  0.1012657E-04  0.1200182E+04  0.7818609E-02  0.9112697E-01
       -2   -1    0    0    0  501  0.00000000000E+00  0.00000000000E+00  0.26528954315E+03  0.26528954316E+03  0.25500000920E-02 0. -1.
        2   -1    0    0  501    0  0.00000000000E+00  0.00000000000E+00 -0.13574193949E+04  0.13574193949E+04  0.25500000920E-02 0.  1.
    10030    2    1    2    0    0  0.00000000000E+00  0.00000000000E+00 -0.10921298517E+04  0.16227089380E+04  0.12001819381E+04 0.  0.
        1    1    3    3  502    0 -0.97214810834E+02  0.45238828984E+03 -0.10626892595E+04  0.11590575251E+04  0.50400001928E-02 0.  1.
       -1    1    3    3    0  502  0.97214810834E+02 -0.45238828984E+03 -0.29440592250E+02  0.46365141295E+03  0.50400001928E-02 0. -1.
</event>
<event>
 5   0  0.1004006E-04  0.1200087E+04  0.7818609E-02  0.9112780E-01
        2   -1    0    0  501    0  0.00000000000E+00  0.00000000000E+00  0.10423516483E+04  0.10423516483E+04  0.25500000920E-02 0. -1.
       -2   -1    0    0    0  501  0.00000000000E+00  0.00000000000E+00 -0.34542311912E+03  0.34542311913E+03  0.25500000920E-02 0.  1.
    10030    2    1    2    0    0  0.00000000000E+00  0.00000000000E+00  0.69692852919E+03  0.13877747674E+04  0.12000872595E+04 0.  0.
        5    1    3    3  502    0  0.21467985850E+03  0.78555360119E+02  0.98999967282E+03  0.10160609374E+04  0.46999998093E+01 0. -1.
       -5    1    3    3    0  502 -0.21467985850E+03 -0.78555360119E+02 -0.29307114363E+03  0.37171383008E+03  0.46999998093E+01 0.  1.
</event>
<event>
 5   0  0.9838215E-05  0.1200047E+04  0.7818609E-02  0.9112816E-01
        2   -1    0    0  501    0  0.00000000000E+00  0.00000000000E+00  0.66495506797E+03  0.66495506798E+03  0.25500000920E-02 0. -1.
       -2   -1    0    0    0  501  0.00000000000E+00  0.00000000000E+00 -0.54143220811E+03  0.54143220811E+03  0.25500000920E-02 0.  1.
    10030    2    1    2    0    0  0.00000000000E+00  0.00000000000E+00  0.12352285986E+03  0.12063872761E+04  0.12000468170E+04 0.  0.
        4    1    3    3  502    0  0.17075012317E+03 -0.36547986005E+03  0.50828766270E+03  0.64891377980E+03  0.12699999809E+01 0. -1.
       -4    1    3    3    0  502 -0.17075012317E+03  0.36547986005E+03 -0.38476480284E+03  0.55747349629E+03  0.12699999809E+01 0.  1.
</event>
<event>
 5   0  0.5620246E-05  0.1200036E+04  0.7818609E-02  0.9112825E-01
       -1   -1    0    0    0  501  0.00000000000E+00  0.00000000000E+00  0.40764717175E+03  0.40764717178E+03  0.50400001928E-02 0.  1.
        1   -1    0    0  501    0  0.00000000000E+00  0.00000000000E+00 -0.88316929755E+03  0.88316929757E+03  0.50400001928E-02 0. -1.
    10030    2    1    2    0    0  0.00000000000E+00  0.00000000000E+00 -0.47552212580E+03  0.12908164693E+04  0.12000357767E+04 0.  0.
        1    1    3    3  502    0 -0.35038697946E+03 -0.68994326156E+02 -0.75640898529E+03  0.83647223831E+03  0.50400001928E-02 0. -1.
       -1    1    3    3    0  502  0.35038697946E+03  0.68994326156E+02  0.28088685948E+03  0.45434423103E+03  0.50400001928E-02 0.  1.
</event>
<event>
 5   0  0.1023063E-04  0.1200331E+04  0.7818609E-02  0.9112567E-01
       -2   -1    0    0    0  501  0.00000000000E+00  0.00000000000E+00  0.33878430996E+03  0.33878430997E+03  0.25500000920E-02 0. -1.
        2   -1    0    0  501    0  0.00000000000E+00  0.00000000000E+00 -0.10632088432E+04  0.10632088432E+04  0.25500000920E-02 0.  1.
    10030    2    1    2    0    0  0.00000000000E+00  0.00000000000E+00 -0.72442453322E+03  0.14019931532E+04  0.12003307449E+04 0.  0.
        3    1    3    3  502    0  0.68253310589E+02 -0.49963791576E+03 -0.74231136925E+03  0.89739776041E+03  0.10100000352E+00 0.  1.
       -3    1    3    3    0  502 -0.68253310589E+02  0.49963791576E+03  0.17886836033E+02  0.50459539274E+03  0.10100000352E+00 0. -1.
</event>
<event>
 5   0  0.1012657E-04  0.1200430E+04  0.7818609E-02  0.9112480E-01
       -2   -1    0    0    0  501  0.00000000000E+00  0.00000000000E+00  0.28299084668E+03  0.28299084669E+03  0.25500000920E-02 0.  1.
        2   -1    0    0  501    0  0.00000000000E+00  0.00000000000E+00 -0.12730381246E+04  0.12730381246E+04  0.25500000920E-02 0. -1.
    10030    2    1    2    0    0  0.00000000000E+00  0.00000000000E+00 -0.99004727787E+03  0.15560289712E+04  0.12004301508E+04 0.  0.
        1    1    3    3  502    0 -0.47065531818E+03  0.30789592634E+03 -0.22330480725E+03  0.60512921509E+03  0.50400001928E-02 0. -1.
       -1    1    3    3    0  502  0.47065531818E+03 -0.30789592634E+03 -0.76674247062E+03  0.95089975616E+03  0.50400001928E-02 0.  1.
</event>
<event>
 5   0  0.5732931E-05  0.1201004E+04  0.7818609E-02  0.9111978E-01
       -1   -1    0    0    0  501  0.00000000000E+00  0.00000000000E+00  0.58029336593E+03  0.58029336595E+03  0.50400001928E-02 0. -1.
        1   -1    0    0  501    0  0.00000000000E+00  0.00000000000E+00 -0.62141460260E+03  0.62141460262E+03  0.50400001928E-02 0.  1.
    10030    2    1    2    0    0  0.00000000000E+00  0.00000000000E+00 -0.41121236666E+02  0.12017079686E+04  0.12010041988E+04 0.  0.
        4    1    3    3  502    0  0.26415065898E+03 -0.52574345523E+02  0.51646752255E+03  0.58247742205E+03  0.12699999809E+01 0. -1.
       -4    1    3    3    0  502 -0.26415065898E+03  0.52574345523E+02 -0.55758875922E+03  0.61923054653E+03  0.12699999809E+01 0.  1.
</event>
<event>
 5   0  0.1023063E-04  0.1200505E+04  0.7818609E-02  0.9112415E-01
        2   -1    0    0  501    0  0.00000000000E+00  0.00000000000E+00  0.70898842370E+03  0.70898842371E+03  0.25500000920E-02 0. -1.
       -2   -1    0    0    0  501  0.00000000000E+00  0.00000000000E+00 -0.50819294497E+03  0.50819294498E+03  0.25500000920E-02 0.  1.
    10030    2    1    2    0    0  0.00000000000E+00  0.00000000000E+00  0.20079547873E+03  0.12171813687E+04  0.12005047522E+04 0.  0.
        3    1    3    3  502    0 -0.51341047921E+03 -0.82027904840E+02  0.40453811488E+03  0.65876398955E+03  0.10100000352E+00 0. -1.
       -3    1    3    3    0  502  0.51341047921E+03  0.82027904840E+02 -0.20374263615E+03  0.55841737914E+03  0.10100000352E+00 0.  1.
</event>
<event>
 5   0  0.1012657E-04  0.1199688E+04  0.7818609E-02  0.9113130E-01
        2   -1    0    0  501    0  0.00000000000E+00  0.00000000000E+00  0.17374898281E+04  0.17374898281E+04  0.25500000920E-02 0. -1.
       -2   -1    0    0    0  501  0.00000000000E+00  0.00000000000E+00 -0.20708772477E+03  0.20708772479E+03  0.25500000920E-02 0.  1.
    10030    2    1    2    0    0  0.00000000000E+00  0.00000000000E+00  0.15304021033E+04  0.19445775529E+04  0.11996879850E+04 0.  0.
        1    1    3    3  502    0  0.17077956807E+03  0.54571783259E+03  0.47146770468E+03  0.74111767639E+03  0.50400001928E-02 0. -1.
       -1    1    3    3    0  502 -0.17077956807E+03 -0.54571783259E+03  0.10589343986E+04  0.12034598765E+04  0.50400001928E-02 0.  1.
</event>
<event>
 5   0  0.5447807E-05  0.1199449E+04  0.7818609E-02  0.9113339E-01
       -1   -1    0    0    0  501  0.00000000000E+00  0.00000000000E+00  0.39423308665E+03  0.39423308668E+03  0.50400001928E-02 0. -1.
        1   -1    0    0  501    0  0.00000000000E+00  0.00000000000E+00 -0.91232687621E+03  0.91232687623E+03  0.50400001928E-02 0.  1.
    10030    2    1    2    0    0  0.00000000000E+00  0.00000000000E+00 -0.51809378956E+03  0.13065599629E+04  0.11994489409E+04 0.  0.
        2    1    3    3  502    0 -0.52854829883E+02  0.11859825241E+03  0.37873837937E+03  0.40037724527E+03  0.25500000920E-02 0. -1.
       -2    1    3    3    0  502  0.52854829883E+02 -0.11859825241E+03 -0.89683216893E+03  0.90618271764E+03  0.25500000920E-02 0.  1.
</event>
<event>
 5   0  0.1004006E-04  0.1200139E+04  0.7818609E-02  0.9112735E-01
        2   -1    0    0  501    0  0.00000000000E+00  0.00000000000E+00  0.10099547075E+04  0.10099547075E+04  0.25500000920E-02 0. -1.
       -2   -1    0    0    0  501  0.00000000000E+00  0.00000000000E+00 -0.35653412291E+03  0.35653412292E+03  0.25500000920E-02 0.  1.
    10030    2    1    2    0    0  0.00000000000E+00  0.00000000000E+00  0.65342058462E+03  0.13664888304E+04  0.12001388517E+04 0.  0.
        5    1    3    3  502    0  0.46785044312E+03 -0.24369205390E+03  0.10773477187E+01  0.52753493244E+03  0.46999998093E+01 0.  1.
       -5    1    3    3    0  502 -0.46785044312E+03  0.24369205390E+03  0.65234323690E+03  0.83895389801E+03  0.46999998093E+01 0. -1.
</event>
<event>
 5   0  0.5620246E-05  0.1201400E+04  0.7818609E-02  0.9111632E-01
        1   -1    0    0  501    0  0.00000000000E+00  0.00000000000E+00  0.25320297205E+03  0.25320297210E+03  0.50400001928E-02 0. -1.
       -1   -1    0    0    0  501  0.00000000000E+00  0.00000000000E+00 -0.14251042978E+04  0.14251042978E+04  0.50400001928E-02 0.  1.
    10030    2    1    2    0    0  0.00000000000E+00  0.00000000000E+00 -0.11719013258E+04  0.16783072699E+04  0.12014002559E+04 0.  0.
        1    1    3    3  502    0  0.14244620997E+03  0.23772871386E+02 -0.14004924335E+04  0.14079187222E+04  0.50400001928E-02 0.  1.
       -1    1    3    3    0  502 -0.14244620997E+03 -0.23772871386E+02  0.22859110774E+03  0.27038854767E+03  0.50400001928E-02 0. -1.
</event>
<event>
 5   0  0.1012657E-04  0.1200777E+04  0.7818609E-02  0.9112176E-01
       -2   -1    0    0    0  501  0.00000000000E+00  0.00000000000E+00  0.20187850422E+03  0.20187850424E+03  0.25500000920E-02 0. -1.
        2   -1    0    0  501    0  0.00000000000E+00  0.00000000000E+00 -0.17855623154E+04  0.17855623154E+04  0.25500000920E-02 0.  1.
    10030    2    1    2    0    0  0.00000000000E+00  0.00000000000E+00 -0.15836838112E+04  0.19874408197E+04  0.12007774972E+04 0.  0.
        1    1    3    3  502    0  0.84965540581E+02  0.32032769101E+03  0.36777009850E+02  0.33343893173E+03  0.50400001928E-02 0. -1.
       -1    1    3    3    0  502 -0.84965540581E+02 -0.32032769101E+03 -0.16204608211E+04  0.16540018879E+04  0.50400001928E-02 0.  1.
</event>
<event>
 5   0  0.9941209E-05  0.1199471E+04  0.7818609E-02  0.9113319E-01
       -2   -1    0    0    0  501  0.00000000000E+00  0.00000000000E+00  0.26793344814E+03  0.26793344815E+03  0.25500000920E-02 0. -1.
        2   -1    0    0  501    0  0.00000000000E+00  0.00000000000E+00 -0.13424339950E+04  0.13424339950E+04  0.25500000920E-02 0.  1.
    10030    2    1    2    0    0  0.00000000000E+00  0.00000000000E+00 -0.10745005468E+04  0.16103674431E+04  0.11994714989E+04 0.  0.
        2    1    3    3  502    0  0.90547178730E+02  0.41867216597E+03 -0.11008039449E+04  0.11812089143E+04  0.25500000920E-02 0.  1.
       -2    1    3    3    0  502 -0.90547178730E+02 -0.41867216597E+03  0.26303398037E+02  0.42915852885E+03  0.25500000920E-02 0. -1.
</event>
<event>
 5   0  0.5625746E-05  0.1199713E+04  0.7818609E-02  0.9113108E-01
       -1   -1    0    0    0  501  0.00000000000E+00  0.00000000000E+00  0.68755309458E+03  0.68755309460E+03  0.50400001928E-02 0. -1.
        1   -1    0    0  501    0  0.00000000000E+00  0.00000000000E+00 -0.52334522899E+03  0.52334522901E+03  0.50400001928E-02 0.  1.
    10030    2    1    2    0    0  0.00000000000E+00  0.00000000000E+00  0.16420786559E+03  0.12108983236E+04  0.11997126852E+04 0.  0.
        5    1    3    3  502    0 -0.30943332513E+02  0.21661732750E+03 -0.48160576818E+03  0.52900544642E+03  0.46999998093E+01 0.  1.
       -5    1    3    3    0  502  0.30943332513E+02 -0.21661732750E+03  0.64581363377E+03  0.68189287719E+03  0.46999998093E+01 0. -1.
</event>
<event>
 5   0  0.5745487E-05  0.1200144E+04  0.7818609E-02  0.9112731E-01
        1   -1    0    0  501    0  0.00000000000E+00  0.00000000000E+00  0.94641068155E+03  0.94641068157E+03  0.50400001928E-02 0.  1.
       -1   -1    0    0    0  501  0.00000000000E+00  0.00000000000E+00 -0.38047559069E+03  0.38047559072E+03  0.50400001928E-02 0. -1.
    10030    2    1    2    0    0  0.00000000000E+00  0.00000000000E+00  0.56593509086E+03  0.13268862723E+04  0.12001435966E+04 0.  0.
        3    1    3    3  502    0 -0.45985338775E+03  0.20583341975E+03 -0.77422139580E+02  0.50973202058E+03  0.10100000352E+00 0. -1.
       -3    1    3    3    0  502  0.45985338775E+03 -0.20583341975E+03  0.64335723044E+03  0.81715425170E+03  0.10100000352E+00 0.  1.
</event>
<event>
 5   0  0.1023063E-04  0.1200102E+04  0.7818609E-02  0.9112768E-01
        2   -1    0    0  501    0  0.00000000000E+00  0.00000000000E+00  0.74104778234E+03  0.74104778235E+03  0.25500000920E-02 0.  1.
       -2   -1    0    0    0  501  0.00000000000E+00  0.00000000000E+00 -0.48588097116E+03  0.48588097116E+03  0.25500000920E-02 0. -1.
    10030    2    1    2    0    0  0.00000000000E+00  0.00000000000E+00  0.25516681119E+03  0.12269287535E+04  0.12001016893E+04 0.  0.
        3    1    3    3  502    0  0.36468343371E+03 -0.16240659044E+03 -0.33041646199E+03  0.51821323410E+03  0.10100000352E+00 0. -1.
       -3    1    3    3    0  502 -0.36468343371E+03  0.16240659044E+03  0.58558327318E+03  0.70871551942E+03  0.10100000352E+00 0.  1.
</event>
<event>
 5   0  0.1004006E-04  0.1200630E+04  0.7818609E-02  0.9112305E-01
        2   -1    0    0  501    0  0.00000000000E+00  0.00000000000E+00  0.12996330573E+04  0.12996330573E+04  0.25500000920E-02 0.  1.
       -2   -1    0    0    0  501  0.00000000000E+00  0.00000000000E+00 -0.27729223906E+03  0.27729223907E+03  0.25500000920E-02 0. -1.
    10030    2    1    2    0    0  0.00000000000E+00  0.00000000000E+00  0.10223408182E+04  0.15769252964E+04  0.12006301019E+04 0.  0.
        5    1    3    3  502    0 -0.21933097755E+03 -0.55389365281E+03  0.60814822775E+03  0.85133460710E+03  0.46999998093E+01 0.  1.
       -5    1    3    3    0  502  0.21933097755E+03  0.55389365281E+03  0.41419259048E+03  0.72559068926E+03  0.46999998093E+01 0. -1.
</event>
<event>
 5   0  0.5625746E-05  0.1199238E+04  0.7818609E-02  0.9113524E-01
       -1   -1    0    0    0  501  0.00000000000E+00  0.00000000000E+00  0.47067384303E+03  0.47067384305E+03  0.50400001928E-02 0. -1.
        1   -1    0    0  501    0  0.00000000000E+00  0.00000000000E+00 -0.76388956779E+03  0.76388956781E+03  0.50400001928E-02 0.  1.
    10030    2    1    2    0    0  0.00000000000E+00  0.00000000000E+00 -0.29321572476E+03  0.12345634109E+04  0.11992378222E+04 0.  0.
        5    1    3    3  502    0  0.36880822718E+03  0.15049778483E+03 -0.60797408270E+03  0.72685876683E+03  0.46999998093E+01 0.  1.
       -5    1    3    3    0  502 -0.36880822718E+03 -0.15049778483E+03  0.31475835794E+03  0.50770464403E+03  0.46999998093E+01 0. -1.
</event>
<event>
 5   0  0.1012657E-04  0.1199677E+04  0.7818609E-02  0.9113139E-01
       -2   -1    0    0    0  501  0.00000000000E+00  0.00000000000E+00  0.32759786369E+03  0.32759786370E+03  0.25500000920E-02 0. -1.
        2   -1    0    0  501    0  0.00000000000E+00  0.00000000000E+00 -0.10983166628E+04  0.10983166628E+04  0.25500000920E-02 0.  1.
    10030    2    1    2    0    0  0.00000000000E+00  0.00000000000E+00 -0.77071879914E+03  0.14259145265E+04  0.11996769438E+04 0.  0.
        1    1    3    3  502    0  0.45176702990E+03  0.33338481418E+03 -0.63628061687E+03  0.84858229245E+03  0.50400001928E-02 0.  1.
       -1    1    3    3    0  502 -0.45176702990E+03 -0.33338481418E+03 -0.13443818227E+03  0.57733223408E+03  0.50400001928E-02 0. -1.
</event>
<event>
 5   0  0.5620246E-05  0.1199384E+04  0.7818609E-02  0.9113396E-01
        1   -1    0    0  501    0  0.00000000000E+00  0.00000000000E+00  0.95611663131E+03  0.95611663132E+03  0.50400001928E-02 0. -1.
       -1   -1    0    0    0  501  0.00000000000E+00  0.00000000000E+00 -0.37613639544E+03  0.37613639547E+03  0.50400001928E-02 0.  1.
    10030    2    1    2    0    0  0.00000000000E+00  0.00000000000E+00  0.57998023587E+03  0.13322530268E+04  0.11993836139E+04 0.  0.
        1    1    3    3  502    0 -0.74968657874E+02 -0.26477651125E+03  0.88184314441E+03  0.92378256746E+03  0.50400001928E-02 0. -1.
       -1    1    3    3    0  502  0.74968657874E+02  0.26477651125E+03 -0.30186290854E+03  0.40847045934E+03  0.50400001928E-02 0.  1.
</event>
<event>
 5   0  0.1023063E-04  0.1200127E+04  0.7818609E-02  0.9112745E-01
       -2   -1    0    0    0  501  0.00000000000E+00  0.00000000000E+00  0.42258411877E+03  0.42258411877E+03  0.25500000920E-02 0.  1.
        2   -1    0    0  501    0  0.00000000000E+00  0.00000000000E+00 -0.85208177795E+03  0.85208177795E+03  0.25500000920E-02 0. -1.
    10030    2    1    2    0    0  0.00000000000E+00  0.00000000000E+00 -0.42949765918E+03  0.12746658967E+04  0.12001270387E+04 0.  0.
        3    1    3    3  502    0 -0.42059833912E+02 -0.15903378369E+03  0.39816769868E+03  0.43081121208E+03  0.10100000352E+00 0.  1.
       -3    1    3    3    0  502  0.42059833912E+02  0.15903378369E+03 -0.82766535787E+03  0.84385468464E+03  0.10100000352E+00 0. -1.
</event>
<event>
 5   0  0.9838215E-05  0.1199816E+04  0.7818609E-02  0.9113018E-01
       -2   -1    0    0    0  501  0.00000000000E+00  0.00000000000E+00  0.90903367062E+03  0.90903367062E+03  0.25500000920E-02 0.  1.
        2   -1    0    0  501    0  0.00000000000E+00  0.00000000000E+00 -0.39590325157E+03  0.39590325158E+03  0.25500000920E-02 0. -1.
    10030    2    1    2    0    0  0.00000000000E+00  0.00000000000E+00  0.51313041905E+03  0.13049369222E+04  0.11998156292E+04 0.  0.
        4    1    3    3  502    0 -0.16955852532E+03  0.49604044266E+02 -0.36696821643E+03  0.40728115533E+03  0.12699999809E+01 0. -1.
       -4    1    3    3    0  502  0.16955852532E+03 -0.49604044266E+02  0.88009863548E+03  0.89765576687E+03  0.12699999809E+01 0.  1.
</event>
<event>
 5   0  0.9941209E-05  0.1200085E+04  0.7818609E-02  0.9112782E-01
       -2   -1    0    0    0  501  0.00000000000E+00  0.00000000000E+00  0.44540020790E+03  0.44540020790E+03  0.25500000920E-02 0. -1.
        2   -1    0    0  501    0  0.00000000000E+00  0.00000000000E+00 -0.80837582587E+03  0.80837582588E+03  0.25500000920E-02 0.  1.
    10030    2    1    2    0    0  0.00000000000E+00  0.00000000000E+00 -0.36297561798E+03  0.12537760338E+04  0.12000845985E+04 0.  0.
        2    1    3    3  502    0 -0.40243381773E+03  0.25038453875E+03 -0.56592557021E+03  0.73818503501E+03  0.25500000920E-02 0.  1.
       -2    1    3    3    0  502  0.40243381773E+03 -0.25038453875E+03  0.20294995223E+03  0.51559099877E+03  0.25500000920E-02 0. -1.
</event>
<event>
 5   0  0.9941209E-05  0.1200730E+04  0.7818609E-02  0.9112218E-01
        2   -1    0    0  501    0  0.00000000000E+00  0.00000000000E+00  0.11287613696E+04  0.11287613696E+04  0.25500000920E-02 0.  1.
       -2   -1    0    0    0  501  0.00000000000E+00  0.00000000000E+00 -0.31932172002E+03  0.31932172003E+03  0.25500000920E-02 0. -1.
    10030    2    1    2    0    0  0.00000000000E+00  0.00000000000E+00  0.80943964955E+03  0.14480830896E+04  0.12007298148E+04 0.  0.
        2    1    3    3  502    0 -0.29713539039E+02 -0.38516929643E+03  0.95895601126E+03  0.10338447238E+04  0.25500000920E-02 0.  1.
       -2    1    3    3    0  502  0.29713539039E+02  0.38516929643E+03 -0.14951636171E+03  0.41423836585E+03  0.25500000920E-02 0. -1.
</event>
<event>
 5   0  0.1012657E-04  0.1202378E+04  0.7818609E-02  0.9110778E-01
       -2   -1    0    0    0  501  0.00000000000E+00  0.00000000000E+00  0.18235640105E+04  0.18235640105E+04  0.25500000920E-02 0. -1.
        2   -1    0    0  501    0  0.00000000000E+00  0.00000000000E+00 -0.19819884661E+03  0.19819884662E+03  0.25500000920E-02 0.  1.
    10030    2    1    2    0    0  0.00000000000E+00  0.00000000000E+00  0.16253651639E+04  0.20217628571E+04  0.12023781162E+04 0.  0.
        1    1    3    3  502    0  0.28693054252E+02 -0.10941847187E+03  0.18055085813E+04  0.18090486258E+04  0.50400001928E-02 0. -1.
       -1    1    3    3    0  502 -0.28693054252E+02  0.10941847187E+03 -0.18014341740E+03  0.21271423132E+03  0.50400001928E-02 0.  1.
</event>
<event>
 5   0  0.5625746E-05  0.1199537E+04  0.7818609E-02  0.9113262E-01
       -1   -1    0    0    0  501  0.00000000000E+00  0.00000000000E+00  0.44242511271E+03  0.44242511274E+03  0.50400001928E-02 0. -1.
        1   -1    0    0  501    0  0.00000000000E+00  0.00000000000E+00 -0.81306915008E+03  0.81306915010E+03  0.50400001928E-02 0.  1.
    10030    2    1    2    0    0  0.00000000000E+00  0.00000000000E+00 -0.37064403737E+03  0.12554942628E+04  0.11995369280E+04 0.  0.
        5    1    3    3  502    0 -0.12080412955E+03  0.57692845557E+03 -0.69431728400E+02  0.59353427489E+03  0.46999998093E+01 0. -1.
       -5    1    3    3    0  502  0.12080412955E+03 -0.57692845557E+03 -0.30121230897E+03  0.66195998795E+03  0.46999998093E+01 0.  1.
</event>
<event>
 5   0  0.5620246E-05  0.1203244E+04  0.7818609E-02  0.9110021E-01
       -1   -1    0    0    0  501  0.00000000000E+00  0.00000000000E+00  0.24159241829E+03  0.24159241834E+03  0.50400001928E-02 0. -1.
        1   -1    0    0  501    0  0.00000000000E+00  0.00000000000E+00 -0.14981813299E+04  0.14981813299E+04  0.50400001928E-02 0.  1.
    10030    2    1    2    0    0  0.00000000000E+00  0.00000000000E+00 -0.12565889116E+04  0.17397737483E+04  0.12032443652E+04 0.  0.
        1    1    3    3  502    0 -0.30244625619E+03 -0.47873975321E+03 -0.92207874451E+03  0.10820788790E+04  0.50400001928E-02 0.  1.
       -1    1    3    3    0  502  0.30244625619E+03  0.47873975321E+03 -0.33451016711E+03  0.65769486931E+03  0.50400001928E-02 0. -1.
</event>
<event>
 5   0  0.1012657E-04  0.1199940E+04  0.7818609E-02  0.9112909E-01
        2   -1    0    0  501    0  0.00000000000E+00  0.00000000000E+00  0.10484827250E+04  0.10484827250E+04  0.25500000920E-02 0. -1.
       -2   -1    0    0    0  501  0.00000000000E+00  0.00000000000E+00 -0.34331906673E+03  0.34331906674E+03  0.25500000920E-02 0.  1.
    10030    2    1    2    0    0  0.00000000000E+00  0.00000000000E+00  0.70516365825E+03  0.13918017917E+04  0.11999401829E+04 0.  0.
        1    1    3    3  502    0  0.33785541590E+03 -0.47197414110E+03  0.17645283313E+03  0.60666421871E+03  0.50400001928E-02 0. -1.
       -1    1    3    3    0  502 -0.33785541590E+03  0.47197414110E+03  0.52871082512E+03  0.78513757301E+03  0.50400001928E-02 0.  1.
</event>
<event>
 5   0  0.5447807E-05  0.1199832E+04  0.7818609E-02  0.9113003E-01
       -1   -1    0    0    0  501  0.00000000000E+00  0.00000000000E+00  0.46004591409E+03  0.46004591411E+03  0.50400001928E-02 0. -1.
        1   -1    0    0  501    0  0.00000000000E+00  0.00000000000E+00 -0.78231191507E+03  0.78231191509E+03  0.50400001928E-02 0.  1.
    10030    2    1    2    0    0  0.00000000000E+00  0.00000000000E+00 -0.32226600099E+03  0.12423578292E+04  0.11998323218E+04 0.  0.
        2    1    3    3  502    0  0.19922513776E+03 -0.18984462624E+03  0.39083455149E+03  0.47799925133E+03  0.25500000920E-02 0. -1.
       -2    1    3    3    0  502 -0.19922513776E+03  0.18984462624E+03 -0.71310055247E+03  0.76435857788E+03  0.25500000920E-02 0.  1.
</event>
<event>
 5   0  0.5745487E-05  0.1200118E+04  0.7818609E-02  0.9112753E-01
        1   -1    0    0  501    0  0.00000000000E+00  0.00000000000E+00  0.15081853065E+04  0.15081853065E+04  0.50400001928E-02 0.  1.
       -1   -1    0    0    0  501  0.00000000000E+00  0.00000000000E+00 -0.23874458758E+03  0.23874458763E+03  0.50400001928E-02 0. -1.
    10030    2    1    2    0    0  0.00000000000E+00  0.00000000000E+00  0.12694407189E+04  0.17469298941E+04  0.12001184592E+04 0.  0.
        3    1    3    3  502    0 -0.47953096648E+03  0.28113627922E+03  0.96371721053E+03  0.11125369330E+04  0.10100000352E+00 0.  1.
       -3    1    3    3    0  502  0.47953096648E+03 -0.28113627922E+03  0.30572350837E+03  0.63439296108E+03  0.10100000352E+00 0. -1.
</event>
<event>
 5   0  0.5732931E-05  0.1205405E+04  0.7818609E-02  0.9108139E-01
       -1   -1    0    0    0  501  0.00000000000E+00  0.00000000000E+00  0.11847929813E+04  0.11847929814E+04  0.50400001928E-02 0.  1.
        1   -1    0    0  501    0  0.00000000000E+00  0.00000000000E+00 -0.30659369001E+03  0.30659369005E+03  0.50400001928E-02 0. -1.
    10030    2    1    2    0    0  0.00000000000E+00  0.00000000000E+00  0.87819929133E+03  0.14913866714E+04  0.12054045828E+04 0.  0.
        4    1    3    3  502    0 -0.26159862166E+03 -0.30469414413E+03  0.99514137772E+03  0.10731171114E+04  0.12699999809E+01 0.  1.
       -4    1    3    3    0  502  0.26159862166E+03  0.30469414413E+03 -0.11694208638E+03  0.41826955996E+03  0.12699999809E+01 0. -1.
</event>
<event>
 5   0  0.1012657E-04  0.1199151E+04  0.7818609E-02  0.9113600E-01
       -2   -1    0    0    0  501  0.00000000000E+00  0.00000000000E+00  0.11417517423E+04  0.11417517423E+04  0.25500000920E-02 0. -1.
        2   -1    0    0  501    0  0.00000000000E+00  0.00000000000E+00 -0.31485903106E+03  0.31485903107E+03  0.25500000920E-02 0.  1.
    10030    2    1    2    0    0  0.00000000000E+00  0.00000000000E+00  0.82689271123E+03  0.14566107734E+04  0.11991511119E+04 0.  0.
        1    1    3    3  502    0  0.11194369317E+03 -0.48354311608E+03  0.48558518860E+01  0.49635563347E+03  0.50400001928E-02 0.  1.
       -1    1    3    3    0  502 -0.11194369317E+03  0.48354311608E+03  0.82203685935E+03  0.96025513990E+03  0.50400001928E-02 0. -1.
</event>
<event>
 5   0  0.5447807E-05  0.1200315E+04  0.7818609E-02  0.9112581E-01
       -1   -1    0    0    0  501  0.00000000000E+00  0.00000000000E+00  0.34280317781E+03  0.34280317785E+03  0.50400001928E-02 0.  1.
        1   -1    0    0  501    0  0.00000000000E+00  0.00000000000E+00 -0.10507171174E+04  0.10507171174E+04  0.50400001928E-02 0. -1.
    10030    2    1    2    0    0  0.00000000000E+00  0.00000000000E+00 -0.70791393962E+03  0.13935202953E+04  0.12003152367E+04 0.  0.
        2    1    3    3  502    0 -0.47167914323E+03 -0.33782999287E+03 -0.53222738514E+03  0.78732223882E+03  0.25500000920E-02 0. -1.
       -2    1    3    3    0  502  0.47167914323E+03  0.33782999287E+03 -0.17568655448E+03  0.60619805647E+03  0.25500000920E-02 0.  1.
</event>
<event>
 5   0  0.5745487E-05  0.1200141E+04  0.7818609E-02  0.9112733E-01
        1   -1    0    0  501    0  0.00000000000E+00  0.00000000000E+00  0.10976903907E+04  0.10976903908E+04  0.50400001928E-02 0.  1.
       -1   -1    0    0    0  501  0.00000000000E+00  0.00000000000E+00 -0.32803840948E+03  0.32803840952E+03  0.50400001928E-02 0. -1.
    10030    2    1    2    0    0  0.00000000000E+00  0.00000000000E+00  0.76965198126E+03  0.14257288003E+04  0.12001410082E+04 0.  0.
        3    1    3    3  502    0 -0.32254909919E+03 -0.73267339302E+01 -0.21623520322E+03  0.38839319733E+03  0.10100000352E+00 0. -1.
       -3    1    3    3    0  502  0.32254909919E+03  0.73267339302E+01  0.98588718448E+03  0.10373356029E+04  0.10100000352E+00 0.  1.
</event>
<event>
 5   0  0.5625746E-05  0.1200280E+04  0.7818609E-02  0.9112611E-01
        1   -1    0    0  501    0  0.00000000000E+00  0.00000000000E+00  0.14927839121E+04  0.14927839121E+04  0.50400001928E-02 0. -1.
       -1   -1    0    0    0  501  0.00000000000E+00  0.00000000000E+00 -0.24127290494E+03  0.24127290499E+03  0.50400001928E-02 0.  1.
    10030    2    1    2    0    0  0.00000000000E+00  0.00000000000E+00  0.12515110071E+04  0.17340568171E+04  0.12002804855E+04 0.  0.
        5    1    3    3  502    0  0.24821255924E+03  0.45179147086E+03  0.18182461289E+03  0.54663268065E+03  0.46999998093E+01 0. -1.
       -5    1    3    3    0  502 -0.24821255924E+03 -0.45179147086E+03  0.10696863942E+04  0.11874241364E+04  0.46999998093E+01 0.  1.
</event>
<event>
 5   0  0.1012657E-04  0.1200968E+04  0.7818609E-02  0.9112010E-01
       -2   -1    0    0    0  501  0.00000000000E+00  0.00000000000E+00  0.70394626201E+03  0.70394626201E+03  0.25500000920E-02 0. -1.
        2   -1    0    0  501    0  0.00000000000E+00  0.00000000000E+00 -0.51222803932E+03  0.51222803932E+03  0.25500000920E-02 0.  1.
    10030    2    1    2    0    0  0.00000000000E+00  0.00000000000E+00  0.19171822269E+03  0.12161743013E+04  0.12009679656E+04 0.  0.
        1    1    3    3  502    0 -0.33668822748E+03  0.54979835666E+02  0.59628132358E+03  0.68697391634E+03  0.50400001928E-02 0. -1.
       -1    1    3    3    0  502  0.33668822748E+03 -0.54979835666E+02 -0.40456310089E+03  0.52920038500E+03  0.50400001928E-02 0.  1.
</event>
<event>
 5   0  0.3839750E-05  0.1200171E+04  0.7818609E-02  0.9112707E-01
       -3   -1    0    0    0  501  0.00000000000E+00  0.00000000000E+00  0.10984040830E+04  0.10984040876E+04  0.10100000352E+00 0. -1.
        3   -1    0    0  501    0  0.00000000000E+00  0.00000000000E+00 -0.32784142534E+03  0.32784144089E+03  0.10100000352E+00 0.  1.
    10030    2    1    2    0    0  0.00000000000E+00  0.00000000000E+00  0.77056265766E+03  0.14262455285E+04  0.12001706122E+04 0.  0.
        1    1    3    3  502    0 -0.45933523774E+03  0.37763088963E+03  0.28940988595E+03  0.66132596467E+03  0.50400001928E-02 0.  1.
       -1    1    3    3    0  502  0.45933523774E+03 -0.37763088963E+03  0.48115277171E+03  0.76491956387E+03  0.50400001928E-02 0. -1.
</event>
<event>
 5   0  0.5625746E-05  0.1200267E+04  0.7818609E-02  0.9112623E-01
        1   -1    0    0  501    0  0.00000000000E+00  0.00000000000E+00  0.12285840720E+04  0.12285840720E+04  0.50400001928E-02 0.  1.
       -1   -1    0    0    0  501  0.00000000000E+00  0.00000000000E+00 -0.29315064266E+03  0.29315064270E+03  0.50400001928E-02 0. -1.
    10030    2    1    2    0    0  0.00000000000E+00  0.00000000000E+00  0.93543342937E+03  0.15217347147E+04  0.12002669875E+04 0.  0.
        5    1    3    3  502    0  0.93998421946E+02  0.26016761608E+03  0.11429064947E+04  0.11759167646E+04  0.46999998093E+01 0.  1.
       -5    1    3    3    0  502 -0.93998421946E+02 -0.26016761608E+03 -0.20747306531E+03  0.34581795010E+03  0.46999998093E+01 0. -1.
</event>
<event>
 5   0  0.9941209E-05  0.1200289E+04  0.7818609E-02  0.9112604E-01
        2   -1    0    0  501    0  0.00000000000E+00  0.00000000000E+00  0.74149834011E+03  0.74149834012E+03  0.25500000920E-02 0.  1.
       -2   -1    0    0    0  501  0.00000000000E+00  0.00000000000E+00 -0.48573721710E+03  0.48573721711E+03  0.25500000920E-02 0. -1.
    10030    2    1    2    0    0  0.00000000000E+00  0.00000000000E+00  0.25576112301E+03  0.12272355572E+04  0.12002888656E+04 0.  0.
        2    1    3    3  502    0  0.38790045186E+03  0.31129152511E+03  0.47128406526E+03  0.68518453306E+03  0.25500000920E-02 0.  1.
       -2    1    3    3    0  502 -0.38790045186E+03 -0.31129152511E+03 -0.21552294226E+03  0.54205102417E+03  0.25500000920E-02 0. -1.
</event>
<event>
 5   0  0.5447807E-05  0.1200135E+04  0.7818609E-02  0.9112738E-01
       -1   -1    0    0    0  501  0.00000000000E+00  0.00000000000E+00  0.86525225769E+03  0.86525225771E+03  0.50400001928E-02 0.  1.
        1   -1    0    0  501    0  0.00000000000E+00  0.00000000000E+00 -0.41615720324E+03  0.41615720327E+03  0.50400001928E-02 0. -1.
    10030    2    1    2    0    0  0.00000000000E+00  0.00000000000E+00  0.44909505445E+03  0.12814094610E+04  0.12001349252E+04 0.  0.
        2    1    3    3  502    0  0.23272013501E+03  0.72555461244E+02 -0.36090843937E+03  0.43552021515E+03  0.25500000920E-02 0. -1.
       -2    1    3    3    0  502 -0.23272013501E+03 -0.72555461244E+02  0.81000349382E+03  0.84588924583E+03  0.25500000920E-02 0.  1.
</event>
<event>
 5   0  0.1004006E-04  0.1198392E+04  0.7818609E-02  0.9114265E-01
        2   -1    0    0  501    0  0.00000000000E+00  0.00000000000E+00  0.12526419770E+04  0.12526419770E+04  0.25500000920E-02 0.  1.
       -2   -1    0    0    0  501  0.00000000000E+00  0.00000000000E+00 -0.28662307434E+03  0.28662307435E+03  0.25500000920E-02 0. -1.
    10030    2    1    2    0    0  0.00000000000E+00  0.00000000000E+00  0.96601890263E+03  0.15392650513E+04  0.11983924140E+04 0.  0.
        5    1    3    3  502    0  0.85222335405E+02 -0.24810299118E+03 -0.20891729165E+03  0.33539001988E+03  0.46999998093E+01 0. -1.
       -5    1    3    3    0  502 -0.85222335405E+02  0.24810299118E+03  0.11749361943E+04  0.12038750314E+04  0.46999998093E+01 0.  1.
</event>
<event>
 5   0  0.9838215E-05  0.1199662E+04  0.7818609E-02  0.9113152E-01
       -2   -1    0    0    0  501  0.00000000000E+00  0.00000000000E+00  0.31889628197E+03  0.31889628198E+03  0.25500000920E-02 0.  1.
        2   -1    0    0  501    0  0.00000000000E+00  0.00000000000E+00 -0.11282585639E+04  0.11282585639E+04  0.25500000920E-02 0. -1.
    10030    2    1    2    0    0  0.00000000000E+00  0.00000000000E+00 -0.80936228192E+03  0.14471548459E+04  0.11996623877E+04 0.  0.
        4    1    3    3  502    0  0.19864609797E+03 -0.27002979256E+03 -0.10047110676E+04  0.10591611319E+04  0.12699999809E+01 0. -1.
       -4    1    3    3    0  502 -0.19864609797E+03  0.27002979256E+03  0.19534878567E+03  0.38799371396E+03  0.12699999809E+01 0.  1.
</event>
<event>
 5   0  0.9838215E-05  0.1205612E+04  0.7818609E-02  0.9107958E-01
       -2   -1    0    0    0  501  0.00000000000E+00  0.00000000000E+00  0.71829278851E+03  0.71829278851E+03  0.25500000920E-02 0.  1.
        2   -1    0    0  501    0  0.00000000000E+00  0.00000000000E+00 -0.50588731425E+03  0.50588731425E+03  0.25500000920E-02 0. -1.
    10030    2    1    2    0    0  0.00000000000E+00  0.00000000000E+00  0.21240547426E+03  0.12241801028E+04  0.12056122256E+04 0.  0.
        4    1    3    3  502    0  0.47762029246E+03  0.22443717962E+02 -0.26653212752E+03  0.54741743865E+03  0.12699999809E+01 0. -1.
       -4    1    3    3    0  502 -0.47762029246E+03 -0.22443717962E+02  0.47893760177E+03  0.67676266411E+03  0.12699999809E+01 0.  1.
</event>
<event>
 5   0  0.5625746E-05  0.1199889E+04  0.7818609E-02  0.9112954E-01
        1   -1    0    0  501    0  0.00000000000E+00  0.00000000000E+00  0.11135198774E+04  0.11135198774E+04  0.50400001928E-02 0.  1.
       -1   -1    0    0    0  501  0.00000000000E+00  0.00000000000E+00 -0.32323938814E+03  0.32323938818E+03  0.50400001928E-02 0. -1.
    10030    2    1    2    0    0  0.00000000000E+00  0.00000000000E+00  0.79028048924E+03  0.14367592656E+04  0.11998891347E+04 0.  0.
        5    1    3    3  502    0 -0.37002596988E+03  0.47063540723E+03  0.44143046418E+03  0.74384127986E+03  0.46999998093E+01 0.  1.
       -5    1    3    3    0  502  0.37002596988E+03 -0.47063540723E+03  0.34885002506E+03  0.69291798570E+03  0.46999998093E+01 0. -1.
</event>
<event>
 5   0  0.5625746E-05  0.1200118E+04  0.7818609E-02  0.9112753E-01
        1   -1    0    0  501    0  0.00000000000E+00  0.00000000000E+00  0.16135161439E+04  0.16135161440E+04  0.50400001928E-02 0.  1.
       -1   -1    0    0    0  501  0.00000000000E+00  0.00000000000E+00 -0.22315902115E+03  0.22315902120E+03  0.50400001928E-02 0. -1.
    10030    2    1    2    0    0  0.00000000000E+00  0.00000000000E+00  0.13903571228E+04  0.18366751652E+04  0.12001177998E+04 0.  0.
        5    1    3    3  502    0  0.14685750583E+03  0.33994920767E+02  0.15840383584E+04  0.15912015562E+04  0.46999998093E+01 0.  1.
       -5    1    3    3    0  502 -0.14685750583E+03 -0.33994920767E+02 -0.19368123561E+03  0.24547360893E+03  0.46999998093E+01 0. -1.
</event>
<event>
 5   0  0.5625746E-05  0.1200511E+04  0.7818609E-02  0.9112409E-01
       -1   -1    0    0    0  501  0.00000000000E+00  0.00000000000E+00  0.42993987365E+03  0.42993987368E+03  0.50400001928E-02 0.  1.
        1   -1    0    0  501    0  0.00000000000E+00  0.00000000000E+00 -0.83804003795E+03  0.83804003797E+03  0.50400001928E-02 0. -1.
    10030    2    1    2    0    0  0.00000000000E+00  0.00000000000E+00 -0.40810016430E+03  0.12679799117E+04  0.12005112712E+04 0.  0.
        5    1    3    3  502    0  0.54508064825E+03 -0.24664140169E+03 -0.25514051443E+03  0.65043344489E+03  0.46999998093E+01 0. -1.
       -5    1    3    3    0  502 -0.54508064825E+03  0.24664140169E+03 -0.15295964987E+03  0.61754646676E+03  0.46999998093E+01 0.  1.
</event>
<event>
 5   0  0.9838215E-05  0.1200072E+04  0.7818609E-02  0.9112793E-01
        2   -1    0    0  501    0  0.00000000000E+00  0.00000000000E+00  0.55115653635E+03  0.55115653636E+03  0.25500000920E-02 0. -1.
       -2   -1    0    0    0  501  0.00000000000E+00  0.00000000000E+00 -0.65325039172E+03  0.65325039172E+03  0.25500000920E-02 0.  1.
    10030    2    1    2    0    0  0.00000000000E+00  0.00000000000E+00 -0.10209385537E+03  0.12044069281E+04  0.12000720366E+04 0.  0.
        4    1    3    3  502    0 -0.63506751978E+02 -0.20690116969E+03  0.51061771949E+03  0.55459288665E+03  0.12699999809E+01 0. -1.
       -4    1    3    3    0  502  0.63506751978E+02  0.20690116969E+03 -0.61271157486E+03  0.64981404143E+03  0.12699999809E+01 0.  1.
</event>
<event>
 5   0  0.1004006E-04  0.1200045E+04  0.7818609E-02  0.9112817E-01
       -2   -1    0    0    0  501  0.00000000000E+00  0.00000000000E+00  0.57310667866E+03  0.57310667867E+03  0.25500000920E-02 0. -1.
        2   -1    0    0  501    0  0.00000000000E+00  0.00000000000E+00 -0.62820244937E+03  0.62820244938E+03  0.25500000920E-02 0.  1.
    10030    2    1    2    0    0  0.00000000000E+00  0.00000000000E+00 -0.55095770710E+02  0.12013091281E+04  0.12000450313E+04 0.  0.
        5    1    3    3  502    0  0.54871300926E+03 -0.13517297695E+03  0.17427606684E+03  0.59139829024E+03  0.46999998093E+01 0. -1.
       -5    1    3    3    0  502 -0.54871300926E+03  0.13517297695E+03 -0.22937183755E+03  0.60991083781E+03  0.46999998093E+01 0.  1.
</event>
<event>
 5   0  0.5745487E-05  0.1200212E+04  0.7818609E-02  0.9112671E-01
       -1   -1    0    0    0  501  0.00000000000E+00  0.00000000000E+00  0.20415491274E+03  0.20415491280E+03  0.50400001928E-02 0. -1.
        1   -1    0    0  501    0  0.00000000000E+00  0.00000000000E+00 -0.17639889775E+04  0.17639889775E+04  0.50400001928E-02 0.  1.
    10030    2    1    2    0    0  0.00000000000E+00  0.00000000000E+00 -0.15598340648E+04  0.19681438903E+04  0.12002116744E+04 0.  0.
        3    1    3    3  502    0 -0.15963627212E+02 -0.17436381463E+03 -0.17211704385E+04  0.17300535442E+04  0.10100000352E+00 0.  1.
       -3    1    3    3    0  502  0.15963627212E+02  0.17436381463E+03  0.16133637370E+03  0.23809034614E+03  0.10100000352E+00 0. -1.
</event>
<event>
 5   0  0.9838215E-05  0.1199591E+04  0.7818609E-02  0.9113215E-01
       -2   -1    0    0    0  501  0.00000000000E+00  0.00000000000E+00  0.18898860080E+03  0.18898860081E+03  0.25500000920E-02 0. -1.
        2   -1    0    0  501    0  0.00000000000E+00  0.00000000000E+00 -0.19035776017E+04  0.19035776017E+04  0.25500000920E-02 0.  1.
    10030    2    1    2    0    0  0.00000000000E+00  0.00000000000E+00 -0.17145890009E+04  0.20925662025E+04  0.11995907093E+04 0.  0.
        4    1    3    3  502    0  0.26187870340E+03  0.46521186367E+03 -0.38036669327E+03  0.65550207295E+03  0.12699999809E+01 0. -1.
       -4    1    3    3    0  502 -0.26187870340E+03 -0.46521186367E+03 -0.13342223077E+04  0.14370641296E+04  0.12699999809E+01 0.  1.
</event>
<event>
 5   0  0.1012657E-04  0.1200500E+04  0.7818609E-02  0.9112419E-01
        2   -1    0    0  501    0  0.00000000000E+00  0.00000000000E+00  0.17915120099E+03  0.17915120100E+03  0.25500000920E-02 0. -1.
       -2   -1    0    0    0  501  0.00000000000E+00  0.00000000000E+00 -0.20111508247E+04  0.20111508247E+04  0.25500000920E-02 0.  1.
    10030    2    1    2    0    0  0.00000000000E+00  0.00000000000E+00 -0.18319996237E+04  0.21903020257E+04  0.12005000385E+04 0.  0.
        1    1    3    3  502    0 -0.12552261114E+03  0.41332905809E+03 -0.16764062721E+04  0.17311657417E+04  0.50400001928E-02 0.  1.
       -1    1    3    3    0  502  0.12552261114E+03 -0.41332905809E+03 -0.15559335160E+03  0.45913628397E+03  0.50400001928E-02 0. -1.
</event>
<event>
 5   0  0.5620246E-05  0.1199769E+04  0.7818609E-02  0.9113059E-01
        1   -1    0    0  501    0  0.00000000000E+00  0.00000000000E+00  0.12498360710E+04  0.12498360710E+04  0.50400001928E-02 0.  1.
       -1   -1    0    0    0  501  0.00000000000E+00  0.00000000000E+00 -0.28792683514E+03  0.28792683519E+03  0.50400001928E-02 0. -1.
    10030    2    1    2    0    0  0.00000000000E+00  0.00000000000E+00  0.96190923583E+03  0.15377629062E+04  0.11997688851E+04 0.  0.
        1    1    3    3  502    0 -0.44971643372E+03  0.34248509346E+03  0.22358671309E+03  0.60789137869E+03  0.50400001928E-02 0. -1.
       -1    1    3    3    0  502  0.44971643372E+03 -0.34248509346E+03  0.73832252274E+03  0.92987152747E+03  0.50400001928E-02 0.  1.
</event>
<event>
 5   0  0.1023063E-04  0.1200199E+04  0.7818609E-02  0.9112682E-01
        2   -1    0    0  501    0  0.00000000000E+00  0.00000000000E+00  0.49013764791E+03  0.49013764792E+03  0.25500000920E-02 0.  1.
       -2   -1    0    0    0  501  0.00000000000E+00  0.00000000000E+00 -0.73473149670E+03  0.73473149670E+03  0.25500000920E-02 0. -1.
    10030    2    1    2    0    0  0.00000000000E+00  0.00000000000E+00 -0.24459384878E+03  0.12248691446E+04  0.12001992629E+04 0.  0.
        3    1    3    3  502    0 -0.17056151980E+03 -0.56478042917E+03 -0.10261606782E+02  0.59006226450E+03  0.10100000352E+00 0. -1.
       -3    1    3    3    0  502  0.17056151980E+03  0.56478042917E+03 -0.23433224200E+03  0.63480688012E+03  0.10100000352E+00 0.  1.
</event>
<event>
 5   0  0.5745487E-05  0.1198880E+04  0.7818609E-02  0.9113837E-01
       -1   -1    0    0    0  501  0.00000000000E+00  0.00000000000E+00  0.26616857971E+03  0.26616857975E+03  0.50400001928E-02 0. -1.
        1   -1    0    0  501    0  0.00000000000E+00  0.00000000000E+00 -0.13500028075E+04  0.13500028075E+04  0.50400001928E-02 0.  1.
    10030    2    1    2    0    0  0.00000000000E+00  0.00000000000E+00 -0.10838342277E+04  0.16161713872E+04  0.11988800272E+04 0.  0.
        3    1    3    3  502    0 -0.54218358949E+03  0.10147110640E+01 -0.19726431129E+03  0.57695519156E+03  0.10100000352E+00 0. -1.
       -3    1    3    3    0  502  0.54218358949E+03 -0.10147110640E+01 -0.88656991646E+03  0.10392161957E+04  0.10100000352E+00 0.  1.
</event>
<event>
 5   0  0.5625746E-05  0.1199839E+04  0.7818609E-02  0.9112997E-01
        1   -1    0    0  501    0  0.00000000000E+00  0.00000000000E+00  0.53292789680E+03  0.53292789683E+03  0.50400001928E-02 0.  1.
       -1   -1    0    0    0  501  0.00000000000E+00  0.00000000000E+00 -0.67533259555E+03  0.67533259557E+03  0.50400001928E-02 0. -1.
    10030    2    1    2    0    0  0.00000000000E+00  0.00000000000E+00 -0.14240469875E+03  0.12082604924E+04  0.11998392889E+04 0.  0.
        5    1    3    3  502    0 -0.26053342795E+03  0.23979751352E+03 -0.55885413962E+03  0.66160452987E+03  0.46999998093E+01 0. -1.
       -5    1    3    3    0  502  0.26053342795E+03 -0.23979751352E+03  0.41644944088E+03  0.54665596253E+03  0.46999998093E+01 0.  1.
</event>
<event>
 5   0  0.5620246E-05  0.1200676E+04  0.7818609E-02  0.9112265E-01
       -1   -1    0    0    0  501  0.00000000000E+00  0.00000000000E+00  0.47426414603E+03  0.47426414606E+03  0.50400001928E-02 0.  1.
        1   -1    0    0  501    0  0.00000000000E+00  0.00000000000E+00 -0.75992549641E+03  0.75992549643E+03  0.50400001928E-02 0. -1.
    10030    2    1    2    0    0  0.00000000000E+00  0.00000000000E+00 -0.28566135038E+03  0.12341896425E+04  0.12006755043E+04 0.  0.
        1    1    3    3  502    0 -0.54413606925E+03 -0.21776819787E+03 -0.92084767726E+01  0.58616708022E+03  0.50400001928E-02 0. -1.
       -1    1    3    3    0  502  0.54413606925E+03  0.21776819787E+03 -0.27645287361E+03  0.64802256227E+03  0.50400001928E-02 0.  1.
</event>
<event>
 5   0  0.5620246E-05  0.1199860E+04  0.7818609E-02  0.9112979E-01
       -1   -1    0    0    0  501  0.00000000000E+00  0.00000000000E+00  0.19031914221E+03  0.19031914228E+03  0.50400001928E-02 0.  1.
        1   -1    0    0  501    0  0.00000000000E+00  0.00000000000E+00 -0.18911190550E+04  0.18911190550E+04  0.50400001928E-02 0. -1.
    10030    2    1    2    0    0  0.00000000000E+00  0.00000000000E+00 -0.17007999128E+04  0.20814381973E+04  0.11998602526E+04 0.  0.
        1    1    3    3  502    0 -0.57917279014E+03  0.44654305570E+02 -0.59029960297E+03  0.82818400681E+03  0.50400001928E-02 0. -1.
       -1    1    3    3    0  502  0.57917279014E+03 -0.44654305570E+02 -0.11105003099E+04  0.12532541905E+04  0.50400001928E-02 0.  1.
</event>
<event>
 5   0  0.1023063E-04  0.1200338E+04  0.7818609E-02  0.9112561E-01
        2   -1    0    0  501    0  0.00000000000E+00  0.00000000000E+00  0.15318716716E+04  0.15318716716E+04  0.25500000920E-02 0. -1.
       -2   -1    0    0    0  501  0.00000000000E+00  0.00000000000E+00 -0.23513905709E+03  0.23513905711E+03  0.25500000920E-02 0.  1.
    10030    2    1    2    0    0  0.00000000000E+00  0.00000000000E+00  0.12967326145E+04  0.17670107287E+04  0.12003380532E+04 0.  0.
        3    1    3    3  502    0 -0.41399762904E+02 -0.47302299149E+03  0.10800913879E+03  0.48696065048E+03  0.10100000352E+00 0.  1.
       -3    1    3    3    0  502  0.41399762904E+02  0.47302299149E+03  0.11887234757E+04  0.12800500782E+04  0.10100000352E+00 0. -1.
</event>
<event>
 5   0  0.5620246E-05  0.1200335E+04  0.7818609E-02  0.9112563E-01
        1   -1    0    0  501    0  0.00000000000E+00  0.00000000000E+00  0.11257431474E+04  0.11257431474E+04  0.50400001928E-02 0.  1.
       -1   -1    0    0    0  501  0.00000000000E+00  0.00000000000E+00 -0.31996724926E+03  0.31996724929E+03  0.50400001928E-02 0. -1.
    10030    2    1    2    0    0  0.00000000000E+00  0.00000000000E+00  0.80577589810E+03  0.14457103967E+04  0.12003348504E+04 0.  0.
        1    1    3    3  502    0 -0.11868230560E+03 -0.29316443555E+03  0.10172261890E+04  0.10652605294E+04  0.50400001928E-02 0.  1.
       -1    1    3    3    0  502  0.11868230560E+03  0.29316443555E+03 -0.21145029090E+03  0.38044986724E+03  0.50400001928E-02 0. -1.
</event>
<event>
 5   0  0.5447807E-05  0.1199425E+04  0.7818609E-02  0.9113360E-01
        1   -1    0    0  501    0  0.00000000000E+00  0.00000000000E+00  0.50330359374E+03  0.50330359376E+03  0.50400001928E-02 0.  1.
       -1   -1    0    0    0  501  0.00000000000E+00  0.00000000000E+00 -0.71458853783E+03  0.71458853785E+03  0.50400001928E-02 0. -1.
    10030    2    1    2    0    0  0.00000000000E+00  0.00000000000E+00 -0.21128494410E+03  0.12178921316E+04  0.11994248274E+04 0.  0.
        2    1    3    3  502    0  0.51384244564E+03  0.27706524514E+03 -0.24507301808E+03  0.63313505131E+03  0.25500000920E-02 0.  1.
       -2    1    3    3    0  502 -0.51384244564E+03 -0.27706524514E+03  0.33788073984E+02  0.58475708030E+03  0.25500000920E-02 0. -1.
</event>
<event>
 5   0  0.5625746E-05  0.1199055E+04  0.7818609E-02  0.9113684E-01
        1   -1    0    0  501    0  0.00000000000E+00  0.00000000000E+00  0.17027831139E+04  0.17027831139E+04  0.50400001928E-02 0.  1.
       -1   -1    0    0    0  501  0.00000000000E+00  0.00000000000E+00 -0.21108565898E+03  0.21108565904E+03  0.50400001928E-02 0. -1.
    10030    2    1    2    0    0  0.00000000000E+00  0.00000000000E+00  0.14916974550E+04  0.19138687730E+04  0.11990547874E+04 0.  0.
        5    1    3    3  502    0 -0.33208482496E+03 -0.41584443712E+03  0.30523072414E+03  0.61351023774E+03  0.46999998093E+01 0. -1.
       -5    1    3    3    0  502  0.33208482496E+03  0.41584443712E+03  0.11864667308E+04  0.13003585352E+04  0.46999998093E+01 0.  1.
</event>
<event>
 5   0  0.9838215E-05  0.1199974E+04  0.7818609E-02  0.9112880E-01
        2   -1    0    0  501    0  0.00000000000E+00  0.00000000000E+00  0.11295394229E+04  0.11295394229E+04  0.25500000920E-02 0. -1.
       -2   -1    0    0    0  501  0.00000000000E+00  0.00000000000E+00 -0.31869995324E+03  0.31869995325E+03  0.25500000920E-02 0.  1.
    10030    2    1    2    0    0  0.00000000000E+00  0.00000000000E+00  0.81083946966E+03  0.14482393762E+04  0.11999736018E+04 0.  0.
        4    1    3    3  502    0 -0.14941755188E+03 -0.10743072327E+03 -0.28379481178E+03  0.33824262476E+03  0.12699999809E+01 0.  1.
       -4    1    3    3    0  502  0.14941755188E+03  0.10743072327E+03  0.10946342814E+04  0.11099967514E+04  0.12699999809E+01 0. -1.
</event>
<event>
 5   0  0.1023063E-04  0.1199058E+04  0.7818609E-02  0.9113682E-01
       -2   -1    0    0    0  501  0.00000000000E+00  0.00000000000E+00  0.57283439977E+03  0.57283439978E+03  0.25500000920E-02 0.  1.
        2   -1    0    0  501    0  0.00000000000E+00  0.00000000000E+00 -0.62746718925E+03  0.62746718925E+03  0.25500000920E-02 0. -1.
    10030    2    1    2    0    0  0.00000000000E+00  0.00000000000E+00 -0.54632789474E+02  0.12003015890E+04  0.11990576145E+04 0.  0.
        3    1    3    3  502    0  0.14957865332E+03 -0.58011657765E+03 -0.50269713041E+02  0.60119553512E+03  0.10100000352E+00 0.  1.
       -3    1    3    3    0  502 -0.14957865332E+03  0.58011657765E+03 -0.43630764332E+01  0.59910605391E+03  0.10100000352E+00 0. -1.
</event>
<event>
 5   0  0.5732931E-05  0.1200551E+04  0.7818609E-02  0.9112374E-01
        1   -1    0    0  501    0  0.00000000000E+00  0.00000000000E+00  0.11054355253E+04  0.11054355253E+04  0.50400001928E-02 0.  1.
       -1   -1    0    0    0  501  0.00000000000E+00  0.00000000000E+00 -0.32596276157E+03  0.32596276161E+03  0.50400001928E-02 0. -1.
    10030    2    1    2    0    0  0.00000000000E+00  0.00000000000E+00  0.77947276375E+03  0.14313982869E+04  0.12005512344E+04 0.  0.
        4    1    3    3  502    0  0.19151747595E+03  0.45960520643E+03 -0.10013800691E+02  0.49801383362E+03  0.12699999809E+01 0. -1.
       -4    1    3    3    0  502 -0.19151747595E+03 -0.45960520643E+03  0.78948656444E+03  0.93338445332E+03  0.12699999809E+01 0.  1.
</event>
<event>
 5   0  0.5447807E-05  0.1199644E+04  0.7818609E-02  0.9113168E-01
        1   -1    0    0  501    0  0.00000000000E+00  0.00000000000E+00  0.45099284978E+03  0.45099284981E+03  0.50400001928E-02 0. -1.
       -1   -1    0    0    0  501  0.00000000000E+00  0.00000000000E+00 -0.79776579757E+03  0.79776579758E+03  0.50400001928E-02 0.  1.
    10030    2    1    2    0    0  0.00000000000E+00  0.00000000000E+00 -0.34677294779E+03  0.12487586474E+04  0.11996443982E+04 0.  0.
        2    1    3    3  502    0 -0.42421148718E+02 -0.54265537427E+03  0.88947638017E+02  0.55153068038E+03  0.25500000920E-02 0. -1.
       -2    1    3    3    0  502  0.42421148718E+02  0.54265537427E+03 -0.43572058580E+03  0.69722796701E+03  0.25500000920E-02 0.  1.
</event>
<event>
 5   0  0.5732931E-05  0.1199754E+04  0.7818609E-02  0.9113072E-01
       -1   -1    0    0    0  501  0.00000000000E+00  0.00000000000E+00  0.54052669211E+03  0.54052669213E+03  0.50400001928E-02 0. -1.
        1   -1    0    0  501    0  0.00000000000E+00  0.00000000000E+00 -0.66574376381E+03  0.66574376383E+03  0.50400001928E-02 0.  1.
    10030    2    1    2    0    0  0.00000000000E+00  0.00000000000E+00 -0.12521707170E+03  0.12062704560E+04  0.11997537655E+04 0.  0.
        4    1    3    3  502    0  0.53094519112E+03 -0.26580745521E+03 -0.14847889103E+03  0.61204901209E+03  0.12699999809E+01 0.  1.
       -4    1    3    3    0  502 -0.53094519112E+03  0.26580745521E+03  0.23261819328E+02  0.59422144387E+03  0.12699999809E+01 0. -1.
</event>
<event>
 5   0  0.5620246E-05  0.1199673E+04  0.7818609E-02  0.9113143E-01
        1   -1    0    0  501    0  0.00000000000E+00  0.00000000000E+00  0.41677831963E+03  0.41677831966E+03  0.50400001928E-02 0. -1.
       -1   -1    0    0    0  501  0.00000000000E+00  0.00000000000E+00 -0.86329722060E+03  0.86329722061E+03  0.50400001928E-02 0.  1.
    10030    2    1    2    0    0  0.00000000000E+00  0.00000000000E+00 -0.44651890097E+03  0.12800755403E+04  0.11996725636E+04 0.  0.
        1    1    3    3  502    0 -0.22849162753E+03 -0.50511274749E+02 -0.81258319497E+03  0.84560703728E+03  0.50400001928E-02 0.  1.
       -1    1    3    3    0  502  0.22849162753E+03  0.50511274749E+02  0.36606429400E+03  0.43446850300E+03  0.50400001928E-02 0. -1.
</event>
<event>
 5   0  0.3839750E-05  0.1199708E+04  0.7818609E-02  0.9113112E-01
       -3   -1    0    0    0  501  0.00000000000E+00  0.00000000000E+00  0.42650303946E+03  0.42650305142E+03  0.10100000352E+00 0.  1.
        3   -1    0    0  501    0  0.00000000000E+00  0.00000000000E+00 -0.84366333081E+03  0.84366333686E+03  0.10100000352E+00 0. -1.
    10030    2    1    2    0    0  0.00000000000E+00  0.00000000000E+00 -0.41716029135E+03  0.12701663883E+04  0.11997082750E+04 0.  0.
        2    1    3    3  502    0  0.35297760149E+03 -0.34002669769E+03 -0.57474387465E+03  0.75534221632E+03  0.25500000920E-02 0. -1.
       -2    1    3    3    0  502 -0.35297760149E+03  0.34002669769E+03  0.15758358330E+03  0.51482417195E+03  0.25500000920E-02 0.  1.
</event>
<event>
 5   0  0.5732931E-05  0.1200124E+04  0.7818609E-02  0.9112748E-01
        1   -1    0    0  501    0  0.00000000000E+00  0.00000000000E+00  0.10773009051E+04  0.10773009051E+04  0.50400001928E-02 0.  1.
       -1   -1    0    0    0  501  0.00000000000E+00  0.00000000000E+00 -0.33423763977E+03  0.33423763981E+03  0.50400001928E-02 0. -1.
    10030    2    1    2    0    0  0.00000000000E+00  0.00000000000E+00  0.74306326528E+03  0.14115385449E+04  0.12001241800E+04 0.  0.
        4    1    3    3  502    0  0.98852868049E+02  0.35531905478E+02  0.10664010829E+04  0.10715630119E+04  0.12699999809E+01 0.  1.
       -4    1    3    3    0  502 -0.98852868049E+02 -0.35531905478E+02 -0.32333781764E+03  0.33997553301E+03  0.12699999809E+01 0. -1.
</event>
<event>
 5   0  0.9838215E-05  0.1200990E+04  0.7818609E-02  0.9111991E-01
       -2   -1    0    0    0  501  0.00000000000E+00  0.00000000000E+00  0.54912362393E+03  0.54912362394E+03  0.25500000920E-02 0.  1.
        2   -1    0    0  501    0  0.00000000000E+00  0.00000000000E+00 -0.65667209305E+03  0.65667209305E+03  0.25500000920E-02 0. -1.
    10030    2    1    2    0    0  0.00000000000E+00  0.00000000000E+00 -0.10754846911E+03  0.12057957170E+04  0.12009898575E+04 0.  0.
        4    1    3    3  502    0 -0.90279386909E+02  0.65662452399E+02 -0.64616122142E+03  0.65573459747E+03  0.12699999809E+01 0. -1.
       -4    1    3    3    0  502  0.90279386909E+02 -0.65662452399E+02  0.53861275231E+03  0.55006111952E+03  0.12699999809E+01 0.  1.
</event>
<event>
 5   0  0.3839750E-05  0.1201725E+04  0.7818609E-02  0.9111348E-01
       -3   -1    0    0    0  501  0.00000000000E+00  0.00000000000E+00  0.77014649966E+03  0.77014650628E+03  0.10100000352E+00 0. -1.
        3   -1    0    0  501    0  0.00000000000E+00  0.00000000000E+00 -0.46878855873E+03  0.46878856961E+03  0.10100000352E+00 0.  1.
    10030    2    1    2    0    0  0.00000000000E+00  0.00000000000E+00  0.30135794093E+03  0.12389350759E+04  0.12017252239E+04 0.  0.
        3    1    3    3  502    0  0.47345816834E+03  0.33232329655E+03  0.31830002695E+03  0.66023959891E+03  0.10100000352E+00 0. -1.
       -3    1    3    3    0  502 -0.47345816834E+03 -0.33232329655E+03 -0.16942086025E+02  0.57869547699E+03  0.10100000352E+00 0.  1.
</event>
<event>
 5   0  0.9838215E-05  0.1194515E+04  0.7818609E-02  0.9117671E-01
       -2   -1    0    0    0  501  0.00000000000E+00  0.00000000000E+00  0.41835468964E+03  0.41835468965E+03  0.25500000920E-02 0. -1.
        2   -1    0    0  501    0  0.00000000000E+00  0.00000000000E+00 -0.85266547273E+03  0.85266547273E+03  0.25500000920E-02 0.  1.
    10030    2    1    2    0    0  0.00000000000E+00  0.00000000000E+00 -0.43431078309E+03  0.12710201624E+04  0.11945151305E+04 0.  0.
        4    1    3    3  502    0 -0.30827344806E+03 -0.39881389169E+03 -0.55803250040E+03  0.75198864578E+03  0.12699999809E+01 0.  1.
       -4    1    3    3    0  502  0.30827344806E+03  0.39881389169E+03  0.12372171731E+03  0.51903151660E+03  0.12699999809E+01 0. -1.
</event>
<event>
 5   0  0.5620246E-05  0.1200786E+04  0.7818609E-02  0.9112169E-01
        1   -1    0    0  501    0  0.00000000000E+00  0.00000000000E+00  0.61089696963E+03  0.61089696965E+03  0.50400001928E-02 0. -1.
       -1   -1    0    0    0  501  0.00000000000E+00  0.00000000000E+00 -0.59006993208E+03  0.59006993211E+03  0.50400001928E-02 0.  1.
    10030    2    1    2    0    0  0.00000000000E+00  0.00000000000E+00  0.20827037548E+02  0.12009669018E+04  0.12007862981E+04 0.  0.
        1    1    3    3  502    0  0.51187472616E+03 -0.28968817967E+03  0.13100095528E+03  0.60257466510E+03  0.50400001928E-02 0. -1.
       -1    1    3    3    0  502 -0.51187472616E+03  0.28968817967E+03 -0.11017391774E+03  0.59839223666E+03  0.50400001928E-02 0.  1.
</event>
<event>
 5   0  0.5732931E-05  0.1199766E+04  0.7818609E-02  0.9113061E-01
       -1   -1    0    0    0  501  0.00000000000E+00  0.00000000000E+00  0.56044966278E+03  0.56044966280E+03  0.50400001928E-02 0. -1.
        1   -1    0    0  501    0  0.00000000000E+00  0.00000000000E+00 -0.64209121621E+03  0.64209121623E+03  0.50400001928E-02 0.  1.
    10030    2    1    2    0    0  0.00000000000E+00  0.00000000000E+00 -0.81641553433E+02  0.12025408790E+04  0.11997663200E+04 0.  0.
        4    1    3    3  502    0 -0.50731654533E+03 -0.18436758277E+03 -0.30314478427E+03  0.61907984613E+03  0.12699999809E+01 0.  1.
       -4    1    3    3    0  502  0.50731654533E+03  0.18436758277E+03  0.22150323084E+03  0.58346103291E+03  0.12699999809E+01 0. -1.
</event>
<event>
 5   0  0.9838215E-05  0.1199917E+04  0.7818609E-02  0.9112929E-01
       -2   -1    0    0    0  501  0.00000000000E+00  0.00000000000E+00  0.43074981282E+03  0.43074981283E+03  0.25500000920E-02 0. -1.
        2   -1    0    0  501    0  0.00000000000E+00  0.00000000000E+00 -0.83563677587E+03  0.83563677588E+03  0.25500000920E-02 0.  1.
    10030    2    1    2    0    0  0.00000000000E+00  0.00000000000E+00 -0.40488696305E+03  0.12663865887E+04  0.11999173052E+04 0.  0.
        4    1    3    3  502    0 -0.45411116797E+03  0.38929143363E+03 -0.25176553804E+03  0.64896245825E+03  0.12699999809E+01 0. -1.
       -4    1    3    3    0  502  0.45411116797E+03 -0.38929143363E+03 -0.15312142501E+03  0.61742413046E+03  0.12699999809E+01 0.  1.
</event>
<event>
 5   0  0.9838215E-05  0.1200134E+04  0.7818609E-02  0.9112740E-01
       -2   -1    0    0    0  501  0.00000000000E+00  0.00000000000E+00  0.49482262752E+03  0.49482262753E+03  0.25500000920E-02 0. -1.
        2   -1    0    0  501    0  0.00000000000E+00  0.00000000000E+00 -0.72769542146E+03  0.72769542147E+03  0.25500000920E-02 0.  1.
    10030    2    1    2    0    0  0.00000000000E+00  0.00000000000E+00 -0.23287279394E+03  0.12225180490E+04  0.12001335934E+04 0.  0.
        4    1    3    3  502    0 -0.29706646845E+03 -0.18680580105E+03  0.37940075343E+03  0.51680889948E+03  0.12699999809E+01 0. -1.
       -4    1    3    3    0  502  0.29706646845E+03  0.18680580105E+03 -0.61227354738E+03  0.70570914951E+03  0.12699999809E+01 0.  1.
</event>
<event>
 5   0  0.1004006E-04  0.1200426E+04  0.7818609E-02  0.9112484E-01
       -2   -1    0    0    0  501  0.00000000000E+00  0.00000000000E+00  0.64056466819E+03  0.64056466819E+03  0.25500000920E-02 0.  1.
        2   -1    0    0  501    0  0.00000000000E+00  0.00000000000E+00 -0.56240338042E+03  0.56240338043E+03  0.25500000920E-02 0. -1.
    10030    2    1    2    0    0  0.00000000000E+00  0.00000000000E+00  0.78161287764E+02  0.12029680486E+04  0.12004261490E+04 0.  0.
        5    1    3    3  502    0 -0.26778184264E+03  0.40255177726E+03 -0.31731071339E+03  0.57832795839E+03  0.46999998093E+01 0. -1.
       -5    1    3    3    0  502  0.26778184264E+03 -0.40255177726E+03  0.39547200116E+03  0.62464009023E+03  0.46999998093E+01 0.  1.
</event>
<event>
 5   0  0.1012657E-04  0.1199709E+04  0.7818609E-02  0.9113111E-01
       -2   -1    0    0    0  501  0.00000000000E+00  0.00000000000E+00  0.49228023910E+03  0.49228023910E+03  0.25500000920E-02 0.  1.
        2   -1    0    0  501    0  0.00000000000E+00  0.00000000000E+00 -0.73093610848E+03  0.73093610848E+03  0.25500000920E-02 0. -1.
    10030    2    1    2    0    0  0.00000000000E+00  0.00000000000E+00 -0.23865586938E+03  0.12232163476E+04  0.11997089685E+04 0.  0.
        1    1    3    3  502    0 -0.78222443238E+02  0.13552768948E+03  0.47110331712E+03  0.49641196669E+03  0.50400001928E-02 0.  1.
       -1    1    3    3    0  502  0.78222443238E+02 -0.13552768948E+03 -0.70975918650E+03  0.72680438090E+03  0.50400001928E-02 0. -1.
</event>
<event>
 5   0  0.5625746E-05  0.1200058E+04  0.7818609E-02  0.9112806E-01
        1   -1    0    0  501    0  0.00000000000E+00  0.00000000000E+00  0.53421161056E+03  0.53421161058E+03  0.50400001928E-02 0. -1.
       -1   -1    0    0    0  501  0.00000000000E+00  0.00000000000E+00 -0.67395554156E+03  0.67395554158E+03  0.50400001928E-02 0.  1.
    10030    2    1    2    0    0  0.00000000000E+00  0.00000000000E+00 -0.13974393100E+03  0.12081671522E+04  0.12000581241E+04 0.  0.
        5    1    3    3  502    0  0.54484358201E+03  0.25120385520E+03 -0.77330100170E+02  0.60494622911E+03  0.46999998093E+01 0.  1.
       -5    1    3    3    0  502 -0.54484358201E+03 -0.25120385520E+03 -0.62413830832E+02  0.60322092305E+03  0.46999998093E+01 0. -1.
</event>
<event>
 5   0  0.1004006E-04  0.1199971E+04  0.7818609E-02  0.9112882E-01
       -2   -1    0    0    0  501  0.00000000000E+00  0.00000000000E+00  0.21982285325E+03  0.21982285326E+03  0.25500000920E-02 0. -1.
        2   -1    0    0  501    0  0.00000000000E+00  0.00000000000E+00 -0.16376028493E+04  0.16376028493E+04  0.25500000920E-02 0.  1.
    10030    2    1    2    0    0  0.00000000000E+00  0.00000000000E+00 -0.14177799960E+04  0.18574257025E+04  0.11999708844E+04 0.  0.
        5    1    3    3  502    0 -0.39057302405E+03  0.91943022465E+02 -0.13993256824E+04  0.14557249953E+04  0.46999998093E+01 0.  1.
       -5    1    3    3    0  502  0.39057302405E+03 -0.91943022465E+02 -0.18454313606E+02  0.40170070722E+03  0.46999998093E+01 0. -1.
</event>
<event>
 5   0  0.5447807E-05  0.1200064E+04  0.7818609E-02  0.9112801E-01
       -1   -1    0    0    0  501  0.00000000000E+00  0.00000000000E+00  0.22984905063E+03  0.22984905069E+03  0.50400001928E-02 0.  1.
        1   -1    0    0  501    0  0.00000000000E+00  0.00000000000E+00 -0.15664113264E+04  0.15664113264E+04  0.50400001928E-02 0. -1.
    10030    2    1    2    0    0  0.00000000000E+00  0.00000000000E+00 -0.13365622758E+04  0.17962603771E+04  0.12000635922E+04 0.  0.
        2    1    3    3  502    0 -0.40838299778E+03  0.33045417696E+03 -0.11022550770E+04  0.12210417236E+04  0.25500000920E-02 0.  1.
       -2    1    3    3    0  502  0.40838299778E+03 -0.33045417696E+03 -0.23430719876E+03  0.57521865351E+03  0.25500000920E-02 0. -1.
</event>
<event>
 5   0  0.1004006E-04  0.1201414E+04  0.7818609E-02  0.9111619E-01
        2   -1    0    0  501    0  0.00000000000E+00  0.00000000000E+00  0.11189914951E+04  0.11189914951E+04  0.25500000920E-02 0. -1.
       -2   -1    0    0    0  501  0.00000000000E+00  0.00000000000E+00 -0.32247713171E+03  0.32247713172E+03  0.25500000920E-02 0.  1.
    10030    2    1    2    0    0  0.00000000000E+00  0.00000000000E+00  0.79651436338E+03  0.14414686268E+04  0.12014144460E+04 0.  0.
        5    1    3    3  502    0  0.27439865897E+03  0.20880384364E+03 -0.19188990425E+03  0.39463590119E+03  0.46999998093E+01 0.  1.
       -5    1    3    3    0  502 -0.27439865897E+03 -0.20880384364E+03  0.98840426763E+03  0.10468327256E+04  0.46999998093E+01 0. -1.
</event>
<event>
 5   0  0.5745487E-05  0.1199825E+04  0.7818609E-02  0.9113009E-01
        1   -1    0    0  501    0  0.00000000000E+00  0.00000000000E+00  0.18728237687E+04  0.18728237687E+04  0.50400001928E-02 0.  1.
       -1   -1    0    0    0  501  0.00000000000E+00  0.00000000000E+00 -0.19216718620E+03  0.19216718626E+03  0.50400001928E-02 0. -1.
    10030    2    1    2    0    0  0.00000000000E+00  0.00000000000E+00  0.16806565825E+04  0.20649909550E+04  0.11998254439E+04 0.  0.
        3    1    3    3  502    0  0.32477266854E+03  0.24209996337E+03  0.16019031946E+04  0.16523267031E+04  0.10100000352E+00 0.  1.
       -3    1    3    3    0  502 -0.32477266854E+03 -0.24209996337E+03  0.78753387861E+02  0.41266425190E+03  0.10100000352E+00 0. -1.
</event>
<event>
 5   0  0.5732931E-05  0.1200047E+04  0.7818609E-02  0.9112815E-01
       -1   -1    0    0    0  501  0.00000000000E+00  0.00000000000E+00  0.38432209543E+03  0.38432209546E+03  0.50400001928E-02 0. -1.
        1   -1    0    0  501    0  0.00000000000E+00  0.00000000000E+00 -0.93678844460E+03  0.93678844461E+03  0.50400001928E-02 0.  1.
    10030    2    1    2    0    0  0.00000000000E+00  0.00000000000E+00 -0.55246634917E+03  0.13211105401E+04  0.12000474958E+04 0.  0.
        4    1    3    3  502    0 -0.28550211853E+03  0.45456020530E+03 -0.57140595691E+03  0.78399159461E+03  0.12699999809E+01 0.  1.
       -4    1    3    3    0  502  0.28550211853E+03 -0.45456020530E+03  0.18939607739E+02  0.53711894546E+03  0.12699999809E+01 0. -1.
</event>
<event>
 5   0  0.5745487E-05  0.1199851E+04  0.7818609E-02  0.9112987E-01
       -1   -1    0    0    0  501  0.00000000000E+00  0.00000000000E+00  0.92251382084E+03  0.92251382086E+03  0.50400001928E-02 0.  1.
        1   -1    0    0  501    0  0.00000000000E+00  0.00000000000E+00 -0.39014146811E+03  0.39014146814E+03  0.50400001928E-02 0. -1.
    10030    2    1    2    0    0  0.00000000000E+00  0.00000000000E+00  0.53237235273E+03  0.13126552890E+04  0.11998514849E+04 0.  0.
        3    1    3    3  502    0  0.12435886504E+03 -0.18397799592E+02 -0.37557010741E+03  0.39605116099E+03  0.10100000352E+00 0. -1.
       -3    1    3    3    0  502 -0.12435886504E+03  0.18397799592E+02  0.90794246014E+03  0.91660412800E+03  0.10100000352E+00 0.  1.
</event>
<event>
 5   0  0.5745487E-05  0.1203441E+04  0.7818609E-02  0.9109850E-01
       -1   -1    0    0    0  501  0.00000000000E+00  0.00000000000E+00  0.25921439388E+03  0.25921439392E+03  0.50400001928E-02 0.  1.
        1   -1    0    0  501    0  0.00000000000E+00  0.00000000000E+00 -0.13967887141E+04  0.13967887141E+04  0.50400001928E-02 0. -1.
    10030    2    1    2    0    0  0.00000000000E+00  0.00000000000E+00 -0.11375743202E+04  0.16560031080E+04  0.12034412988E+04 0.  0.
        3    1    3    3  502    0  0.27685591921E+03  0.43130191521E+03 -0.13495346020E+03  0.52998395134E+03  0.10100000352E+00 0.  1.
       -3    1    3    3    0  502 -0.27685591921E+03 -0.43130191521E+03 -0.10026208600E+04  0.11260191566E+04  0.10100000352E+00 0. -1.
</event>
<event>
 5   0  0.9941209E-05  0.1202076E+04  0.7818609E-02  0.9111041E-01
        2   -1    0    0  501    0  0.00000000000E+00  0.00000000000E+00  0.14482823002E+04  0.14482823002E+04  0.25500000920E-02 0.  1.
       -2   -1    0    0    0  501  0.00000000000E+00  0.00000000000E+00 -0.24943129579E+03  0.24943129580E+03  0.25500000920E-02 0. -1.
    10030    2    1    2    0    0  0.00000000000E+00  0.00000000000E+00  0.11988510045E+04  0.16977135960E+04  0.12020764216E+04 0.  0.
        2    1    3    3  502    0  0.27383519449E+03  0.14934899765E+03  0.13250270402E+04  0.13612448325E+04  0.25500000920E-02 0.  1.
       -2    1    3    3    0  502 -0.27383519449E+03 -0.14934899765E+03 -0.12617603571E+03  0.33646876354E+03  0.25500000920E-02 0. -1.
</event>
<event>
 5   0  0.5625746E-05  0.1200392E+04  0.7818609E-02  0.9112513E-01
       -1   -1    0    0    0  501  0.00000000000E+00  0.00000000000E+00  0.17046300015E+03  0.17046300022E+03  0.50400001928E-02 0.  1.
        1   -1    0    0  501    0  0.00000000000E+00  0.00000000000E+00 -0.21132761730E+04  0.21132761730E+04  0.50400001928E-02 0. -1.
    10030    2    1    2    0    0  0.00000000000E+00  0.00000000000E+00 -0.19428131729E+04  0.22837391733E+04  0.12003922637E+04 0.  0.
        5    1    3    3  502    0  0.40713895213E+03 -0.36792615810E+03 -0.14338399425E+04  0.15352689846E+04  0.46999998093E+01 0. -1.
       -5    1    3    3    0  502 -0.40713895213E+03  0.36792615810E+03 -0.50897323035E+03  0.74847018870E+03  0.46999998093E+01 0.  1.
</event>
<event>
 5   0  0.5447807E-05  0.1199765E+04  0.7818609E-02  0.9113062E-01
       -1   -1    0    0    0  501  0.00000000000E+00  0.00000000000E+00  0.98248316099E+03  0.98248316100E+03  0.50400001928E-02 0.  1.
        1   -1    0    0  501    0  0.00000000000E+00  0.00000000000E+00 -0.36627512982E+03  0.36627512985E+03  0.50400001928E-02 0. -1.
    10030    2    1    2    0    0  0.00000000000E+00  0.00000000000E+00  0.61620803117E+03  0.13487582909E+04  0.11997652226E+04 0.  0.
        2    1    3    3  502    0  0.52537933650E+03  0.13939169129E+02 -0.17019591310E+02  0.52583972287E+03  0.25500000920E-02 0. -1.
       -2    1    3    3    0  502 -0.52537933650E+03 -0.13939169129E+02  0.63322762248E+03  0.82291856798E+03  0.25500000920E-02 0.  1.
</event>
<event>
 5   0  0.5745487E-05  0.1202247E+04  0.7818609E-02  0.9110892E-01
       -1   -1    0    0    0  501  0.00000000000E+00  0.00000000000E+00  0.26364868075E+03  0.26364868080E+03  0.50400001928E-02 0.  1.
        1   -1    0    0  501    0  0.00000000000E+00  0.00000000000E+00 -0.13705709838E+04  0.13705709838E+04  0.50400001928E-02 0. -1.
    10030    2    1    2    0    0  0.00000000000E+00  0.00000000000E+00 -0.11069223030E+04  0.16342196646E+04  0.12022466166E+04 0.  0.
        3    1    3    3  502    0 -0.62071213622E+01  0.42193360338E+03 -0.11354003857E+04  0.12112805373E+04  0.10100000352E+00 0. -1.
       -3    1    3    3    0  502  0.62071213622E+01 -0.42193360338E+03  0.28478082648E+02  0.42293912731E+03  0.10100000352E+00 0.  1.
</event>
<event>
 5   0  0.1012657E-04  0.1200018E+04  0.7818609E-02  0.9112841E-01
       -2   -1    0    0    0  501  0.00000000000E+00  0.00000000000E+00  0.20685580650E+03  0.20685580651E+03  0.25500000920E-02 0. -1.
        2   -1    0    0  501    0  0.00000000000E+00  0.00000000000E+00 -0.17403946483E+04  0.17403946483E+04  0.25500000920E-02 0.  1.
    10030    2    1    2    0    0  0.00000000000E+00  0.00000000000E+00 -0.15335388418E+04  0.19472504548E+04  0.12000178975E+04 0.  0.
        1    1    3    3  502    0 -0.58934202432E+03 -0.80718117441E+02 -0.89424368302E+03  0.10740163876E+04  0.50400001928E-02 0. -1.
       -1    1    3    3    0  502  0.58934202432E+03  0.80718117441E+02 -0.63929515875E+03  0.87323406722E+03  0.50400001928E-02 0.  1.
</event>
<event>
 5   0  0.9941209E-05  0.1199807E+04  0.7818609E-02  0.9113026E-01
       -2   -1    0    0    0  501  0.00000000000E+00  0.00000000000E+00  0.10279880337E+04  0.10279880337E+04  0.25500000920E-02 0. -1.
        2   -1    0    0  501    0  0.00000000000E+00  0.00000000000E+00 -0.35008585963E+03  0.35008585964E+03  0.25500000920E-02 0.  1.
    10030    2    1    2    0    0  0.00000000000E+00  0.00000000000E+00  0.67790217406E+03  0.13780738933E+04  0.11998067752E+04 0.  0.
        2    1    3    3  502    0  0.39077026533E+03  0.11342036124E+02  0.86159156432E+03  0.94613427470E+03  0.25500000920E-02 0. -1.
       -2    1    3    3    0  502 -0.39077026533E+03 -0.11342036124E+02 -0.18368939026E+03  0.43193961864E+03  0.25500000920E-02 0.  1.
</event>
<event>
 5   0  0.5745487E-05  0.1199885E+04  0.7818609E-02  0.9112957E-01
       -1   -1    0    0    0  501  0.00000000000E+00  0.00000000000E+00  0.27337115137E+03  0.27337115142E+03  0.50400001928E-02 0.  1.
        1   -1    0    0  501    0  0.00000000000E+00  0.00000000000E+00 -0.13166389081E+04  0.13166389081E+04  0.50400001928E-02 0. -1.
    10030    2    1    2    0    0  0.00000000000E+00  0.00000000000E+00 -0.10432677567E+04  0.15900100595E+04  0.11998851516E+04 0.  0.
        3    1    3    3  502    0  0.24211188328E+03 -0.52364226978E+03 -0.73982572345E+03  0.93816922887E+03  0.10100000352E+00 0. -1.
       -3    1    3    3    0  502 -0.24211188328E+03  0.52364226978E+03 -0.30344203325E+03  0.65184083062E+03  0.10100000352E+00 0.  1.
</event>
<event>
 5   0  0.1012657E-04  0.1199880E+04  0.7818609E-02  0.9112961E-01
        2   -1    0    0  501    0  0.00000000000E+00  0.00000000000E+00  0.23063660746E+04  0.23063660746E+04  0.25500000920E-02 0.  1.
       -2   -1    0    0    0  501  0.00000000000E+00  0.00000000000E+00 -0.15605859425E+03  0.15605859427E+03  0.25500000920E-02 0. -1.
    10030    2    1    2    0    0  0.00000000000E+00  0.00000000000E+00  0.21503074803E+04  0.24624246689E+04  0.11998804065E+04 0.  0.
        1    1    3    3  502    0  0.12870767329E+03  0.30778028126E+03  0.20984588578E+04  0.21248115080E+04  0.50400001928E-02 0.  1.
       -1    1    3    3    0  502 -0.12870767329E+03 -0.30778028126E+03  0.51848622535E+02  0.33761316085E+03  0.50400001928E-02 0. -1.
</event>
<event>
 5   0  0.5620246E-05  0.1199846E+04  0.7818609E-02  0.9112991E-01
       -1   -1    0    0    0  501  0.00000000000E+00  0.00000000000E+00  0.33385396150E+03  0.33385396154E+03  0.50400001928E-02 0.  1.
        1   -1    0    0  501    0  0.00000000000E+00  0.00000000000E+00 -0.10780389486E+04  0.10780389486E+04  0.50400001928E-02 0. -1.
    10030    2    1    2    0    0  0.00000000000E+00  0.00000000000E+00 -0.74418498711E+03  0.14118929102E+04  0.11998459463E+04 0.  0.
        1    1    3    3  502    0  0.40395838140E+03 -0.43769433071E+03 -0.28765558140E+03  0.66144117998E+03  0.50400001928E-02 0. -1.
       -1    1    3    3    0  502 -0.40395838140E+03  0.43769433071E+03 -0.45652940572E+03  0.75045173019E+03  0.50400001928E-02 0.  1.
</event>
<event>
 5   0  0.5745487E-05  0.1201223E+04  0.7818609E-02  0.9111787E-01
       -1   -1    0    0    0  501  0.00000000000E+00  0.00000000000E+00  0.77550906866E+03  0.77550906867E+03  0.50400001928E-02 0.  1.
        1   -1    0    0  501    0  0.00000000000E+00  0.00000000000E+00 -0.46515776096E+03  0.46515776099E+03  0.50400001928E-02 0. -1.
    10030    2    1    2    0    0  0.00000000000E+00  0.00000000000E+00  0.31035130769E+03  0.12406668297E+04  0.12012228137E+04 0.  0.
        3    1    3    3  502    0 -0.54068735633E+03 -0.16416097206E+03 -0.55083106556E+02  0.56773744008E+03  0.10100000352E+00 0. -1.
       -3    1    3    3    0  502  0.54068735633E+03  0.16416097206E+03  0.36543441425E+03  0.67292938958E+03  0.10100000352E+00 0.  1.
</event>
<event>
 5   0  0.9838215E-05  0.1200080E+04  0.7818609E-02  0.9112786E-01
        2   -1    0    0  501    0  0.00000000000E+00  0.00000000000E+00  0.22070294856E+04  0.22070294856E+04  0.25500000920E-02 0. -1.
       -2   -1    0    0    0  501  0.00000000000E+00  0.00000000000E+00 -0.16313695002E+03  0.16313695004E+03  0.25500000920E-02 0.  1.
    10030    2    1    2    0    0  0.00000000000E+00  0.00000000000E+00  0.20438925355E+04  0.23701664356E+04  0.12000800955E+04 0.  0.
        4    1    3    3  502    0 -0.26671090732E+03  0.36208194506E+03  0.23737269854E+03  0.50851298305E+03  0.12699999809E+01 0.  1.
       -4    1    3    3    0  502  0.26671090732E+03 -0.36208194506E+03  0.18065198370E+04  0.18616534526E+04  0.12699999809E+01 0. -1.
</event>
<event>
 5   0  0.3839750E-05  0.1200119E+04  0.7818609E-02  0.9112753E-01
        4   -1    0    0  501    0  0.00000000000E+00  0.00000000000E+00  0.44135799953E+03  0.44135982673E+03  0.12699999809E+01 0. -1.
       -4   -1    0    0    0  501  0.00000000000E+00  0.00000000000E+00 -0.81582192332E+03  0.81582291184E+03  0.12699999809E+01 0.  1.
    10030    2    1    2    0    0  0.00000000000E+00  0.00000000000E+00 -0.37446392379E+03  0.12571827386E+04  0.12001188308E+04 0.  0.
        2    1    3    3  502    0 -0.41428918160E+03  0.10948518711E+03 -0.62726316776E+03  0.75965887990E+03  0.25500000920E-02 0.  1.
       -2    1    3    3    0  502  0.41428918160E+03 -0.10948518711E+03  0.25279924396E+03  0.49752385866E+03  0.25500000920E-02 0. -1.
</event>
<event>
 5   0  0.3839750E-05  0.1196142E+04  0.7818609E-02  0.9116240E-01
       -3   -1    0    0    0  501  0.00000000000E+00  0.00000000000E+00  0.33226435719E+03  0.33226437254E+03  0.10100000352E+00 0.  1.
        3   -1    0    0  501    0  0.00000000000E+00  0.00000000000E+00 -0.10765190805E+04  0.10765190852E+04  0.10100000352E+00 0. -1.
    10030    2    1    2    0    0  0.00000000000E+00  0.00000000000E+00 -0.74425472331E+03  0.14087834578E+04  0.11961420224E+04 0.  0.
        4    1    3    3  502    0 -0.29829417215E+03 -0.23819816236E+03 -0.91437569759E+03  0.99085937798E+03  0.12699999809E+01 0. -1.
       -4    1    3    3    0  502  0.29829417215E+03  0.23819816236E+03  0.17012097428E+03  0.41792407980E+03  0.12699999809E+01 0.  1.
</event>
<event>
 5   0  0.1012657E-04  0.1199734E+04  0.7818609E-02  0.9113089E-01
       -2   -1    0    0    0  501  0.00000000000E+00  0.00000000000E+00  0.25565128557E+03  0.25565128558E+03  0.25500000920E-02 0. -1.
        2   -1    0    0  501    0  0.00000000000E+00  0.00000000000E+00 -0.14075444407E+04  0.14075444407E+04  0.25500000920E-02 0.  1.
    10030    2    1    2    0    0  0.00000000000E+00  0.00000000000E+00 -0.11518931551E+04  0.16631957262E+04  0.11997342135E+04 0.  0.
        1    1    3    3  502    0 -0.16839908252E+03  0.20250873497E+03 -0.13231017938E+04  0.13490613016E+04  0.50400001928E-02 0.  1.
       -1    1    3    3    0  502  0.16839908252E+03 -0.20250873497E+03  0.17120863872E+03  0.31413442462E+03  0.50400001928E-02 0. -1.
</event>
<event>
 5   0  0.1004006E-04  0.1199859E+04  0.7818609E-02  0.9112980E-01
        2   -1    0    0  501    0  0.00000000000E+00  0.00000000000E+00  0.10024100999E+04  0.10024100999E+04  0.25500000920E-02 0. -1.
       -2   -1    0    0    0  501  0.00000000000E+00  0.00000000000E+00 -0.35904995882E+03  0.35904995883E+03  0.25500000920E-02 0.  1.
    10030    2    1    2    0    0  0.00000000000E+00  0.00000000000E+00  0.64336014103E+03  0.13614600587E+04  0.11998588335E+04 0.  0.
        5    1    3    3  502    0 -0.12474999914E+02  0.39921258649E+03 -0.18623107324E+03  0.44071580125E+03  0.46999998093E+01 0.  1.
       -5    1    3    3    0  502  0.12474999914E+02 -0.39921258649E+03  0.82959121427E+03  0.92074425745E+03  0.46999998093E+01 0. -1.
</event>
<event>
 5   0  0.9838215E-05  0.1199754E+04  0.7818609E-02  0.9113071E-01
       -2   -1    0    0    0  501  0.00000000000E+00  0.00000000000E+00  0.17729831827E+04  0.17729831827E+04  0.25500000920E-02 0.  1.
        2   -1    0    0  501    0  0.00000000000E+00  0.00000000000E+00 -0.20296453146E+03  0.20296453147E+03  0.25500000920E-02 0. -1.
    10030    2    1    2    0    0  0.00000000000E+00  0.00000000000E+00  0.15700186512E+04  0.19759477141E+04  0.11997544765E+04 0.  0.
        4    1    3    3  502    0  0.18485223796E+03 -0.51625995877E+03  0.11855843915E+04  0.13062567347E+04  0.12699999809E+01 0. -1.
       -4    1    3    3    0  502 -0.18485223796E+03  0.51625995877E+03  0.38443425975E+03  0.66969097939E+03  0.12699999809E+01 0.  1.
</event>
<event>
 5   0  0.5745487E-05  0.1199224E+04  0.7818609E-02  0.9113536E-01
       -1   -1    0    0    0  501  0.00000000000E+00  0.00000000000E+00  0.60495973143E+03  0.60495973145E+03  0.50400001928E-02 0. -1.
        1   -1    0    0  501    0  0.00000000000E+00  0.00000000000E+00 -0.59431189851E+03  0.59431189853E+03  0.50400001928E-02 0.  1.
    10030    2    1    2    0    0  0.00000000000E+00  0.00000000000E+00  0.10647832926E+02  0.11992716300E+04  0.11992243602E+04 0.  0.
        3    1    3    3  502    0 -0.31478121882E+03 -0.36752636231E+03  0.35941683841E+03  0.60277965845E+03  0.10100000352E+00 0. -1.
       -3    1    3    3    0  502  0.31478121882E+03  0.36752636231E+03 -0.34876900548E+03  0.59649197153E+03  0.10100000352E+00 0.  1.
</event>
<event>
 5   0  0.5745487E-05  0.1200082E+04  0.7818609E-02  0.9112785E-01
        1   -1    0    0  501    0  0.00000000000E+00  0.00000000000E+00  0.14153443294E+04  0.14153443294E+04  0.50400001928E-02 0. -1.
       -1   -1    0    0    0  501  0.00000000000E+00  0.00000000000E+00 -0.25438966657E+03  0.25438966662E+03  0.50400001928E-02 0.  1.
    10030    2    1    2    0    0  0.00000000000E+00  0.00000000000E+00  0.11609546628E+04  0.16697339960E+04  0.12000816174E+04 0.  0.
        3    1    3    3  502    0  0.83199114561E+02 -0.25758548011E+03 -0.16461201566E+03  0.31681145517E+03  0.10100000352E+00 0.  1.
       -3    1    3    3    0  502 -0.83199114561E+02  0.25758548011E+03  0.13255666785E+04  0.13529225409E+04  0.10100000352E+00 0. -1.
</event>
<event>
 5   0  0.1023063E-04  0.1200097E+04  0.7818609E-02  0.9112772E-01
       -2   -1    0    0    0  501  0.00000000000E+00  0.00000000000E+00  0.48632112486E+03  0.48632112487E+03  0.25500000920E-02 0.  1.
        2   -1    0    0  501    0  0.00000000000E+00  0.00000000000E+00 -0.74037123248E+03  0.74037123248E+03  0.25500000920E-02 0. -1.
    10030    2    1    2    0    0  0.00000000000E+00  0.00000000000E+00 -0.25405010761E+03  0.12266923574E+04  0.12000969471E+04 0.  0.
        3    1    3    3  502    0 -0.79977336910E+02 -0.30627481992E+03  0.39403403273E+03  0.50543394117E+03  0.10100000352E+00 0.  1.
       -3    1    3    3    0  502  0.79977336910E+02  0.30627481992E+03 -0.64808414035E+03  0.72125841618E+03  0.10100000352E+00 0. -1.
</event>
<event>
 5   0  0.9838215E-05  0.1200247E+04  0.7818609E-02  0.9112640E-01
       -2   -1    0    0    0  501  0.00000000000E+00  0.00000000000E+00  0.40918886992E+03  0.40918886993E+03  0.25500000920E-02 0.  1.
        2   -1    0    0  501    0  0.00000000000E+00  0.00000000000E+00 -0.88015157572E+03  0.88015157572E+03  0.25500000920E-02 0. -1.
    10030    2    1    2    0    0  0.00000000000E+00  0.00000000000E+00 -0.47096270579E+03  0.12893404457E+04  0.12002470223E+04 0.  0.
        4    1    3    3  502    0 -0.83704900467E+02 -0.54741737827E+03  0.12928948534E+02  0.55393236681E+03  0.12699999809E+01 0.  1.
       -4    1    3    3    0  502  0.83704900467E+02  0.54741737827E+03 -0.48389165432E+03  0.73540807884E+03  0.12699999809E+01 0. -1.
</event>
<event>
 5   0  0.5447807E-05  0.1200175E+04  0.7818609E-02  0.9112704E-01
        1   -1    0    0  501    0  0.00000000000E+00  0.00000000000E+00  0.13490885442E+04  0.13490885442E+04  0.50400001928E-02 0. -1.
       -1   -1    0    0    0  501  0.00000000000E+00  0.00000000000E+00 -0.26692450837E+03  0.26692450842E+03  0.50400001928E-02 0.  1.
    10030    2    1    2    0    0  0.00000000000E+00  0.00000000000E+00  0.10821640358E+04  0.16160130526E+04  0.12001746480E+04 0.  0.
        2    1    3    3  502    0 -0.13283878793E+03 -0.15207521095E+03 -0.21980730260E+03  0.29847657136E+03  0.25500000920E-02 0.  1.
       -2    1    3    3    0  502  0.13283878793E+03  0.15207521095E+03  0.13019713384E+04  0.13175364812E+04  0.25500000920E-02 0. -1.
</event>
<event>
 5   0  0.5620246E-05  0.1200736E+04  0.7818609E-02  0.9112213E-01
       -1   -1    0    0    0  501  0.00000000000E+00  0.00000000000E+00  0.46013573484E+03  0.46013573486E+03  0.50400001928E-02 0.  1.
        1   -1    0    0  501    0  0.00000000000E+00  0.00000000000E+00 -0.78333728228E+03  0.78333728230E+03  0.50400001928E-02 0. -1.
    10030    2    1    2    0    0  0.00000000000E+00  0.00000000000E+00 -0.32320154745E+03  0.12434730172E+04  0.12007355679E+04 0.  0.
        1    1    3    3  502    0 -0.59863347802E+03  0.45335980795E+02 -0.16668297516E+03  0.62305746637E+03  0.50400001928E-02 0.  1.
       -1    1    3    3    0  502  0.59863347802E+03 -0.45335980795E+02 -0.15651857229E+03  0.62041555079E+03  0.50400001928E-02 0. -1.
</event>
<event>
 5   0  0.5447807E-05  0.1200267E+04  0.7818609E-02  0.9112623E-01
       -1   -1    0    0    0  501  0.00000000000E+00  0.00000000000E+00  0.87946695228E+03  0.87946695230E+03  0.50400001928E-02 0.  1.
        1   -1    0    0  501    0  0.00000000000E+00  0.00000000000E+00 -0.40952084649E+03  0.40952084652E+03  0.50400001928E-02 0. -1.
    10030    2    1    2    0    0  0.00000000000E+00  0.00000000000E+00  0.46994610580E+03  0.12889877988E+04  0.12002667217E+04 0.  0.
        2    1    3    3  502    0  0.14475075110E+03  0.54254756661E+03  0.75421881503E+01  0.56157593128E+03  0.25500000920E-02 0. -1.
       -2    1    3    3    0  502 -0.14475075110E+03 -0.54254756661E+03  0.46240391765E+03  0.72741186754E+03  0.25500000920E-02 0.  1.
</event>
<event>
 5   0  0.3839750E-05  0.1200947E+04  0.7818609E-02  0.9112028E-01
        3   -1    0    0  501    0  0.00000000000E+00  0.00000000000E+00  0.85882123348E+03  0.85882123942E+03  0.10100000352E+00 0.  1.
       -3   -1    0    0    0  501  0.00000000000E+00  0.00000000000E+00 -0.41984118221E+03  0.41984119436E+03  0.10100000352E+00 0. -1.
    10030    2    1    2    0    0  0.00000000000E+00  0.00000000000E+00  0.43898005127E+03  0.12786624338E+04  0.12009471821E+04 0.  0.
        1    1    3    3  502    0 -0.54003793342E+03 -0.26187494807E+03  0.23938263325E+03  0.64616058614E+03  0.50400001928E-02 0.  1.
       -1    1    3    3    0  502  0.54003793342E+03  0.26187494807E+03  0.19959741802E+03  0.63250184764E+03  0.50400001928E-02 0. -1.
</event>
<event>
 5   0  0.9838215E-05  0.1193424E+04  0.7818609E-02  0.9118632E-01
       -2   -1    0    0    0  501  0.00000000000E+00  0.00000000000E+00  0.86779932779E+03  0.86779932779E+03  0.25500000920E-02 0. -1.
        2   -1    0    0  501    0  0.00000000000E+00  0.00000000000E+00 -0.41030828681E+03  0.41030828682E+03  0.25500000920E-02 0.  1.
    10030    2    1    2    0    0  0.00000000000E+00  0.00000000000E+00  0.45749104098E+03  0.12781076146E+04  0.11934240746E+04 0.  0.
        4    1    3    3  502    0  0.22132711010E+03 -0.35793247689E+03 -0.22431205638E+03  0.47688453447E+03  0.12699999809E+01 0.  1.
       -4    1    3    3    0  502 -0.22132711010E+03  0.35793247689E+03  0.68180309736E+03  0.80122308014E+03  0.12699999809E+01 0. -1.
</event>
<event>
 5   0  0.9838215E-05  0.1199510E+04  0.7818609E-02  0.9113286E-01
        2   -1    0    0  501    0  0.00000000000E+00  0.00000000000E+00  0.11926439126E+04  0.11926439126E+04  0.25500000920E-02 0.  1.
       -2   -1    0    0    0  501  0.00000000000E+00  0.00000000000E+00 -0.30160374926E+03  0.30160374927E+03  0.25500000920E-02 0. -1.
    10030    2    1    2    0    0  0.00000000000E+00  0.00000000000E+00  0.89104016333E+03  0.14942476619E+04  0.11995096925E+04 0.  0.
        4    1    3    3  502    0 -0.39725516527E+03 -0.32241083712E+03  0.55661224270E+02  0.51464570241E+03  0.12699999809E+01 0. -1.
       -4    1    3    3    0  502  0.39725516527E+03  0.32241083712E+03  0.83537893906E+03  0.97960195944E+03  0.12699999809E+01 0.  1.
</event>
<event>
 5   0  0.1004006E-04  0.1199734E+04  0.7818609E-02  0.9113089E-01
        2   -1    0    0  501    0  0.00000000000E+00  0.00000000000E+00  0.12641284105E+04  0.12641284105E+04  0.25500000920E-02 0. -1.
       -2   -1    0    0    0  501  0.00000000000E+00  0.00000000000E+00 -0.28465504651E+03  0.28465504652E+03  0.25500000920E-02 0.  1.
    10030    2    1    2    0    0  0.00000000000E+00  0.00000000000E+00  0.97947336397E+03  0.15487834570E+04  0.11997341897E+04 0.  0.
        5    1    3    3  502    0 -0.98664069616E+02 -0.48723735607E+03  0.92308391281E+03  0.10484468703E+04  0.46999998093E+01 0. -1.
       -5    1    3    3    0  502  0.98664069616E+02  0.48723735607E+03  0.56389451153E+02  0.50033658669E+03  0.46999998093E+01 0.  1.
</event>
<event>
 5   0  0.5745487E-05  0.1200899E+04  0.7818609E-02  0.9112070E-01
        1   -1    0    0  501    0  0.00000000000E+00  0.00000000000E+00  0.45918997797E+03  0.45918997800E+03  0.50400001928E-02 0. -1.
       -1   -1    0    0    0  501  0.00000000000E+00  0.00000000000E+00 -0.78516391789E+03  0.78516391791E+03  0.50400001928E-02 0.  1.
    10030    2    1    2    0    0  0.00000000000E+00  0.00000000000E+00 -0.32597393992E+03  0.12443538959E+04  0.12008986671E+04 0.  0.
        3    1    3    3  502    0  0.15534059913E+03  0.48400005728E+03  0.16819168305E+03  0.53542059134E+03  0.10100000352E+00 0. -1.
       -3    1    3    3    0  502 -0.15534059913E+03 -0.48400005728E+03 -0.49416562298E+03  0.70893330456E+03  0.10100000352E+00 0.  1.
</event>
<event>
 5   0  0.5447807E-05  0.1199665E+04  0.7818609E-02  0.9113150E-01
        1   -1    0    0  501    0  0.00000000000E+00  0.00000000000E+00  0.86123621832E+03  0.86123621834E+03  0.50400001928E-02 0.  1.
       -1   -1    0    0    0  501  0.00000000000E+00  0.00000000000E+00 -0.41777034785E+03  0.41777034788E+03  0.50400001928E-02 0. -1.
    10030    2    1    2    0    0  0.00000000000E+00  0.00000000000E+00  0.44346587047E+03  0.12790065662E+04  0.11996648774E+04 0.  0.
        2    1    3    3  502    0  0.55868938995E+03  0.21053558752E+03  0.28334683290E+03  0.66086647348E+03  0.25500000920E-02 0.  1.
       -2    1    3    3    0  502 -0.55868938995E+03 -0.21053558752E+03  0.16011903757E+03  0.61814009274E+03  0.25500000920E-02 0. -1.
</event>
<event>
 5   0  0.1012657E-04  0.1202138E+04  0.7818609E-02  0.9110988E-01
       -2   -1    0    0    0  501  0.00000000000E+00  0.00000000000E+00  0.23365542579E+03  0.23365542580E+03  0.25500000920E-02 0.  1.
        2   -1    0    0  501    0  0.00000000000E+00  0.00000000000E+00 -0.15462242654E+04  0.15462242654E+04  0.25500000920E-02 0. -1.
    10030    2    1    2    0    0  0.00000000000E+00  0.00000000000E+00 -0.13125688396E+04  0.17798796912E+04  0.12021375780E+04 0.  0.
        1    1    3    3  502    0  0.25696033346E+03 -0.16403175521E+03 -0.14232682173E+04  0.14555505652E+04  0.50400001928E-02 0. -1.
       -1    1    3    3    0  502 -0.25696033346E+03  0.16403175521E+03  0.11069937767E+03  0.32432912594E+03  0.50400001928E-02 0.  1.
</event>
<event>
 5   0  0.5732931E-05  0.1199812E+04  0.7818609E-02  0.9113021E-01
       -1   -1    0    0    0  501  0.00000000000E+00  0.00000000000E+00  0.74693156126E+03  0.74693156128E+03  0.50400001928E-02 0.  1.
        1   -1    0    0  501    0  0.00000000000E+00  0.00000000000E+00 -0.48182053839E+03  0.48182053842E+03  0.50400001928E-02 0. -1.
    10030    2    1    2    0    0  0.00000000000E+00  0.00000000000E+00  0.26511102286E+03  0.12287520997E+04  0.11998115969E+04 0.  0.
        4    1    3    3  502    0 -0.50992526032E+02  0.59290855522E+03  0.21017658788E+03  0.63112328713E+03  0.12699999809E+01 0.  1.
       -4    1    3    3    0  502  0.50992526032E+02 -0.59290855522E+03  0.54934434983E+02  0.59762881257E+03  0.12699999809E+01 0. -1.
</event>
<event>
 5   0  0.9838215E-05  0.1201416E+04  0.7818609E-02  0.9111618E-01
        2   -1    0    0  501    0  0.00000000000E+00  0.00000000000E+00  0.44640874437E+03  0.44640874437E+03  0.25500000920E-02 0. -1.
       -2   -1    0    0    0  501  0.00000000000E+00  0.00000000000E+00 -0.80834036707E+03  0.80834036708E+03  0.25500000920E-02 0.  1.
    10030    2    1    2    0    0  0.00000000000E+00  0.00000000000E+00 -0.36193162271E+03  0.12547491115E+04  0.12014161782E+04 0.  0.
        4    1    3    3  502    0  0.55537742053E+03 -0.13713109220E+03  0.10473156205E+02  0.57215410126E+03  0.12699999809E+01 0. -1.
       -4    1    3    3    0  502 -0.55537742053E+03  0.13713109220E+03 -0.37240477891E+03  0.68259501019E+03  0.12699999809E+01 0.  1.
</event>
<event>
 5   0  0.3839750E-05  0.1199464E+04  0.7818609E-02  0.9113325E-01
       -3   -1    0    0    0  501  0.00000000000E+00  0.00000000000E+00  0.10206621578E+04  0.10206621628E+04  0.10100000352E+00 0.  1.
        3   -1    0    0  501    0  0.00000000000E+00  0.00000000000E+00 -0.35239740592E+03  0.35239742039E+03  0.10100000352E+00 0. -1.
    10030    2    1    2    0    0  0.00000000000E+00  0.00000000000E+00  0.66826475188E+03  0.13730595832E+04  0.11994643973E+04 0.  0.
        4    1    3    3  502    0 -0.97377082254E+02 -0.47419675512E+03 -0.71127325480E+02  0.48929088286E+03  0.12699999809E+01 0. -1.
       -4    1    3    3    0  502  0.97377082254E+02  0.47419675512E+03  0.73939207736E+03  0.88376870033E+03  0.12699999809E+01 0.  1.
</event>
<event>
 5   0  0.9941209E-05  0.1198689E+04  0.7818609E-02  0.9114005E-01
        2   -1    0    0  501    0  0.00000000000E+00  0.00000000000E+00  0.10042074636E+04  0.10042074636E+04  0.25500000920E-02 0.  1.
       -2   -1    0    0    0  501  0.00000000000E+00  0.00000000000E+00 -0.35770851111E+03  0.35770851112E+03  0.25500000920E-02 0. -1.
    10030    2    1    2    0    0  0.00000000000E+00  0.00000000000E+00  0.64649895248E+03  0.13619159747E+04  0.11986885445E+04 0.  0.
        2    1    3    3  502    0 -0.87027730725E+02 -0.58199875174E+03  0.19411926034E+03  0.61966011666E+03  0.25500000920E-02 0. -1.
       -2    1    3    3    0  502  0.87027730725E+02  0.58199875174E+03  0.45237969214E+03  0.74225585805E+03  0.25500000920E-02 0.  1.
</event>
<event>
 5   0  0.5732931E-05  0.1199780E+04  0.7818609E-02  0.9113049E-01
        1   -1    0    0  501    0  0.00000000000E+00  0.00000000000E+00  0.55235007366E+03  0.55235007368E+03  0.50400001928E-02 0.  1.
       -1   -1    0    0    0  501  0.00000000000E+00  0.00000000000E+00 -0.65152211662E+03  0.65152211664E+03  0.50400001928E-02 0. -1.
    10030    2    1    2    0    0  0.00000000000E+00  0.00000000000E+00 -0.99172042965E+02  0.12038721903E+04  0.11997804618E+04 0.  0.
        4    1    3    3  502    0 -0.34815961913E+03  0.42133618107E+03 -0.29766872274E+03  0.62237254058E+03  0.12699999809E+01 0. -1.
       -4    1    3    3    0  502  0.34815961913E+03 -0.42133618107E+03  0.19849667977E+03  0.58149964974E+03  0.12699999809E+01 0.  1.
</event>
<event>
 5   0  0.9838215E-05  0.1199931E+04  0.7818609E-02  0.9112917E-01
       -2   -1    0    0    0  501  0.00000000000E+00  0.00000000000E+00  0.39045169795E+03  0.39045169796E+03  0.25500000920E-02 0. -1.
        2   -1    0    0  501    0  0.00000000000E+00  0.00000000000E+00 -0.92190264129E+03  0.92190264129E+03  0.25500000920E-02 0.  1.
    10030    2    1    2    0    0  0.00000000000E+00  0.00000000000E+00 -0.53145094334E+03  0.13123543393E+04  0.11999307507E+04 0.  0.
        4    1    3    3  502    0 -0.49731781687E+03 -0.45282480558E+02  0.97968265512E+02  0.50889577319E+03  0.12699999809E+01 0. -1.
       -4    1    3    3    0  502  0.49731781687E+03  0.45282480558E+02 -0.62941920885E+03  0.80345856607E+03  0.12699999809E+01 0.  1.
</event>
<event>
 5   0  0.5745487E-05  0.1199883E+04  0.7818609E-02  0.9112959E-01
        1   -1    0    0  501    0  0.00000000000E+00  0.00000000000E+00  0.52972731535E+03  0.52972731537E+03  0.50400001928E-02 0. -1.
       -1   -1    0    0    0  501  0.00000000000E+00  0.00000000000E+00 -0.67946254177E+03  0.67946254179E+03  0.50400001928E-02 0.  1.
    10030    2    1    2    0    0  0.00000000000E+00  0.00000000000E+00 -0.14973522642E+03  0.12091898572E+04  0.11998831079E+04 0.  0.
        3    1    3    3  502    0 -0.37922328935E+03 -0.19683067376E+02 -0.54293994858E+03  0.66255680835E+03  0.10100000352E+00 0.  1.
       -3    1    3    3    0  502  0.37922328935E+03  0.19683067376E+02  0.39320472216E+03  0.54663304881E+03  0.10100000352E+00 0. -1.
</event>
<event>
 5   0  0.1004006E-04  0.1200433E+04  0.7818609E-02  0.9112478E-01
        2   -1    0    0  501    0  0.00000000000E+00  0.00000000000E+00  0.28097454863E+04  0.28097454863E+04  0.25500000920E-02 0. -1.
       -2   -1    0    0    0  501  0.00000000000E+00  0.00000000000E+00 -0.12821787002E+03  0.12821787004E+03  0.25500000920E-02 0.  1.
    10030    2    1    2    0    0  0.00000000000E+00  0.00000000000E+00  0.26815276163E+04  0.29379633563E+04  0.12004325580E+04 0.  0.
        5    1    3    3  502    0  0.30612034719E+03 -0.38347924341E+03  0.49482147803E+03  0.69687615988E+03  0.46999998093E+01 0.  1.
       -5    1    3    3    0  502 -0.30612034719E+03  0.38347924341E+03  0.21867061382E+04  0.22410871964E+04  0.46999998093E+01 0. -1.
</event>
<event>
 5   0  0.1004006E-04  0.1200411E+04  0.7818609E-02  0.9112497E-01
        2   -1    0    0  501    0  0.00000000000E+00  0.00000000000E+00  0.10100746506E+04  0.10100746506E+04  0.25500000920E-02 0.  1.
       -2   -1    0    0    0  501  0.00000000000E+00  0.00000000000E+00 -0.35665356557E+03  0.35665356558E+03  0.25500000920E-02 0. -1.
    10030    2    1    2    0    0  0.00000000000E+00  0.00000000000E+00  0.65342108500E+03  0.13667282162E+04  0.12004111390E+04 0.  0.
        5    1    3    3  502    0  0.81517299394E+02  0.27528807810E+02 -0.34957453797E+03  0.36003798821E+03  0.46999998093E+01 0. -1.
       -5    1    3    3    0  502 -0.81517299394E+02 -0.27528807810E+02  0.10029956230E+04  0.10066902279E+04  0.46999998093E+01 0.  1.
</event>
<event>
 5   0  0.1012657E-04  0.1199874E+04  0.7818609E-02  0.9112967E-01
       -2   -1    0    0    0  501  0.00000000000E+00  0.00000000000E+00  0.66994011074E+03  0.66994011075E+03  0.25500000920E-02 0. -1.
        2   -1    0    0  501    0  0.00000000000E+00  0.00000000000E+00 -0.53724833086E+03  0.53724833087E+03  0.25500000920E-02 0.  1.
    10030    2    1    2    0    0  0.00000000000E+00  0.00000000000E+00  0.13269177988E+03  0.12071884416E+04  0.11998736705E+04 0.  0.
        1    1    3    3  502    0  0.72403860873E+02  0.14231960822E+03  0.64816800157E+03  0.66754696332E+03  0.50400001928E-02 0. -1.
       -1    1    3    3    0  502 -0.72403860873E+02 -0.14231960822E+03 -0.51547622169E+03  0.53964147830E+03  0.50400001928E-02 0.  1.
</event>
<event>
 5   0  0.5447807E-05  0.1200638E+04  0.7818609E-02  0.9112298E-01
       -1   -1    0    0    0  501  0.00000000000E+00  0.00000000000E+00  0.77537249700E+03  0.77537249702E+03  0.50400001928E-02 0. -1.
        1   -1    0    0  501    0  0.00000000000E+00  0.00000000000E+00 -0.46478675987E+03  0.46478675989E+03  0.50400001928E-02 0.  1.
    10030    2    1    2    0    0  0.00000000000E+00  0.00000000000E+00  0.31058573714E+03  0.12401592569E+04  0.12006379481E+04 0.  0.
        2    1    3    3  502    0  0.38515924346E+03  0.33996753149E+03 -0.16550609464E+03  0.53973867071E+03  0.25500000920E-02 0.  1.
       -2    1    3    3    0  502 -0.38515924346E+03 -0.33996753149E+03  0.47609183178E+03  0.70042058621E+03  0.25500000920E-02 0. -1.
</event>
<event>
 5   0  0.5745487E-05  0.1199834E+04  0.7818609E-02  0.9113002E-01
       -1   -1    0    0    0  501  0.00000000000E+00  0.00000000000E+00  0.52631828679E+03  0.52631828682E+03  0.50400001928E-02 0. -1.
        1   -1    0    0  501    0  0.00000000000E+00  0.00000000000E+00 -0.68380701946E+03  0.68380701948E+03  0.50400001928E-02 0.  1.
    10030    2    1    2    0    0  0.00000000000E+00  0.00000000000E+00 -0.15748873267E+03  0.12101253063E+04  0.11998335535E+04 0.  0.
        3    1    3    3  502    0 -0.54383563803E+03  0.25312317848E+03 -0.87277680549E+02  0.60617320000E+03  0.10100000352E+00 0. -1.
       -3    1    3    3    0  502  0.54383563803E+03 -0.25312317848E+03 -0.70211052123E+02  0.60395210631E+03  0.10100000352E+00 0.  1.
</event>
<event>
 5   0  0.5620246E-05  0.1199417E+04  0.7818609E-02  0.9113367E-01
       -1   -1    0    0    0  501  0.00000000000E+00  0.00000000000E+00  0.99977674080E+03  0.99977674082E+03  0.50400001928E-02 0. -1.
        1   -1    0    0  501    0  0.00000000000E+00  0.00000000000E+00 -0.35973040928E+03  0.35973040932E+03  0.50400001928E-02 0.  1.
    10030    2    1    2    0    0  0.00000000000E+00  0.00000000000E+00  0.64004633152E+03  0.13595071501E+04  0.11994166852E+04 0.  0.
        1    1    3    3  502    0 -0.23311327846E+03 -0.55251475511E+03  0.31324683666E+03  0.67656332735E+03  0.50400001928E-02 0. -1.
       -1    1    3    3    0  502  0.23311327846E+03  0.55251475511E+03  0.32679949486E+03  0.68294382278E+03  0.50400001928E-02 0.  1.
</event>
<event>
 5   0  0.9838215E-05  0.1200363E+04  0.7818609E-02  0.9112539E-01
        2   -1    0    0  501    0  0.00000000000E+00  0.00000000000E+00  0.10329392230E+04  0.10329392230E+04  0.25500000920E-02 0.  1.
       -2   -1    0    0    0  501  0.00000000000E+00  0.00000000000E+00 -0.34873066107E+03  0.34873066108E+03  0.25500000920E-02 0. -1.
    10030    2    1    2    0    0  0.00000000000E+00  0.00000000000E+00  0.68420856189E+03  0.13816698840E+04  0.12003625754E+04 0.  0.
        4    1    3    3  502    0  0.79536751882E+02  0.21516395302E+03  0.98048684579E+03  0.10069645919E+04  0.12699999809E+01 0.  1.
       -4    1    3    3    0  502 -0.79536751882E+02 -0.21516395302E+03 -0.29627828391E+03  0.37470529219E+03  0.12699999809E+01 0. -1.
</event>
<event>
 5   0  0.5625746E-05  0.1200068E+04  0.7818609E-02  0.9112797E-01
        1   -1    0    0  501    0  0.00000000000E+00  0.00000000000E+00  0.84663520450E+03  0.84663520451E+03  0.50400001928E-02 0. -1.
       -1   -1    0    0    0  501  0.00000000000E+00  0.00000000000E+00 -0.42526102614E+03  0.42526102617E+03  0.50400001928E-02 0.  1.
    10030    2    1    2    0    0  0.00000000000E+00  0.00000000000E+00  0.42137417836E+03  0.12718962307E+04  0.12000682578E+04 0.  0.
        5    1    3    3  502    0 -0.33528621853E+03 -0.26163708828E+03  0.65927934931E+03  0.78456495253E+03  0.46999998093E+01 0. -1.
       -5    1    3    3    0  502  0.33528621853E+03  0.26163708828E+03 -0.23790517095E+03  0.48733127816E+03  0.46999998093E+01 0.  1.
</event>
<event>
 5   0  0.5732931E-05  0.1200055E+04  0.7818609E-02  0.9112809E-01
       -1   -1    0    0    0  501  0.00000000000E+00  0.00000000000E+00  0.64117298204E+03  0.64117298206E+03  0.50400001928E-02 0.  1.
        1   -1    0    0  501    0  0.00000000000E+00  0.00000000000E+00 -0.56152198803E+03  0.56152198805E+03  0.50400001928E-02 0. -1.
    10030    2    1    2    0    0  0.00000000000E+00  0.00000000000E+00  0.79650994012E+02  0.12026949701E+04  0.12000545447E+04 0.  0.
        4    1    3    3  502    0 -0.90618178742E+02  0.41005240160E+03  0.46934342157E+03  0.62979320944E+03  0.12699999809E+01 0.  1.
       -4    1    3    3    0  502  0.90618178742E+02 -0.41005240160E+03 -0.38969242756E+03  0.57290176067E+03  0.12699999809E+01 0. -1.
</event>
<event>
 5   0  0.5447807E-05  0.1201611E+04  0.7818609E-02  0.9111448E-01
        1   -1    0    0  501    0  0.00000000000E+00  0.00000000000E+00  0.57763098456E+03  0.57763098458E+03  0.50400001928E-02 0. -1.
       -1   -1    0    0    0  501  0.00000000000E+00  0.00000000000E+00 -0.62490929951E+03  0.62490929953E+03  0.50400001928E-02 0.  1.
    10030    2    1    2    0    0  0.00000000000E+00  0.00000000000E+00 -0.47278314950E+02  0.12025402841E+04  0.12016105425E+04 0.  0.
        2    1    3    3  502    0  0.44444561612E+03  0.40302264717E+03 -0.55409809377E+02  0.60251921696E+03  0.25500000920E-02 0.  1.
       -2    1    3    3    0  502 -0.44444561612E+03 -0.40302264717E+03  0.81314944267E+01  0.60002106715E+03  0.25500000920E-02 0. -1.
</event>
<event>
 5   0  0.1023063E-04  0.1200061E+04  0.7818609E-02  0.9112803E-01
        2   -1    0    0  501    0  0.00000000000E+00  0.00000000000E+00  0.82005600106E+03  0.82005600107E+03  0.25500000920E-02 0.  1.
       -2   -1    0    0    0  501  0.00000000000E+00  0.00000000000E+00 -0.43903882087E+03  0.43903882088E+03  0.25500000920E-02 0. -1.
    10030    2    1    2    0    0  0.00000000000E+00  0.00000000000E+00  0.38101718019E+03  0.12590948219E+04  0.12000606981E+04 0.  0.
        3    1    3    3  502    0 -0.83823073330E+02 -0.58706231453E+03  0.94532174937E+02  0.60050379771E+03  0.10100000352E+00 0. -1.
       -3    1    3    3    0  502  0.83823073330E+02  0.58706231453E+03  0.28648500525E+03  0.65859102423E+03  0.10100000352E+00 0.  1.
</event>
<event>
 5   0  0.9838215E-05  0.1200384E+04  0.7818609E-02  0.9112521E-01
        2   -1    0    0  501    0  0.00000000000E+00  0.00000000000E+00  0.63350576410E+03  0.63350576411E+03  0.25500000920E-02 0.  1.
       -2   -1    0    0    0  501  0.00000000000E+00  0.00000000000E+00 -0.56862995635E+03  0.56862995635E+03  0.25500000920E-02 0. -1.
    10030    2    1    2    0    0  0.00000000000E+00  0.00000000000E+00  0.64875807755E+02  0.12021357205E+04  0.12003838636E+04 0.  0.
        4    1    3    3  502    0  0.29902034146E+03  0.25821139202E+03  0.48491856200E+03  0.62548694011E+03  0.12699999809E+01 0.  1.
       -4    1    3    3    0  502 -0.29902034146E+03 -0.25821139202E+03 -0.42004275425E+03  0.57664878035E+03  0.12699999809E+01 0. -1.
</event>
<event>
 5   0  0.1012657E-04  0.1200461E+04  0.7818609E-02  0.9112453E-01
       -2   -1    0    0    0  501  0.00000000000E+00  0.00000000000E+00  0.10243260040E+04  0.10243260040E+04  0.25500000920E-02 0.  1.
        2   -1    0    0  501    0  0.00000000000E+00  0.00000000000E+00 -0.35172087357E+03  0.35172087358E+03  0.25500000920E-02 0. -1.
    10030    2    1    2    0    0  0.00000000000E+00  0.00000000000E+00  0.67260513047E+03  0.13760468776E+04  0.12004613063E+04 0.  0.
        1    1    3    3  502    0  0.88072818525E+02  0.28405948860E+02  0.10160997255E+04  0.10203050385E+04  0.50400001928E-02 0.  1.
       -1    1    3    3    0  502 -0.88072818525E+02 -0.28405948860E+02 -0.34349459503E+03  0.35574183917E+03  0.50400001928E-02 0. -1.
</event>
<event>
 5   0  0.1023063E-04  0.1200357E+04  0.7818609E-02  0.9112544E-01
       -2   -1    0    0    0  501  0.00000000000E+00  0.00000000000E+00  0.17217088740E+03  0.17217088741E+03  0.25500000920E-02 0.  1.
        2   -1    0    0  501    0  0.00000000000E+00  0.00000000000E+00 -0.20921897464E+04  0.20921897464E+04  0.25500000920E-02 0. -1.
    10030    2    1    2    0    0  0.00000000000E+00  0.00000000000E+00 -0.19200188590E+04  0.22643606338E+04  0.12003568890E+04 0.  0.
        3    1    3    3  502    0 -0.10825444182E+03  0.34361411474E+02 -0.20717324966E+04  0.20748434347E+04  0.10100000352E+00 0. -1.
       -3    1    3    3    0  502  0.10825444182E+03 -0.34361411474E+02  0.15171363754E+03  0.18951719919E+03  0.10100000352E+00 0.  1.
</event>
<event>
 5   0  0.5625746E-05  0.1200650E+04  0.7818609E-02  0.9112288E-01
        1   -1    0    0  501    0  0.00000000000E+00  0.00000000000E+00  0.30218738144E+03  0.30218738148E+03  0.50400001928E-02 0.  1.
       -1   -1    0    0    0  501  0.00000000000E+00  0.00000000000E+00 -0.11926047320E+04  0.11926047320E+04  0.50400001928E-02 0. -1.
    10030    2    1    2    0    0  0.00000000000E+00  0.00000000000E+00 -0.89041735051E+03  0.14947921134E+04  0.12006499924E+04 0.  0.
        5    1    3    3  502    0 -0.42701797298E+03 -0.22927156217E+03 -0.42337215283E+01  0.48471621889E+03  0.46999998093E+01 0.  1.
       -5    1    3    3    0  502  0.42701797298E+03  0.22927156217E+03 -0.88618362899E+03  0.10100758945E+04  0.46999998093E+01 0. -1.
</event>
<event>
 5   0  0.5732931E-05  0.1200034E+04  0.7818609E-02  0.9112827E-01
        1   -1    0    0  501    0  0.00000000000E+00  0.00000000000E+00  0.51275047979E+03  0.51275047981E+03  0.50400001928E-02 0. -1.
       -1   -1    0    0    0  501  0.00000000000E+00  0.00000000000E+00 -0.70213600629E+03  0.70213600631E+03  0.50400001928E-02 0.  1.
    10030    2    1    2    0    0  0.00000000000E+00  0.00000000000E+00 -0.18938552650E+03  0.12148864861E+04  0.12000342897E+04 0.  0.
        4    1    3    3  502    0 -0.43273593431E+03  0.41305102638E+03 -0.47778949104E+02  0.60012996935E+03  0.12699999809E+01 0. -1.
       -4    1    3    3    0  502  0.43273593431E+03 -0.41305102638E+03 -0.14160657740E+03  0.61475651676E+03  0.12699999809E+01 0.  1.
</event>
<event>
 5   0  0.5625746E-05  0.1199883E+04  0.7818609E-02  0.9112959E-01
        1   -1    0    0  501    0  0.00000000000E+00  0.00000000000E+00  0.11809969909E+04  0.11809969909E+04  0.50400001928E-02 0.  1.
       -1   -1    0    0    0  501  0.00000000000E+00  0.00000000000E+00 -0.30476787330E+03  0.30476787334E+03  0.50400001928E-02 0. -1.
    10030    2    1    2    0    0  0.00000000000E+00  0.00000000000E+00  0.87622911760E+03  0.14857648642E+04  0.11998832299E+04 0.  0.
        5    1    3    3  502    0 -0.37608271563E+02 -0.18320200073E+03 -0.26772555659E+03  0.32661356189E+03  0.46999998093E+01 0. -1.
       -5    1    3    3    0  502  0.37608271563E+02  0.18320200073E+03  0.11439546742E+04  0.11591513024E+04  0.46999998093E+01 0.  1.
</event>
<event>
 5   0  0.5620246E-05  0.1200039E+04  0.7818609E-02  0.9112822E-01
        1   -1    0    0  501    0  0.00000000000E+00  0.00000000000E+00  0.76099933343E+03  0.76099933345E+03  0.50400001928E-02 0. -1.
       -1   -1    0    0    0  501  0.00000000000E+00  0.00000000000E+00 -0.47309300379E+03  0.47309300382E+03  0.50400001928E-02 0.  1.
    10030    2    1    2    0    0  0.00000000000E+00  0.00000000000E+00  0.28790632964E+03  0.12340923373E+04  0.12000391003E+04 0.  0.
        1    1    3    3  502    0  0.91317103469E+02 -0.51487522419E+03 -0.15865559179E+03  0.54644936335E+03  0.50400001928E-02 0.  1.
       -1    1    3    3    0  502 -0.91317103469E+02  0.51487522419E+03  0.44656192143E+03  0.68764297391E+03  0.50400001928E-02 0. -1.
</event>
<event>
 5   0  0.9838215E-05  0.1192478E+04  0.7818609E-02  0.9119466E-01
       -2   -1    0    0    0  501  0.00000000000E+00  0.00000000000E+00  0.25364855171E+03  0.25364855172E+03  0.25500000920E-02 0.  1.
        2   -1    0    0  501    0  0.00000000000E+00  0.00000000000E+00 -0.14015483029E+04  0.14015483029E+04  0.25500000920E-02 0. -1.
    10030    2    1    2    0    0  0.00000000000E+00  0.00000000000E+00 -0.11478997512E+04  0.16551968546E+04  0.11924775842E+04 0.  0.
        4    1    3    3  502    0  0.47643317525E+03 -0.15612685032E+02 -0.76835311414E+02  0.48284325034E+03  0.12699999809E+01 0.  1.
       -4    1    3    3    0  502 -0.47643317525E+03  0.15612685032E+02 -0.10710644398E+04  0.11723536043E+04  0.12699999809E+01 0. -1.
</event>
<event>
 5   0  0.1012657E-04  0.1199831E+04  0.7818609E-02  0.9113004E-01
        2   -1    0    0  501    0  0.00000000000E+00  0.00000000000E+00  0.50264178634E+03  0.50264178634E+03  0.25500000920E-02 0.  1.
       -2   -1    0    0    0  501  0.00000000000E+00  0.00000000000E+00 -0.71601440946E+03  0.71601440946E+03  0.25500000920E-02 0. -1.
    10030    2    1    2    0    0  0.00000000000E+00  0.00000000000E+00 -0.21337262312E+03  0.12186561958E+04  0.11998312578E+04 0.  0.
        1    1    3    3  502    0 -0.53397239218E+02  0.43385003715E+03  0.31063934835E+03  0.53625919540E+03  0.50400001928E-02 0.  1.
       -1    1    3    3    0  502  0.53397239218E+02 -0.43385003715E+03 -0.52401197147E+03  0.68239700040E+03  0.50400001928E-02 0. -1.
</event>
<event>
 5   0  0.9941209E-05  0.1200366E+04  0.7818609E-02  0.9112536E-01
       -2   -1    0    0    0  501  0.00000000000E+00  0.00000000000E+00  0.73007274590E+03  0.73007274591E+03  0.25500000920E-02 0.  1.
        2   -1    0    0  501    0  0.00000000000E+00  0.00000000000E+00 -0.49340267514E+03  0.49340267515E+03  0.25500000920E-02 0. -1.
    10030    2    1    2    0    0  0.00000000000E+00  0.00000000000E+00  0.23667007076E+03  0.12234754211E+04  0.12003663539E+04 0.  0.
        2    1    3    3  502    0  0.28979299052E+03 -0.22537139400E+03  0.60228921695E+03  0.70535419716E+03  0.25500000920E-02 0.  1.
       -2    1    3    3    0  502 -0.28979299052E+03  0.22537139400E+03 -0.36561914619E+03  0.51812122390E+03  0.25500000920E-02 0. -1.
</event>
<event>
 5   0  0.5745487E-05  0.1200272E+04  0.7818609E-02  0.9112619E-01
       -1   -1    0    0    0  501  0.00000000000E+00  0.00000000000E+00  0.38341584503E+03  0.38341584506E+03  0.50400001928E-02 0. -1.
        1   -1    0    0  501    0  0.00000000000E+00  0.00000000000E+00 -0.93935379273E+03  0.93935379275E+03  0.50400001928E-02 0.  1.
    10030    2    1    2    0    0  0.00000000000E+00  0.00000000000E+00 -0.55593794770E+03  0.13227696378E+04  0.12002718496E+04 0.  0.
        3    1    3    3  502    0 -0.53634407273E+03 -0.24389407001E+02  0.17545692950E+02  0.53718494866E+03  0.10100000352E+00 0. -1.
       -3    1    3    3    0  502  0.53634407273E+03  0.24389407001E+02 -0.57348364065E+03  0.78558468915E+03  0.10100000352E+00 0.  1.
</event>
<event>
 5   0  0.1023063E-04  0.1199295E+04  0.7818609E-02  0.9113474E-01
        2   -1    0    0  501    0  0.00000000000E+00  0.00000000000E+00  0.17278216882E+04  0.17278216882E+04  0.25500000920E-02 0.  1.
       -2   -1    0    0    0  501  0.00000000000E+00  0.00000000000E+00 -0.20811000076E+03  0.20811000077E+03  0.25500000920E-02 0. -1.
    10030    2    1    2    0    0  0.00000000000E+00  0.00000000000E+00  0.15197116875E+04  0.19359316890E+04  0.11992947475E+04 0.  0.
        3    1    3    3  502    0 -0.32340750166E+03 -0.19981275742E+03  0.11267044501E+02  0.38032158321E+03  0.10100000352E+00 0. -1.
       -3    1    3    3    0  502  0.32340750166E+03  0.19981275742E+03  0.15084446430E+04  0.15556101058E+04  0.10100000352E+00 0.  1.
</event>
<event>
 5   0  0.1004006E-04  0.1200271E+04  0.7818609E-02  0.9112619E-01
       -2   -1    0    0    0  501  0.00000000000E+00  0.00000000000E+00  0.26262520467E+03  0.26262520469E+03  0.25500000920E-02 0. -1.
        2   -1    0    0  501    0  0.00000000000E+00  0.00000000000E+00 -0.13713950518E+04  0.13713950518E+04  0.25500000920E-02 0.  1.
    10030    2    1    2    0    0  0.00000000000E+00  0.00000000000E+00 -0.11087698471E+04  0.16340202564E+04  0.12002714796E+04 0.  0.
        5    1    3    3  502    0  0.54075630575E+02  0.25819941978E+03 -0.12882025959E+04  0.13149445358E+04  0.46999998093E+01 0.  1.
       -5    1    3    3    0  502 -0.54075630575E+02 -0.25819941978E+03  0.17943274877E+03  0.31907572068E+03  0.46999998093E+01 0. -1.
</event>
<event>
 5   0  0.1012657E-04  0.1200135E+04  0.7818609E-02  0.9112738E-01
       -2   -1    0    0    0  501  0.00000000000E+00  0.00000000000E+00  0.61105791419E+03  0.61105791420E+03  0.25500000920E-02 0. -1.
        2   -1    0    0  501    0  0.00000000000E+00  0.00000000000E+00 -0.58927502593E+03  0.58927502594E+03  0.25500000920E-02 0.  1.
    10030    2    1    2    0    0  0.00000000000E+00  0.00000000000E+00  0.21782888257E+02  0.12003329401E+04  0.12001352728E+04 0.  0.
        1    1    3    3  502    0 -0.33018115433E+03  0.29510438189E+03 -0.39411348982E+03  0.59281669491E+03  0.50400001928E-02 0.  1.
       -1    1    3    3    0  502  0.33018115433E+03 -0.29510438189E+03  0.41589637808E+03  0.60751624522E+03  0.50400001928E-02 0. -1.
</event>
<event>
 5   0  0.5745487E-05  0.1199771E+04  0.7818609E-02  0.9113057E-01
       -1   -1    0    0    0  501  0.00000000000E+00  0.00000000000E+00  0.30276419420E+03  0.30276419424E+03  0.50400001928E-02 0. -1.
        1   -1    0    0  501    0  0.00000000000E+00  0.00000000000E+00 -0.11885894212E+04  0.11885894212E+04  0.50400001928E-02 0.  1.
    10030    2    1    2    0    0  0.00000000000E+00  0.00000000000E+00 -0.88582522704E+03  0.14913536155E+04  0.11997705087E+04 0.  0.
        3    1    3    3  502    0  0.32336171295E+03  0.38621943009E+03 -0.84787048326E+03  0.98621124114E+03  0.10100000352E+00 0.  1.
       -3    1    3    3    0  502 -0.32336171295E+03 -0.38621943009E+03 -0.37954743783E+02  0.50514237434E+03  0.10100000352E+00 0. -1.
</event>
<event>
 5   0  0.5732931E-05  0.1200042E+04  0.7818609E-02  0.9112820E-01
       -1   -1    0    0    0  501  0.00000000000E+00  0.00000000000E+00  0.63584108203E+03  0.63584108205E+03  0.50400001928E-02 0. -1.
        1   -1    0    0  501    0  0.00000000000E+00  0.00000000000E+00 -0.56621861503E+03  0.56621861506E+03  0.50400001928E-02 0.  1.
    10030    2    1    2    0    0  0.00000000000E+00  0.00000000000E+00  0.69622467001E+02  0.12020596971E+04  0.12000417607E+04 0.  0.
        4    1    3    3  502    0  0.44954235995E+02  0.20860735181E+03 -0.52692186343E+03  0.56849465575E+03  0.12699999809E+01 0.  1.
       -4    1    3    3    0  502 -0.44954235995E+02 -0.20860735181E+03  0.59654433043E+03  0.63356504136E+03  0.12699999809E+01 0. -1.
</event>
<event>
 5   0  0.5745487E-05  0.1200124E+04  0.7818609E-02  0.9112748E-01
       -1   -1    0    0    0  501  0.00000000000E+00  0.00000000000E+00  0.61855887112E+03  0.61855887115E+03  0.50400001928E-02 0.  1.
        1   -1    0    0  501    0  0.00000000000E+00  0.00000000000E+00 -0.58211824916E+03  0.58211824918E+03  0.50400001928E-02 0. -1.
    10030    2    1    2    0    0  0.00000000000E+00  0.00000000000E+00  0.36440621969E+02  0.12006771203E+04  0.12001240054E+04 0.  0.
        3    1    3    3  502    0 -0.51416251471E+01  0.45998862746E+03  0.40370091774E+03  0.61203791949E+03  0.10100000352E+00 0.  1.
       -3    1    3    3    0  502  0.51416251471E+01 -0.45998862746E+03 -0.36726029577E+03  0.58863920083E+03  0.10100000352E+00 0. -1.
</event>
<event>
 5   0  0.9838215E-05  0.1200188E+04  0.7818609E-02  0.9112692E-01
        2   -1    0    0  501    0  0.00000000000E+00  0.00000000000E+00  0.85284893228E+03  0.85284893228E+03  0.25500000920E-02 0.  1.
       -2   -1    0    0    0  501  0.00000000000E+00  0.00000000000E+00 -0.42224654815E+03  0.42224654815E+03  0.25500000920E-02 0. -1.
    10030    2    1    2    0    0  0.00000000000E+00  0.00000000000E+00  0.43060238413E+03  0.12750954804E+04  0.12001875149E+04 0.  0.
        4    1    3    3  502    0  0.35873927150E+03 -0.41286543328E+03  0.47761015979E+03  0.72613002179E+03  0.12699999809E+01 0.  1.
       -4    1    3    3    0  502 -0.35873927150E+03  0.41286543328E+03 -0.47007775657E+02  0.54896545865E+03  0.12699999809E+01 0. -1.
</event>
<event>
 5   0  0.1004006E-04  0.1200129E+04  0.7818609E-02  0.9112743E-01
        2   -1    0    0  501    0  0.00000000000E+00  0.00000000000E+00  0.82193153012E+03  0.82193153012E+03  0.25500000920E-02 0.  1.
       -2   -1    0    0    0  501  0.00000000000E+00  0.00000000000E+00 -0.43808719336E+03  0.43808719337E+03  0.25500000920E-02 0. -1.
    10030    2    1    2    0    0  0.00000000000E+00  0.00000000000E+00  0.38384433676E+03  0.12600187235E+04  0.12001294550E+04 0.  0.
        5    1    3    3  502    0  0.14400453241E+03  0.40987673192E+03  0.62648452987E+03  0.76239176076E+03  0.46999998093E+01 0.  1.
       -5    1    3    3    0  502 -0.14400453241E+03 -0.40987673192E+03 -0.24264019311E+03  0.49762696273E+03  0.46999998093E+01 0. -1.
</event>
<event>
 5   0  0.9941209E-05  0.1202506E+04  0.7818609E-02  0.9110666E-01
        2   -1    0    0  501    0  0.00000000000E+00  0.00000000000E+00  0.57263432798E+03  0.57263432799E+03  0.25500000920E-02 0. -1.
       -2   -1    0    0    0  501  0.00000000000E+00  0.00000000000E+00 -0.63130238628E+03  0.63130238629E+03  0.25500000920E-02 0.  1.
    10030    2    1    2    0    0  0.00000000000E+00  0.00000000000E+00 -0.58668058299E+02  0.12039367143E+04  0.12025064120E+04 0.  0.
        2    1    3    3  502    0  0.18341846938E+03  0.43364092176E+03 -0.40370208566E+03  0.62021138163E+03  0.25500000920E-02 0.  1.
       -2    1    3    3    0  502 -0.18341846938E+03 -0.43364092176E+03  0.34503402736E+03  0.58372533265E+03  0.25500000920E-02 0. -1.
</event>
<event>
 5   0  0.1023063E-04  0.1197325E+04  0.7818609E-02  0.9115201E-01
        2   -1    0    0  501    0  0.00000000000E+00  0.00000000000E+00  0.24662075778E+03  0.24662075779E+03  0.25500000920E-02 0.  1.
       -2   -1    0    0    0  501  0.00000000000E+00  0.00000000000E+00 -0.14532302852E+04  0.14532302852E+04  0.25500000920E-02 0. -1.
    10030    2    1    2    0    0  0.00000000000E+00  0.00000000000E+00 -0.12066095274E+04  0.16998510430E+04  0.11973249420E+04 0.  0.
        3    1    3    3  502    0 -0.13796994591E+03  0.69911938130E+02 -0.14243736633E+04  0.14327469169E+04  0.10100000352E+00 0. -1.
       -3    1    3    3    0  502  0.13796994591E+03 -0.69911938130E+02  0.21776413589E+03  0.26710412605E+03  0.10100000352E+00 0.  1.
</event>
<event>
 5   0  0.9941209E-05  0.1200297E+04  0.7818609E-02  0.9112597E-01
        2   -1    0    0  501    0  0.00000000000E+00  0.00000000000E+00  0.12844518525E+04  0.12844518525E+04  0.25500000920E-02 0.  1.
       -2   -1    0    0    0  501  0.00000000000E+00  0.00000000000E+00 -0.28041398521E+03  0.28041398523E+03  0.25500000920E-02 0. -1.
    10030    2    1    2    0    0  0.00000000000E+00  0.00000000000E+00  0.10040378673E+04  0.15648658377E+04  0.12002970679E+04 0.  0.
        2    1    3    3  502    0 -0.35798586041E+03  0.55149481194E+01  0.11299713192E+04  0.11853351733E+04  0.25500000920E-02 0.  1.
       -2    1    3    3    0  502  0.35798586041E+03 -0.55149481194E+01 -0.12593345191E+03  0.37953066440E+03  0.25500000920E-02 0. -1.
</event>
<event>
 5   0  0.1023063E-04  0.1199878E+04  0.7818609E-02  0.9112963E-01
       -2   -1    0    0    0  501  0.00000000000E+00  0.00000000000E+00  0.55832701428E+03  0.55832701428E+03  0.25500000920E-02 0. -1.
        2   -1    0    0  501    0  0.00000000000E+00  0.00000000000E+00 -0.64465218860E+03  0.64465218861E+03  0.25500000920E-02 0.  1.
    10030    2    1    2    0    0  0.00000000000E+00  0.00000000000E+00 -0.86325174322E+02  0.12029792029E+04  0.11998778800E+04 0.  0.
        3    1    3    3  502    0 -0.29203303271E+03 -0.24374081435E+03  0.42196955747E+03  0.56811195587E+03  0.10100000352E+00 0. -1.
       -3    1    3    3    0  502  0.29203303271E+03  0.24374081435E+03 -0.50829473179E+03  0.63486724702E+03  0.10100000352E+00 0.  1.
</event>
<event>
 5   0  0.1023063E-04  0.1199669E+04  0.7818609E-02  0.9113147E-01
        2   -1    0    0  501    0  0.00000000000E+00  0.00000000000E+00  0.10892997035E+04  0.10892997035E+04  0.25500000920E-02 0.  1.
       -2   -1    0    0    0  501  0.00000000000E+00  0.00000000000E+00 -0.33030510000E+03  0.33030510001E+03  0.25500000920E-02 0. -1.
    10030    2    1    2    0    0  0.00000000000E+00  0.00000000000E+00  0.75899460348E+03  0.14196048035E+04  0.11996687001E+04 0.  0.
        3    1    3    3  502    0 -0.24168235944E+03  0.12728220742E+03 -0.25243908931E+03  0.37193632144E+03  0.10100000352E+00 0. -1.
       -3    1    3    3    0  502  0.24168235944E+03 -0.12728220742E+03  0.10114336928E+04  0.10476684821E+04  0.10100000352E+00 0.  1.
</event>
<event>
 5   0  0.9838215E-05  0.1200065E+04  0.7818609E-02  0.9112800E-01
        2   -1    0    0  501    0  0.00000000000E+00  0.00000000000E+00  0.69148925151E+03  0.69148925152E+03  0.25500000920E-02 0.  1.
       -2   -1    0    0    0  501  0.00000000000E+00  0.00000000000E+00 -0.52067173313E+03  0.52067173313E+03  0.25500000920E-02 0. -1.
    10030    2    1    2    0    0  0.00000000000E+00  0.00000000000E+00  0.17081751839E+03  0.12121609847E+04  0.12000648433E+04 0.  0.
        4    1    3    3  502    0 -0.44214592654E+03  0.18374332705E+03 -0.27987526402E+03  0.55460473033E+03  0.12699999809E+01 0. -1.
       -4    1    3    3    0  502  0.44214592654E+03 -0.18374332705E+03  0.45069278240E+03  0.65755625433E+03  0.12699999809E+01 0.  1.
</event>
<event>
 5   0  0.5745487E-05  0.1200353E+04  0.7818609E-02  0.9112548E-01
       -1   -1    0    0    0  501  0.00000000000E+00  0.00000000000E+00  0.33107747363E+03  0.33107747366E+03  0.50400001928E-02 0.  1.
        1   -1    0    0  501    0  0.00000000000E+00  0.00000000000E+00 -0.10879983550E+04  0.10879983551E+04  0.50400001928E-02 0. -1.
    10030    2    1    2    0    0  0.00000000000E+00  0.00000000000E+00 -0.75692088142E+03  0.14190758287E+04  0.12003528593E+04 0.  0.
        3    1    3    3  502    0  0.18755992485E+03  0.41466485820E+02  0.29375520889E+03  0.35098479711E+03  0.10100000352E+00 0.  1.
       -3    1    3    3    0  502 -0.18755992485E+03 -0.41466485820E+02 -0.10506760903E+04  0.10680910316E+04  0.10100000352E+00 0. -1.
</event>
<event>
 5   0  0.5447807E-05  0.1199642E+04  0.7818609E-02  0.9113170E-01
        1   -1    0    0  501    0  0.00000000000E+00  0.00000000000E+00  0.61858077026E+03  0.61858077028E+03  0.50400001928E-02 0. -1.
       -1   -1    0    0    0  501  0.00000000000E+00  0.00000000000E+00 -0.58163031371E+03  0.58163031373E+03  0.50400001928E-02 0.  1.
    10030    2    1    2    0    0  0.00000000000E+00  0.00000000000E+00  0.36950456558E+02  0.12002110840E+04  0.11996421591E+04 0.  0.
        2    1    3    3  502    0 -0.31564701489E+02 -0.33373088826E+03  0.51611708310E+03  0.61542625849E+03  0.25500000920E-02 0. -1.
       -2    1    3    3    0  502  0.31564701489E+02  0.33373088826E+03 -0.47916662654E+03  0.58478482552E+03  0.25500000920E-02 0.  1.
</event>
<event>
 5   0  0.5447807E-05  0.1198809E+04  0.7818609E-02  0.9113899E-01
       -1   -1    0    0    0  501  0.00000000000E+00  0.00000000000E+00  0.20307435804E+03  0.20307435810E+03  0.50400001928E-02 0.  1.
        1   -1    0    0  501    0  0.00000000000E+00  0.00000000000E+00 -0.17692330580E+04  0.17692330580E+04  0.50400001928E-02 0. -1.
    10030    2    1    2    0    0  0.00000000000E+00  0.00000000000E+00 -0.15661586999E+04  0.19723074161E+04  0.11988091884E+04 0.  0.
        2    1    3    3  502    0 -0.57441591582E+03 -0.16886963777E+03 -0.83005522840E+03  0.10234560475E+04  0.25500000920E-02 0. -1.
       -2    1    3    3    0  502  0.57441591582E+03  0.16886963777E+03 -0.73610347152E+03  0.94885136860E+03  0.25500000920E-02 0.  1.
</event>
<event>
 5   0  0.5745487E-05  0.1200121E+04  0.7818609E-02  0.9112750E-01
       -1   -1    0    0    0  501  0.00000000000E+00  0.00000000000E+00  0.29629901615E+03  0.29629901620E+03  0.50400001928E-02 0. -1.
        1   -1    0    0  501    0  0.00000000000E+00  0.00000000000E+00 -0.12152348517E+04  0.12152348517E+04  0.50400001928E-02 0.  1.
    10030    2    1    2    0    0  0.00000000000E+00  0.00000000000E+00 -0.91893583552E+03  0.15115338679E+04  0.12001214788E+04 0.  0.
        3    1    3    3  502    0 -0.38864088517E+03  0.39442034182E+03 -0.75068867743E+03  0.93281436754E+03  0.10100000352E+00 0.  1.
       -3    1    3    3    0  502  0.38864088517E+03 -0.39442034182E+03 -0.16824715808E+03  0.57871950034E+03  0.10100000352E+00 0. -1.
</event>
<event>
 5   0  0.1012657E-04  0.1198592E+04  0.7818609E-02  0.9114090E-01
       -2   -1    0    0    0  501  0.00000000000E+00  0.00000000000E+00  0.41494275491E+03  0.41494275491E+03  0.25500000920E-02 0.  1.
        2   -1    0    0  501    0  0.00000000000E+00  0.00000000000E+00 -0.86555523324E+03  0.86555523325E+03  0.25500000920E-02 0. -1.
    10030    2    1    2    0    0  0.00000000000E+00  0.00000000000E+00 -0.45061247834E+03  0.12804979882E+04  0.11985922960E+04 0.  0.
        1    1    3    3  502    0  0.17191878848E+03  0.41706425203E+03 -0.64680086676E+03  0.78857467714E+03  0.50400001928E-02 0. -1.
       -1    1    3    3    0  502 -0.17191878848E+03 -0.41706425203E+03  0.19618838842E+03  0.49192331103E+03  0.50400001928E-02 0.  1.
</event>
<event>
 5   0  0.5745487E-05  0.1202202E+04  0.7818609E-02  0.9110932E-01
       -1   -1    0    0    0  501  0.00000000000E+00  0.00000000000E+00  0.22755937683E+03  0.22755937689E+03  0.50400001928E-02 0.  1.
        1   -1    0    0  501    0  0.00000000000E+00  0.00000000000E+00 -0.15878150313E+04  0.15878150313E+04  0.50400001928E-02 0. -1.
    10030    2    1    2    0    0  0.00000000000E+00  0.00000000000E+00 -0.13602556544E+04  0.18153744082E+04  0.12022016455E+04 0.  0.
        3    1    3    3  502    0 -0.21592019821E+03 -0.52029752761E+03 -0.36341073804E+03  0.67037185499E+03  0.10100000352E+00 0.  1.
       -3    1    3    3    0  502  0.21592019821E+03  0.52029752761E+03 -0.99684491640E+03  0.11450025532E+04  0.10100000352E+00 0. -1.
</event>
<event>
 5   0  0.1023063E-04  0.1199812E+04  0.7818609E-02  0.9113021E-01
       -2   -1    0    0    0  501  0.00000000000E+00  0.00000000000E+00  0.45014523337E+03  0.45014523338E+03  0.25500000920E-02 0. -1.
        2   -1    0    0  501    0  0.00000000000E+00  0.00000000000E+00 -0.79949168367E+03  0.79949168367E+03  0.25500000920E-02 0.  1.
    10030    2    1    2    0    0  0.00000000000E+00  0.00000000000E+00 -0.34934645030E+03  0.12496369171E+04  0.11998122695E+04 0.  0.
        3    1    3    3  502    0 -0.35035590128E+03 -0.42824482947E+03  0.66782459915E+02  0.55731750258E+03  0.10100000352E+00 0. -1.
       -3    1    3    3    0  502  0.35035590128E+03  0.42824482947E+03 -0.41612891021E+03  0.69231941447E+03  0.10100000352E+00 0.  1.
</event>
<event>
 5   0  0.5620246E-05  0.1199236E+04  0.7818609E-02  0.9113526E-01
        1   -1    0    0  501    0  0.00000000000E+00  0.00000000000E+00  0.72125510349E+03  0.72125510351E+03  0.50400001928E-02 0. -1.
       -1   -1    0    0    0  501  0.00000000000E+00  0.00000000000E+00 -0.49849452448E+03  0.49849452450E+03  0.50400001928E-02 0.  1.
    10030    2    1    2    0    0  0.00000000000E+00  0.00000000000E+00  0.22276057901E+03  0.12197496280E+04  0.11992359565E+04 0.  0.
        1    1    3    3  502    0  0.21721597207E+03  0.35700468032E+03 -0.32598293107E+03  0.52999999214E+03  0.50400001928E-02 0.  1.
       -1    1    3    3    0  502 -0.21721597207E+03 -0.35700468032E+03  0.54874351009E+03  0.68974963587E+03  0.50400001928E-02 0. -1.
</event>
<event>
 5   0  0.9838215E-05  0.1200001E+04  0.7818609E-02  0.9112855E-01
        2   -1    0    0  501    0  0.00000000000E+00  0.00000000000E+00  0.68970899864E+03  0.68970899865E+03  0.25500000920E-02 0. -1.
       -2   -1    0    0    0  501  0.00000000000E+00  0.00000000000E+00 -0.52196034095E+03  0.52196034095E+03  0.25500000920E-02 0.  1.
    10030    2    1    2    0    0  0.00000000000E+00  0.00000000000E+00  0.16774865769E+03  0.12116693396E+04  0.12000012402E+04 0.  0.
        4    1    3    3  502    0  0.27203852135E+03  0.19277642957E+03 -0.41980605189E+03  0.53610301529E+03  0.12699999809E+01 0.  1.
       -4    1    3    3    0  502 -0.27203852135E+03 -0.19277642957E+03  0.58755470958E+03  0.67556632431E+03  0.12699999809E+01 0. -1.
</event>
<event>
 5   0  0.9838215E-05  0.1199226E+04  0.7818609E-02  0.9113534E-01
        2   -1    0    0  501    0  0.00000000000E+00  0.00000000000E+00  0.10711109641E+04  0.10711109641E+04  0.25500000920E-02 0. -1.
       -2   -1    0    0    0  501  0.00000000000E+00  0.00000000000E+00 -0.33566641250E+03  0.33566641251E+03  0.25500000920E-02 0.  1.
    10030    2    1    2    0    0  0.00000000000E+00  0.00000000000E+00  0.73544455158E+03  0.14067773766E+04  0.11992263751E+04 0.  0.
        4    1    3    3  502    0 -0.57063514872E+03 -0.16938415547E+03  0.28297737884E+03  0.65908518031E+03  0.12699999809E+01 0.  1.
       -4    1    3    3    0  502  0.57063514872E+03  0.16938415547E+03  0.45246717273E+03  0.74769219628E+03  0.12699999809E+01 0. -1.
</event>
<event>
 5   0  0.5625746E-05  0.1199854E+04  0.7818609E-02  0.9112985E-01
        1   -1    0    0  501    0  0.00000000000E+00  0.00000000000E+00  0.74184516272E+03  0.74184516274E+03  0.50400001928E-02 0.  1.
       -1   -1    0    0    0  501  0.00000000000E+00  0.00000000000E+00 -0.48515804944E+03  0.48515804947E+03  0.50400001928E-02 0. -1.
    10030    2    1    2    0    0  0.00000000000E+00  0.00000000000E+00  0.25668711328E+03  0.12270032122E+04  0.11998535780E+04 0.  0.
        5    1    3    3  502    0  0.19374763102E+03 -0.36602358075E+03 -0.31550345047E+03  0.52064952075E+03  0.46999998093E+01 0. -1.
       -5    1    3    3    0  502 -0.19374763102E+03  0.36602358075E+03  0.57219056375E+03  0.70635369146E+03  0.46999998093E+01 0.  1.
</event>
<event>
 5   0  0.5745487E-05  0.1200459E+04  0.7818609E-02  0.9112455E-01
        1   -1    0    0  501    0  0.00000000000E+00  0.00000000000E+00  0.10913227980E+04  0.10913227980E+04  0.50400001928E-02 0. -1.
       -1   -1    0    0    0  501  0.00000000000E+00  0.00000000000E+00 -0.33012751581E+03  0.33012751585E+03  0.50400001928E-02 0.  1.
    10030    2    1    2    0    0  0.00000000000E+00  0.00000000000E+00  0.76119528216E+03  0.14214503138E+04  0.12004593859E+04 0.  0.
        3    1    3    3  502    0  0.49747002211E+03  0.12312417440E+03  0.75059396194E+03  0.90886043545E+03  0.10100000352E+00 0. -1.
       -3    1    3    3    0  502 -0.49747002211E+03 -0.12312417440E+03  0.10601320217E+02  0.51258987838E+03  0.10100000352E+00 0.  1.
</event>
<event>
 5   0  0.5447807E-05  0.1199591E+04  0.7818609E-02  0.9113215E-01
       -1   -1    0    0    0  501  0.00000000000E+00  0.00000000000E+00  0.80762004833E+03  0.80762004835E+03  0.50400001928E-02 0. -1.
        1   -1    0    0  501    0  0.00000000000E+00  0.00000000000E+00 -0.44545032796E+03  0.44545032799E+03  0.50400001928E-02 0.  1.
    10030    2    1    2    0    0  0.00000000000E+00  0.00000000000E+00  0.36216972037E+03  0.12530703763E+04  0.11995909560E+04 0.  0.
        2    1    3    3  502    0 -0.19788470845E+03 -0.45276774342E+03  0.53623888579E+03  0.72918387939E+03  0.25500000920E-02 0. -1.
       -2    1    3    3    0  502  0.19788470845E+03  0.45276774342E+03 -0.17406916543E+03  0.52388649694E+03  0.25500000920E-02 0.  1.
</event>
<event>
 5   0  0.9838215E-05  0.1199432E+04  0.7818609E-02  0.9113353E-01
       -2   -1    0    0    0  501  0.00000000000E+00  0.00000000000E+00  0.89604966760E+03  0.89604966760E+03  0.25500000920E-02 0. -1.
        2   -1    0    0  501    0  0.00000000000E+00  0.00000000000E+00 -0.40138346540E+03  0.40138346541E+03  0.25500000920E-02 0.  1.
    10030    2    1    2    0    0  0.00000000000E+00  0.00000000000E+00  0.49466620220E+03  0.12974331330E+04  0.11994324004E+04 0.  0.
        4    1    3    3  502    0  0.16696175699E+02  0.41774975848E+03  0.71242172388E+03  0.82603870887E+03  0.12699999809E+01 0. -1.
       -4    1    3    3    0  502 -0.16696175699E+02 -0.41774975848E+03 -0.21775552169E+03  0.47139442415E+03  0.12699999809E+01 0.  1.
</event>
<event>
 5   0  0.5745487E-05  0.1199792E+04  0.7818609E-02  0.9113039E-01
        1   -1    0    0  501    0  0.00000000000E+00  0.00000000000E+00  0.11989791283E+04  0.11989791283E+04  0.50400001928E-02 0. -1.
       -1   -1    0    0    0  501  0.00000000000E+00  0.00000000000E+00 -0.30015132508E+03  0.30015132512E+03  0.50400001928E-02 0.  1.
    10030    2    1    2    0    0  0.00000000000E+00  0.00000000000E+00  0.89882780320E+03  0.14991304534E+04  0.11997919389E+04 0.  0.
        3    1    3    3  502    0 -0.56305826036E+03  0.20477442166E+02  0.19206333169E+03  0.59526654851E+03  0.10100000352E+00 0. -1.
       -3    1    3    3    0  502  0.56305826036E+03 -0.20477442166E+02  0.70676447150E+03  0.90386390490E+03  0.10100000352E+00 0.  1.
</event>
<event>
 5   0  0.9941209E-05  0.1200133E+04  0.7818609E-02  0.9112740E-01
       -2   -1    0    0    0  501  0.00000000000E+00  0.00000000000E+00  0.25455156069E+03  0.25455156071E+03  0.25500000920E-02 0. -1.
        2   -1    0    0  501    0  0.00000000000E+00  0.00000000000E+00 -0.14145644055E+04  0.14145644055E+04  0.25500000920E-02 0.  1.
    10030    2    1    2    0    0  0.00000000000E+00  0.00000000000E+00 -0.11600128448E+04  0.16691159663E+04  0.12001326212E+04 0.  0.
        2    1    3    3  502    0  0.23779602150E+02  0.59738086255E+03 -0.65160388609E+03  0.88431724443E+03  0.25500000920E-02 0.  1.
       -2    1    3    3    0  502 -0.23779602150E+02 -0.59738086255E+03 -0.50840895875E+03  0.78479872182E+03  0.25500000920E-02 0. -1.
</event>
<event>
 5   0  0.9838215E-05  0.1199170E+04  0.7818609E-02  0.9113583E-01
        2   -1    0    0  501    0  0.00000000000E+00  0.00000000000E+00  0.85157322699E+03  0.85157322700E+03  0.25500000920E-02 0. -1.
       -2   -1    0    0    0  501  0.00000000000E+00  0.00000000000E+00 -0.42216228295E+03  0.42216228296E+03  0.25500000920E-02 0.  1.
    10030    2    1    2    0    0  0.00000000000E+00  0.00000000000E+00  0.42941094404E+03  0.12737355100E+04  0.11991698756E+04 0.  0.
        4    1    3    3  502    0  0.25153246633E+02 -0.50850748051E+03 -0.12166890334E+03  0.52346678834E+03  0.12699999809E+01 0.  1.
       -4    1    3    3    0  502 -0.25153246633E+02  0.50850748051E+03  0.55107984738E+03  0.75026872162E+03  0.12699999809E+01 0. -1.
</event>
<event>
 5   0  0.5625746E-05  0.1199571E+04  0.7818609E-02  0.9113232E-01
       -1   -1    0    0    0  501  0.00000000000E+00  0.00000000000E+00  0.61695025303E+03  0.61695025305E+03  0.50400001928E-02 0.  1.
        1   -1    0    0  501    0  0.00000000000E+00  0.00000000000E+00 -0.58309814163E+03  0.58309814165E+03  0.50400001928E-02 0. -1.
    10030    2    1    2    0    0  0.00000000000E+00  0.00000000000E+00  0.33852111407E+02  0.12000483947E+04  0.11995708333E+04 0.  0.
        5    1    3    3  502    0  0.17476272815E+03  0.33086518586E+03  0.48584144619E+03  0.61325181059E+03  0.46999998093E+01 0.  1.
       -5    1    3    3    0  502 -0.17476272815E+03 -0.33086518586E+03 -0.45198933478E+03  0.58679658411E+03  0.46999998093E+01 0. -1.
</event>
<event>
 5   0  0.3839750E-05  0.1199944E+04  0.7818609E-02  0.9112906E-01
       -4   -1    0    0    0  501  0.00000000000E+00  0.00000000000E+00  0.34389349772E+03  0.34389584277E+03  0.12699999809E+01 0.  1.
        4   -1    0    0  501    0  0.00000000000E+00  0.00000000000E+00 -0.10467310976E+04  0.10467318680E+04  0.12699999809E+01 0. -1.
    10030    2    1    2    0    0  0.00000000000E+00  0.00000000000E+00 -0.70283759988E+03  0.13906277108E+04  0.11999436396E+04 0.  0.
        3    1    3    3  502    0  0.43190067840E+03  0.24144932407E+03 -0.74464700874E+03  0.89405545125E+03  0.10100000352E+00 0. -1.
       -3    1    3    3    0  502 -0.43190067840E+03 -0.24144932407E+03  0.41809408857E+02  0.49657225956E+03  0.10100000352E+00 0.  1.
</event>
<event>
 5   0  0.9941209E-05  0.1199497E+04  0.7818609E-02  0.9113297E-01
        2   -1    0    0  501    0  0.00000000000E+00  0.00000000000E+00  0.72443533966E+03  0.72443533966E+03  0.25500000920E-02 0. -1.
       -2   -1    0    0    0  501  0.00000000000E+00  0.00000000000E+00 -0.49652209750E+03  0.49652209751E+03  0.25500000920E-02 0.  1.
    10030    2    1    2    0    0  0.00000000000E+00  0.00000000000E+00  0.22791324216E+03  0.12209574372E+04  0.11994968184E+04 0.  0.
        2    1    3    3  502    0 -0.21370176942E+03 -0.63843039396E+02  0.68065228400E+03  0.71626246003E+03  0.25500000920E-02 0. -1.
       -2    1    3    3    0  502  0.21370176942E+03  0.63843039396E+02 -0.45273904185E+03  0.50469497714E+03  0.25500000920E-02 0.  1.
</event>
<event>
 5   0  0.1023063E-04  0.1200077E+04  0.7818609E-02  0.9112789E-01
       -2   -1    0    0    0  501  0.00000000000E+00  0.00000000000E+00  0.61314783081E+03  0.61314783081E+03  0.25500000920E-02 0. -1.
        2   -1    0    0  501    0  0.00000000000E+00  0.00000000000E+00 -0.58720966838E+03  0.58720966839E+03  0.25500000920E-02 0.  1.
    10030    2    1    2    0    0  0.00000000000E+00  0.00000000000E+00  0.25938162422E+02  0.12003574992E+04  0.12000772215E+04 0.  0.
        3    1    3    3  502    0  0.24206969666E+03 -0.12106508315E+03 -0.52268547888E+03  0.58860395210E+03  0.10100000352E+00 0.  1.
       -3    1    3    3    0  502 -0.24206969666E+03  0.12106508315E+03  0.54862364130E+03  0.61175354710E+03  0.10100000352E+00 0. -1.
</event>
<event>
 5   0  0.1004006E-04  0.1200092E+04  0.7818609E-02  0.9112776E-01
        2   -1    0    0  501    0  0.00000000000E+00  0.00000000000E+00  0.53803266819E+03  0.53803266820E+03  0.25500000920E-02 0. -1.
       -2   -1    0    0    0  501  0.00000000000E+00  0.00000000000E+00 -0.66920659302E+03  0.66920659302E+03  0.25500000920E-02 0.  1.
    10030    2    1    2    0    0  0.00000000000E+00  0.00000000000E+00 -0.13117392482E+03  0.12072392612E+04  0.12000916779E+04 0.  0.
        5    1    3    3  502    0 -0.27154148736E+03  0.95586566401E+02  0.46400972392E+03  0.54607571355E+03  0.46999998093E+01 0. -1.
       -5    1    3    3    0  502  0.27154148736E+03 -0.95586566401E+02 -0.59518364875E+03  0.66116354767E+03  0.46999998093E+01 0.  1.
</event>
<event>
 5   0  0.5447807E-05  0.1200193E+04  0.7818609E-02  0.9112687E-01
        1   -1    0    0  501    0  0.00000000000E+00  0.00000000000E+00  0.85802665364E+03  0.85802665365E+03  0.50400001928E-02 0. -1.
       -1   -1    0    0    0  501  0.00000000000E+00  0.00000000000E+00 -0.41970266427E+03  0.41970266430E+03  0.50400001928E-02 0.  1.
    10030    2    1    2    0    0  0.00000000000E+00  0.00000000000E+00  0.43832398937E+03  0.12777293180E+04  0.12001934387E+04 0.  0.
        2    1    3    3  502    0 -0.51939594549E+03 -0.11266243592E+03 -0.77499661976E+02  0.53709512218E+03  0.25500000920E-02 0.  1.
       -2    1    3    3    0  502  0.51939594549E+03  0.11266243592E+03  0.51582365134E+03  0.74063419577E+03  0.25500000920E-02 0. -1.
</event>
<event>
 5   0  0.9941209E-05  0.1199764E+04  0.7818609E-02  0.9113063E-01
        2   -1    0    0  501    0  0.00000000000E+00  0.00000000000E+00  0.47468378172E+03  0.47468378173E+03  0.25500000920E-02 0. -1.
       -2   -1    0    0    0  501  0.00000000000E+00  0.00000000000E+00 -0.75810173269E+03  0.75810173270E+03  0.25500000920E-02 0.  1.
    10030    2    1    2    0    0  0.00000000000E+00  0.00000000000E+00 -0.28341795097E+03  0.12327855144E+04  0.11997643059E+04 0.  0.
        2    1    3    3  502    0 -0.23504734651E+03 -0.16776987680E+03  0.39856165410E+03  0.49218429352E+03  0.25500000920E-02 0. -1.
       -2    1    3    3    0  502  0.23504734651E+03  0.16776987680E+03 -0.68197960507E+03  0.74060122090E+03  0.25500000920E-02 0.  1.
</event>
<event>
 5   0  0.5447807E-05  0.1200116E+04  0.7818609E-02  0.9112755E-01
       -1   -1    0    0    0  501  0.00000000000E+00  0.00000000000E+00  0.70402152077E+03  0.70402152078E+03  0.50400001928E-02 0. -1.
        1   -1    0    0  501    0  0.00000000000E+00  0.00000000000E+00 -0.51144684131E+03  0.51144684134E+03  0.50400001928E-02 0.  1.
    10030    2    1    2    0    0  0.00000000000E+00  0.00000000000E+00  0.19257467945E+03  0.12154683621E+04  0.12001159661E+04 0.  0.
        2    1    3    3  502    0  0.25024131756E+03 -0.39548587997E+03 -0.28406952917E+03  0.54747173048E+03  0.25500000920E-02 0.  1.
       -2    1    3    3    0  502 -0.25024131756E+03  0.39548587997E+03  0.47664420862E+03  0.66799663164E+03  0.25500000920E-02 0. -1.
</event>
<event>
 5   0  0.1004006E-04  0.1199566E+04  0.7818609E-02  0.9113237E-01
       -2   -1    0    0    0  501  0.00000000000E+00  0.00000000000E+00  0.76720597779E+03  0.76720597780E+03  0.25500000920E-02 0.  1.
        2   -1    0    0  501    0  0.00000000000E+00  0.00000000000E+00 -0.46889572916E+03  0.46889572917E+03  0.25500000920E-02 0. -1.
    10030    2    1    2    0    0  0.00000000000E+00  0.00000000000E+00  0.29831024863E+03  0.12361017070E+04  0.11995659321E+04 0.  0.
        5    1    3    3  502    0  0.36644847255E+03 -0.15219892522E+03 -0.31428564012E+03  0.50620801006E+03  0.46999998093E+01 0. -1.
       -5    1    3    3    0  502 -0.36644847255E+03  0.15219892522E+03  0.61259588875E+03  0.72989369690E+03  0.46999998093E+01 0.  1.
</event>
<event>
 5   0  0.5732931E-05  0.1199942E+04  0.7818609E-02  0.9112907E-01
        1   -1    0    0  501    0  0.00000000000E+00  0.00000000000E+00  0.12174032882E+04  0.12174032882E+04  0.50400001928E-02 0.  1.
       -1   -1    0    0    0  501  0.00000000000E+00  0.00000000000E+00 -0.29568295574E+03  0.29568295579E+03  0.50400001928E-02 0. -1.
    10030    2    1    2    0    0  0.00000000000E+00  0.00000000000E+00  0.92172033246E+03  0.15130862440E+04  0.11999423363E+04 0.  0.
        4    1    3    3  502    0  0.59251158316E+03 -0.84997088264E+02  0.51237966317E+03  0.78792703553E+03  0.12699999809E+01 0.  1.
       -4    1    3    3    0  502 -0.59251158316E+03  0.84997088264E+02  0.40934066929E+03  0.72515920847E+03  0.12699999809E+01 0. -1.
</event>
<event>
 5   0  0.5447807E-05  0.1200709E+04  0.7818609E-02  0.9112236E-01
       -1   -1    0    0    0  501  0.00000000000E+00  0.00000000000E+00  0.11751016448E+04  0.11751016448E+04  0.50400001928E-02 0.  1.
        1   -1    0    0  501    0  0.00000000000E+00  0.00000000000E+00 -0.30671847408E+03  0.30671847413E+03  0.50400001928E-02 0. -1.
    10030    2    1    2    0    0  0.00000000000E+00  0.00000000000E+00  0.86838317069E+03  0.14818201189E+04  0.12007087631E+04 0.  0.
        2    1    3    3  502    0 -0.45030289718E+03 -0.19232959087E+03  0.86288132521E+03  0.99213282988E+03  0.25500000920E-02 0.  1.
       -2    1    3    3    0  502  0.45030289718E+03  0.19232959087E+03  0.55018454843E+01  0.48968728903E+03  0.25500000920E-02 0. -1.
</event>
<event>
 5   0  0.5620246E-05  0.1199937E+04  0.7818609E-02  0.9112912E-01
       -1   -1    0    0    0  501  0.00000000000E+00  0.00000000000E+00  0.37810763181E+03  0.37810763184E+03  0.50400001928E-02 0.  1.
        1   -1    0    0  501    0  0.00000000000E+00  0.00000000000E+00 -0.95200944207E+03  0.95200944208E+03  0.50400001928E-02 0. -1.
    10030    2    1    2    0    0  0.00000000000E+00  0.00000000000E+00 -0.57390181026E+03  0.13301170739E+04  0.11999367244E+04 0.  0.
        1    1    3    3  502    0  0.11941562500E+03  0.19021241296E+03 -0.90365482757E+03  0.93114601484E+03  0.50400001928E-02 0. -1.
       -1    1    3    3    0  502 -0.11941562500E+03 -0.19021241296E+03  0.32975301731E+03  0.39897105909E+03  0.50400001928E-02 0.  1.
</event>
<event>
 5   0  0.1004006E-04  0.1202087E+04  0.7818609E-02  0.9111032E-01
       -2   -1    0    0    0  501  0.00000000000E+00  0.00000000000E+00  0.18272924670E+03  0.18272924672E+03  0.25500000920E-02 0. -1.
        2   -1    0    0  501    0  0.00000000000E+00  0.00000000000E+00 -0.19769869497E+04  0.19769869497E+04  0.25500000920E-02 0.  1.
    10030    2    1    2    0    0  0.00000000000E+00  0.00000000000E+00 -0.17942577030E+04  0.21597161964E+04  0.12020870785E+04 0.  0.
        5    1    3    3  502    0 -0.44255208103E+03 -0.75362355150E+02 -0.17914872736E+03  0.48337168464E+03  0.46999998093E+01 0. -1.
       -5    1    3    3    0  502  0.44255208103E+03  0.75362355150E+02 -0.16151089756E+04  0.16763445118E+04  0.46999998093E+01 0.  1.
</event>
<event>
 5   0  0.5625746E-05  0.1200738E+04  0.7818609E-02  0.9112211E-01
       -1   -1    0    0    0  501  0.00000000000E+00  0.00000000000E+00  0.10326704482E+04  0.10326704483E+04  0.50400001928E-02 0. -1.
        1   -1    0    0  501    0  0.00000000000E+00  0.00000000000E+00 -0.34903965106E+03  0.34903965110E+03  0.50400001928E-02 0.  1.
    10030    2    1    2    0    0  0.00000000000E+00  0.00000000000E+00  0.68363079717E+03  0.13817100994E+04  0.12007379947E+04 0.  0.
        5    1    3    3  502    0 -0.40054269208E+02  0.35159787269E+03  0.89987826102E+03  0.96696865679E+03  0.46999998093E+01 0. -1.
       -5    1    3    3    0  502  0.40054269208E+02 -0.35159787269E+03 -0.21624746384E+03  0.41474144256E+03  0.46999998093E+01 0.  1.
</event>
<event>
 5   0  0.5745487E-05  0.1199713E+04  0.7818609E-02  0.9113108E-01
       -1   -1    0    0    0  501  0.00000000000E+00  0.00000000000E+00  0.31687148418E+03  0.31687148422E+03  0.50400001928E-02 0.  1.
        1   -1    0    0  501    0  0.00000000000E+00  0.00000000000E+00 -0.11355630215E+04  0.11355630215E+04  0.50400001928E-02 0. -1.
    10030    2    1    2    0    0  0.00000000000E+00  0.00000000000E+00 -0.81869153729E+03  0.14524345057E+04  0.11997125323E+04 0.  0.
        3    1    3    3  502    0  0.14885721870E+03 -0.42672366523E+03 -0.88686473263E+03  0.99537963723E+03  0.10100000352E+00 0. -1.
       -3    1    3    3    0  502 -0.14885721870E+03  0.42672366523E+03  0.68173195340E+02  0.45705486847E+03  0.10100000352E+00 0.  1.
</event>
<event>
 5   0  0.1012657E-04  0.1200269E+04  0.7818609E-02  0.9112621E-01
        2   -1    0    0  501    0  0.00000000000E+00  0.00000000000E+00  0.70724622172E+03  0.70724622173E+03  0.25500000920E-02 0. -1.
       -2   -1    0    0    0  501  0.00000000000E+00  0.00000000000E+00 -0.50924476729E+03  0.50924476729E+03  0.25500000920E-02 0.  1.
    10030    2    1    2    0    0  0.00000000000E+00  0.00000000000E+00  0.19800145443E+03  0.12164909890E+04  0.12002690325E+04 0.  0.
        1    1    3    3  502    0  0.53365696005E+02  0.21460945017E+03  0.66444444987E+03  0.70027961601E+03  0.50400001928E-02 0. -1.
       -1    1    3    3    0  502 -0.53365696005E+02 -0.21460945017E+03 -0.46644299543E+03  0.51621137301E+03  0.50400001928E-02 0.  1.
</event>
<event>
 5   0  0.5620246E-05  0.1200159E+04  0.7818609E-02  0.9112718E-01
       -1   -1    0    0    0  501  0.00000000000E+00  0.00000000000E+00  0.13191305132E+04  0.13191305132E+04  0.50400001928E-02 0.  1.
        1   -1    0    0  501    0  0.00000000000E+00  0.00000000000E+00 -0.27297927024E+03  0.27297927029E+03  0.50400001928E-02 0. -1.
    10030    2    1    2    0    0  0.00000000000E+00  0.00000000000E+00  0.10461512429E+04  0.15921097835E+04  0.12001587976E+04 0.  0.
        1    1    3    3  502    0  0.28493567347E+03  0.52489386518E+03  0.60035264084E+03  0.84683245162E+03  0.50400001928E-02 0.  1.
       -1    1    3    3    0  502 -0.28493567347E+03 -0.52489386518E+03  0.44579860207E+03  0.74527733184E+03  0.50400001928E-02 0. -1.
</event>
<event>
 5   0  0.1023063E-04  0.1201206E+04  0.7818609E-02  0.9111801E-01
       -2   -1    0    0    0  501  0.00000000000E+00  0.00000000000E+00  0.82035914516E+03  0.82035914516E+03  0.25500000920E-02 0. -1.
        2   -1    0    0  501    0  0.00000000000E+00  0.00000000000E+00 -0.43971500659E+03  0.43971500660E+03  0.25500000920E-02 0.  1.
    10030    2    1    2    0    0  0.00000000000E+00  0.00000000000E+00  0.38064413857E+03  0.12600741518E+04  0.12012064384E+04 0.  0.
        3    1    3    3  502    0 -0.47776537344E+01 -0.65562766617E+02  0.81657399579E+03  0.81921572442E+03  0.10100000352E+00 0. -1.
       -3    1    3    3    0  502  0.47776537344E+01  0.65562766617E+02 -0.43592985722E+03  0.44085842734E+03  0.10100000352E+00 0.  1.
</event>
<event>
 5   0  0.5620246E-05  0.1194782E+04  0.7818609E-02  0.9117436E-01
       -1   -1    0    0    0  501  0.00000000000E+00  0.00000000000E+00  0.10009311723E+04  0.10009311723E+04  0.50400001928E-02 0. -1.
        1   -1    0    0  501    0  0.00000000000E+00  0.00000000000E+00 -0.35654422982E+03  0.35654422985E+03  0.50400001928E-02 0.  1.
    10030    2    1    2    0    0  0.00000000000E+00  0.00000000000E+00  0.64438694251E+03  0.13574754022E+04  0.11947823801E+04 0.  0.
        1    1    3    3  502    0  0.43970530675E+03 -0.12719120531E+03  0.75833740242E+03  0.88577309477E+03  0.50400001928E-02 0. -1.
       -1    1    3    3    0  502 -0.43970530675E+03  0.12719120531E+03 -0.11395045990E+03  0.47170230742E+03  0.50400001928E-02 0.  1.
</event>
<event>
 5   0  0.5732931E-05  0.1199702E+04  0.7818609E-02  0.9113117E-01
       -1   -1    0    0    0  501  0.00000000000E+00  0.00000000000E+00  0.11232344728E+04  0.11232344728E+04  0.50400001928E-02 0.  1.
        1   -1    0    0  501    0  0.00000000000E+00  0.00000000000E+00 -0.32034395847E+03  0.32034395850E+03  0.50400001928E-02 0. -1.
    10030    2    1    2    0    0  0.00000000000E+00  0.00000000000E+00  0.80289051429E+03  0.14435784313E+04  0.11997022586E+04 0.  0.
        4    1    3    3  502    0 -0.23640569203E+03 -0.51351280226E+03  0.16007810451E+03  0.58754545505E+03  0.12699999809E+01 0.  1.
       -4    1    3    3    0  502  0.23640569203E+03  0.51351280226E+03  0.64281240977E+03  0.85603297621E+03  0.12699999809E+01 0. -1.
</event>
<event>
 5   0  0.1012657E-04  0.1199975E+04  0.7818609E-02  0.9112878E-01
       -2   -1    0    0    0  501  0.00000000000E+00  0.00000000000E+00  0.80623116192E+03  0.80623116192E+03  0.25500000920E-02 0.  1.
        2   -1    0    0  501    0  0.00000000000E+00  0.00000000000E+00 -0.44650382476E+03  0.44650382477E+03  0.25500000920E-02 0. -1.
    10030    2    1    2    0    0  0.00000000000E+00  0.00000000000E+00  0.35972733716E+03  0.12527349867E+04  0.11999754955E+04 0.  0.
        1    1    3    3  502    0  0.13064438455E+03  0.32563695504E+03  0.68796357593E+03  0.77227020112E+03  0.50400001928E-02 0.  1.
       -1    1    3    3    0  502 -0.13064438455E+03 -0.32563695504E+03 -0.32823623877E+03  0.48046478557E+03  0.50400001928E-02 0. -1.
</event>
<event>
 5   0  0.5620246E-05  0.1199356E+04  0.7818609E-02  0.9113421E-01
        1   -1    0    0  501    0  0.00000000000E+00  0.00000000000E+00  0.45264388880E+03  0.45264388883E+03  0.50400001928E-02 0. -1.
       -1   -1    0    0    0  501  0.00000000000E+00  0.00000000000E+00 -0.79447345102E+03  0.79447345103E+03  0.50400001928E-02 0.  1.
    10030    2    1    2    0    0  0.00000000000E+00  0.00000000000E+00 -0.34182956221E+03  0.12471173399E+04  0.11993557478E+04 0.  0.
        1    1    3    3  502    0 -0.24086769900E+03 -0.52172573299E+03 -0.34920287923E+03  0.67242667985E+03  0.50400001928E-02 0.  1.
       -1    1    3    3    0  502  0.24086769900E+03  0.52172573299E+03  0.73733170150E+01  0.57469066002E+03  0.50400001928E-02 0. -1.
</event>
<event>
 5   0  0.5620246E-05  0.1200101E+04  0.7818609E-02  0.9112768E-01
        1   -1    0    0  501    0  0.00000000000E+00  0.00000000000E+00  0.27089879305E+04  0.27089879305E+04  0.50400001928E-02 0.  1.
       -1   -1    0    0    0  501  0.00000000000E+00  0.00000000000E+00 -0.13291341832E+03  0.13291341841E+03  0.50400001928E-02 0. -1.
    10030    2    1    2    0    0  0.00000000000E+00  0.00000000000E+00  0.25760745122E+04  0.28419013489E+04  0.12001014060E+04 0.  0.
        1    1    3    3  502    0 -0.45577461571E+03 -0.32837914863E+03  0.78851048923E+03  0.96814883010E+03  0.50400001928E-02 0. -1.
       -1    1    3    3    0  502  0.45577461571E+03  0.32837914863E+03  0.17875640230E+04  0.18737525188E+04  0.50400001928E-02 0.  1.
</event>
<event>
 5   0  0.1023063E-04  0.1201493E+04  0.7818609E-02  0.9111551E-01
       -2   -1    0    0    0  501  0.00000000000E+00  0.00000000000E+00  0.45589772610E+03  0.45589772611E+03  0.25500000920E-02 0.  1.
        2   -1    0    0  501    0  0.00000000000E+00  0.00000000000E+00 -0.79161692364E+03  0.79161692364E+03  0.25500000920E-02 0. -1.
    10030    2    1    2    0    0  0.00000000000E+00  0.00000000000E+00 -0.33571919753E+03  0.12475146498E+04  0.12014929970E+04 0.  0.
        3    1    3    3  502    0 -0.54742531609E+01  0.39192418949E+03  0.30483871286E+03  0.49654928136E+03  0.10100000352E+00 0.  1.
       -3    1    3    3    0  502  0.54742531609E+01 -0.39192418949E+03 -0.64055791040E+03  0.75096536840E+03  0.10100000352E+00 0. -1.
</event>
<event>
 5   0  0.1004006E-04  0.1200227E+04  0.7818609E-02  0.9112658E-01
       -2   -1    0    0    0  501  0.00000000000E+00  0.00000000000E+00  0.31006651824E+03  0.31006651826E+03  0.25500000920E-02 0. -1.
        2   -1    0    0  501    0  0.00000000000E+00  0.00000000000E+00 -0.11614797818E+04  0.11614797818E+04  0.25500000920E-02 0.  1.
    10030    2    1    2    0    0  0.00000000000E+00  0.00000000000E+00 -0.85141326355E+03  0.14715463001E+04  0.12002266319E+04 0.  0.
        5    1    3    3  502    0  0.35510042503E+03 -0.40682582323E+02 -0.10167151068E+04  0.10777212453E+04  0.46999998093E+01 0.  1.
       -5    1    3    3    0  502 -0.35510042503E+03  0.40682582323E+02  0.16530184320E+03  0.39382505472E+03  0.46999998093E+01 0. -1.
</event>
<event>
 5   0  0.9941209E-05  0.1199869E+04  0.7818609E-02  0.9112972E-01
        2   -1    0    0  501    0  0.00000000000E+00  0.00000000000E+00  0.12562960946E+04  0.12562960946E+04  0.25500000920E-02 0. -1.
       -2   -1    0    0    0  501  0.00000000000E+00  0.00000000000E+00 -0.28649388111E+03  0.28649388112E+03  0.25500000920E-02 0.  1.
    10030    2    1    2    0    0  0.00000000000E+00  0.00000000000E+00  0.96980221349E+03  0.15427899757E+04  0.11998685661E+04 0.  0.
        2    1    3    3  502    0  0.12768690558E+03  0.43295958669E+03  0.99301664338E+03  0.10907978748E+04  0.25500000920E-02 0. -1.
       -2    1    3    3    0  502 -0.12768690558E+03 -0.43295958669E+03 -0.23214429886E+02  0.45199210095E+03  0.25500000920E-02 0.  1.
</event>
<event>
 5   0  0.9941209E-05  0.1199991E+04  0.7818609E-02  0.9112864E-01
       -2   -1    0    0    0  501  0.00000000000E+00  0.00000000000E+00  0.58739400412E+03  0.58739400412E+03  0.25500000920E-02 0. -1.
        2   -1    0    0  501    0  0.00000000000E+00  0.00000000000E+00 -0.61286782288E+03  0.61286782289E+03  0.25500000920E-02 0.  1.
    10030    2    1    2    0    0  0.00000000000E+00  0.00000000000E+00 -0.25473818766E+02  0.12002618270E+04  0.11999914741E+04 0.  0.
        2    1    3    3  502    0 -0.18227571251E+03 -0.53201181792E+03 -0.22191048091E+03  0.60457031959E+03  0.25500000920E-02 0.  1.
       -2    1    3    3    0  502  0.18227571251E+03  0.53201181792E+03  0.19643666214E+03  0.59569150743E+03  0.25500000920E-02 0. -1.
</event>
<event>
 5   0  0.1023063E-04  0.1199574E+04  0.7818609E-02  0.9113230E-01
        2   -1    0    0  501    0  0.00000000000E+00  0.00000000000E+00  0.11795806879E+04  0.11795806879E+04  0.25500000920E-02 0. -1.
       -2   -1    0    0    0  501  0.00000000000E+00  0.00000000000E+00 -0.30497637168E+03  0.30497637169E+03  0.25500000920E-02 0.  1.
    10030    2    1    2    0    0  0.00000000000E+00  0.00000000000E+00  0.87460431621E+03  0.14845570596E+04  0.11995736548E+04 0.  0.
        3    1    3    3  502    0  0.54465175601E+03  0.76581702361E+02  0.14123053754E+03  0.56785241691E+03  0.10100000352E+00 0.  1.
       -3    1    3    3    0  502 -0.54465175601E+03 -0.76581702361E+02  0.73337377867E+03  0.91670464267E+03  0.10100000352E+00 0. -1.
</event>
<event>
 5   0  0.5447807E-05  0.1199949E+04  0.7818609E-02  0.9112902E-01
        1   -1    0    0  501    0  0.00000000000E+00  0.00000000000E+00  0.18275868643E+04  0.18275868643E+04  0.50400001928E-02 0.  1.
       -1   -1    0    0    0  501  0.00000000000E+00  0.00000000000E+00 -0.19696416505E+03  0.19696416511E+03  0.50400001928E-02 0. -1.
    10030    2    1    2    0    0  0.00000000000E+00  0.00000000000E+00  0.16306226992E+04  0.20245510294E+04  0.11999485336E+04 0.  0.
        2    1    3    3  502    0  0.12182355202E+03  0.41208907973E+03  0.10887935291E+03  0.44329798212E+03  0.25500000920E-02 0. -1.
       -2    1    3    3    0  502 -0.12182355202E+03 -0.41208907973E+03  0.15217433463E+04  0.15812530473E+04  0.25500000920E-02 0.  1.
</event>
<event>
 5   0  0.1012657E-04  0.1200378E+04  0.7818609E-02  0.9112526E-01
       -2   -1    0    0    0  501  0.00000000000E+00  0.00000000000E+00  0.42746777441E+03  0.42746777442E+03  0.25500000920E-02 0.  1.
        2   -1    0    0  501    0  0.00000000000E+00  0.00000000000E+00 -0.84269970225E+03  0.84269970225E+03  0.25500000920E-02 0. -1.
    10030    2    1    2    0    0  0.00000000000E+00  0.00000000000E+00 -0.41523192784E+03  0.12701674767E+04  0.12003782174E+04 0.  0.
        1    1    3    3  502    0 -0.23169633913E+03 -0.41783970139E+03 -0.59198975002E+03  0.76073982003E+03  0.50400001928E-02 0. -1.
       -1    1    3    3    0  502  0.23169633913E+03  0.41783970139E+03  0.17675782219E+03  0.50942765664E+03  0.50400001928E-02 0.  1.
</event>
<event>
 5   0  0.5620246E-05  0.1194435E+04  0.7818609E-02  0.9117741E-01
        1   -1    0    0  501    0  0.00000000000E+00  0.00000000000E+00  0.24199037280E+04  0.24199037280E+04  0.50400001928E-02 0. -1.
       -1   -1    0    0    0  501  0.00000000000E+00  0.00000000000E+00 -0.14738975864E+03  0.14738975873E+03  0.50400001928E-02 0.  1.
    10030    2    1    2    0    0  0.00000000000E+00  0.00000000000E+00  0.22725139694E+04  0.25672934867E+04  0.11944354759E+04 0.  0.
        1    1    3    3  502    0  0.10021040785E+03 -0.31160423993E+03  0.62579252888E+02  0.33324989288E+03  0.50400001928E-02 0.  1.
       -1    1    3    3    0  502 -0.10021040785E+03  0.31160423993E+03  0.22099347165E+04  0.22340435939E+04  0.50400001928E-02 0. -1.
</event>
<event>
 5   0  0.5745487E-05  0.1199772E+04  0.7818609E-02  0.9113056E-01
        1   -1    0    0  501    0  0.00000000000E+00  0.00000000000E+00  0.14892024501E+04  0.14892024501E+04  0.50400001928E-02 0.  1.
       -1   -1    0    0    0  501  0.00000000000E+00  0.00000000000E+00 -0.24164817238E+03  0.24164817243E+03  0.50400001928E-02 0. -1.
    10030    2    1    2    0    0  0.00000000000E+00  0.00000000000E+00  0.12475542778E+04  0.17308506226E+04  0.11997717290E+04 0.  0.
        3    1    3    3  502    0 -0.52550767590E+02  0.23123132586E+03  0.14187198461E+04  0.14384003341E+04  0.10100000352E+00 0.  1.
       -3    1    3    3    0  502  0.52550767590E+02 -0.23123132586E+03 -0.17116556836E+03  0.29245028847E+03  0.10100000352E+00 0. -1.
</event>
<event>
 5   0  0.5732931E-05  0.1200064E+04  0.7818609E-02  0.9112801E-01
       -1   -1    0    0    0  501  0.00000000000E+00  0.00000000000E+00  0.38496610030E+03  0.38496610033E+03  0.50400001928E-02 0. -1.
        1   -1    0    0  501    0  0.00000000000E+00  0.00000000000E+00 -0.93524635294E+03  0.93524635295E+03  0.50400001928E-02 0.  1.
    10030    2    1    2    0    0  0.00000000000E+00  0.00000000000E+00 -0.55028025263E+03  0.13202124533E+04  0.12000635672E+04 0.  0.
        4    1    3    3  502    0  0.42119755810E+03 -0.18398289730E+03  0.14919700127E+03  0.48323746496E+03  0.12699999809E+01 0. -1.
       -4    1    3    3    0  502 -0.42119755810E+03  0.18398289730E+03 -0.69947725391E+03  0.83697498833E+03  0.12699999809E+01 0.  1.
</event>
<event>
 5   0  0.9838215E-05  0.1200174E+04  0.7818609E-02  0.9112704E-01
       -2   -1    0    0    0  501  0.00000000000E+00  0.00000000000E+00  0.65860562965E+03  0.65860562966E+03  0.25500000920E-02 0. -1.
        2   -1    0    0  501    0  0.00000000000E+00  0.00000000000E+00 -0.54676796035E+03  0.54676796035E+03  0.25500000920E-02 0.  1.
    10030    2    1    2    0    0  0.00000000000E+00  0.00000000000E+00  0.11183766931E+03  0.12053735900E+04  0.12001740820E+04 0.  0.
        4    1    3    3  502    0  0.48238311973E+03  0.16295938527E+03 -0.26303156351E+03  0.57309375476E+03  0.12699999809E+01 0.  1.
       -4    1    3    3    0  502 -0.48238311973E+03 -0.16295938527E+03  0.37486923282E+03  0.63227983525E+03  0.12699999809E+01 0. -1.
</event>
<event>
 5   0  0.5745487E-05  0.1199414E+04  0.7818609E-02  0.9113370E-01
       -1   -1    0    0    0  501  0.00000000000E+00  0.00000000000E+00  0.27117544482E+03  0.27117544487E+03  0.50400001928E-02 0. -1.
        1   -1    0    0  501    0  0.00000000000E+00  0.00000000000E+00 -0.13262573391E+04  0.13262573391E+04  0.50400001928E-02 0.  1.
    10030    2    1    2    0    0  0.00000000000E+00  0.00000000000E+00 -0.10550818942E+04  0.15974327839E+04  0.11994138967E+04 0.  0.
        3    1    3    3  502    0 -0.30648246008E+03 -0.45405867321E+03 -0.85254275861E+03  0.10133755190E+04  0.10100000352E+00 0.  1.
       -3    1    3    3    0  502  0.30648246008E+03  0.45405867321E+03 -0.20253913562E+03  0.58405726493E+03  0.10100000352E+00 0. -1.
</event>
<event>
 5   0  0.1004006E-04  0.1199960E+04  0.7818609E-02  0.9112892E-01
       -2   -1    0    0    0  501  0.00000000000E+00  0.00000000000E+00  0.47033012513E+03  0.47033012514E+03  0.25500000920E-02 0.  1.
        2   -1    0    0  501    0  0.00000000000E+00  0.00000000000E+00 -0.76536844066E+03  0.76536844066E+03  0.25500000920E-02 0. -1.
    10030    2    1    2    0    0  0.00000000000E+00  0.00000000000E+00 -0.29503831553E+03  0.12356985658E+04  0.11999597234E+04 0.  0.
        5    1    3    3  502    0 -0.97637766421E+02 -0.25043541660E+03 -0.69987360130E+03  0.74973073774E+03  0.46999998093E+01 0. -1.
       -5    1    3    3    0  502  0.97637766421E+02  0.25043541660E+03  0.40483528577E+03  0.48596782807E+03  0.46999998093E+01 0.  1.
</event>
<event>
 5   0  0.5745487E-05  0.1200818E+04  0.7818609E-02  0.9112141E-01
       -1   -1    0    0    0  501  0.00000000000E+00  0.00000000000E+00  0.32988975308E+03  0.32988975311E+03  0.50400001928E-02 0.  1.
        1   -1    0    0  501    0  0.00000000000E+00  0.00000000000E+00 -0.10927617130E+04  0.10927617130E+04  0.50400001928E-02 0. -1.
    10030    2    1    2    0    0  0.00000000000E+00  0.00000000000E+00 -0.76287195988E+03  0.14226514661E+04  0.12008178741E+04 0.  0.
        3    1    3    3  502    0  0.48189969897E+03  0.14974036715E+03  0.39972258708E+01  0.50464391945E+03  0.10100000352E+00 0.  1.
       -3    1    3    3    0  502 -0.48189969897E+03 -0.14974036715E+03 -0.76686918575E+03  0.91800754663E+03  0.10100000352E+00 0. -1.
</event>
<event>
 5   0  0.1012657E-04  0.1200207E+04  0.7818609E-02  0.9112675E-01
       -2   -1    0    0    0  501  0.00000000000E+00  0.00000000000E+00  0.11589087418E+04  0.11589087418E+04  0.25500000920E-02 0.  1.
        2   -1    0    0  501    0  0.00000000000E+00  0.00000000000E+00 -0.31074431724E+03  0.31074431725E+03  0.25500000920E-02 0. -1.
    10030    2    1    2    0    0  0.00000000000E+00  0.00000000000E+00  0.84816442455E+03  0.14696530590E+04  0.12002071583E+04 0.  0.
        1    1    3    3  502    0 -0.32811267791E+03  0.38178282664E+03  0.24084407207E+02  0.50398027225E+03  0.50400001928E-02 0. -1.
       -1    1    3    3    0  502  0.32811267791E+03 -0.38178282664E+03  0.82408001735E+03  0.96567278679E+03  0.50400001928E-02 0.  1.
</event>
<event>
 5   0  0.5745487E-05  0.1196904E+04  0.7818609E-02  0.9115571E-01
       -1   -1    0    0    0  501  0.00000000000E+00  0.00000000000E+00  0.84340549728E+03  0.84340549730E+03  0.50400001928E-02 0.  1.
        1   -1    0    0  501    0  0.00000000000E+00  0.00000000000E+00 -0.42464145291E+03  0.42464145294E+03  0.50400001928E-02 0. -1.
    10030    2    1    2    0    0  0.00000000000E+00  0.00000000000E+00  0.41876404437E+03  0.12680469502E+04  0.11969042331E+04 0.  0.
        3    1    3    3  502    0 -0.36393506137E+03 -0.96942756004E+02  0.70210462213E+03  0.79674182610E+03  0.10100000352E+00 0.  1.
       -3    1    3    3    0  502  0.36393506137E+03  0.96942756004E+02 -0.28334057776E+03  0.47130512414E+03  0.10100000352E+00 0. -1.
</event>
<event>
 5   0  0.1004006E-04  0.1199020E+04  0.7818609E-02  0.9113715E-01
        2   -1    0    0  501    0  0.00000000000E+00  0.00000000000E+00  0.12340718341E+04  0.12340718341E+04  0.25500000920E-02 0.  1.
       -2   -1    0    0    0  501  0.00000000000E+00  0.00000000000E+00 -0.29124081299E+03  0.29124081300E+03  0.25500000920E-02 0. -1.
    10030    2    1    2    0    0  0.00000000000E+00  0.00000000000E+00  0.94283102107E+03  0.15253126471E+04  0.11990197400E+04 0.  0.
        5    1    3    3  502    0 -0.46195861325E+01 -0.58962777097E+03  0.33376774288E+03  0.67757305514E+03  0.46999998093E+01 0. -1.
       -5    1    3    3    0  502  0.46195861325E+01  0.58962777097E+03  0.60906327819E+03  0.84773959192E+03  0.46999998093E+01 0.  1.
</event>
<event>
 5   0  0.1023063E-04  0.1200138E+04  0.7818609E-02  0.9112736E-01
        2   -1    0    0  501    0  0.00000000000E+00  0.00000000000E+00  0.49611396040E+03  0.49611396040E+03  0.25500000920E-02 0. -1.
       -2   -1    0    0    0  501  0.00000000000E+00  0.00000000000E+00 -0.72580604662E+03  0.72580604662E+03  0.25500000920E-02 0.  1.
    10030    2    1    2    0    0  0.00000000000E+00  0.00000000000E+00 -0.22969208622E+03  0.12219200070E+04  0.12001375126E+04 0.  0.
        3    1    3    3  502    0 -0.51029118590E+03  0.67636212810E+02  0.19915173079E+03  0.55193584208E+03  0.10100000352E+00 0.  1.
       -3    1    3    3    0  502  0.51029118590E+03 -0.67636212810E+02 -0.42884381701E+03  0.66998416495E+03  0.10100000352E+00 0. -1.
</event>
<event>
 5   0  0.1023063E-04  0.1199518E+04  0.7818609E-02  0.9113279E-01
        2   -1    0    0  501    0  0.00000000000E+00  0.00000000000E+00  0.11100275978E+04  0.11100275978E+04  0.25500000920E-02 0. -1.
       -2   -1    0    0    0  501  0.00000000000E+00  0.00000000000E+00 -0.32405558375E+03  0.32405558376E+03  0.25500000920E-02 0.  1.
    10030    2    1    2    0    0  0.00000000000E+00  0.00000000000E+00  0.78597201400E+03  0.14340831815E+04  0.11995176384E+04 0.  0.
        3    1    3    3  502    0 -0.15157053174E+03  0.16436570411E+03 -0.27236830314E+03  0.35238361701E+03  0.10100000352E+00 0.  1.
       -3    1    3    3    0  502  0.15157053174E+03 -0.16436570411E+03  0.10583403171E+04  0.10816995645E+04  0.10100000352E+00 0. -1.
</event>
<event>
 5   0  0.5732931E-05  0.1195708E+04  0.7818609E-02  0.9116622E-01
       -1   -1    0    0    0  501  0.00000000000E+00  0.00000000000E+00  0.48818868933E+03  0.48818868935E+03  0.50400001928E-02 0. -1.
        1   -1    0    0  501    0  0.00000000000E+00  0.00000000000E+00 -0.73215372369E+03  0.73215372371E+03  0.50400001928E-02 0.  1.
    10030    2    1    2    0    0  0.00000000000E+00  0.00000000000E+00 -0.24396503436E+03  0.12203424131E+04  0.11957076010E+04 0.  0.
        4    1    3    3  502    0 -0.28800955249E+03  0.59420831259E+02  0.40926762857E+03  0.50396621138E+03  0.12699999809E+01 0. -1.
       -4    1    3    3    0  502  0.28800955249E+03 -0.59420831259E+02 -0.65323266293E+03  0.71637620168E+03  0.12699999809E+01 0.  1.
</event>
<event>
 5   0  0.5732931E-05  0.1198496E+04  0.7818609E-02  0.9114174E-01
        1   -1    0    0  501    0  0.00000000000E+00  0.00000000000E+00  0.13975710394E+04  0.13975710394E+04  0.50400001928E-02 0.  1.
       -1   -1    0    0    0  501  0.00000000000E+00  0.00000000000E+00 -0.25694433614E+03  0.25694433619E+03  0.50400001928E-02 0. -1.
    10030    2    1    2    0    0  0.00000000000E+00  0.00000000000E+00  0.11406267033E+04  0.16545153756E+04  0.11984956620E+04 0.  0.
        4    1    3    3  502    0  0.14469750368E+03  0.54641951737E+03  0.29565172702E+03  0.63790533242E+03  0.12699999809E+01 0. -1.
       -4    1    3    3    0  502 -0.14469750368E+03 -0.54641951737E+03  0.84497497625E+03  0.10166100432E+04  0.12699999809E+01 0.  1.
</event>
<event>
 5   0  0.5620246E-05  0.1197461E+04  0.7818609E-02  0.9115082E-01
        1   -1    0    0  501    0  0.00000000000E+00  0.00000000000E+00  0.52505816028E+03  0.52505816031E+03  0.50400001928E-02 0.  1.
       -1   -1    0    0    0  501  0.00000000000E+00  0.00000000000E+00 -0.68273951951E+03  0.68273951953E+03  0.50400001928E-02 0. -1.
    10030    2    1    2    0    0  0.00000000000E+00  0.00000000000E+00 -0.15768135923E+03  0.12077976798E+04  0.11974605732E+04 0.  0.
        1    1    3    3  502    0  0.12549750351E+03 -0.38780398458E+03 -0.52118831698E+03  0.66164855899E+03  0.50400001928E-02 0.  1.
       -1    1    3    3    0  502 -0.12549750351E+03  0.38780398458E+03  0.36350695775E+03  0.54614912084E+03  0.50400001928E-02 0. -1.
</event>
<event>
 5   0  0.5625746E-05  0.1200874E+04  0.7818609E-02  0.9112092E-01
       -1   -1    0    0    0  501  0.00000000000E+00  0.00000000000E+00  0.28800754264E+03  0.28800754268E+03  0.50400001928E-02 0. -1.
        1   -1    0    0  501    0  0.00000000000E+00  0.00000000000E+00 -0.12517895642E+04  0.12517895642E+04  0.50400001928E-02 0.  1.
    10030    2    1    2    0    0  0.00000000000E+00  0.00000000000E+00 -0.96378202153E+03  0.15397971069E+04  0.12008744086E+04 0.  0.
        5    1    3    3  502    0 -0.56596176443E+03  0.27743738412E+01 -0.73892080556E+03  0.93077734332E+03  0.46999998093E+01 0.  1.
       -5    1    3    3    0  502  0.56596176443E+03 -0.27743738412E+01 -0.22486121597E+03  0.60901976355E+03  0.46999998093E+01 0. -1.
</event>
<event>
 5   0  0.5745487E-05  0.1199899E+04  0.7818609E-02  0.9112945E-01
       -1   -1    0    0    0  501  0.00000000000E+00  0.00000000000E+00  0.67627845877E+03  0.67627845879E+03  0.50400001928E-02 0. -1.
        1   -1    0    0  501    0  0.00000000000E+00  0.00000000000E+00 -0.53223591459E+03  0.53223591461E+03  0.50400001928E-02 0.  1.
    10030    2    1    2    0    0  0.00000000000E+00  0.00000000000E+00  0.14404254419E+03  0.12085143734E+04  0.11998994692E+04 0.  0.
        3    1    3    3  502    0  0.98109532349E+02 -0.44694266669E+03  0.46282314490E+03  0.65083677009E+03  0.10100000352E+00 0. -1.
       -3    1    3    3    0  502 -0.98109532349E+02  0.44694266669E+03 -0.31878060071E+03  0.55767760332E+03  0.10100000352E+00 0.  1.
</event>
<event>
 5   0  0.5732931E-05  0.1200196E+04  0.7818609E-02  0.9112685E-01
        1   -1    0    0  501    0  0.00000000000E+00  0.00000000000E+00  0.15832909890E+04  0.15832909890E+04  0.50400001928E-02 0.  1.
       -1   -1    0    0    0  501  0.00000000000E+00  0.00000000000E+00 -0.22744867822E+03  0.22744867828E+03  0.50400001928E-02 0. -1.
    10030    2    1    2    0    0  0.00000000000E+00  0.00000000000E+00  0.13558423107E+04  0.18107396672E+04  0.12001957219E+04 0.  0.
        4    1    3    3  502    0 -0.33463433721E+02  0.11598287715E+03  0.15647822835E+04  0.15694320746E+04  0.12699999809E+01 0.  1.
       -4    1    3    3    0  502  0.33463433721E+02 -0.11598287715E+03 -0.20893997271E+03  0.24130759268E+03  0.12699999809E+01 0. -1.
</event>
<event>
 5   0  0.5447807E-05  0.1197803E+04  0.7818609E-02  0.9114781E-01
        1   -1    0    0  501    0  0.00000000000E+00  0.00000000000E+00  0.57677421808E+03  0.57677421810E+03  0.50400001928E-02 0. -1.
       -1   -1    0    0    0  501  0.00000000000E+00  0.00000000000E+00 -0.62187816987E+03  0.62187816989E+03  0.50400001928E-02 0.  1.
    10030    2    1    2    0    0  0.00000000000E+00  0.00000000000E+00 -0.45103951787E+02  0.11986523880E+04  0.11978034817E+04 0.  0.
        2    1    3    3  502    0 -0.52666501219E+03  0.58050971275E+02 -0.30192243851E+03  0.60983859276E+03  0.25500000920E-02 0.  1.
       -2    1    3    3    0  502  0.52666501219E+03 -0.58050971275E+02  0.25681848672E+03  0.58881379524E+03  0.25500000920E-02 0. -1.
</event>
<event>
 5   0  0.9941209E-05  0.1200062E+04  0.7818609E-02  0.9112802E-01
        2   -1    0    0  501    0  0.00000000000E+00  0.00000000000E+00  0.13333460645E+04  0.13333460645E+04  0.25500000920E-02 0.  1.
       -2   -1    0    0    0  501  0.00000000000E+00  0.00000000000E+00 -0.27002521164E+03  0.27002521165E+03  0.25500000920E-02 0. -1.
    10030    2    1    2    0    0  0.00000000000E+00  0.00000000000E+00  0.10633208529E+04  0.16033712762E+04  0.12000617539E+04 0.  0.
        2    1    3    3  502    0 -0.51349080369E+03  0.17527697268E+03  0.87397246237E+03  0.10286995128E+04  0.25500000920E-02 0.  1.
       -2    1    3    3    0  502  0.51349080369E+03 -0.17527697268E+03  0.18934839049E+03  0.57467176337E+03  0.25500000920E-02 0. -1.
</event>
<event>
 5   0  0.5625746E-05  0.1199927E+04  0.7818609E-02  0.9112921E-01
       -1   -1    0    0    0  501  0.00000000000E+00  0.00000000000E+00  0.64592305100E+03  0.64592305102E+03  0.50400001928E-02 0. -1.
        1   -1    0    0  501    0  0.00000000000E+00  0.00000000000E+00 -0.55727374521E+03  0.55727374523E+03  0.50400001928E-02 0.  1.
    10030    2    1    2    0    0  0.00000000000E+00  0.00000000000E+00  0.88649305783E+02  0.12031967962E+04  0.11999265940E+04 0.  0.
        5    1    3    3  502    0  0.13742706553E+03 -0.42891317991E+03 -0.35309014030E+03  0.57231761410E+03  0.46999998093E+01 0.  1.
       -5    1    3    3    0  502 -0.13742706553E+03  0.42891317991E+03  0.44173944609E+03  0.63087918215E+03  0.46999998093E+01 0. -1.
</event>
<event>
 5   0  0.5745487E-05  0.1200060E+04  0.7818609E-02  0.9112804E-01
        1   -1    0    0  501    0  0.00000000000E+00  0.00000000000E+00  0.27435055347E+03  0.27435055351E+03  0.50400001928E-02 0. -1.
       -1   -1    0    0    0  501  0.00000000000E+00  0.00000000000E+00 -0.13123219983E+04  0.13123219983E+04  0.50400001928E-02 0.  1.
    10030    2    1    2    0    0  0.00000000000E+00  0.00000000000E+00 -0.10379714448E+04  0.15866725518E+04  0.12000604428E+04 0.  0.
        3    1    3    3  502    0 -0.56768043919E+03 -0.49589386909E+02 -0.76745366338E+03  0.95587934592E+03  0.10100000352E+00 0.  1.
       -3    1    3    3    0  502  0.56768043919E+03  0.49589386909E+02 -0.27051778146E+03  0.63079320590E+03  0.10100000352E+00 0. -1.
</event>
<event>
 5   0  0.9941209E-05  0.1200572E+04  0.7818609E-02  0.9112356E-01
        2   -1    0    0  501    0  0.00000000000E+00  0.00000000000E+00  0.11129558805E+04  0.11129558805E+04  0.25500000920E-02 0. -1.
       -2   -1    0    0    0  501  0.00000000000E+00  0.00000000000E+00 -0.32377165932E+03  0.32377165933E+03  0.25500000920E-02 0.  1.
    10030    2    1    2    0    0  0.00000000000E+00  0.00000000000E+00  0.78918422119E+03  0.14367275398E+04  0.12005724837E+04 0.  0.
        2    1    3    3  502    0 -0.16636037539E+03  0.26009410791E+03  0.10106541028E+04  0.10567622415E+04  0.25500000920E-02 0. -1.
       -2    1    3    3    0  502  0.16636037539E+03 -0.26009410791E+03 -0.22146988163E+03  0.37996529835E+03  0.25500000920E-02 0.  1.
</event>
<event>
 5   0  0.5447807E-05  0.1199616E+04  0.7818609E-02  0.9113192E-01
        1   -1    0    0  501    0  0.00000000000E+00  0.00000000000E+00  0.94734487596E+03  0.94734487597E+03  0.50400001928E-02 0. -1.
       -1   -1    0    0    0  501  0.00000000000E+00  0.00000000000E+00 -0.37976650552E+03  0.37976650555E+03  0.50400001928E-02 0.  1.
    10030    2    1    2    0    0  0.00000000000E+00  0.00000000000E+00  0.56757837044E+03  0.13271113815E+04  0.11996163605E+04 0.  0.
        2    1    3    3  502    0 -0.47035615433E+03  0.37204334531E+03  0.29584156361E+03  0.66871024627E+03  0.25500000920E-02 0.  1.
       -2    1    3    3    0  502  0.47035615433E+03 -0.37204334531E+03  0.27173680684E+03  0.65840113525E+03  0.25500000920E-02 0. -1.
</event>
<event>
 5   0  0.5625746E-05  0.1199195E+04  0.7818609E-02  0.9113561E-01
       -1   -1    0    0    0  501  0.00000000000E+00  0.00000000000E+00  0.40232652779E+03  0.40232652783E+03  0.50400001928E-02 0.  1.
        1   -1    0    0  501    0  0.00000000000E+00  0.00000000000E+00 -0.89359608806E+03  0.89359608807E+03  0.50400001928E-02 0. -1.
    10030    2    1    2    0    0  0.00000000000E+00  0.00000000000E+00 -0.49126956026E+03  0.12959226159E+04  0.11991954159E+04 0.  0.
        5    1    3    3  502    0  0.37225568835E+03  0.42803045761E+03 -0.35778073493E+02  0.56840701148E+03  0.46999998093E+01 0.  1.
       -5    1    3    3    0  502 -0.37225568835E+03 -0.42803045761E+03 -0.45549148677E+03  0.72751560442E+03  0.46999998093E+01 0. -1.
</event>
<event>
 5   0  0.1012657E-04  0.1199879E+04  0.7818609E-02  0.9112963E-01
       -2   -1    0    0    0  501  0.00000000000E+00  0.00000000000E+00  0.65764396008E+03  0.65764396009E+03  0.25500000920E-02 0. -1.
        2   -1    0    0  501    0  0.00000000000E+00  0.00000000000E+00 -0.54729791569E+03  0.54729791569E+03  0.25500000920E-02 0.  1.
    10030    2    1    2    0    0  0.00000000000E+00  0.00000000000E+00  0.11034604440E+03  0.12049418758E+04  0.11998786082E+04 0.  0.
        1    1    3    3  502    0  0.19957273909E+03 -0.37729706957E+03 -0.36820397028E+03  0.56369896279E+03  0.50400001928E-02 0.  1.
       -1    1    3    3    0  502 -0.19957273909E+03  0.37729706957E+03  0.47855001468E+03  0.64124291299E+03  0.50400001928E-02 0. -1.
</event>
<event>
 5   0  0.9941209E-05  0.1200000E+04  0.7818609E-02  0.9112856E-01
        2   -1    0    0  501    0  0.00000000000E+00  0.00000000000E+00  0.86756171154E+03  0.86756171154E+03  0.25500000920E-02 0. -1.
       -2   -1    0    0    0  501  0.00000000000E+00  0.00000000000E+00 -0.41495615096E+03  0.41495615097E+03  0.25500000920E-02 0.  1.
    10030    2    1    2    0    0  0.00000000000E+00  0.00000000000E+00  0.45260556058E+03  0.12825178625E+04  0.12000001142E+04 0.  0.
        2    1    3    3  502    0  0.59272703374E+03 -0.93101485071E+02  0.22350647429E+03  0.64027210395E+03  0.25500000920E-02 0.  1.
       -2    1    3    3    0  502 -0.59272703374E+03  0.93101485071E+02  0.22909908629E+03  0.64224575856E+03  0.25500000920E-02 0. -1.
</event>
<event>
 5   0  0.9838215E-05  0.1200011E+04  0.7818609E-02  0.9112847E-01
        2   -1    0    0  501    0  0.00000000000E+00  0.00000000000E+00  0.70630997303E+03  0.70630997304E+03  0.25500000920E-02 0. -1.
       -2   -1    0    0    0  501  0.00000000000E+00  0.00000000000E+00 -0.50970029233E+03  0.50970029234E+03  0.25500000920E-02 0.  1.
    10030    2    1    2    0    0  0.00000000000E+00  0.00000000000E+00  0.19660968070E+03  0.12160102654E+04  0.12000106662E+04 0.  0.
        4    1    3    3  502    0  0.13606621261E+03 -0.54334634071E+03  0.31626689346E+03  0.64324615893E+03  0.12699999809E+01 0. -1.
       -4    1    3    3    0  502 -0.13606621261E+03  0.54334634071E+03 -0.11965721276E+03  0.57276410645E+03  0.12699999809E+01 0.  1.
</event>
<event>
 5   0  0.1004006E-04  0.1199408E+04  0.7818609E-02  0.9113375E-01
        2   -1    0    0  501    0  0.00000000000E+00  0.00000000000E+00  0.10912298733E+04  0.10912298733E+04  0.25500000920E-02 0.  1.
       -2   -1    0    0    0  501  0.00000000000E+00  0.00000000000E+00 -0.32957736790E+03  0.32957736791E+03  0.25500000920E-02 0. -1.
    10030    2    1    2    0    0  0.00000000000E+00  0.00000000000E+00  0.76165250542E+03  0.14208072412E+04  0.11994076362E+04 0.  0.
        5    1    3    3  502    0  0.45296595356E+03 -0.99114786044E+02 -0.69662090067E+02  0.46891021815E+03  0.46999998093E+01 0. -1.
       -5    1    3    3    0  502 -0.45296595356E+03  0.99114786044E+02  0.83131459549E+03  0.95189702309E+03  0.46999998093E+01 0.  1.
</event>
<event>
 5   0  0.9838215E-05  0.1199981E+04  0.7818609E-02  0.9112873E-01
        2   -1    0    0  501    0  0.00000000000E+00  0.00000000000E+00  0.65774452504E+03  0.65774452505E+03  0.25500000920E-02 0. -1.
       -2   -1    0    0    0  501  0.00000000000E+00  0.00000000000E+00 -0.54730791227E+03  0.54730791228E+03  0.25500000920E-02 0.  1.
    10030    2    1    2    0    0  0.00000000000E+00  0.00000000000E+00  0.11043661277E+03  0.12050524373E+04  0.11999813045E+04 0.  0.
        4    1    3    3  502    0 -0.47077264679E+03 -0.24899520684E+03  0.33272226315E+03  0.62795797255E+03  0.12699999809E+01 0. -1.
       -4    1    3    3    0  502  0.47077264679E+03  0.24899520684E+03 -0.22228565038E+03  0.57709446477E+03  0.12699999809E+01 0.  1.
</event>
<event>
 5   0  0.1012657E-04  0.1199973E+04  0.7818609E-02  0.9112880E-01
       -2   -1    0    0    0  501  0.00000000000E+00  0.00000000000E+00  0.20984984645E+03  0.20984984647E+03  0.25500000920E-02 0. -1.
        2   -1    0    0  501    0  0.00000000000E+00  0.00000000000E+00 -0.17154365560E+04  0.17154365560E+04  0.25500000920E-02 0.  1.
    10030    2    1    2    0    0  0.00000000000E+00  0.00000000000E+00 -0.15055867095E+04  0.19252864025E+04  0.11999734962E+04 0.  0.
        1    1    3    3  502    0 -0.96075970099E+02 -0.59216080274E+03 -0.76876455575E+03  0.97513278610E+03  0.50400001928E-02 0.  1.
       -1    1    3    3    0  502  0.96075970099E+02  0.59216080274E+03 -0.73682215380E+03  0.95015361636E+03  0.50400001928E-02 0. -1.
</event>
<event>
 5   0  0.5447807E-05  0.1199777E+04  0.7818609E-02  0.9113052E-01
       -1   -1    0    0    0  501  0.00000000000E+00  0.00000000000E+00  0.30136133806E+03  0.30136133810E+03  0.50400001928E-02 0.  1.
        1   -1    0    0  501    0  0.00000000000E+00  0.00000000000E+00 -0.11941350180E+04  0.11941350180E+04  0.50400001928E-02 0. -1.
    10030    2    1    2    0    0  0.00000000000E+00  0.00000000000E+00 -0.89277367997E+03  0.14954963561E+04  0.11997768574E+04 0.  0.
        2    1    3    3  502    0 -0.42437869013E+03 -0.31183542687E+03 -0.80447031379E+03  0.96151499825E+03  0.25500000920E-02 0. -1.
       -2    1    3    3    0  502  0.42437869013E+03  0.31183542687E+03 -0.88303366182E+02  0.53398135789E+03  0.25500000920E-02 0.  1.
</event>
<event>
 5   0  0.9941209E-05  0.1199839E+04  0.7818609E-02  0.9112998E-01
       -2   -1    0    0    0  501  0.00000000000E+00  0.00000000000E+00  0.42656020368E+03  0.42656020369E+03  0.25500000920E-02 0.  1.
        2   -1    0    0  501    0  0.00000000000E+00  0.00000000000E+00 -0.84373349966E+03  0.84373349966E+03  0.25500000920E-02 0. -1.
    10030    2    1    2    0    0  0.00000000000E+00  0.00000000000E+00 -0.41717329597E+03  0.12702937034E+04  0.11998385449E+04 0.  0.
        2    1    3    3  502    0  0.49322899844E+03 -0.13161886719E+03 -0.54221763020E+03  0.74471358898E+03  0.25500000920E-02 0. -1.
       -2    1    3    3    0  502 -0.49322899844E+03  0.13161886719E+03  0.12504433423E+03  0.52558011438E+03  0.25500000920E-02 0.  1.
</event>
<event>
 5   0  0.1023063E-04  0.1200835E+04  0.7818609E-02  0.9112126E-01
        2   -1    0    0  501    0  0.00000000000E+00  0.00000000000E+00  0.13188404379E+04  0.13188404379E+04  0.25500000920E-02 0.  1.
       -2   -1    0    0    0  501  0.00000000000E+00  0.00000000000E+00 -0.27334721716E+03  0.27334721718E+03  0.25500000920E-02 0. -1.
    10030    2    1    2    0    0  0.00000000000E+00  0.00000000000E+00  0.10454932207E+04  0.15921876551E+04  0.12008353153E+04 0.  0.
        3    1    3    3  502    0 -0.42243774948E+03  0.41209292864E+03  0.66935974418E+03  0.89236579459E+03  0.10100000352E+00 0.  1.
       -3    1    3    3    0  502  0.42243774948E+03 -0.41209292864E+03  0.37613347654E+03  0.69982186047E+03  0.10100000352E+00 0. -1.
</event>
<event>
 5   0  0.1004006E-04  0.1200100E+04  0.7818609E-02  0.9112769E-01
        2   -1    0    0  501    0  0.00000000000E+00  0.00000000000E+00  0.76928899386E+03  0.76928899386E+03  0.25500000920E-02 0. -1.
       -2   -1    0    0    0  501  0.00000000000E+00  0.00000000000E+00 -0.46804232868E+03  0.46804232869E+03  0.25500000920E-02 0.  1.
    10030    2    1    2    0    0  0.00000000000E+00  0.00000000000E+00  0.30124666518E+03  0.12373313226E+04  0.12000996827E+04 0.  0.
        5    1    3    3  502    0  0.14690639483E+03  0.15498374683E+03 -0.42751931248E+03  0.47790825810E+03  0.46999998093E+01 0.  1.
       -5    1    3    3    0  502 -0.14690639483E+03 -0.15498374683E+03  0.72876597766E+03  0.75942306445E+03  0.46999998093E+01 0. -1.
</event>
<event>
 5   0  0.1012657E-04  0.1200430E+04  0.7818609E-02  0.9112480E-01
       -2   -1    0    0    0  501  0.00000000000E+00  0.00000000000E+00  0.28275795884E+03  0.28275795885E+03  0.25500000920E-02 0.  1.
        2   -1    0    0  501    0  0.00000000000E+00  0.00000000000E+00 -0.12740861800E+04  0.12740861800E+04  0.25500000920E-02 0. -1.
    10030    2    1    2    0    0  0.00000000000E+00  0.00000000000E+00 -0.99132822118E+03  0.15568441389E+04  0.12004299358E+04 0.  0.
        1    1    3    3  502    0 -0.30033487020E+03  0.28333658355E+03 -0.10606407776E+04  0.11381737622E+04  0.50400001928E-02 0. -1.
       -1    1    3    3    0  502  0.30033487020E+03 -0.28333658355E+03  0.69312556387E+02  0.41867037671E+03  0.50400001928E-02 0.  1.
</event>
<event>
 5   0  0.5620246E-05  0.1205243E+04  0.7818609E-02  0.9108280E-01
        1   -1    0    0  501    0  0.00000000000E+00  0.00000000000E+00  0.29731381013E+03  0.29731381018E+03  0.50400001928E-02 0. -1.
       -1   -1    0    0    0  501  0.00000000000E+00  0.00000000000E+00 -0.12214452643E+04  0.12214452643E+04  0.50400001928E-02 0.  1.
    10030    2    1    2    0    0  0.00000000000E+00  0.00000000000E+00 -0.92413145416E+03  0.15187590745E+04  0.12052427895E+04 0.  0.
        1    1    3    3  502    0  0.10071370967E+03 -0.41736392574E+03 -0.99493210447E+03  0.10836169943E+04  0.50400001928E-02 0.  1.
       -1    1    3    3    0  502 -0.10071370967E+03  0.41736392574E+03  0.70800650312E+02  0.43514208017E+03  0.50400001928E-02 0. -1.
</event>
<event>
 5   0  0.9941209E-05  0.1200079E+04  0.7818609E-02  0.9112787E-01
        2   -1    0    0  501    0  0.00000000000E+00  0.00000000000E+00  0.17214935804E+04  0.17214935804E+04  0.25500000920E-02 0. -1.
       -2   -1    0    0    0  501  0.00000000000E+00  0.00000000000E+00 -0.20914842113E+03  0.20914842115E+03  0.25500000920E-02 0.  1.
    10030    2    1    2    0    0  0.00000000000E+00  0.00000000000E+00  0.15123451592E+04  0.19306420015E+04  0.12000794379E+04 0.  0.
        2    1    3    3  502    0 -0.14633315594E+03 -0.57229831816E+03  0.92573414527E+03  0.10981450110E+04  0.25500000920E-02 0. -1.
       -2    1    3    3    0  502  0.14633315594E+03  0.57229831816E+03  0.58661101397E+03  0.83249699051E+03  0.25500000920E-02 0.  1.
</event>
<event>
 5   0  0.5745487E-05  0.1200368E+04  0.7818609E-02  0.9112535E-01
       -1   -1    0    0    0  501  0.00000000000E+00  0.00000000000E+00  0.51060703528E+03  0.51060703531E+03  0.50400001928E-02 0.  1.
        1   -1    0    0  501    0  0.00000000000E+00  0.00000000000E+00 -0.70547521311E+03  0.70547521313E+03  0.50400001928E-02 0. -1.
    10030    2    1    2    0    0  0.00000000000E+00  0.00000000000E+00 -0.19486817783E+03  0.12160822484E+04  0.12003676221E+04 0.  0.
        3    1    3    3  502    0  0.36717904705E+03 -0.30846606131E+03 -0.46305884803E+03  0.66662978520E+03  0.10100000352E+00 0.  1.
       -3    1    3    3    0  502 -0.36717904705E+03  0.30846606131E+03  0.26819067020E+03  0.54945246324E+03  0.10100000352E+00 0. -1.
</event>
<event>
 5   0  0.1004006E-04  0.1199604E+04  0.7818609E-02  0.9113203E-01
       -2   -1    0    0    0  501  0.00000000000E+00  0.00000000000E+00  0.18588558542E+03  0.18588558544E+03  0.25500000920E-02 0.  1.
        2   -1    0    0  501    0  0.00000000000E+00  0.00000000000E+00 -0.19353968468E+04  0.19353968468E+04  0.25500000920E-02 0. -1.
    10030    2    1    2    0    0  0.00000000000E+00  0.00000000000E+00 -0.17495112614E+04  0.21212824322E+04  0.11996038945E+04 0.  0.
        5    1    3    3  502    0  0.29378813998E+03  0.11976321825E+03  0.25326737917E+02  0.31830525175E+03  0.46999998093E+01 0.  1.
       -5    1    3    3    0  502 -0.29378813998E+03 -0.11976321825E+03 -0.17748379993E+04  0.18029771805E+04  0.46999998093E+01 0. -1.
</event>
<event>
 5   0  0.5447807E-05  0.1200251E+04  0.7818609E-02  0.9112637E-01
       -1   -1    0    0    0  501  0.00000000000E+00  0.00000000000E+00  0.27205995793E+03  0.27205995798E+03  0.50400001928E-02 0.  1.
        1   -1    0    0  501    0  0.00000000000E+00  0.00000000000E+00 -0.13237903302E+04  0.13237903302E+04  0.50400001928E-02 0. -1.
    10030    2    1    2    0    0  0.00000000000E+00  0.00000000000E+00 -0.10517303723E+04  0.15958502882E+04  0.12002505432E+04 0.  0.
        2    1    3    3  502    0  0.52246856056E+03 -0.24883341853E+03 -0.73717868152E+03  0.93718934877E+03  0.25500000920E-02 0.  1.
       -2    1    3    3    0  502 -0.52246856056E+03  0.24883341853E+03 -0.31455169073E+03  0.65866093941E+03  0.25500000920E-02 0. -1.
</event>
<event>
 5   0  0.9838215E-05  0.1199912E+04  0.7818609E-02  0.9112934E-01
       -2   -1    0    0    0  501  0.00000000000E+00  0.00000000000E+00  0.60450934594E+03  0.60450934595E+03  0.25500000920E-02 0. -1.
        2   -1    0    0  501    0  0.00000000000E+00  0.00000000000E+00 -0.59543648470E+03  0.59543648471E+03  0.25500000920E-02 0.  1.
    10030    2    1    2    0    0  0.00000000000E+00  0.00000000000E+00  0.90728612379E+01  0.11999458307E+04  0.11999115299E+04 0.  0.
        4    1    3    3  502    0  0.14961303807E+03 -0.57744927389E+03 -0.59602614714E+02  0.59948795622E+03  0.12699999809E+01 0. -1.
       -4    1    3    3    0  502 -0.14961303807E+03  0.57744927389E+03  0.68675475952E+02  0.60045787443E+03  0.12699999809E+01 0.  1.
</event>
<event>
 5   0  0.5620246E-05  0.1199491E+04  0.7818609E-02  0.9113302E-01
       -1   -1    0    0    0  501  0.00000000000E+00  0.00000000000E+00  0.31683532497E+03  0.31683532501E+03  0.50400001928E-02 0. -1.
        1   -1    0    0  501    0  0.00000000000E+00  0.00000000000E+00 -0.11352728807E+04  0.11352728807E+04  0.50400001928E-02 0.  1.
    10030    2    1    2    0    0  0.00000000000E+00  0.00000000000E+00 -0.81843755574E+03  0.14521082057E+04  0.11994908122E+04 0.  0.
        1    1    3    3  502    0  0.11249119470E+03 -0.44349005631E+02  0.30192567396E+03  0.32523870588E+03  0.50400001928E-02 0. -1.
       -1    1    3    3    0  502 -0.11249119470E+03  0.44349005631E+02 -0.11203632297E+04  0.11268694998E+04  0.50400001928E-02 0.  1.
</event>
<event>
 5   0  0.1012657E-04  0.1200059E+04  0.7818609E-02  0.9112805E-01
       -2   -1    0    0    0  501  0.00000000000E+00  0.00000000000E+00  0.58743627119E+03  0.58743627119E+03  0.25500000920E-02 0.  1.
        2   -1    0    0  501    0  0.00000000000E+00  0.00000000000E+00 -0.61289226705E+03  0.61289226706E+03  0.25500000920E-02 0. -1.
    10030    2    1    2    0    0  0.00000000000E+00  0.00000000000E+00 -0.25455995865E+02  0.12003285383E+04  0.12000585786E+04 0.  0.
        1    1    3    3  502    0 -0.28198874257E+03 -0.48457022184E+03  0.20111719029E+03  0.59562914224E+03  0.50400001928E-02 0. -1.
       -1    1    3    3    0  502  0.28198874257E+03  0.48457022184E+03 -0.22657318616E+03  0.60469939601E+03  0.50400001928E-02 0.  1.
</event>
<event>
 5   0  0.5732931E-05  0.1200138E+04  0.7818609E-02  0.9112736E-01
       -1   -1    0    0    0  501  0.00000000000E+00  0.00000000000E+00  0.57248536933E+03  0.57248536936E+03  0.50400001928E-02 0.  1.
        1   -1    0    0  501    0  0.00000000000E+00  0.00000000000E+00 -0.62898136217E+03  0.62898136219E+03  0.50400001928E-02 0. -1.
    10030    2    1    2    0    0  0.00000000000E+00  0.00000000000E+00 -0.56495992832E+02  0.12014667315E+04  0.12001377045E+04 0.  0.
        4    1    3    3  502    0  0.26253621847E+02 -0.49699343204E+03  0.30736837238E+03  0.58495183852E+03  0.12699999809E+01 0.  1.
       -4    1    3    3    0  502 -0.26253621847E+02  0.49699343204E+03 -0.36386436521E+03  0.61651489302E+03  0.12699999809E+01 0. -1.
</event>
<event>
 5   0  0.3839750E-05  0.1200317E+04  0.7818609E-02  0.9112580E-01
       -3   -1    0    0    0  501  0.00000000000E+00  0.00000000000E+00  0.24921553154E+03  0.24921555200E+03  0.10100000352E+00 0. -1.
        3   -1    0    0  501    0  0.00000000000E+00  0.00000000000E+00 -0.14452947897E+04  0.14452947933E+04  0.10100000352E+00 0.  1.
    10030    2    1    2    0    0  0.00000000000E+00  0.00000000000E+00 -0.11960792582E+04  0.16945103453E+04  0.12003165076E+04 0.  0.
        1    1    3    3  502    0  0.18767847765E+03 -0.33599857744E+03  0.52074760188E+02  0.38836842777E+03  0.50400001928E-02 0. -1.
       -1    1    3    3    0  502 -0.18767847765E+03  0.33599857744E+03 -0.12481540184E+04  0.13061419175E+04  0.50400001928E-02 0.  1.
</event>
<event>
 5   0  0.1023063E-04  0.1198889E+04  0.7818609E-02  0.9113830E-01
        2   -1    0    0  501    0  0.00000000000E+00  0.00000000000E+00  0.94564213969E+03  0.94564213969E+03  0.25500000920E-02 0.  1.
       -2   -1    0    0    0  501  0.00000000000E+00  0.00000000000E+00 -0.37998884271E+03  0.37998884271E+03  0.25500000920E-02 0. -1.
    10030    2    1    2    0    0  0.00000000000E+00  0.00000000000E+00  0.56565329698E+03  0.13256309824E+04  0.11988885891E+04 0.  0.
        3    1    3    3  502    0  0.37376587142E+03  0.17889174931E+03 -0.19612896531E+03  0.45844276180E+03  0.10100000352E+00 0. -1.
       -3    1    3    3    0  502 -0.37376587142E+03 -0.17889174931E+03  0.76178226229E+03  0.86718822060E+03  0.10100000352E+00 0.  1.
</event>
<event>
 5   0  0.5745487E-05  0.1200661E+04  0.7818609E-02  0.9112278E-01
       -1   -1    0    0    0  501  0.00000000000E+00  0.00000000000E+00  0.79847237698E+03  0.79847237700E+03  0.50400001928E-02 0. -1.
        1   -1    0    0  501    0  0.00000000000E+00  0.00000000000E+00 -0.45135796084E+03  0.45135796087E+03  0.50400001928E-02 0.  1.
    10030    2    1    2    0    0  0.00000000000E+00  0.00000000000E+00  0.34711441615E+03  0.12498303379E+04  0.12006612576E+04 0.  0.
        3    1    3    3  502    0 -0.51588628297E+03  0.27767899072E+03  0.37226017754E+02  0.58705201255E+03  0.10100000352E+00 0.  1.
       -3    1    3    3    0  502  0.51588628297E+03 -0.27767899072E+03  0.30988839839E+03  0.66277832531E+03  0.10100000352E+00 0. -1.
</event>
<event>
 5   0  0.1012657E-04  0.1198451E+04  0.7818609E-02  0.9114214E-01
        2   -1    0    0  501    0  0.00000000000E+00  0.00000000000E+00  0.57286492589E+03  0.57286492589E+03  0.25500000920E-02 0.  1.
       -2   -1    0    0    0  501  0.00000000000E+00  0.00000000000E+00 -0.62679871705E+03  0.62679871706E+03  0.25500000920E-02 0. -1.
    10030    2    1    2    0    0  0.00000000000E+00  0.00000000000E+00 -0.53933791166E+02  0.11996636429E+04  0.11984506675E+04 0.  0.
        1    1    3    3  502    0  0.55214369623E+03 -0.16197041200E+03  0.14045645851E+03  0.59230489818E+03  0.50400001928E-02 0.  1.
       -1    1    3    3    0  502 -0.55214369623E+03  0.16197041200E+03 -0.19439024968E+03  0.60735874477E+03  0.50400001928E-02 0. -1.
</event>
<event>
 5   0  0.5732931E-05  0.1199847E+04  0.7818609E-02  0.9112990E-01
        1   -1    0    0  501    0  0.00000000000E+00  0.00000000000E+00  0.13509825841E+04  0.13509825841E+04  0.50400001928E-02 0. -1.
       -1   -1    0    0    0  501  0.00000000000E+00  0.00000000000E+00 -0.26640498958E+03  0.26640498963E+03  0.50400001928E-02 0.  1.
    10030    2    1    2    0    0  0.00000000000E+00  0.00000000000E+00  0.10845775945E+04  0.16173875737E+04  0.11998474924E+04 0.  0.
        4    1    3    3  502    0 -0.24532963660E+03  0.14171649419E+03  0.12551174246E+04  0.12866979279E+04  0.12699999809E+01 0. -1.
       -4    1    3    3    0  502  0.24532963660E+03 -0.14171649419E+03 -0.17053983005E+03  0.33068964582E+03  0.12699999809E+01 0.  1.
</event>
<event>
 5   0  0.1023063E-04  0.1200957E+04  0.7818609E-02  0.9112019E-01
        2   -1    0    0  501    0  0.00000000000E+00  0.00000000000E+00  0.52811753241E+03  0.52811753241E+03  0.25500000920E-02 0. -1.
       -2   -1    0    0    0  501  0.00000000000E+00  0.00000000000E+00 -0.68275418211E+03  0.68275418211E+03  0.25500000920E-02 0.  1.
    10030    2    1    2    0    0  0.00000000000E+00  0.00000000000E+00 -0.15463664970E+03  0.12108717145E+04  0.12009570415E+04 0.  0.
        3    1    3    3  502    0  0.58119648109E+03  0.63261632930E+02 -0.21550107531E+03  0.62308274530E+03  0.10100000352E+00 0. -1.
       -3    1    3    3    0  502 -0.58119648109E+03 -0.63261632930E+02  0.60864425609E+02  0.58778896922E+03  0.10100000352E+00 0.  1.
</event>
<event>
 5   0  0.5732931E-05  0.1199995E+04  0.7818609E-02  0.9112861E-01
       -1   -1    0    0    0  501  0.00000000000E+00  0.00000000000E+00  0.51760317384E+03  0.51760317387E+03  0.50400001928E-02 0. -1.
        1   -1    0    0  501    0  0.00000000000E+00  0.00000000000E+00 -0.69550736536E+03  0.69550736538E+03  0.50400001928E-02 0.  1.
    10030    2    1    2    0    0  0.00000000000E+00  0.00000000000E+00 -0.17790419152E+03  0.12131105393E+04  0.11999946996E+04 0.  0.
        4    1    3    3  502    0  0.40598257545E+03  0.20086525264E+03 -0.48673279238E+03  0.66489031078E+03  0.12699999809E+01 0.  1.
       -4    1    3    3    0  502 -0.40598257545E+03 -0.20086525264E+03  0.30882860086E+03  0.54822022847E+03  0.12699999809E+01 0. -1.
</event>
<event>
 5   0  0.5625746E-05  0.1200183E+04  0.7818609E-02  0.9112696E-01
       -1   -1    0    0    0  501  0.00000000000E+00  0.00000000000E+00  0.93567689697E+03  0.93567689698E+03  0.50400001928E-02 0. -1.
        1   -1    0    0  501    0  0.00000000000E+00  0.00000000000E+00 -0.38486570218E+03  0.38486570222E+03  0.50400001928E-02 0.  1.
    10030    2    1    2    0    0  0.00000000000E+00  0.00000000000E+00  0.55081119478E+03  0.13205425992E+04  0.12001832293E+04 0.  0.
        5    1    3    3  502    0 -0.17414213755E+03  0.57413758323E+03  0.28787368876E+03  0.66547186209E+03  0.46999998093E+01 0. -1.
       -5    1    3    3    0  502  0.17414213755E+03 -0.57413758323E+03  0.26293750602E+03  0.65507073711E+03  0.46999998093E+01 0.  1.
</event>
<event>
 5   0  0.5732931E-05  0.1200368E+04  0.7818609E-02  0.9112535E-01
       -1   -1    0    0    0  501  0.00000000000E+00  0.00000000000E+00  0.47072053536E+03  0.47072053539E+03  0.50400001928E-02 0.  1.
        1   -1    0    0  501    0  0.00000000000E+00  0.00000000000E+00 -0.76525366257E+03  0.76525366259E+03  0.50400001928E-02 0. -1.
    10030    2    1    2    0    0  0.00000000000E+00  0.00000000000E+00 -0.29453312721E+03  0.12359741980E+04  0.12003676333E+04 0.  0.
        4    1    3    3  502    0  0.14090528413E+03 -0.57865681280E+03 -0.22377402568E+03  0.63621885666E+03  0.12699999809E+01 0.  1.
       -4    1    3    3    0  502 -0.14090528413E+03  0.57865681280E+03 -0.70759101528E+02  0.59975534132E+03  0.12699999809E+01 0. -1.
</event>
<event>
 5   0  0.5745487E-05  0.1200953E+04  0.7818609E-02  0.9112023E-01
       -1   -1    0    0    0  501  0.00000000000E+00  0.00000000000E+00  0.88472797839E+03  0.88472797841E+03  0.50400001928E-02 0.  1.
        1   -1    0    0  501    0  0.00000000000E+00  0.00000000000E+00 -0.40755133837E+03  0.40755133840E+03  0.50400001928E-02 0. -1.
    10030    2    1    2    0    0  0.00000000000E+00  0.00000000000E+00  0.47717664002E+03  0.12922793168E+04  0.12009530744E+04 0.  0.
        3    1    3    3  502    0  0.49354960844E+03  0.18891460293E+03  0.54538776913E+03  0.75942594906E+03  0.10100000352E+00 0. -1.
       -3    1    3    3    0  502 -0.49354960844E+03 -0.18891460293E+03 -0.68211129101E+02  0.53285336775E+03  0.10100000352E+00 0.  1.
</event>
<event>
 5   0  0.9941209E-05  0.1198613E+04  0.7818609E-02  0.9114071E-01
        2   -1    0    0  501    0  0.00000000000E+00  0.00000000000E+00  0.11537938072E+04  0.11537938072E+04  0.25500000920E-02 0. -1.
       -2   -1    0    0    0  501  0.00000000000E+00  0.00000000000E+00 -0.31129347095E+03  0.31129347096E+03  0.25500000920E-02 0.  1.
    10030    2    1    2    0    0  0.00000000000E+00  0.00000000000E+00  0.84250033623E+03  0.14650872781E+04  0.11986133305E+04 0.  0.
        2    1    3    3  502    0 -0.27370696488E+03  0.68151181119E+02  0.10675878785E+04  0.11042209763E+04  0.25500000920E-02 0. -1.
       -2    1    3    3    0  502  0.27370696488E+03 -0.68151181119E+02 -0.22508754228E+03  0.36086630185E+03  0.25500000920E-02 0.  1.
</event>
<event>
 5   0  0.9838215E-05  0.1196716E+04  0.7818609E-02  0.9115736E-01
       -2   -1    0    0    0  501  0.00000000000E+00  0.00000000000E+00  0.90485332604E+03  0.90485332604E+03  0.25500000920E-02 0.  1.
        2   -1    0    0  501    0  0.00000000000E+00  0.00000000000E+00 -0.39568014172E+03  0.39568014172E+03  0.25500000920E-02 0. -1.
    10030    2    1    2    0    0  0.00000000000E+00  0.00000000000E+00  0.50917318432E+03  0.13005334678E+04  0.11967163278E+04 0.  0.
        4    1    3    3  502    0 -0.12646128746E+03 -0.54482282386E+03  0.23523372993E+02  0.55980293730E+03  0.12699999809E+01 0. -1.
       -4    1    3    3    0  502  0.12646128746E+03  0.54482282386E+03  0.48564981133E+03  0.74073053047E+03  0.12699999809E+01 0.  1.
</event>
<event>
 5   0  0.1004006E-04  0.1206610E+04  0.7818609E-02  0.9107090E-01
        2   -1    0    0  501    0  0.00000000000E+00  0.00000000000E+00  0.12666266651E+04  0.12666266651E+04  0.25500000920E-02 0. -1.
       -2   -1    0    0    0  501  0.00000000000E+00  0.00000000000E+00 -0.28735947904E+03  0.28735947905E+03  0.25500000920E-02 0.  1.
    10030    2    1    2    0    0  0.00000000000E+00  0.00000000000E+00  0.97926718609E+03  0.15539861442E+04  0.12066104237E+04 0.  0.
        5    1    3    3  502    0 -0.28888332513E+03  0.41582778196E+03  0.91207213824E+03  0.10431989241E+04  0.46999998093E+01 0. -1.
       -5    1    3    3    0  502  0.28888332513E+03 -0.41582778196E+03  0.67195047846E+02  0.51078722013E+03  0.46999998093E+01 0.  1.
</event>
<event>
 5   0  0.1004006E-04  0.1200927E+04  0.7818609E-02  0.9112045E-01
        2   -1    0    0  501    0  0.00000000000E+00  0.00000000000E+00  0.21039052962E+04  0.21039052962E+04  0.25500000920E-02 0.  1.
       -2   -1    0    0    0  501  0.00000000000E+00  0.00000000000E+00 -0.17137496963E+03  0.17137496965E+03  0.25500000920E-02 0. -1.
    10030    2    1    2    0    0  0.00000000000E+00  0.00000000000E+00  0.19325303266E+04  0.22752802659E+04  0.12009274853E+04 0.  0.
        5    1    3    3  502    0  0.92670948855E+02  0.47081448712E+03  0.28242011341E+03  0.55681001832E+03  0.46999998093E+01 0. -1.
       -5    1    3    3    0  502 -0.92670948855E+02 -0.47081448712E+03  0.16501102132E+04  0.17184702475E+04  0.46999998093E+01 0.  1.
</event>
<event>
 5   0  0.5447807E-05  0.1199937E+04  0.7818609E-02  0.9112912E-01
       -1   -1    0    0    0  501  0.00000000000E+00  0.00000000000E+00  0.58684829094E+03  0.58684829097E+03  0.50400001928E-02 0. -1.
        1   -1    0    0  501    0  0.00000000000E+00  0.00000000000E+00 -0.61338202184E+03  0.61338202186E+03  0.50400001928E-02 0.  1.
    10030    2    1    2    0    0  0.00000000000E+00  0.00000000000E+00 -0.26533730892E+02  0.12002303128E+04  0.11999369837E+04 0.  0.
        2    1    3    3  502    0 -0.44094191487E+03  0.30381426986E+01  0.39367800066E+03  0.59111874510E+03  0.25500000920E-02 0. -1.
       -2    1    3    3    0  502  0.44094191487E+03 -0.30381426986E+01 -0.42021173155E+03  0.60911156773E+03  0.25500000920E-02 0.  1.
</event>
<event>
 5   0  0.5620246E-05  0.1198508E+04  0.7818609E-02  0.9114163E-01
       -1   -1    0    0    0  501  0.00000000000E+00  0.00000000000E+00  0.16899629716E+03  0.16899629723E+03  0.50400001928E-02 0. -1.
        1   -1    0    0  501    0  0.00000000000E+00  0.00000000000E+00 -0.21249320089E+04  0.21249320089E+04  0.50400001928E-02 0.  1.
    10030    2    1    2    0    0  0.00000000000E+00  0.00000000000E+00 -0.19559357117E+04  0.22939283061E+04  0.11985084752E+04 0.  0.
        1    1    3    3  502    0  0.31691254759E+03 -0.50029853839E+03 -0.11531101246E+04  0.12963005631E+04  0.50400001928E-02 0. -1.
       -1    1    3    3    0  502 -0.31691254759E+03  0.50029853839E+03 -0.80282558705E+03  0.99762774299E+03  0.50400001928E-02 0.  1.
</event>
<event>
 5   0  0.1023063E-04  0.1200006E+04  0.7818609E-02  0.9112851E-01
       -2   -1    0    0    0  501  0.00000000000E+00  0.00000000000E+00  0.90593997998E+03  0.90593997998E+03  0.25500000920E-02 0.  1.
        2   -1    0    0  501    0  0.00000000000E+00  0.00000000000E+00 -0.39738121529E+03  0.39738121530E+03  0.25500000920E-02 0. -1.
    10030    2    1    2    0    0  0.00000000000E+00  0.00000000000E+00  0.50855876469E+03  0.13033211953E+04  0.12000058837E+04 0.  0.
        3    1    3    3  502    0  0.55898059601E+03 -0.21804635546E+03  0.25426444196E+03  0.65165476787E+03  0.10100000352E+00 0. -1.
       -3    1    3    3    0  502 -0.55898059601E+03  0.21804635546E+03  0.25429432274E+03  0.65166642741E+03  0.10100000352E+00 0.  1.
</event>
<event>
 5   0  0.1012657E-04  0.1204653E+04  0.7818609E-02  0.9108793E-01
        2   -1    0    0  501    0  0.00000000000E+00  0.00000000000E+00  0.12213170018E+04  0.12213170018E+04  0.25500000920E-02 0.  1.
       -2   -1    0    0    0  501  0.00000000000E+00  0.00000000000E+00 -0.29705420688E+03  0.29705420689E+03  0.25500000920E-02 0. -1.
    10030    2    1    2    0    0  0.00000000000E+00  0.00000000000E+00  0.92426279495E+03  0.15183712087E+04  0.12046532337E+04 0.  0.
        1    1    3    3  502    0 -0.20700523288E+03  0.54082342835E+03  0.25328058293E+03  0.63205395404E+03  0.50400001928E-02 0. -1.
       -1    1    3    3    0  502  0.20700523288E+03 -0.54082342835E+03  0.67098221202E+03  0.88631725469E+03  0.50400001928E-02 0.  1.
</event>
<event>
 5   0  0.3839750E-05  0.1199852E+04  0.7818609E-02  0.9112986E-01
        3   -1    0    0  501    0  0.00000000000E+00  0.00000000000E+00  0.10067495248E+04  0.10067495298E+04  0.10100000352E+00 0. -1.
       -3   -1    0    0    0  501  0.00000000000E+00  0.00000000000E+00 -0.35749848137E+03  0.35749849564E+03  0.10100000352E+00 0.  1.
    10030    2    1    2    0    0  0.00000000000E+00  0.00000000000E+00  0.64925104342E+03  0.13642480255E+04  0.11998523899E+04 0.  0.
        4    1    3    3  502    0  0.11721229293E+03  0.44882196671E+03 -0.10793284296E+03  0.47626777227E+03  0.12699999809E+01 0.  1.
       -4    1    3    3    0  502 -0.11721229293E+03 -0.44882196671E+03  0.75718388638E+03  0.88798025321E+03  0.12699999809E+01 0. -1.
</event>
<event>
 5   0  0.1004006E-04  0.1199997E+04  0.7818609E-02  0.9112859E-01
        2   -1    0    0  501    0  0.00000000000E+00  0.00000000000E+00  0.97496400244E+03  0.97496400245E+03  0.25500000920E-02 0.  1.
       -2   -1    0    0    0  501  0.00000000000E+00  0.00000000000E+00 -0.36924283997E+03  0.36924283998E+03  0.25500000920E-02 0. -1.
    10030    2    1    2    0    0  0.00000000000E+00  0.00000000000E+00  0.60572116247E+03  0.13442068424E+04  0.11999974619E+04 0.  0.
        5    1    3    3  502    0  0.17207093169E+02  0.70296206337E+02  0.97003607820E+03  0.97274340075E+03  0.46999998093E+01 0.  1.
       -5    1    3    3    0  502 -0.17207093169E+02 -0.70296206337E+02 -0.36431491573E+03  0.37146344168E+03  0.46999998093E+01 0. -1.
</event>
<event>
 5   0  0.5745487E-05  0.1199713E+04  0.7818609E-02  0.9113108E-01
       -1   -1    0    0    0  501  0.00000000000E+00  0.00000000000E+00  0.15134672721E+03  0.15134672729E+03  0.50400001928E-02 0. -1.
        1   -1    0    0  501    0  0.00000000000E+00  0.00000000000E+00 -0.23775066296E+04  0.23775066296E+04  0.50400001928E-02 0.  1.
    10030    2    1    2    0    0  0.00000000000E+00  0.00000000000E+00 -0.22261599023E+04  0.25288533569E+04  0.11997130447E+04 0.  0.
        3    1    3    3  502    0  0.44856421749E+02  0.31909325347E+03 -0.46576646973E+02  0.32557947913E+03  0.10100000352E+00 0. -1.
       -3    1    3    3    0  502 -0.44856421749E+02 -0.31909325347E+03 -0.21795832554E+04  0.22032738777E+04  0.10100000352E+00 0.  1.
</event>
<event>
 5   0  0.3839750E-05  0.1200074E+04  0.7818609E-02  0.9112792E-01
        3   -1    0    0  501    0  0.00000000000E+00  0.00000000000E+00  0.19806716628E+03  0.19806719203E+03  0.10100000352E+00 0.  1.
       -3   -1    0    0    0  501  0.00000000000E+00  0.00000000000E+00 -0.18177885908E+04  0.18177885936E+04  0.10100000352E+00 0. -1.
    10030    2    1    2    0    0  0.00000000000E+00  0.00000000000E+00 -0.16197214245E+04  0.20158557856E+04  0.12000737708E+04 0.  0.
        3    1    3    3  502    0 -0.57522237773E+03 -0.16919816570E+03 -0.84873041265E+03  0.10391593365E+04  0.10100000352E+00 0.  1.
       -3    1    3    3    0  502  0.57522237773E+03  0.16919816570E+03 -0.77099101185E+03  0.97669644909E+03  0.10100000352E+00 0. -1.
</event>
<event>
 5   0  0.9941209E-05  0.1200290E+04  0.7818609E-02  0.9112602E-01
       -2   -1    0    0    0  501  0.00000000000E+00  0.00000000000E+00  0.22369173671E+03  0.22369173673E+03  0.25500000920E-02 0.  1.
        2   -1    0    0  501    0  0.00000000000E+00  0.00000000000E+00 -0.16101363083E+04  0.16101363083E+04  0.25500000920E-02 0. -1.
    10030    2    1    2    0    0  0.00000000000E+00  0.00000000000E+00 -0.13864445716E+04  0.18338280450E+04  0.12002902768E+04 0.  0.
        2    1    3    3  502    0 -0.50988604169E+03 -0.25287074945E+03 -0.40234679292E+03  0.69700095640E+03  0.25500000920E-02 0. -1.
       -2    1    3    3    0  502  0.50988604169E+03  0.25287074945E+03 -0.98409777864E+03  0.11368270886E+04  0.25500000920E-02 0.  1.
</event>
<event>
 5   0  0.5620246E-05  0.1199281E+04  0.7818609E-02  0.9113487E-01
       -1   -1    0    0    0  501  0.00000000000E+00  0.00000000000E+00  0.61227334621E+03  0.61227334623E+03  0.50400001928E-02 0.  1.
        1   -1    0    0  501    0  0.00000000000E+00  0.00000000000E+00 -0.58726785843E+03  0.58726785845E+03  0.50400001928E-02 0. -1.
    10030    2    1    2    0    0  0.00000000000E+00  0.00000000000E+00  0.25005487785E+02  0.11995412047E+04  0.11992805457E+04 0.  0.
        1    1    3    3  502    0 -0.33827826264E+03  0.32058893939E+03  0.38988967378E+03  0.60763756367E+03  0.50400001928E-02 0.  1.
       -1    1    3    3    0  502  0.33827826264E+03 -0.32058893939E+03 -0.36488418599E+03  0.59190364102E+03  0.50400001928E-02 0. -1.
</event>
<event>
 5   0  0.1023063E-04  0.1201127E+04  0.7818609E-02  0.9111870E-01
        2   -1    0    0  501    0  0.00000000000E+00  0.00000000000E+00  0.58546706996E+03  0.58546706997E+03  0.25500000920E-02 0. -1.
       -2   -1    0    0    0  501  0.00000000000E+00  0.00000000000E+00 -0.61604965858E+03  0.61604965859E+03  0.25500000920E-02 0.  1.
    10030    2    1    2    0    0  0.00000000000E+00  0.00000000000E+00 -0.30582588617E+02  0.12015167286E+04  0.12011274513E+04 0.  0.
        3    1    3    3  502    0  0.59914647744E+03  0.33142037506E+02 -0.39832534831E+02  0.60138302030E+03  0.10100000352E+00 0.  1.
       -3    1    3    3    0  502 -0.59914647744E+03 -0.33142037506E+02  0.92499462147E+01  0.60013370825E+03  0.10100000352E+00 0. -1.
</event>
<event>
 5   0  0.9941209E-05  0.1199279E+04  0.7818609E-02  0.9113488E-01
        2   -1    0    0  501    0  0.00000000000E+00  0.00000000000E+00  0.60199782851E+03  0.60199782851E+03  0.25500000920E-02 0. -1.
       -2   -1    0    0    0  501  0.00000000000E+00  0.00000000000E+00 -0.59729000000E+03  0.59729000000E+03  0.25500000920E-02 0.  1.
    10030    2    1    2    0    0  0.00000000000E+00  0.00000000000E+00  0.47078285070E+01  0.11992878285E+04  0.11992785881E+04 0.  0.
        2    1    3    3  502    0  0.55139260347E+03  0.17497347430E+03  0.16020874344E+03  0.60026357657E+03  0.25500000920E-02 0. -1.
       -2    1    3    3    0  502 -0.55139260347E+03 -0.17497347430E+03 -0.15550091493E+03  0.59902425195E+03  0.25500000920E-02 0.  1.
</event>
<event>
 5   0  0.5620246E-05  0.1199919E+04  0.7818609E-02  0.9112927E-01
        1   -1    0    0  501    0  0.00000000000E+00  0.00000000000E+00  0.28184147927E+03  0.28184147932E+03  0.50400001928E-02 0.  1.
       -1   -1    0    0    0  501  0.00000000000E+00  0.00000000000E+00 -0.12771416807E+04  0.12771416807E+04  0.50400001928E-02 0. -1.
    10030    2    1    2    0    0  0.00000000000E+00  0.00000000000E+00 -0.99530020138E+03  0.15589831600E+04  0.11999191649E+04 0.  0.
        1    1    3    3  502    0  0.39597242485E+03  0.14011109483E+02  0.87673130265E+02  0.40580420183E+03  0.50400001928E-02 0.  1.
       -1    1    3    3    0  502 -0.39597242485E+03 -0.14011109483E+02 -0.10829733316E+04  0.11531789581E+04  0.50400001928E-02 0. -1.
</event>
<event>
 5   0  0.1004006E-04  0.1199606E+04  0.7818609E-02  0.9113202E-01
        2   -1    0    0  501    0  0.00000000000E+00  0.00000000000E+00  0.12795491843E+04  0.12795491843E+04  0.25500000920E-02 0. -1.
       -2   -1    0    0    0  501  0.00000000000E+00  0.00000000000E+00 -0.28116430981E+03  0.28116430982E+03  0.25500000920E-02 0.  1.
    10030    2    1    2    0    0  0.00000000000E+00  0.00000000000E+00  0.99838487452E+03  0.15607134942E+04  0.11996058741E+04 0.  0.
        5    1    3    3  502    0  0.25767599263E+03 -0.37918480774E+03  0.10023422566E+04  0.11022205428E+04  0.46999998093E+01 0.  1.
       -5    1    3    3    0  502 -0.25767599263E+03  0.37918480774E+03 -0.39573820540E+01  0.45849295138E+03  0.46999998093E+01 0. -1.
</event>
<event>
 5   0  0.9941209E-05  0.1199668E+04  0.7818609E-02  0.9113147E-01
        2   -1    0    0  501    0  0.00000000000E+00  0.00000000000E+00  0.70090511346E+03  0.70090511347E+03  0.25500000920E-02 0. -1.
       -2   -1    0    0    0  501  0.00000000000E+00  0.00000000000E+00 -0.51333737185E+03  0.51333737185E+03  0.25500000920E-02 0.  1.
    10030    2    1    2    0    0  0.00000000000E+00  0.00000000000E+00  0.18756774162E+03  0.12142424853E+04  0.11996679355E+04 0.  0.
        2    1    3    3  502    0  0.59838776429E+03 -0.39201877826E+02  0.10795703321E+03  0.60931061430E+03  0.25500000920E-02 0. -1.
       -2    1    3    3    0  502 -0.59838776429E+03  0.39201877826E+02  0.79610708403E+02  0.60493187102E+03  0.25500000920E-02 0.  1.
</event>
<event>
 5   0  0.1004006E-04  0.1200256E+04  0.7818609E-02  0.9112633E-01
       -2   -1    0    0    0  501  0.00000000000E+00  0.00000000000E+00  0.24056983378E+03  0.24056983379E+03  0.25500000920E-02 0.  1.
        2   -1    0    0  501    0  0.00000000000E+00  0.00000000000E+00 -0.14970844692E+04  0.14970844692E+04  0.25500000920E-02 0. -1.
    10030    2    1    2    0    0  0.00000000000E+00  0.00000000000E+00 -0.12565146354E+04  0.17376543030E+04  0.12002555760E+04 0.  0.
        5    1    3    3  502    0 -0.57072745145E+03 -0.14305897225E+01 -0.35974445722E+03  0.67466290466E+03  0.46999998093E+01 0.  1.
       -5    1    3    3    0  502  0.57072745145E+03  0.14305897225E+01 -0.89677017818E+03  0.10629913983E+04  0.46999998093E+01 0. -1.
</event>
<event>
 5   0  0.5620246E-05  0.1199955E+04  0.7818609E-02  0.9112896E-01
        1   -1    0    0  501    0  0.00000000000E+00  0.00000000000E+00  0.41345862084E+03  0.41345862087E+03  0.50400001928E-02 0.  1.
       -1   -1    0    0    0  501  0.00000000000E+00  0.00000000000E+00 -0.87063841190E+03  0.87063841191E+03  0.50400001928E-02 0. -1.
    10030    2    1    2    0    0  0.00000000000E+00  0.00000000000E+00 -0.45717979106E+03  0.12840970328E+04  0.11999549276E+04 0.  0.
        1    1    3    3  502    0  0.30608051913E+03  0.40340602711E+03 -0.57294821689E+03  0.76465114017E+03  0.50400001928E-02 0. -1.
       -1    1    3    3    0  502 -0.30608051913E+03 -0.40340602711E+03  0.11576842583E+03  0.51944589261E+03  0.50400001928E-02 0.  1.
</event>
<event>
 5   0  0.9838215E-05  0.1199925E+04  0.7818609E-02  0.9112922E-01
        2   -1    0    0  501    0  0.00000000000E+00  0.00000000000E+00  0.90925771802E+03  0.90925771802E+03  0.25500000920E-02 0.  1.
       -2   -1    0    0    0  501  0.00000000000E+00  0.00000000000E+00 -0.39587798814E+03  0.39587798815E+03  0.25500000920E-02 0. -1.
    10030    2    1    2    0    0  0.00000000000E+00  0.00000000000E+00  0.51337972988E+03  0.13051357062E+04  0.11999251912E+04 0.  0.
        4    1    3    3  502    0  0.34426635959E+01 -0.29695948185E+03  0.82370107394E+03  0.87560371053E+03  0.12699999809E+01 0.  1.
       -4    1    3    3    0  502 -0.34426635959E+01  0.29695948185E+03 -0.31032134406E+03  0.42953199563E+03  0.12699999809E+01 0. -1.
</event>
<event>
 5   0  0.1023063E-04  0.1200876E+04  0.7818609E-02  0.9112090E-01
        2   -1    0    0  501    0  0.00000000000E+00  0.00000000000E+00  0.68356392760E+03  0.68356392761E+03  0.25500000920E-02 0. -1.
       -2   -1    0    0    0  501  0.00000000000E+00  0.00000000000E+00 -0.52742108989E+03  0.52742108989E+03  0.25500000920E-02 0.  1.
    10030    2    1    2    0    0  0.00000000000E+00  0.00000000000E+00  0.15614283772E+03  0.12109850175E+04  0.12008763995E+04 0.  0.
        3    1    3    3  502    0  0.51918695368E+03 -0.12279524717E+03 -0.19973302682E+03  0.56967276379E+03  0.10100000352E+00 0.  1.
       -3    1    3    3    0  502 -0.51918695368E+03  0.12279524717E+03  0.35587586453E+03  0.64131225371E+03  0.10100000352E+00 0. -1.
</event>
<event>
 5   0  0.1004006E-04  0.1199830E+04  0.7818609E-02  0.9113006E-01
        2   -1    0    0  501    0  0.00000000000E+00  0.00000000000E+00  0.19499514487E+04  0.19499514487E+04  0.25500000920E-02 0. -1.
       -2   -1    0    0    0  501  0.00000000000E+00  0.00000000000E+00 -0.18456755019E+03  0.18456755020E+03  0.25500000920E-02 0.  1.
    10030    2    1    2    0    0  0.00000000000E+00  0.00000000000E+00  0.17653838985E+04  0.21345189989E+04  0.11998295911E+04 0.  0.
        5    1    3    3  502    0  0.23748908291E+02  0.51564795624E+03  0.33894390701E+03  0.61754504898E+03  0.46999998093E+01 0. -1.
       -5    1    3    3    0  502 -0.23748908291E+02 -0.51564795624E+03  0.14264399915E+04  0.15169739500E+04  0.46999998093E+01 0.  1.
</event>
<event>
 5   0  0.1023063E-04  0.1200105E+04  0.7818609E-02  0.9112765E-01
       -2   -1    0    0    0  501  0.00000000000E+00  0.00000000000E+00  0.22926013030E+03  0.22926013031E+03  0.25500000920E-02 0. -1.
        2   -1    0    0  501    0  0.00000000000E+00  0.00000000000E+00 -0.15705426053E+04  0.15705426053E+04  0.25500000920E-02 0.  1.
    10030    2    1    2    0    0  0.00000000000E+00  0.00000000000E+00 -0.13412824750E+04  0.17998027356E+04  0.12001046660E+04 0.  0.
        3    1    3    3  502    0  0.14635812188E+01 -0.36222608909E+02  0.22761630841E+03  0.23048516985E+03  0.10100000352E+00 0. -1.
       -3    1    3    3    0  502 -0.14635812188E+01  0.36222608909E+02 -0.15688987834E+04  0.15693175658E+04  0.10100000352E+00 0.  1.
</event>
<event>
 5   0  0.5745487E-05  0.1200370E+04  0.7818609E-02  0.9112533E-01
       -1   -1    0    0    0  501  0.00000000000E+00  0.00000000000E+00  0.92480711170E+03  0.92480711171E+03  0.50400001928E-02 0. -1.
        1   -1    0    0  501    0  0.00000000000E+00  0.00000000000E+00 -0.38951041400E+03  0.38951041403E+03  0.50400001928E-02 0.  1.
    10030    2    1    2    0    0  0.00000000000E+00  0.00000000000E+00  0.53529669770E+03  0.13143175257E+04  0.12003699446E+04 0.  0.
        3    1    3    3  502    0 -0.38004424389E+03 -0.34688153340E+03 -0.70649675660E+02  0.51937636873E+03  0.10100000352E+00 0.  1.
       -3    1    3    3    0  502  0.38004424389E+03  0.34688153340E+03  0.60594637336E+03  0.79494115701E+03  0.10100000352E+00 0. -1.
</event>
<event>
 5   0  0.5745487E-05  0.1200435E+04  0.7818609E-02  0.9112476E-01
        1   -1    0    0  501    0  0.00000000000E+00  0.00000000000E+00  0.82482477938E+03  0.82482477939E+03  0.50400001928E-02 0.  1.
       -1   -1    0    0    0  501  0.00000000000E+00  0.00000000000E+00 -0.43677293004E+03  0.43677293006E+03  0.50400001928E-02 0. -1.
    10030    2    1    2    0    0  0.00000000000E+00  0.00000000000E+00  0.38805184934E+03  0.12615977095E+04  0.12004351472E+04 0.  0.
        3    1    3    3  502    0 -0.31856274307E+03 -0.35092116371E+03  0.58107430920E+03  0.74985014998E+03  0.10100000352E+00 0.  1.
       -3    1    3    3    0  502  0.31856274307E+03  0.35092116371E+03 -0.19302245986E+03  0.51174755947E+03  0.10100000352E+00 0. -1.
</event>
<event>
 5   0  0.9838215E-05  0.1199311E+04  0.7818609E-02  0.9113460E-01
       -2   -1    0    0    0  501  0.00000000000E+00  0.00000000000E+00  0.89346036482E+03  0.89346036483E+03  0.25500000920E-02 0. -1.
        2   -1    0    0  501    0  0.00000000000E+00  0.00000000000E+00 -0.40246527994E+03  0.40246527995E+03  0.25500000920E-02 0.  1.
    10030    2    1    2    0    0  0.00000000000E+00  0.00000000000E+00  0.49099508489E+03  0.12959256448E+04  0.11993110953E+04 0.  0.
        4    1    3    3  502    0 -0.25670841006E+03  0.54028449935E+03  0.29106860952E+03  0.66522860460E+03  0.12699999809E+01 0.  1.
       -4    1    3    3    0  502  0.25670841006E+03 -0.54028449935E+03  0.19992647536E+03  0.63069704017E+03  0.12699999809E+01 0. -1.
</event>
<event>
 5   0  0.5625746E-05  0.1199580E+04  0.7818609E-02  0.9113224E-01
       -1   -1    0    0    0  501  0.00000000000E+00  0.00000000000E+00  0.25395749827E+03  0.25395749832E+03  0.50400001928E-02 0. -1.
        1   -1    0    0  501    0  0.00000000000E+00  0.00000000000E+00 -0.14165686686E+04  0.14165686686E+04  0.50400001928E-02 0.  1.
    10030    2    1    2    0    0  0.00000000000E+00  0.00000000000E+00 -0.11626111703E+04  0.16705261669E+04  0.11995803187E+04 0.  0.
        5    1    3    3  502    0  0.52354014472E+03  0.29088524144E+03 -0.53688127427E+03  0.80434575866E+03  0.46999998093E+01 0.  1.
       -5    1    3    3    0  502 -0.52354014472E+03 -0.29088524144E+03 -0.62572989606E+03  0.86618040825E+03  0.46999998093E+01 0. -1.
</event>
<event>
 5   0  0.3839750E-05  0.1199536E+04  0.7818609E-02  0.9113263E-01
        3   -1    0    0  501    0  0.00000000000E+00  0.00000000000E+00  0.82847383759E+03  0.82847384374E+03  0.10100000352E+00 0. -1.
       -3   -1    0    0    0  501  0.00000000000E+00  0.00000000000E+00 -0.43419811111E+03  0.43419812285E+03  0.10100000352E+00 0.  1.
    10030    2    1    2    0    0  0.00000000000E+00  0.00000000000E+00  0.39427572648E+03  0.12626719666E+04  0.11995362215E+04 0.  0.
        4    1    3    3  502    0  0.35267260501E+03 -0.26772262934E+03 -0.22871293842E+03  0.49836191035E+03  0.12699999809E+01 0.  1.
       -4    1    3    3    0  502 -0.35267260501E+03  0.26772262934E+03  0.62298866490E+03  0.76431005625E+03  0.12699999809E+01 0. -1.
</event>
<event>
 5   0  0.5745487E-05  0.1198112E+04  0.7818609E-02  0.9114510E-01
       -1   -1    0    0    0  501  0.00000000000E+00  0.00000000000E+00  0.72986111726E+03  0.72986111728E+03  0.50400001928E-02 0. -1.
        1   -1    0    0  501    0  0.00000000000E+00  0.00000000000E+00 -0.49169398747E+03  0.49169398750E+03  0.50400001928E-02 0.  1.
    10030    2    1    2    0    0  0.00000000000E+00  0.00000000000E+00  0.23816712979E+03  0.12215551048E+04  0.11981123872E+04 0.  0.
        3    1    3    3  502    0  0.17565654288E+02  0.59056067181E+03  0.22000443285E+03  0.63045413788E+03  0.10100000352E+00 0. -1.
       -3    1    3    3    0  502 -0.17565654288E+02 -0.59056067181E+03  0.18162696935E+02  0.59110096689E+03  0.10100000352E+00 0.  1.
</event>
<event>
 5   0  0.5625746E-05  0.1199728E+04  0.7818609E-02  0.9113094E-01
       -1   -1    0    0    0  501  0.00000000000E+00  0.00000000000E+00  0.39626439479E+03  0.39626439482E+03  0.50400001928E-02 0. -1.
        1   -1    0    0  501    0  0.00000000000E+00  0.00000000000E+00 -0.90807288878E+03  0.90807288880E+03  0.50400001928E-02 0.  1.
    10030    2    1    2    0    0  0.00000000000E+00  0.00000000000E+00 -0.51180849399E+03  0.13043372836E+04  0.11997282254E+04 0.  0.
        5    1    3    3  502    0  0.26626422532E+03 -0.43192581251E+03  0.91927007874E+02  0.51568324577E+03  0.46999998093E+01 0. -1.
       -5    1    3    3    0  502 -0.26626422532E+03  0.43192581251E+03 -0.60373550187E+03  0.78865403785E+03  0.46999998093E+01 0.  1.
</event>
<event>
 5   0  0.5745487E-05  0.1198197E+04  0.7818609E-02  0.9114437E-01
        1   -1    0    0  501    0  0.00000000000E+00  0.00000000000E+00  0.99056083504E+03  0.99056083506E+03  0.50400001928E-02 0. -1.
       -1   -1    0    0    0  501  0.00000000000E+00  0.00000000000E+00 -0.36233891781E+03  0.36233891785E+03  0.50400001928E-02 0.  1.
    10030    2    1    2    0    0  0.00000000000E+00  0.00000000000E+00  0.62822191723E+03  0.13528997529E+04  0.11981965465E+04 0.  0.
        3    1    3    3  502    0 -0.41424144817E+03  0.18267041080E+03  0.75714125847E+03  0.88217195140E+03  0.10100000352E+00 0. -1.
       -3    1    3    3    0  502  0.41424144817E+03 -0.18267041080E+03 -0.12891934124E+03  0.47072780150E+03  0.10100000352E+00 0.  1.
</event>
<event>
 5   0  0.1012657E-04  0.1202011E+04  0.7818609E-02  0.9111098E-01
        2   -1    0    0  501    0  0.00000000000E+00  0.00000000000E+00  0.26676042588E+04  0.26676042588E+04  0.25500000920E-02 0. -1.
       -2   -1    0    0    0  501  0.00000000000E+00  0.00000000000E+00 -0.13540535179E+03  0.13540535182E+03  0.25500000920E-02 0.  1.
    10030    2    1    2    0    0  0.00000000000E+00  0.00000000000E+00  0.25321989070E+04  0.28030096106E+04  0.12020114694E+04 0.  0.
        1    1    3    3  502    0  0.48504604400E+03  0.35477607170E+03  0.12859095284E+04  0.14194009445E+04  0.50400001928E-02 0. -1.
       -1    1    3    3    0  502 -0.48504604400E+03 -0.35477607170E+03  0.12462893786E+04  0.13836086661E+04  0.50400001928E-02 0.  1.
</event>
<event>
 5   0  0.5447807E-05  0.1199575E+04  0.7818609E-02  0.9113229E-01
       -1   -1    0    0    0  501  0.00000000000E+00  0.00000000000E+00  0.18045174998E+03  0.18045175005E+03  0.50400001928E-02 0. -1.
        1   -1    0    0  501    0  0.00000000000E+00  0.00000000000E+00 -0.19935797668E+04  0.19935797668E+04  0.50400001928E-02 0.  1.
    10030    2    1    2    0    0  0.00000000000E+00  0.00000000000E+00 -0.18131280168E+04  0.21740315169E+04  0.11995748542E+04 0.  0.
        2    1    3    3  502    0  0.39412710396E+03 -0.28845079216E+03 -0.15375193399E+04  0.16132283639E+04  0.25500000920E-02 0.  1.
       -2    1    3    3    0  502 -0.39412710396E+03  0.28845079216E+03 -0.27560867698E+03  0.56080315299E+03  0.25500000920E-02 0. -1.
</event>
<event>
 5   0  0.5745487E-05  0.1200281E+04  0.7818609E-02  0.9112611E-01
        1   -1    0    0  501    0  0.00000000000E+00  0.00000000000E+00  0.17651227531E+04  0.17651227532E+04  0.50400001928E-02 0. -1.
       -1   -1    0    0    0  501  0.00000000000E+00  0.00000000000E+00 -0.20404738789E+03  0.20404738795E+03  0.50400001928E-02 0.  1.
    10030    2    1    2    0    0  0.00000000000E+00  0.00000000000E+00  0.15610753653E+04  0.19691701411E+04  0.12002811123E+04 0.  0.
        3    1    3    3  502    0 -0.14287361943E+03 -0.18575019012E+03  0.16869587842E+04  0.17031576421E+04  0.10100000352E+00 0. -1.
       -3    1    3    3    0  502  0.14287361943E+03  0.18575019012E+03 -0.12588341890E+03  0.26601249898E+03  0.10100000352E+00 0.  1.
</event>
<event>
 5   0  0.5447807E-05  0.1199646E+04  0.7818609E-02  0.9113167E-01
        1   -1    0    0  501    0  0.00000000000E+00  0.00000000000E+00  0.15499160429E+04  0.15499160429E+04  0.50400001928E-02 0.  1.
       -1   -1    0    0    0  501  0.00000000000E+00  0.00000000000E+00 -0.23213354566E+03  0.23213354572E+03  0.50400001928E-02 0. -1.
    10030    2    1    2    0    0  0.00000000000E+00  0.00000000000E+00  0.13177824972E+04  0.17820495886E+04  0.11996457920E+04 0.  0.
        2    1    3    3  502    0  0.42811293676E+03 -0.84377375751E+02  0.47516995938E+02  0.43892834616E+03  0.25500000920E-02 0. -1.
       -2    1    3    3    0  502 -0.42811293676E+03  0.84377375751E+02  0.12702655013E+04  0.13431212424E+04  0.25500000920E-02 0.  1.
</event>
<event>
 5   0  0.5745487E-05  0.1199764E+04  0.7818609E-02  0.9113063E-01
        1   -1    0    0  501    0  0.00000000000E+00  0.00000000000E+00  0.53522189319E+03  0.53522189322E+03  0.50400001928E-02 0.  1.
       -1   -1    0    0    0  501  0.00000000000E+00  0.00000000000E+00 -0.67235351648E+03  0.67235351650E+03  0.50400001928E-02 0. -1.
    10030    2    1    2    0    0  0.00000000000E+00  0.00000000000E+00 -0.13713162329E+03  0.12075754097E+04  0.11997638468E+04 0.  0.
        3    1    3    3  502    0 -0.41437321327E+02  0.41975216782E+03 -0.49789832341E+03  0.65254247727E+03  0.10100000352E+00 0. -1.
       -3    1    3    3    0  502  0.41437321327E+02 -0.41975216782E+03  0.36076670012E+03  0.55503293245E+03  0.10100000352E+00 0.  1.
</event>
<event>
 5   0  0.1004006E-04  0.1199897E+04  0.7818609E-02  0.9112947E-01
        2   -1    0    0  501    0  0.00000000000E+00  0.00000000000E+00  0.13332643490E+04  0.13332643490E+04  0.25500000920E-02 0. -1.
       -2   -1    0    0    0  501  0.00000000000E+00  0.00000000000E+00 -0.26996750523E+03  0.26996750524E+03  0.25500000920E-02 0.  1.
    10030    2    1    2    0    0  0.00000000000E+00  0.00000000000E+00  0.10632968437E+04  0.16032318542E+04  0.11998967457E+04 0.  0.
        5    1    3    3  502    0  0.57525033975E+03  0.13552610292E+03  0.39385289086E+03  0.71022705355E+03  0.46999998093E+01 0.  1.
       -5    1    3    3    0  502 -0.57525033975E+03 -0.13552610292E+03  0.66944395288E+03  0.89300480066E+03  0.46999998093E+01 0. -1.
</event>
<event>
 5   0  0.1012657E-04  0.1199292E+04  0.7818609E-02  0.9113477E-01
       -2   -1    0    0    0  501  0.00000000000E+00  0.00000000000E+00  0.33653992190E+03  0.33653992191E+03  0.25500000920E-02 0. -1.
        2   -1    0    0  501    0  0.00000000000E+00  0.00000000000E+00 -0.10684469565E+04  0.10684469565E+04  0.25500000920E-02 0.  1.
    10030    2    1    2    0    0  0.00000000000E+00  0.00000000000E+00 -0.73190703459E+03  0.14049868784E+04  0.11992915497E+04 0.  0.
        1    1    3    3  502    0  0.23917594739E+03 -0.14207228352E+03 -0.98827494553E+03  0.10266825388E+04  0.50400001928E-02 0.  1.
       -1    1    3    3    0  502 -0.23917594739E+03  0.14207228352E+03  0.25636791094E+03  0.37830433958E+03  0.50400001928E-02 0. -1.
</event>
<event>
 5   0  0.5620246E-05  0.1199770E+04  0.7818609E-02  0.9113058E-01
       -1   -1    0    0    0  501  0.00000000000E+00  0.00000000000E+00  0.29513927076E+03  0.29513927080E+03  0.50400001928E-02 0.  1.
        1   -1    0    0  501    0  0.00000000000E+00  0.00000000000E+00 -0.12192955731E+04  0.12192955731E+04  0.50400001928E-02 0. -1.
    10030    2    1    2    0    0  0.00000000000E+00  0.00000000000E+00 -0.92415630231E+03  0.15144348439E+04  0.11997699885E+04 0.  0.
        1    1    3    3  502    0  0.42065198066E+03 -0.40747145138E+03 -0.62608078853E+03  0.85729704672E+03  0.50400001928E-02 0. -1.
       -1    1    3    3    0  502 -0.42065198066E+03  0.40747145138E+03 -0.29807551379E+03  0.65713779717E+03  0.50400001928E-02 0.  1.
</event>
<event>
 5   0  0.9941209E-05  0.1199709E+04  0.7818609E-02  0.9113111E-01
       -2   -1    0    0    0  501  0.00000000000E+00  0.00000000000E+00  0.15094618361E+03  0.15094618363E+03  0.25500000920E-02 0.  1.
        2   -1    0    0  501    0  0.00000000000E+00  0.00000000000E+00 -0.23838009911E+04  0.23838009911E+04  0.25500000920E-02 0. -1.
    10030    2    1    2    0    0  0.00000000000E+00  0.00000000000E+00 -0.22328548075E+04  0.25347471747E+04  0.11997094017E+04 0.  0.
        2    1    3    3  502    0 -0.49038943180E+03  0.30657474118E+02 -0.18434396859E+04  0.19077975655E+04  0.25500000920E-02 0. -1.
       -2    1    3    3    0  502  0.49038943180E+03 -0.30657474118E+02 -0.38941512160E+03  0.62694960920E+03  0.25500000920E-02 0.  1.
</event>
<event>
 5   0  0.1004006E-04  0.1198045E+04  0.7818609E-02  0.9114569E-01
       -2   -1    0    0    0  501  0.00000000000E+00  0.00000000000E+00  0.49625668198E+03  0.49625668199E+03  0.25500000920E-02 0. -1.
        2   -1    0    0  501    0  0.00000000000E+00  0.00000000000E+00 -0.72306983646E+03  0.72306983646E+03  0.25500000920E-02 0.  1.
    10030    2    1    2    0    0  0.00000000000E+00  0.00000000000E+00 -0.22681315448E+03  0.12193265184E+04  0.11980454714E+04 0.  0.
        5    1    3    3  502    0 -0.89586828857E+02  0.49867769282E+03 -0.43861479894E+03  0.67015690183E+03  0.46999998093E+01 0.  1.
       -5    1    3    3    0  502  0.89586828857E+02 -0.49867769282E+03  0.21180164447E+03  0.54916961662E+03  0.46999998093E+01 0. -1.
</event>
<event>
 5   0  0.5447807E-05  0.1200077E+04  0.7818609E-02  0.9112789E-01
        1   -1    0    0  501    0  0.00000000000E+00  0.00000000000E+00  0.26841950194E+03  0.26841950199E+03  0.50400001928E-02 0.  1.
       -1   -1    0    0    0  501  0.00000000000E+00  0.00000000000E+00 -0.13413562555E+04  0.13413562555E+04  0.50400001928E-02 0. -1.
    10030    2    1    2    0    0  0.00000000000E+00  0.00000000000E+00 -0.10729367535E+04  0.16097757575E+04  0.12000769610E+04 0.  0.
        2    1    3    3  502    0  0.18205521898E+03  0.42134470785E+01 -0.13033941457E+04  0.13160540091E+04  0.25500000920E-02 0. -1.
       -2    1    3    3    0  502 -0.18205521898E+03 -0.42134470785E+01  0.23045739211E+03  0.29372174839E+03  0.25500000920E-02 0.  1.
</event>
<event>
 5   0  0.9941209E-05  0.1200821E+04  0.7818609E-02  0.9112138E-01
        2   -1    0    0  501    0  0.00000000000E+00  0.00000000000E+00  0.26155012039E+03  0.26155012040E+03  0.25500000920E-02 0. -1.
       -2   -1    0    0    0  501  0.00000000000E+00  0.00000000000E+00 -0.13782939001E+04  0.13782939001E+04  0.25500000920E-02 0.  1.
    10030    2    1    2    0    0  0.00000000000E+00  0.00000000000E+00 -0.11167437797E+04  0.16398440205E+04  0.12008212782E+04 0.  0.
        2    1    3    3  502    0  0.19902090872E+02  0.17182717813E+03 -0.13435304524E+04  0.13546197802E+04  0.25500000920E-02 0.  1.
       -2    1    3    3    0  502 -0.19902090872E+02 -0.17182717813E+03  0.22678667266E+03  0.28522424033E+03  0.25500000920E-02 0. -1.
</event>
<event>
 5   0  0.1023063E-04  0.1199761E+04  0.7818609E-02  0.9113065E-01
       -2   -1    0    0    0  501  0.00000000000E+00  0.00000000000E+00  0.35369773515E+03  0.35369773515E+03  0.25500000920E-02 0. -1.
        2   -1    0    0  501    0  0.00000000000E+00  0.00000000000E+00 -0.10174135155E+04  0.10174135155E+04  0.25500000920E-02 0.  1.
    10030    2    1    2    0    0  0.00000000000E+00  0.00000000000E+00 -0.66371578032E+03  0.13711112506E+04  0.11997614032E+04 0.  0.
        3    1    3    3  502    0 -0.30346983873E+03  0.51398794829E+03 -0.26348619173E+03  0.65245883965E+03  0.10100000352E+00 0. -1.
       -3    1    3    3    0  502  0.30346983873E+03 -0.51398794829E+03 -0.40022958860E+03  0.71865241097E+03  0.10100000352E+00 0.  1.
</event>
<event>
 5   0  0.5625746E-05  0.1193331E+04  0.7818609E-02  0.9118714E-01
        1   -1    0    0  501    0  0.00000000000E+00  0.00000000000E+00  0.33032290295E+03  0.33032290299E+03  0.50400001928E-02 0. -1.
       -1   -1    0    0    0  501  0.00000000000E+00  0.00000000000E+00 -0.10777627251E+04  0.10777627251E+04  0.50400001928E-02 0.  1.
    10030    2    1    2    0    0  0.00000000000E+00  0.00000000000E+00 -0.74743982212E+03  0.14080856281E+04  0.11933309886E+04 0.  0.
        5    1    3    3  502    0 -0.23453099653E+03  0.40756552035E+03 -0.80706207375E+03  0.93406944206E+03  0.46999998093E+01 0.  1.
       -5    1    3    3    0  502  0.23453099653E+03 -0.40756552035E+03  0.59622251634E+02  0.47401618601E+03  0.46999998093E+01 0. -1.
</event>
<event>
 5   0  0.5625746E-05  0.1199646E+04  0.7818609E-02  0.9113167E-01
       -1   -1    0    0    0  501  0.00000000000E+00  0.00000000000E+00  0.10027490500E+04  0.10027490500E+04  0.50400001928E-02 0.  1.
        1   -1    0    0  501    0  0.00000000000E+00  0.00000000000E+00 -0.35880103917E+03  0.35880103921E+03  0.50400001928E-02 0. -1.
    10030    2    1    2    0    0  0.00000000000E+00  0.00000000000E+00  0.64394801080E+03  0.13615500892E+04  0.11996456163E+04 0.  0.
        5    1    3    3  502    0 -0.16704923712E+03  0.24092329624E+03  0.91586935799E+03  0.96165911486E+03  0.46999998093E+01 0.  1.
       -5    1    3    3    0  502  0.16704923712E+03 -0.24092329624E+03 -0.27192134719E+03  0.39989097433E+03  0.46999998093E+01 0. -1.
</event>
<event>
 5   0  0.1012657E-04  0.1200309E+04  0.7818609E-02  0.9112586E-01
       -2   -1    0    0    0  501  0.00000000000E+00  0.00000000000E+00  0.75255705393E+03  0.75255705394E+03  0.25500000920E-02 0. -1.
        2   -1    0    0  501    0  0.00000000000E+00  0.00000000000E+00 -0.47861570733E+03  0.47861570734E+03  0.25500000920E-02 0.  1.
    10030    2    1    2    0    0  0.00000000000E+00  0.00000000000E+00  0.27394134660E+03  0.12311727613E+04  0.12003093379E+04 0.  0.
        1    1    3    3  502    0  0.58814941513E+03 -0.86714542138E+02  0.22121961282E+03  0.63433213970E+03  0.50400001928E-02 0. -1.
       -1    1    3    3    0  502 -0.58814941513E+03  0.86714542138E+02  0.52721733775E+02  0.59684062158E+03  0.50400001928E-02 0.  1.
</event>
<event>
 5   0  0.5732931E-05  0.1200723E+04  0.7818609E-02  0.9112224E-01
       -1   -1    0    0    0  501  0.00000000000E+00  0.00000000000E+00  0.17413484431E+03  0.17413484438E+03  0.50400001928E-02 0. -1.
        1   -1    0    0  501    0  0.00000000000E+00  0.00000000000E+00 -0.20698553005E+04  0.20698553005E+04  0.50400001928E-02 0.  1.
    10030    2    1    2    0    0  0.00000000000E+00  0.00000000000E+00 -0.18957204561E+04  0.22439901448E+04  0.12007229998E+04 0.  0.
        4    1    3    3  502    0  0.17929929870E+03  0.88014180926E+02  0.11021755310E+03  0.22813210311E+03  0.12699999809E+01 0. -1.
       -4    1    3    3    0  502 -0.17929929870E+03 -0.88014180926E+02 -0.20059380092E+04  0.20158580417E+04  0.12699999809E+01 0.  1.
</event>
<event>
 5   0  0.5447807E-05  0.1200728E+04  0.7818609E-02  0.9112220E-01
        1   -1    0    0  501    0  0.00000000000E+00  0.00000000000E+00  0.38579159899E+03  0.38579159902E+03  0.50400001928E-02 0. -1.
       -1   -1    0    0    0  501  0.00000000000E+00  0.00000000000E+00 -0.93427838643E+03  0.93427838645E+03  0.50400001928E-02 0.  1.
    10030    2    1    2    0    0  0.00000000000E+00  0.00000000000E+00 -0.54848678745E+03  0.13200699855E+04  0.12007277004E+04 0.  0.
        2    1    3    3  502    0  0.59055579852E+03  0.60854400787E+01 -0.39287365449E+03  0.70932566015E+03  0.25500000920E-02 0.  1.
       -2    1    3    3    0  502 -0.59055579852E+03 -0.60854400787E+01 -0.15561313295E+03  0.61074432531E+03  0.25500000920E-02 0. -1.
</event>
<event>
 5   0  0.9838215E-05  0.1199600E+04  0.7818609E-02  0.9113207E-01
       -2   -1    0    0    0  501  0.00000000000E+00  0.00000000000E+00  0.17136932325E+03  0.17136932327E+03  0.25500000920E-02 0. -1.
        2   -1    0    0  501    0  0.00000000000E+00  0.00000000000E+00 -0.20993260369E+04  0.20993260369E+04  0.25500000920E-02 0.  1.
    10030    2    1    2    0    0  0.00000000000E+00  0.00000000000E+00 -0.19279567136E+04  0.22706953602E+04  0.11996000704E+04 0.  0.
        4    1    3    3  502    0 -0.11748809833E+03 -0.44940508811E+03 -0.24570678041E+03  0.52549198025E+03  0.12699999809E+01 0.  1.
       -4    1    3    3    0  502  0.11748809833E+03  0.44940508811E+03 -0.16822499332E+04  0.17452033799E+04  0.12699999809E+01 0. -1.
</event>
<event>
 5   0  0.9941209E-05  0.1200290E+04  0.7818609E-02  0.9112603E-01
       -2   -1    0    0    0  501  0.00000000000E+00  0.00000000000E+00  0.12418513083E+04  0.12418513083E+04  0.25500000920E-02 0. -1.
        2   -1    0    0  501    0  0.00000000000E+00  0.00000000000E+00 -0.29002983098E+03  0.29002983099E+03  0.25500000920E-02 0.  1.
    10030    2    1    2    0    0  0.00000000000E+00  0.00000000000E+00  0.95182147733E+03  0.15318811393E+04  0.12002898401E+04 0.  0.
        2    1    3    3  502    0  0.34650941627E+03  0.15842906720E+03 -0.11587378443E+03  0.39824022752E+03  0.25500000920E-02 0.  1.
       -2    1    3    3    0  502 -0.34650941627E+03 -0.15842906720E+03  0.10676952618E+04  0.11336409118E+04  0.25500000920E-02 0. -1.
</event>
<event>
 5   0  0.1023063E-04  0.1200375E+04  0.7818609E-02  0.9112529E-01
        2   -1    0    0  501    0  0.00000000000E+00  0.00000000000E+00  0.15813406777E+04  0.15813406777E+04  0.25500000920E-02 0. -1.
       -2   -1    0    0    0  501  0.00000000000E+00  0.00000000000E+00 -0.22779712224E+03  0.22779712225E+03  0.25500000920E-02 0.  1.
    10030    2    1    2    0    0  0.00000000000E+00  0.00000000000E+00  0.13535435555E+04  0.18091378000E+04  0.12003747010E+04 0.  0.
        3    1    3    3  502    0  0.42291627529E+03 -0.18053101174E+03  0.12580982761E+04  0.13395002443E+04  0.10100000352E+00 0. -1.
       -3    1    3    3    0  502 -0.42291627529E+03  0.18053101174E+03  0.95445279393E+02  0.46963755563E+03  0.10100000352E+00 0.  1.
</event>
<event>
 5   0  0.3839750E-05  0.1207285E+04  0.7818609E-02  0.9106504E-01
        4   -1    0    0  501    0  0.00000000000E+00  0.00000000000E+00  0.43183476522E+03  0.43183663272E+03  0.12699999809E+01 0. -1.
       -4   -1    0    0    0  501  0.00000000000E+00  0.00000000000E+00 -0.84380075349E+03  0.84380170922E+03  0.12699999809E+01 0.  1.
    10030    2    1    2    0    0  0.00000000000E+00  0.00000000000E+00 -0.41196598827E+03  0.12756383419E+04  0.12072850550E+04 0.  0.
        1    1    3    3  502    0 -0.35490208904E+03 -0.45958620934E+02  0.30766413713E+03  0.47193739939E+03  0.50400001928E-02 0. -1.
       -1    1    3    3    0  502  0.35490208904E+03  0.45958620934E+02 -0.71963012540E+03  0.80370094255E+03  0.50400001928E-02 0.  1.
</event>
<event>
 5   0  0.9838215E-05  0.1199215E+04  0.7818609E-02  0.9113544E-01
       -2   -1    0    0    0  501  0.00000000000E+00  0.00000000000E+00  0.43752576553E+03  0.43752576554E+03  0.25500000920E-02 0. -1.
        2   -1    0    0  501    0  0.00000000000E+00  0.00000000000E+00 -0.82173215170E+03  0.82173215170E+03  0.25500000920E-02 0.  1.
    10030    2    1    2    0    0  0.00000000000E+00  0.00000000000E+00 -0.38420638617E+03  0.12592579172E+04  0.11992147243E+04 0.  0.
        4    1    3    3  502    0 -0.46191094710E+03 -0.38122266364E+03 -0.22244515681E+03  0.63888645550E+03  0.12699999809E+01 0.  1.
       -4    1    3    3    0  502  0.46191094710E+03  0.38122266364E+03 -0.16176122936E+03  0.62037146175E+03  0.12699999809E+01 0. -1.
</event>
<event>
 5   0  0.1023063E-04  0.1200247E+04  0.7818609E-02  0.9112640E-01
        2   -1    0    0  501    0  0.00000000000E+00  0.00000000000E+00  0.19702909042E+04  0.19702909042E+04  0.25500000920E-02 0. -1.
       -2   -1    0    0    0  501  0.00000000000E+00  0.00000000000E+00 -0.18278939655E+03  0.18278939657E+03  0.25500000920E-02 0.  1.
    10030    2    1    2    0    0  0.00000000000E+00  0.00000000000E+00  0.17875015077E+04  0.21530803008E+04  0.12002471169E+04 0.  0.
        3    1    3    3  502    0  0.57083736477E+03  0.12148438747E+02  0.12252294470E+04  0.13517359541E+04  0.10100000352E+00 0. -1.
       -3    1    3    3    0  502 -0.57083736477E+03 -0.12148438747E+02  0.56227206071E+03  0.80134434674E+03  0.10100000352E+00 0.  1.
</event>
<event>
 5   0  0.5745487E-05  0.1199685E+04  0.7818609E-02  0.9113132E-01
       -1   -1    0    0    0  501  0.00000000000E+00  0.00000000000E+00  0.44996490262E+03  0.44996490265E+03  0.50400001928E-02 0. -1.
        1   -1    0    0  501    0  0.00000000000E+00  0.00000000000E+00 -0.79964248237E+03  0.79964248239E+03  0.50400001928E-02 0.  1.
    10030    2    1    2    0    0  0.00000000000E+00  0.00000000000E+00 -0.34967757975E+03  0.12496073850E+04  0.11996850449E+04 0.  0.
        3    1    3    3  502    0 -0.90142312194E+02 -0.46460205976E+03  0.20904937032E+03  0.51738028549E+03  0.10100000352E+00 0. -1.
       -3    1    3    3    0  502  0.90142312194E+02  0.46460205976E+03 -0.55872695007E+03  0.73222709955E+03  0.10100000352E+00 0.  1.
</event>
<event>
 5   0  0.1023063E-04  0.1199878E+04  0.7818609E-02  0.9112964E-01
        2   -1    0    0  501    0  0.00000000000E+00  0.00000000000E+00  0.27902196514E+04  0.27902196514E+04  0.25500000920E-02 0. -1.
       -2   -1    0    0    0  501  0.00000000000E+00  0.00000000000E+00 -0.12899581666E+03  0.12899581668E+03  0.25500000920E-02 0.  1.
    10030    2    1    2    0    0  0.00000000000E+00  0.00000000000E+00  0.26612238347E+04  0.29192154681E+04  0.11998777648E+04 0.  0.
        3    1    3    3  502    0  0.77383587588E+02  0.35932673632E+03  0.17702783699E+03  0.40797400448E+03  0.10100000352E+00 0.  1.
       -3    1    3    3    0  502 -0.77383587588E+02 -0.35932673632E+03  0.24841959977E+04  0.25112414636E+04  0.10100000352E+00 0. -1.
</event>
<event>
 5   0  0.5447807E-05  0.1200133E+04  0.7818609E-02  0.9112740E-01
       -1   -1    0    0    0  501  0.00000000000E+00  0.00000000000E+00  0.16727345525E+03  0.16727345532E+03  0.50400001928E-02 0. -1.
        1   -1    0    0  501    0  0.00000000000E+00  0.00000000000E+00 -0.21526422643E+04  0.21526422643E+04  0.50400001928E-02 0.  1.
    10030    2    1    2    0    0  0.00000000000E+00  0.00000000000E+00 -0.19853688090E+04  0.23199157196E+04  0.12001331752E+04 0.  0.
        2    1    3    3  502    0 -0.10773273333E+03 -0.15881364082E+03  0.10635493820E+03  0.21940712665E+03  0.25500000920E-02 0. -1.
       -2    1    3    3    0  502  0.10773273333E+03  0.15881364082E+03 -0.20917237472E+04  0.21005085930E+04  0.25500000920E-02 0.  1.
</event>
<event>
 5   0  0.5620246E-05  0.1200196E+04  0.7818609E-02  0.9112685E-01
        1   -1    0    0  501    0  0.00000000000E+00  0.00000000000E+00  0.68857200606E+03  0.68857200608E+03  0.50400001928E-02 0.  1.
       -1   -1    0    0    0  501  0.00000000000E+00  0.00000000000E+00 -0.52299232003E+03  0.52299232006E+03  0.50400001928E-02 0. -1.
    10030    2    1    2    0    0  0.00000000000E+00  0.00000000000E+00  0.16557968603E+03  0.12115643261E+04  0.12001964356E+04 0.  0.
        1    1    3    3  502    0  0.51870796278E+03  0.81145999449E+02  0.37618901239E+03  0.64587986263E+03  0.50400001928E-02 0.  1.
       -1    1    3    3    0  502 -0.51870796278E+03 -0.81145999449E+02 -0.21060932637E+03  0.56568446351E+03  0.50400001928E-02 0. -1.
</event>
<event>
 5   0  0.9838215E-05  0.1199909E+04  0.7818609E-02  0.9112937E-01
       -2   -1    0    0    0  501  0.00000000000E+00  0.00000000000E+00  0.39902598872E+03  0.39902598873E+03  0.25500000920E-02 0.  1.
        2   -1    0    0  501    0  0.00000000000E+00  0.00000000000E+00 -0.90205931270E+03  0.90205931271E+03  0.25500000920E-02 0. -1.
    10030    2    1    2    0    0  0.00000000000E+00  0.00000000000E+00 -0.50303332398E+03  0.13010853014E+04  0.11999085118E+04 0.  0.
        4    1    3    3  502    0 -0.31505097166E+03 -0.26352207746E+03  0.22267055081E+03  0.46720957519E+03  0.12699999809E+01 0.  1.
       -4    1    3    3    0  502  0.31505097166E+03  0.26352207746E+03 -0.72570387479E+03  0.83387572625E+03  0.12699999809E+01 0. -1.
</event>
<event>
 5   0  0.9838215E-05  0.1200299E+04  0.7818609E-02  0.9112595E-01
       -2   -1    0    0    0  501  0.00000000000E+00  0.00000000000E+00  0.27991797316E+03  0.27991797317E+03  0.25500000920E-02 0.  1.
        2   -1    0    0  501    0  0.00000000000E+00  0.00000000000E+00 -0.12867314047E+04  0.12867314047E+04  0.25500000920E-02 0. -1.
    10030    2    1    2    0    0  0.00000000000E+00  0.00000000000E+00 -0.10068134315E+04  0.15666493779E+04  0.12002987075E+04 0.  0.
        4    1    3    3  502    0  0.54719267213E+02  0.53815150746E+03 -0.84270367559E+03  0.10013752248E+04  0.12699999809E+01 0. -1.
       -4    1    3    3    0  502 -0.54719267213E+02 -0.53815150746E+03 -0.16410975595E+03  0.56527415303E+03  0.12699999809E+01 0.  1.
</event>
<event>
 5   0  0.9838215E-05  0.1199737E+04  0.7818609E-02  0.9113087E-01
        2   -1    0    0  501    0  0.00000000000E+00  0.00000000000E+00  0.78551936220E+03  0.78551936220E+03  0.25500000920E-02 0.  1.
       -2   -1    0    0    0  501  0.00000000000E+00  0.00000000000E+00 -0.45809438027E+03  0.45809438028E+03  0.25500000920E-02 0. -1.
    10030    2    1    2    0    0  0.00000000000E+00  0.00000000000E+00  0.32742498193E+03  0.12436137425E+04  0.11997366468E+04 0.  0.
        4    1    3    3  502    0  0.36540969892E+02  0.46874728877E+03  0.54987027734E+03  0.72347646680E+03  0.12699999809E+01 0.  1.
       -4    1    3    3    0  502 -0.36540969892E+02 -0.46874728877E+03 -0.22244529541E+03  0.52013727568E+03  0.12699999809E+01 0. -1.
</event>
<event>
 5   0  0.3839750E-05  0.1199836E+04  0.7818609E-02  0.9113000E-01
       -3   -1    0    0    0  501  0.00000000000E+00  0.00000000000E+00  0.83858279249E+03  0.83858279857E+03  0.10100000352E+00 0. -1.
        3   -1    0    0  501    0  0.00000000000E+00  0.00000000000E+00 -0.42917822307E+03  0.42917823495E+03  0.10100000352E+00 0.  1.
    10030    2    1    2    0    0  0.00000000000E+00  0.00000000000E+00  0.40940456942E+03  0.12677610335E+04  0.11998357957E+04 0.  0.
        4    1    3    3  502    0 -0.43704224921E+02  0.17495784172E+03 -0.39986044281E+03  0.43864597602E+03  0.12699999809E+01 0.  1.
       -4    1    3    3    0  502  0.43704224921E+02 -0.17495784172E+03  0.80926501223E+03  0.82911505750E+03  0.12699999809E+01 0. -1.
</event>
<event>
 5   0  0.5620246E-05  0.1199978E+04  0.7818609E-02  0.9112876E-01
        1   -1    0    0  501    0  0.00000000000E+00  0.00000000000E+00  0.10032435991E+04  0.10032435991E+04  0.50400001928E-02 0.  1.
       -1   -1    0    0    0  501  0.00000000000E+00  0.00000000000E+00 -0.35882279181E+03  0.35882279184E+03  0.50400001928E-02 0. -1.
    10030    2    1    2    0    0  0.00000000000E+00  0.00000000000E+00  0.64442080728E+03  0.13620663909E+04  0.11999777817E+04 0.  0.
        1    1    3    3  502    0 -0.24995500154E+03 -0.54482877278E+03  0.29281270102E+03  0.66712455534E+03  0.50400001928E-02 0.  1.
       -1    1    3    3    0  502  0.24995500154E+03  0.54482877278E+03  0.35160810626E+03  0.69494183559E+03  0.50400001928E-02 0. -1.
</event>
<event>
 5   0  0.3839750E-05  0.1199612E+04  0.7818609E-02  0.9113196E-01
       -3   -1    0    0    0  501  0.00000000000E+00  0.00000000000E+00  0.18421328476E+03  0.18421331245E+03  0.10100000352E+00 0.  1.
        3   -1    0    0  501    0  0.00000000000E+00  0.00000000000E+00 -0.19529937127E+04  0.19529937153E+04  0.10100000352E+00 0. -1.
    10030    2    1    2    0    0  0.00000000000E+00  0.00000000000E+00 -0.17687804279E+04  0.21372070278E+04  0.11996123029E+04 0.  0.
        1    1    3    3  502    0 -0.49461314371E+03 -0.33842584426E+03 -0.92778206637E+03  0.11045151772E+04  0.50400001928E-02 0.  1.
       -1    1    3    3    0  502  0.49461314371E+03  0.33842584426E+03 -0.84099836157E+03  0.10326918505E+04  0.50400001928E-02 0. -1.
</event>
<event>
 5   0  0.1023063E-04  0.1200244E+04  0.7818609E-02  0.9112643E-01
        2   -1    0    0  501    0  0.00000000000E+00  0.00000000000E+00  0.30474547696E+03  0.30474547697E+03  0.25500000920E-02 0.  1.
       -2   -1    0    0    0  501  0.00000000000E+00  0.00000000000E+00 -0.11817945920E+04  0.11817945920E+04  0.25500000920E-02 0. -1.
    10030    2    1    2    0    0  0.00000000000E+00  0.00000000000E+00 -0.87704911502E+03  0.14865400690E+04  0.12002442362E+04 0.  0.
        3    1    3    3  502    0  0.49319068188E+03  0.16424133589E+03 -0.80994826868E+03  0.96240764401E+03  0.10100000352E+00 0. -1.
       -3    1    3    3    0  502 -0.49319068188E+03 -0.16424133589E+03 -0.67100846345E+02  0.52413242495E+03  0.10100000352E+00 0.  1.
</event>
<event>
 5   0  0.3839750E-05  0.1200219E+04  0.7818609E-02  0.9112665E-01
        3   -1    0    0  501    0  0.00000000000E+00  0.00000000000E+00  0.29183680032E+03  0.29183681779E+03  0.10100000352E+00 0.  1.
       -3   -1    0    0    0  501  0.00000000000E+00  0.00000000000E+00 -0.12340157079E+04  0.12340157120E+04  0.10100000352E+00 0. -1.
    10030    2    1    2    0    0  0.00000000000E+00  0.00000000000E+00 -0.94217890755E+03  0.15258525298E+04  0.12002186671E+04 0.  0.
        5    1    3    3  502    0  0.24338601243E+02  0.76258729077E+02 -0.12271743288E+04  0.12297913175E+04  0.46999998093E+01 0. -1.
       -5    1    3    3    0  502 -0.24338601243E+02 -0.76258729077E+02  0.28499542128E+03  0.29606121229E+03  0.46999998093E+01 0.  1.
</event>
<event>
 5   0  0.1012657E-04  0.1200094E+04  0.7818609E-02  0.9112774E-01
        2   -1    0    0  501    0  0.00000000000E+00  0.00000000000E+00  0.49050414225E+03  0.49050414226E+03  0.25500000920E-02 0. -1.
       -2   -1    0    0    0  501  0.00000000000E+00  0.00000000000E+00 -0.73405428111E+03  0.73405428111E+03  0.25500000920E-02 0.  1.
    10030    2    1    2    0    0  0.00000000000E+00  0.00000000000E+00 -0.24355013886E+03  0.12245584234E+04  0.12000944388E+04 0.  0.
        1    1    3    3  502    0  0.74056244565E+02  0.27202398094E+03  0.41871634354E+03  0.50478188353E+03  0.50400001928E-02 0. -1.
       -1    1    3    3    0  502 -0.74056244565E+02 -0.27202398094E+03 -0.66226648240E+03  0.71977653984E+03  0.50400001928E-02 0.  1.
</event>
<event>
 5   0  0.3839750E-05  0.1199112E+04  0.7818609E-02  0.9113634E-01
       -4   -1    0    0    0  501  0.00000000000E+00  0.00000000000E+00  0.89307115187E+03  0.89307205488E+03  0.12699999809E+01 0. -1.
        4   -1    0    0  501    0  0.00000000000E+00  0.00000000000E+00 -0.40250519607E+03  0.40250719964E+03  0.12699999809E+01 0.  1.
    10030    2    1    2    0    0  0.00000000000E+00  0.00000000000E+00  0.49056595580E+03  0.12955792545E+04  0.11991124417E+04 0.  0.
        3    1    3    3  502    0 -0.30050426352E+03  0.51569257405E+03  0.18391570497E+03  0.62455315231E+03  0.10100000352E+00 0. -1.
       -3    1    3    3    0  502  0.30050426352E+03 -0.51569257405E+03  0.30665025083E+03  0.67102610221E+03  0.10100000352E+00 0.  1.
</event>
<event>
 5   0  0.5620246E-05  0.1200004E+04  0.7818609E-02  0.9112853E-01
        1   -1    0    0  501    0  0.00000000000E+00  0.00000000000E+00  0.29969452695E+03  0.29969452700E+03  0.50400001928E-02 0.  1.
       -1   -1    0    0    0  501  0.00000000000E+00  0.00000000000E+00 -0.12012313795E+04  0.12012313795E+04  0.50400001928E-02 0. -1.
    10030    2    1    2    0    0  0.00000000000E+00  0.00000000000E+00 -0.90153685252E+03  0.15009259065E+04  0.12000041168E+04 0.  0.
        1    1    3    3  502    0  0.34010379133E+03  0.34665233435E+03 -0.10036576954E+02  0.48573569221E+03  0.50400001928E-02 0.  1.
       -1    1    3    3    0  502 -0.34010379133E+03 -0.34665233435E+03 -0.89150027556E+03  0.10151902143E+04  0.50400001928E-02 0. -1.
</event>
<event>
 5   0  0.5447807E-05  0.1200030E+04  0.7818609E-02  0.9112830E-01
       -1   -1    0    0    0  501  0.00000000000E+00  0.00000000000E+00  0.56315160235E+03  0.56315160237E+03  0.50400001928E-02 0.  1.
        1   -1    0    0  501    0  0.00000000000E+00  0.00000000000E+00 -0.63929165519E+03  0.63929165521E+03  0.50400001928E-02 0. -1.
    10030    2    1    2    0    0  0.00000000000E+00  0.00000000000E+00 -0.76140052839E+02  0.12024432576E+04  0.12000301996E+04 0.  0.
        2    1    3    3  502    0 -0.12764484764E+03  0.45079376241E+03  0.33753022399E+03  0.57743820056E+03  0.25500000920E-02 0.  1.
       -2    1    3    3    0  502  0.12764484764E+03 -0.45079376241E+03 -0.41367027683E+03  0.62500505701E+03  0.25500000920E-02 0. -1.
</event>
<event>
 5   0  0.1023063E-04  0.1200220E+04  0.7818609E-02  0.9112664E-01
        2   -1    0    0  501    0  0.00000000000E+00  0.00000000000E+00  0.10233564476E+04  0.10233564476E+04  0.25500000920E-02 0.  1.
       -2   -1    0    0    0  501  0.00000000000E+00  0.00000000000E+00 -0.35191244657E+03  0.35191244658E+03  0.25500000920E-02 0. -1.
    10030    2    1    2    0    0  0.00000000000E+00  0.00000000000E+00  0.67144400100E+03  0.13752688942E+04  0.12002197652E+04 0.  0.
        3    1    3    3  502    0 -0.29382996967E+03 -0.46512948406E+03  0.61036799657E+03  0.82172415655E+03  0.10100000352E+00 0.  1.
       -3    1    3    3    0  502  0.29382996967E+03  0.46512948406E+03  0.61076004431E+02  0.55354473761E+03  0.10100000352E+00 0. -1.
</event>
<event>
 5   0  0.5447807E-05  0.1199821E+04  0.7818609E-02  0.9113014E-01
       -1   -1    0    0    0  501  0.00000000000E+00  0.00000000000E+00  0.34226360626E+03  0.34226360630E+03  0.50400001928E-02 0.  1.
        1   -1    0    0  501    0  0.00000000000E+00  0.00000000000E+00 -0.10515064636E+04  0.10515064636E+04  0.50400001928E-02 0. -1.
    10030    2    1    2    0    0  0.00000000000E+00  0.00000000000E+00 -0.70924285731E+03  0.13937700699E+04  0.11998206437E+04 0.  0.
        2    1    3    3  502    0 -0.46929981479E+02 -0.51354033458E+02 -0.10468049166E+04  0.10491140040E+04  0.25500000920E-02 0. -1.
       -2    1    3    3    0  502  0.46929981479E+02  0.51354033458E+02  0.33756205927E+03  0.34465606593E+03  0.25500000920E-02 0.  1.
</event>
<event>
 5   0  0.9941209E-05  0.1199036E+04  0.7818609E-02  0.9113701E-01
        2   -1    0    0  501    0  0.00000000000E+00  0.00000000000E+00  0.80626257507E+03  0.80626257508E+03  0.25500000920E-02 0.  1.
       -2   -1    0    0    0  501  0.00000000000E+00  0.00000000000E+00 -0.44578768259E+03  0.44578768259E+03  0.25500000920E-02 0. -1.
    10030    2    1    2    0    0  0.00000000000E+00  0.00000000000E+00  0.36047489249E+03  0.12520502577E+04  0.11990361544E+04 0.  0.
        2    1    3    3  502    0 -0.67676766756E+02 -0.20338344842E+03 -0.40440762370E+03  0.45770131960E+03  0.25500000920E-02 0. -1.
       -2    1    3    3    0  502  0.67676766756E+02  0.20338344842E+03  0.76488251619E+03  0.79434893808E+03  0.25500000920E-02 0.  1.
</event>
<event>
 5   0  0.5745487E-05  0.1191125E+04  0.7818609E-02  0.9120661E-01
       -1   -1    0    0    0  501  0.00000000000E+00  0.00000000000E+00  0.45398707615E+03  0.45398707618E+03  0.50400001928E-02 0. -1.
        1   -1    0    0  501    0  0.00000000000E+00  0.00000000000E+00 -0.78128750811E+03  0.78128750813E+03  0.50400001928E-02 0.  1.
    10030    2    1    2    0    0  0.00000000000E+00  0.00000000000E+00 -0.32730043196E+03  0.12352745843E+04  0.11911245635E+04 0.  0.
        3    1    3    3  502    0 -0.17903294886E+03  0.83742182844E+02  0.41898225688E+03  0.46326201198E+03  0.10100000352E+00 0. -1.
       -3    1    3    3    0  502  0.17903294886E+03 -0.83742182844E+02 -0.74628268884E+03  0.77201257233E+03  0.10100000352E+00 0.  1.
</event>
<event>
 5   0  0.5620246E-05  0.1200987E+04  0.7818609E-02  0.9111993E-01
        1   -1    0    0  501    0  0.00000000000E+00  0.00000000000E+00  0.12062135668E+04  0.12062135668E+04  0.50400001928E-02 0. -1.
       -1   -1    0    0    0  501  0.00000000000E+00  0.00000000000E+00 -0.29894595321E+03  0.29894595325E+03  0.50400001928E-02 0.  1.
    10030    2    1    2    0    0  0.00000000000E+00  0.00000000000E+00  0.90726761357E+03  0.15051595200E+04  0.12009873680E+04 0.  0.
        1    1    3    3  502    0 -0.20931795685E+03  0.38304754862E+03  0.97045050453E+03  0.10641022570E+04  0.50400001928E-02 0. -1.
       -1    1    3    3    0  502  0.20931795685E+03 -0.38304754862E+03 -0.63182890955E+02  0.44105726306E+03  0.50400001928E-02 0.  1.
</event>
<event>
 5   0  0.9838215E-05  0.1200721E+04  0.7818609E-02  0.9112226E-01
        2   -1    0    0  501    0  0.00000000000E+00  0.00000000000E+00  0.25368704766E+03  0.25368704767E+03  0.25500000920E-02 0.  1.
       -2   -1    0    0    0  501  0.00000000000E+00  0.00000000000E+00 -0.14207761619E+04  0.14207761619E+04  0.25500000920E-02 0. -1.
    10030    2    1    2    0    0  0.00000000000E+00  0.00000000000E+00 -0.11670891142E+04  0.16744632096E+04  0.12007206335E+04 0.  0.
        4    1    3    3  502    0 -0.69133738512E+02 -0.54905648592E+03 -0.25891594574E+03  0.61096773924E+03  0.12699999809E+01 0.  1.
       -4    1    3    3    0  502  0.69133738512E+02  0.54905648592E+03 -0.90817316848E+03  0.10634954703E+04  0.12699999809E+01 0. -1.
</event>
<event>
 5   0  0.1004006E-04  0.1201225E+04  0.7818609E-02  0.9111785E-01
        2   -1    0    0  501    0  0.00000000000E+00  0.00000000000E+00  0.53112001116E+03  0.53112001117E+03  0.25500000920E-02 0. -1.
       -2   -1    0    0    0  501  0.00000000000E+00  0.00000000000E+00 -0.67919769678E+03  0.67919769679E+03  0.25500000920E-02 0.  1.
    10030    2    1    2    0    0  0.00000000000E+00  0.00000000000E+00 -0.14807768562E+03  0.12103177080E+04  0.12012251884E+04 0.  0.
        5    1    3    3  502    0  0.18062231804E+03 -0.23900511126E+03 -0.59852252788E+03  0.66932740222E+03  0.46999998093E+01 0.  1.
       -5    1    3    3    0  502 -0.18062231804E+03  0.23900511126E+03  0.45044484226E+03  0.54099030574E+03  0.46999998093E+01 0. -1.
</event>
<event>
 5   0  0.5447807E-05  0.1192919E+04  0.7818609E-02  0.9119077E-01
        1   -1    0    0  501    0  0.00000000000E+00  0.00000000000E+00  0.78266871730E+03  0.78266871732E+03  0.50400001928E-02 0.  1.
       -1   -1    0    0    0  501  0.00000000000E+00  0.00000000000E+00 -0.45455222118E+03  0.45455222120E+03  0.50400001928E-02 0. -1.
    10030    2    1    2    0    0  0.00000000000E+00  0.00000000000E+00  0.32811649613E+03  0.12372209385E+04  0.11929187800E+04 0.  0.
        2    1    3    3  502    0  0.51075639824E+03  0.26153916807E+03  0.33285687683E+03  0.66337661644E+03  0.25500000920E-02 0.  1.
       -2    1    3    3    0  502 -0.51075639824E+03 -0.26153916807E+03 -0.47403807036E+01  0.57384432209E+03  0.25500000920E-02 0. -1.
</event>
<event>
 5   0  0.5447807E-05  0.1200400E+04  0.7818609E-02  0.9112507E-01
       -1   -1    0    0    0  501  0.00000000000E+00  0.00000000000E+00  0.49105264437E+03  0.49105264440E+03  0.50400001928E-02 0. -1.
        1   -1    0    0  501    0  0.00000000000E+00  0.00000000000E+00 -0.73360770006E+03  0.73360770008E+03  0.50400001928E-02 0.  1.
    10030    2    1    2    0    0  0.00000000000E+00  0.00000000000E+00 -0.24255505569E+03  0.12246603445E+04  0.12003999351E+04 0.  0.
        2    1    3    3  502    0  0.25177298885E+03 -0.38108413783E+03  0.27598302896E+03  0.53364912658E+03  0.25500000920E-02 0.  1.
       -2    1    3    3    0  502 -0.25177298885E+03  0.38108413783E+03 -0.51853808465E+03  0.69101121790E+03  0.25500000920E-02 0. -1.
</event>
<event>
 5   0  0.5620246E-05  0.1193142E+04  0.7818609E-02  0.9118881E-01
       -1   -1    0    0    0  501  0.00000000000E+00  0.00000000000E+00  0.50216533725E+03  0.50216533727E+03  0.50400001928E-02 0. -1.
        1   -1    0    0  501    0  0.00000000000E+00  0.00000000000E+00 -0.70872411215E+03  0.70872411217E+03  0.50400001928E-02 0.  1.
    10030    2    1    2    0    0  0.00000000000E+00  0.00000000000E+00 -0.20655877490E+03  0.12108894494E+04  0.11931415387E+04 0.  0.
        1    1    3    3  502    0  0.61513652647E+02  0.45451652102E+02 -0.70372772648E+03  0.70787180703E+03  0.50400001928E-02 0.  1.
       -1    1    3    3    0  502 -0.61513652647E+02 -0.45451652102E+02  0.49716895158E+03  0.50301764241E+03  0.50400001928E-02 0. -1.
</event>
<event>
 5   0  0.5625746E-05  0.1200997E+04  0.7818609E-02  0.9111984E-01
       -1   -1    0    0    0  501  0.00000000000E+00  0.00000000000E+00  0.41515953356E+03  0.41515953359E+03  0.50400001928E-02 0.  1.
        1   -1    0    0  501    0  0.00000000000E+00  0.00000000000E+00 -0.86857772633E+03  0.86857772634E+03  0.50400001928E-02 0. -1.
    10030    2    1    2    0    0  0.00000000000E+00  0.00000000000E+00 -0.45341819277E+03  0.12837372599E+04  0.12009967923E+04 0.  0.
        5    1    3    3  502    0 -0.33998634970E+03  0.47437801713E+03 -0.75730017668E+02  0.58854256150E+03  0.46999998093E+01 0. -1.
       -5    1    3    3    0  502  0.33998634970E+03 -0.47437801713E+03 -0.37768817510E+03  0.69519469843E+03  0.46999998093E+01 0.  1.
</event>
<event>
 5   0  0.5745487E-05  0.1199287E+04  0.7818609E-02  0.9113481E-01
        1   -1    0    0  501    0  0.00000000000E+00  0.00000000000E+00  0.15591088138E+04  0.15591088138E+04  0.50400001928E-02 0.  1.
       -1   -1    0    0    0  501  0.00000000000E+00  0.00000000000E+00 -0.23062689624E+03  0.23062689629E+03  0.50400001928E-02 0. -1.
    10030    2    1    2    0    0  0.00000000000E+00  0.00000000000E+00  0.13284819176E+04  0.17897357101E+04  0.11992871661E+04 0.  0.
        3    1    3    3  502    0  0.11918830078E+03 -0.54039047880E+03  0.31956472483E+03  0.63902217816E+03  0.10100000352E+00 0. -1.
       -3    1    3    3    0  502 -0.11918830078E+03  0.54039047880E+03  0.10089171928E+04  0.11507135320E+04  0.10100000352E+00 0.  1.
</event>
<event>
 5   0  0.1012657E-04  0.1199140E+04  0.7818609E-02  0.9113610E-01
        2   -1    0    0  501    0  0.00000000000E+00  0.00000000000E+00  0.92901210525E+03  0.92901210525E+03  0.25500000920E-02 0.  1.
       -2   -1    0    0    0  501  0.00000000000E+00  0.00000000000E+00 -0.38695289024E+03  0.38695289025E+03  0.25500000920E-02 0. -1.
    10030    2    1    2    0    0  0.00000000000E+00  0.00000000000E+00  0.54205921501E+03  0.13159649955E+04  0.11991395568E+04 0.  0.
        1    1    3    3  502    0  0.17605131000E+03 -0.13716466298E+03  0.88172997187E+03  0.90953611905E+03  0.50400001928E-02 0.  1.
       -1    1    3    3    0  502 -0.17605131000E+03  0.13716466298E+03 -0.33967075686E+03  0.40642887645E+03  0.50400001928E-02 0. -1.
</event>
<event>
 5   0  0.5745487E-05  0.1200316E+04  0.7818609E-02  0.9112580E-01
        1   -1    0    0  501    0  0.00000000000E+00  0.00000000000E+00  0.95251638510E+03  0.95251638512E+03  0.50400001928E-02 0. -1.
       -1   -1    0    0    0  501  0.00000000000E+00  0.00000000000E+00 -0.37814533252E+03  0.37814533256E+03  0.50400001928E-02 0.  1.
    10030    2    1    2    0    0  0.00000000000E+00  0.00000000000E+00  0.57437105258E+03  0.13306617177E+04  0.12003160004E+04 0.  0.
        3    1    3    3  502    0 -0.21245900757E+03  0.21949203936E+03  0.85988294291E+03  0.91253179174E+03  0.10100000352E+00 0. -1.
       -3    1    3    3    0  502  0.21245900757E+03 -0.21949203936E+03 -0.28551189033E+03  0.41812992593E+03  0.10100000352E+00 0.  1.
</event>
<event>
 5   0  0.5620246E-05  0.1199980E+04  0.7818609E-02  0.9112874E-01
       -1   -1    0    0    0  501  0.00000000000E+00  0.00000000000E+00  0.51824612957E+03  0.51824612960E+03  0.50400001928E-02 0. -1.
        1   -1    0    0  501    0  0.00000000000E+00  0.00000000000E+00 -0.69462736778E+03  0.69462736780E+03  0.50400001928E-02 0.  1.
    10030    2    1    2    0    0  0.00000000000E+00  0.00000000000E+00 -0.17638123821E+03  0.12128734974E+04  0.11999799080E+04 0.  0.
        1    1    3    3  502    0 -0.36826936776E+03  0.37378107430E+03 -0.38226930243E+03  0.64920292539E+03  0.50400001928E-02 0.  1.
       -1    1    3    3    0  502  0.36826936776E+03 -0.37378107430E+03  0.20588806422E+03  0.56367057201E+03  0.50400001928E-02 0. -1.
</event>
<event>
 5   0  0.5620246E-05  0.1199224E+04  0.7818609E-02  0.9113536E-01
       -1   -1    0    0    0  501  0.00000000000E+00  0.00000000000E+00  0.46070827597E+03  0.46070827600E+03  0.50400001928E-02 0. -1.
        1   -1    0    0  501    0  0.00000000000E+00  0.00000000000E+00 -0.78039560505E+03  0.78039560506E+03  0.50400001928E-02 0.  1.
    10030    2    1    2    0    0  0.00000000000E+00  0.00000000000E+00 -0.31968732907E+03  0.12411038811E+04  0.11992242723E+04 0.  0.
        1    1    3    3  502    0 -0.29869880928E+03 -0.49985388781E+03 -0.11810613186E+02  0.58242113495E+03  0.50400001928E-02 0. -1.
       -1    1    3    3    0  502  0.29869880928E+03  0.49985388781E+03 -0.30787671589E+03  0.65868274612E+03  0.50400001928E-02 0.  1.
</event>
<event>
 5   0  0.5447807E-05  0.1200005E+04  0.7818609E-02  0.9112852E-01
        1   -1    0    0  501    0  0.00000000000E+00  0.00000000000E+00  0.74585603285E+03  0.74585603287E+03  0.50400001928E-02 0.  1.
       -1   -1    0    0    0  501  0.00000000000E+00  0.00000000000E+00 -0.48267120076E+03  0.48267120079E+03  0.50400001928E-02 0. -1.
    10030    2    1    2    0    0  0.00000000000E+00  0.00000000000E+00  0.26318483209E+03  0.12285272337E+04  0.12000053783E+04 0.  0.
        2    1    3    3  502    0 -0.59446156350E+03 -0.67614923722E+02  0.85274420078E+02  0.60434100896E+03  0.25500000920E-02 0. -1.
       -2    1    3    3    0  502  0.59446156350E+03  0.67614923722E+02  0.17791041201E+03  0.62418622469E+03  0.25500000920E-02 0.  1.
</event>
<event>
 5   0  0.5745487E-05  0.1199812E+04  0.7818609E-02  0.9113021E-01
       -1   -1    0    0    0  501  0.00000000000E+00  0.00000000000E+00  0.98069719221E+03  0.98069719222E+03  0.50400001928E-02 0.  1.
        1   -1    0    0  501    0  0.00000000000E+00  0.00000000000E+00 -0.36697051407E+03  0.36697051410E+03  0.50400001928E-02 0. -1.
    10030    2    1    2    0    0  0.00000000000E+00  0.00000000000E+00  0.61372667814E+03  0.13476677063E+04  0.11998115732E+04 0.  0.
        3    1    3    3  502    0 -0.12947206483E+03  0.32430828343E+03 -0.24104872507E+03  0.42431518513E+03  0.10100000352E+00 0. -1.
       -3    1    3    3    0  502  0.12947206483E+03 -0.32430828343E+03  0.85477540321E+03  0.92335252120E+03  0.10100000352E+00 0.  1.
</event>
<event>
 5   0  0.1012657E-04  0.1200064E+04  0.7818609E-02  0.9112800E-01
       -2   -1    0    0    0  501  0.00000000000E+00  0.00000000000E+00  0.44384915888E+03  0.44384915889E+03  0.25500000920E-02 0. -1.
        2   -1    0    0  501    0  0.00000000000E+00  0.00000000000E+00 -0.81117321079E+03  0.81117321080E+03  0.25500000920E-02 0.  1.
    10030    2    1    2    0    0  0.00000000000E+00  0.00000000000E+00 -0.36732405191E+03  0.12550223697E+04  0.12000642438E+04 0.  0.
        1    1    3    3  502    0 -0.20395615944E+03 -0.13104124492E+03  0.39035387497E+03  0.45950633355E+03  0.50400001928E-02 0. -1.
       -1    1    3    3    0  502  0.20395615944E+03  0.13104124492E+03 -0.75767792688E+03  0.79551603614E+03  0.50400001928E-02 0.  1.
</event>
<event>
 5   0  0.1023063E-04  0.1200192E+04  0.7818609E-02  0.9112688E-01
       -2   -1    0    0    0  501  0.00000000000E+00  0.00000000000E+00  0.18635590065E+03  0.18635590067E+03  0.25500000920E-02 0. -1.
        2   -1    0    0  501    0  0.00000000000E+00  0.00000000000E+00 -0.19324066973E+04  0.19324066973E+04  0.25500000920E-02 0.  1.
    10030    2    1    2    0    0  0.00000000000E+00  0.00000000000E+00 -0.17460507967E+04  0.21187625980E+04  0.12001923021E+04 0.  0.
        3    1    3    3  502    0 -0.10573335725E+03 -0.24200798390E+03 -0.18242998159E+04  0.18433169113E+04  0.10100000352E+00 0.  1.
       -3    1    3    3    0  502  0.10573335725E+03  0.24200798390E+03  0.78249019208E+02  0.27544568669E+03  0.10100000352E+00 0. -1.
</event>
<event>
 5   0  0.5745487E-05  0.1200320E+04  0.7818609E-02  0.9112577E-01
        1   -1    0    0  501    0  0.00000000000E+00  0.00000000000E+00  0.72811696453E+03  0.72811696454E+03  0.50400001928E-02 0.  1.
       -1   -1    0    0    0  501  0.00000000000E+00  0.00000000000E+00 -0.49468953602E+03  0.49468953604E+03  0.50400001928E-02 0. -1.
    10030    2    1    2    0    0  0.00000000000E+00  0.00000000000E+00  0.23342742851E+03  0.12228065006E+04  0.12003196964E+04 0.  0.
        3    1    3    3  502    0  0.26342471142E+02 -0.59840089550E+03  0.15502509805E+03  0.61871669506E+03  0.10100000352E+00 0.  1.
       -3    1    3    3    0  502 -0.26342471142E+02  0.59840089550E+03  0.78402330462E+02  0.60408980553E+03  0.10100000352E+00 0. -1.
</event>
<event>
 5   0  0.3839750E-05  0.1199968E+04  0.7818609E-02  0.9112884E-01
       -4   -1    0    0    0  501  0.00000000000E+00  0.00000000000E+00  0.43788614328E+03  0.43788798496E+03  0.12699999809E+01 0.  1.
        4   -1    0    0  501    0  0.00000000000E+00  0.00000000000E+00 -0.82208414753E+03  0.82208512851E+03  0.12699999809E+01 0. -1.
    10030    2    1    2    0    0  0.00000000000E+00  0.00000000000E+00 -0.38419800425E+03  0.12599731135E+04  0.11999683913E+04 0.  0.
        2    1    3    3  502    0 -0.83917178297E+02  0.99332619873E+02  0.42291370839E+03  0.44245346302E+03  0.25500000920E-02 0.  1.
       -2    1    3    3    0  502  0.83917178297E+02 -0.99332619873E+02 -0.80711171265E+03  0.81751965046E+03  0.25500000920E-02 0. -1.
</event>
<event>
 5   0  0.5732931E-05  0.1199973E+04  0.7818609E-02  0.9112881E-01
        1   -1    0    0  501    0  0.00000000000E+00  0.00000000000E+00  0.10534220407E+04  0.10534220407E+04  0.50400001928E-02 0. -1.
       -1   -1    0    0    0  501  0.00000000000E+00  0.00000000000E+00 -0.34172775849E+03  0.34172775853E+03  0.50400001928E-02 0.  1.
    10030    2    1    2    0    0  0.00000000000E+00  0.00000000000E+00  0.71169428223E+03  0.13951497993E+04  0.11999725876E+04 0.  0.
        4    1    3    3  502    0 -0.83095545813E+02  0.57524979479E+03  0.52894068627E+03  0.78587343677E+03  0.12699999809E+01 0. -1.
       -4    1    3    3    0  502  0.83095545813E+02 -0.57524979479E+03  0.18275359596E+03  0.60927636248E+03  0.12699999809E+01 0.  1.
</event>
<event>
 5   0  0.5447807E-05  0.1200006E+04  0.7818609E-02  0.9112851E-01
        1   -1    0    0  501    0  0.00000000000E+00  0.00000000000E+00  0.78704118905E+03  0.78704118907E+03  0.50400001928E-02 0. -1.
       -1   -1    0    0    0  501  0.00000000000E+00  0.00000000000E+00 -0.45741392739E+03  0.45741392742E+03  0.50400001928E-02 0.  1.
    10030    2    1    2    0    0  0.00000000000E+00  0.00000000000E+00  0.32962726166E+03  0.12444551165E+04  0.12000060022E+04 0.  0.
        2    1    3    3  502    0 -0.22049359613E+03 -0.50829759154E+03 -0.73975519863E+02  0.55897785738E+03  0.25500000920E-02 0.  1.
       -2    1    3    3    0  502  0.22049359613E+03  0.50829759154E+03  0.40360278152E+03  0.68547725911E+03  0.25500000920E-02 0. -1.
</event>
<event>
 5   0  0.5620246E-05  0.1200096E+04  0.7818609E-02  0.9112773E-01
        1   -1    0    0  501    0  0.00000000000E+00  0.00000000000E+00  0.98695090127E+03  0.98695090128E+03  0.50400001928E-02 0.  1.
       -1   -1    0    0    0  501  0.00000000000E+00  0.00000000000E+00 -0.36481788010E+03  0.36481788013E+03  0.50400001928E-02 0. -1.
    10030    2    1    2    0    0  0.00000000000E+00  0.00000000000E+00  0.62213302117E+03  0.13517687814E+04  0.12000955555E+04 0.  0.
        1    1    3    3  502    0  0.25445990055E+03 -0.28767044352E+03 -0.20823599684E+03  0.43688254195E+03  0.50400001928E-02 0. -1.
       -1    1    3    3    0  502 -0.25445990055E+03  0.28767044352E+03  0.83036901801E+03  0.91488623946E+03  0.50400001928E-02 0.  1.
</event>
<event>
 5   0  0.5625746E-05  0.1199564E+04  0.7818609E-02  0.9113238E-01
       -1   -1    0    0    0  501  0.00000000000E+00  0.00000000000E+00  0.49811970221E+03  0.49811970223E+03  0.50400001928E-02 0.  1.
        1   -1    0    0  501    0  0.00000000000E+00  0.00000000000E+00 -0.72219248159E+03  0.72219248161E+03  0.50400001928E-02 0. -1.
    10030    2    1    2    0    0  0.00000000000E+00  0.00000000000E+00 -0.22407277938E+03  0.12203121838E+04  0.11995637605E+04 0.  0.
        5    1    3    3  502    0  0.33876376439E+03 -0.20333448290E+03  0.34700051636E+03  0.52586809026E+03  0.46999998093E+01 0.  1.
       -5    1    3    3    0  502 -0.33876376439E+03  0.20333448290E+03 -0.57107329575E+03  0.69444409358E+03  0.46999998093E+01 0. -1.
</event>
<event>
 5   0  0.1004006E-04  0.1192584E+04  0.7818609E-02  0.9119372E-01
       -2   -1    0    0    0  501  0.00000000000E+00  0.00000000000E+00  0.24087262588E+03  0.24087262589E+03  0.25500000920E-02 0.  1.
        2   -1    0    0  501    0  0.00000000000E+00  0.00000000000E+00 -0.14761510742E+04  0.14761510742E+04  0.25500000920E-02 0. -1.
    10030    2    1    2    0    0  0.00000000000E+00  0.00000000000E+00 -0.12352784484E+04  0.17170237001E+04  0.11925843961E+04 0.  0.
        5    1    3    3  502    0  0.25226566813E+03  0.53781658833E+03 -0.54341670527E+03  0.80511393949E+03  0.46999998093E+01 0. -1.
       -5    1    3    3    0  502 -0.25226566813E+03 -0.53781658833E+03 -0.69186174309E+03  0.91190976064E+03  0.46999998093E+01 0.  1.
</event>
<event>
 5   0  0.9838215E-05  0.1200301E+04  0.7818609E-02  0.9112594E-01
       -2   -1    0    0    0  501  0.00000000000E+00  0.00000000000E+00  0.19744994962E+03  0.19744994964E+03  0.25500000920E-02 0.  1.
        2   -1    0    0  501    0  0.00000000000E+00  0.00000000000E+00 -0.18241601578E+04  0.18241601578E+04  0.25500000920E-02 0. -1.
    10030    2    1    2    0    0  0.00000000000E+00  0.00000000000E+00 -0.16267102082E+04  0.20216101075E+04  0.12003005145E+04 0.  0.
        4    1    3    3  502    0  0.12887760748E+03  0.39857471097E+03 -0.15372068898E+04  0.15932601398E+04  0.12699999809E+01 0. -1.
       -4    1    3    3    0  502 -0.12887760748E+03 -0.39857471097E+03 -0.89503318387E+02  0.42834996771E+03  0.12699999809E+01 0.  1.
</event>
<event>
 5   0  0.5625746E-05  0.1199899E+04  0.7818609E-02  0.9112945E-01
        1   -1    0    0  501    0  0.00000000000E+00  0.00000000000E+00  0.15842130324E+04  0.15842130324E+04  0.50400001928E-02 0. -1.
       -1   -1    0    0    0  501  0.00000000000E+00  0.00000000000E+00 -0.22720375688E+03  0.22720375693E+03  0.50400001928E-02 0.  1.
    10030    2    1    2    0    0  0.00000000000E+00  0.00000000000E+00  0.13570092755E+04  0.18114167893E+04  0.11998985836E+04 0.  0.
        5    1    3    3  502    0  0.26788720066E+03  0.42531404653E+03  0.11729242902E+04  0.12760991619E+04  0.46999998093E+01 0. -1.
       -5    1    3    3    0  502 -0.26788720066E+03 -0.42531404653E+03  0.18408498535E+03  0.53531762747E+03  0.46999998093E+01 0.  1.
</event>
<event>
 5   0  0.5625746E-05  0.1200382E+04  0.7818609E-02  0.9112522E-01
       -1   -1    0    0    0  501  0.00000000000E+00  0.00000000000E+00  0.30627133311E+03  0.30627133315E+03  0.50400001928E-02 0.  1.
        1   -1    0    0  501    0  0.00000000000E+00  0.00000000000E+00 -0.11761776410E+04  0.11761776411E+04  0.50400001928E-02 0. -1.
    10030    2    1    2    0    0  0.00000000000E+00  0.00000000000E+00 -0.86990630793E+03  0.14824489742E+04  0.12003824293E+04 0.  0.
        5    1    3    3  502    0  0.50561942888E+02  0.17322837782E+03 -0.11418571780E+04  0.11560382718E+04  0.46999998093E+01 0. -1.
       -5    1    3    3    0  502 -0.50561942888E+02 -0.17322837782E+03  0.27195087003E+03  0.32641070242E+03  0.46999998093E+01 0.  1.
</event>
<event>
 5   0  0.1012657E-04  0.1199657E+04  0.7818609E-02  0.9113157E-01
       -2   -1    0    0    0  501  0.00000000000E+00  0.00000000000E+00  0.64688487559E+03  0.64688487559E+03  0.25500000920E-02 0.  1.
        2   -1    0    0  501    0  0.00000000000E+00  0.00000000000E+00 -0.55619478213E+03  0.55619478213E+03  0.25500000920E-02 0. -1.
    10030    2    1    2    0    0  0.00000000000E+00  0.00000000000E+00  0.90690093463E+02  0.12030796577E+04  0.11996566049E+04 0.  0.
        1    1    3    3  502    0 -0.23100518628E+03  0.14829254116E+03  0.58019591721E+03  0.64185775388E+03  0.50400001928E-02 0.  1.
       -1    1    3    3    0  502  0.23100518628E+03 -0.14829254116E+03 -0.48950582374E+03  0.56122190384E+03  0.50400001928E-02 0. -1.
</event>
<event>
 5   0  0.9838215E-05  0.1200220E+04  0.7818609E-02  0.9112664E-01
        2   -1    0    0  501    0  0.00000000000E+00  0.00000000000E+00  0.72627119881E+03  0.72627119882E+03  0.25500000920E-02 0. -1.
       -2   -1    0    0    0  501  0.00000000000E+00  0.00000000000E+00 -0.49586468368E+03  0.49586468369E+03  0.25500000920E-02 0.  1.
    10030    2    1    2    0    0  0.00000000000E+00  0.00000000000E+00  0.23040651513E+03  0.12221358825E+04  0.12002203769E+04 0.  0.
        4    1    3    3  502    0 -0.57813986002E+02  0.48440529621E+03 -0.24066305963E+03  0.54397726895E+03  0.12699999809E+01 0.  1.
       -4    1    3    3    0  502  0.57813986002E+02 -0.48440529621E+03  0.47106957476E+03  0.67815861355E+03  0.12699999809E+01 0. -1.
</event>
<event>
 5   0  0.9838215E-05  0.1199010E+04  0.7818609E-02  0.9113723E-01
        2   -1    0    0  501    0  0.00000000000E+00  0.00000000000E+00  0.59545643417E+03  0.59545643418E+03  0.25500000920E-02 0.  1.
       -2   -1    0    0    0  501  0.00000000000E+00  0.00000000000E+00 -0.60358125984E+03  0.60358125985E+03  0.25500000920E-02 0. -1.
    10030    2    1    2    0    0  0.00000000000E+00  0.00000000000E+00 -0.81248256719E+01  0.11990376940E+04  0.11990101663E+04 0.  0.
        4    1    3    3  502    0 -0.11355677130E+03  0.18697349866E+03  0.55411749371E+03  0.59573655188E+03  0.12699999809E+01 0.  1.
       -4    1    3    3    0  502  0.11355677130E+03 -0.18697349866E+03 -0.56224231938E+03  0.60330114215E+03  0.12699999809E+01 0. -1.
</event>
<event>
 5   0  0.5732931E-05  0.1200308E+04  0.7818609E-02  0.9112587E-01
       -1   -1    0    0    0  501  0.00000000000E+00  0.00000000000E+00  0.26489535415E+03  0.26489535419E+03  0.50400001928E-02 0. -1.
        1   -1    0    0  501    0  0.00000000000E+00  0.00000000000E+00 -0.13597250539E+04  0.13597250539E+04  0.50400001928E-02 0.  1.
    10030    2    1    2    0    0  0.00000000000E+00  0.00000000000E+00 -0.10948296998E+04  0.16246204081E+04  0.12003080434E+04 0.  0.
        4    1    3    3  502    0  0.52987039013E+03 -0.23613540917E+03 -0.75561102835E+03  0.95261335330E+03  0.12699999809E+01 0.  1.
       -4    1    3    3    0  502 -0.52987039013E+03  0.23613540917E+03 -0.33921867143E+03  0.67200705484E+03  0.12699999809E+01 0. -1.
</event>
<event>
 5   0  0.5745487E-05  0.1199756E+04  0.7818609E-02  0.9113070E-01
        1   -1    0    0  501    0  0.00000000000E+00  0.00000000000E+00  0.29498041073E+03  0.29498041078E+03  0.50400001928E-02 0. -1.
       -1   -1    0    0    0  501  0.00000000000E+00  0.00000000000E+00 -0.12199245064E+04  0.12199245064E+04  0.50400001928E-02 0.  1.
    10030    2    1    2    0    0  0.00000000000E+00  0.00000000000E+00 -0.92494409564E+03  0.15149049172E+04  0.11997563619E+04 0.  0.
        3    1    3    3  502    0  0.48057650401E+03  0.94333270548E+02 -0.25065527846E+02  0.49038845115E+03  0.10100000352E+00 0. -1.
       -3    1    3    3    0  502 -0.48057650401E+03 -0.94333270548E+02 -0.89987856779E+03  0.10245164660E+04  0.10100000352E+00 0.  1.
</event>
<event>
 5   0  0.5745487E-05  0.1199936E+04  0.7818609E-02  0.9112913E-01
        1   -1    0    0  501    0  0.00000000000E+00  0.00000000000E+00  0.13006929254E+04  0.13006929254E+04  0.50400001928E-02 0. -1.
       -1   -1    0    0    0  501  0.00000000000E+00  0.00000000000E+00 -0.27674593325E+03  0.27674593330E+03  0.50400001928E-02 0.  1.
    10030    2    1    2    0    0  0.00000000000E+00  0.00000000000E+00  0.10239469921E+04  0.15774388587E+04  0.11999357942E+04 0.  0.
        3    1    3    3  502    0 -0.35977285045E+03 -0.46758705178E+03  0.36864373880E+03  0.69568122820E+03  0.10100000352E+00 0. -1.
       -3    1    3    3    0  502  0.35977285045E+03  0.46758705178E+03  0.65530325334E+03  0.88175763050E+03  0.10100000352E+00 0.  1.
</event>
<event>
 5   0  0.9838215E-05  0.1200015E+04  0.7818609E-02  0.9112843E-01
       -2   -1    0    0    0  501  0.00000000000E+00  0.00000000000E+00  0.30194353829E+03  0.30194353830E+03  0.25500000920E-02 0. -1.
        2   -1    0    0  501    0  0.00000000000E+00  0.00000000000E+00 -0.11923064429E+04  0.11923064429E+04  0.25500000920E-02 0.  1.
    10030    2    1    2    0    0  0.00000000000E+00  0.00000000000E+00 -0.89036290460E+03  0.14942499812E+04  0.12000153767E+04 0.  0.
        4    1    3    3  502    0  0.63633112265E+02 -0.25102785738E+03 -0.11191324921E+04  0.11487050561E+04  0.12699999809E+01 0.  1.
       -4    1    3    3    0  502 -0.63633112265E+02  0.25102785738E+03  0.22876958753E+03  0.34554492505E+03  0.12699999809E+01 0. -1.
</event>
<event>
 5   0  0.5732931E-05  0.1200942E+04  0.7818609E-02  0.9112032E-01
        1   -1    0    0  501    0  0.00000000000E+00  0.00000000000E+00  0.62795473477E+03  0.62795473479E+03  0.50400001928E-02 0. -1.
       -1   -1    0    0    0  501  0.00000000000E+00  0.00000000000E+00 -0.57419017668E+03  0.57419017670E+03  0.50400001928E-02 0.  1.
    10030    2    1    2    0    0  0.00000000000E+00  0.00000000000E+00  0.53764558094E+02  0.12021449115E+04  0.12009420305E+04 0.  0.
        4    1    3    3  502    0  0.53312815789E+03 -0.27417979419E+03 -0.72639819711E+01  0.59954530322E+03  0.12699999809E+01 0. -1.
       -4    1    3    3    0  502 -0.53312815789E+03  0.27417979419E+03  0.61028540065E+02  0.60259960827E+03  0.12699999809E+01 0.  1.
</event>
<event>
 5   0  0.1012657E-04  0.1199733E+04  0.7818609E-02  0.9113091E-01
       -2   -1    0    0    0  501  0.00000000000E+00  0.00000000000E+00  0.10214170204E+04  0.10214170204E+04  0.25500000920E-02 0. -1.
        2   -1    0    0  501    0  0.00000000000E+00  0.00000000000E+00 -0.35229451522E+03  0.35229451522E+03  0.25500000920E-02 0.  1.
    10030    2    1    2    0    0  0.00000000000E+00  0.00000000000E+00  0.66912250523E+03  0.13737115357E+04  0.11997326603E+04 0.  0.
        1    1    3    3  502    0  0.49280427445E+03 -0.23900643633E+01  0.72617946304E+03  0.87760946776E+03  0.50400001928E-02 0. -1.
       -1    1    3    3    0  502 -0.49280427445E+03  0.23900643633E+01 -0.57056957818E+02  0.49610206791E+03  0.50400001928E-02 0.  1.
</event>
<event>
 5   0  0.5625746E-05  0.1200017E+04  0.7818609E-02  0.9112842E-01
        1   -1    0    0  501    0  0.00000000000E+00  0.00000000000E+00  0.96895636490E+03  0.96895636491E+03  0.50400001928E-02 0. -1.
       -1   -1    0    0    0  501  0.00000000000E+00  0.00000000000E+00 -0.37154415731E+03  0.37154415735E+03  0.50400001928E-02 0.  1.
    10030    2    1    2    0    0  0.00000000000E+00  0.00000000000E+00  0.59741220758E+03  0.13405005223E+04  0.12000167934E+04 0.  0.
        5    1    3    3  502    0  0.29369632164E+03  0.36371633003E+03 -0.12140789296E+03  0.48302077030E+03  0.46999998093E+01 0.  1.
       -5    1    3    3    0  502 -0.29369632164E+03 -0.36371633003E+03  0.71882010054E+03  0.85747975195E+03  0.46999998093E+01 0. -1.
</event>
<event>
 5   0  0.1023063E-04  0.1199713E+04  0.7818609E-02  0.9113108E-01
       -2   -1    0    0    0  501  0.00000000000E+00  0.00000000000E+00  0.24403642050E+03  0.24403642052E+03  0.25500000920E-02 0.  1.
        2   -1    0    0  501    0  0.00000000000E+00  0.00000000000E+00 -0.14744834889E+04  0.14744834889E+04  0.25500000920E-02 0. -1.
    10030    2    1    2    0    0  0.00000000000E+00  0.00000000000E+00 -0.12304470684E+04  0.17185199094E+04  0.11997127535E+04 0.  0.
        3    1    3    3  502    0 -0.56440367246E+03  0.15269064043E+03 -0.80720147025E+03  0.99671468382E+03  0.10100000352E+00 0. -1.
       -3    1    3    3    0  502  0.56440367246E+03 -0.15269064043E+03 -0.42324559817E+03  0.72180522562E+03  0.10100000352E+00 0.  1.
</event>
<event>
 5   0  0.1012657E-04  0.1200117E+04  0.7818609E-02  0.9112754E-01
       -2   -1    0    0    0  501  0.00000000000E+00  0.00000000000E+00  0.26703087049E+03  0.26703087050E+03  0.25500000920E-02 0. -1.
        2   -1    0    0  501    0  0.00000000000E+00  0.00000000000E+00 -0.13484207779E+04  0.13484207779E+04  0.25500000920E-02 0.  1.
    10030    2    1    2    0    0  0.00000000000E+00  0.00000000000E+00 -0.10813899075E+04  0.16154516485E+04  0.12001166179E+04 0.  0.
        1    1    3    3  502    0 -0.50052849077E+03  0.22412305701E+03 -0.86851438593E+03  0.10271694862E+04  0.50400001928E-02 0.  1.
       -1    1    3    3    0  502  0.50052849077E+03 -0.22412305701E+03 -0.21287552152E+03  0.58828216227E+03  0.50400001928E-02 0. -1.
</event>
<event>
 5   0  0.5625746E-05  0.1199943E+04  0.7818609E-02  0.9112906E-01
        1   -1    0    0  501    0  0.00000000000E+00  0.00000000000E+00  0.54810059210E+03  0.54810059212E+03  0.50400001928E-02 0.  1.
       -1   -1    0    0    0  501  0.00000000000E+00  0.00000000000E+00 -0.65675169762E+03  0.65675169764E+03  0.50400001928E-02 0. -1.
    10030    2    1    2    0    0  0.00000000000E+00  0.00000000000E+00 -0.10865110552E+03  0.12048522898E+04  0.11999433226E+04 0.  0.
        5    1    3    3  502    0 -0.14750293006E+03  0.56963700863E+03 -0.17185340002E+03  0.61302456482E+03  0.46999998093E+01 0.  1.
       -5    1    3    3    0  502  0.14750293006E+03 -0.56963700863E+03  0.63202294504E+02  0.59182772494E+03  0.46999998093E+01 0. -1.
</event>
<event>
 5   0  0.5447807E-05  0.1201054E+04  0.7818609E-02  0.9111935E-01
        1   -1    0    0  501    0  0.00000000000E+00  0.00000000000E+00  0.16076286856E+04  0.16076286856E+04  0.50400001928E-02 0. -1.
       -1   -1    0    0    0  501  0.00000000000E+00  0.00000000000E+00 -0.22432569132E+03  0.22432569137E+03  0.50400001928E-02 0.  1.
    10030    2    1    2    0    0  0.00000000000E+00  0.00000000000E+00  0.13833029943E+04  0.18319543770E+04  0.12010535647E+04 0.  0.
        2    1    3    3  502    0 -0.33642950427E+03  0.14325865800E+02 -0.66775406357E+02  0.34329141654E+03  0.25500000920E-02 0.  1.
       -2    1    3    3    0  502  0.33642950427E+03 -0.14325865800E+02  0.14500784007E+04  0.14886629605E+04  0.25500000920E-02 0. -1.
</event>
<event>
 5   0  0.9941209E-05  0.1200070E+04  0.7818609E-02  0.9112795E-01
        2   -1    0    0  501    0  0.00000000000E+00  0.00000000000E+00  0.34169176115E+03  0.34169176116E+03  0.25500000920E-02 0.  1.
       -2   -1    0    0    0  501  0.00000000000E+00  0.00000000000E+00 -0.10537037000E+04  0.10537037000E+04  0.25500000920E-02 0. -1.
    10030    2    1    2    0    0  0.00000000000E+00  0.00000000000E+00 -0.71201193881E+03  0.13953954611E+04  0.12000697863E+04 0.  0.
        2    1    3    3  502    0  0.10157457344E+03 -0.52966003260E+03 -0.50164813911E+02  0.54163978128E+03  0.25500000920E-02 0.  1.
       -2    1    3    3    0  502 -0.10157457344E+03  0.52966003260E+03 -0.66184712490E+03  0.85375567984E+03  0.25500000920E-02 0. -1.
</event>
<event>
 5   0  0.9941209E-05  0.1199989E+04  0.7818609E-02  0.9112866E-01
       -2   -1    0    0    0  501  0.00000000000E+00  0.00000000000E+00  0.54340883001E+03  0.54340883002E+03  0.25500000920E-02 0. -1.
        2   -1    0    0  501    0  0.00000000000E+00  0.00000000000E+00 -0.66247242312E+03  0.66247242312E+03  0.25500000920E-02 0.  1.
    10030    2    1    2    0    0  0.00000000000E+00  0.00000000000E+00 -0.11906359310E+03  0.12058812531E+04  0.11999889406E+04 0.  0.
        2    1    3    3  502    0  0.29424576781E+03 -0.17801399622E+02 -0.58468363750E+03  0.65479188883E+03  0.25500000920E-02 0.  1.
       -2    1    3    3    0  502 -0.29424576781E+03  0.17801399622E+02  0.46562004440E+03  0.55108936431E+03  0.25500000920E-02 0. -1.
</event>
<event>
 5   0  0.5745487E-05  0.1201339E+04  0.7818609E-02  0.9111685E-01
       -1   -1    0    0    0  501  0.00000000000E+00  0.00000000000E+00  0.54978173000E+03  0.54978173002E+03  0.50400001928E-02 0. -1.
        1   -1    0    0  501    0  0.00000000000E+00  0.00000000000E+00 -0.65626791995E+03  0.65626791997E+03  0.50400001928E-02 0.  1.
    10030    2    1    2    0    0  0.00000000000E+00  0.00000000000E+00 -0.10648618995E+03  0.12060496500E+04  0.12013394398E+04 0.  0.
        3    1    3    3  502    0  0.30481943018E+03  0.32303755714E+03  0.35273824817E+03  0.56717936339E+03  0.10100000352E+00 0. -1.
       -3    1    3    3    0  502 -0.30481943018E+03 -0.32303755714E+03 -0.45922443812E+03  0.63887028660E+03  0.10100000352E+00 0.  1.
</event>
<event>
 5   0  0.5447807E-05  0.1200270E+04  0.7818609E-02  0.9112620E-01
        1   -1    0    0  501    0  0.00000000000E+00  0.00000000000E+00  0.41255807003E+03  0.41255807006E+03  0.50400001928E-02 0. -1.
       -1   -1    0    0    0  501  0.00000000000E+00  0.00000000000E+00 -0.87299708080E+03  0.87299708082E+03  0.50400001928E-02 0.  1.
    10030    2    1    2    0    0  0.00000000000E+00  0.00000000000E+00 -0.46043901077E+03  0.12855551509E+04  0.12002699544E+04 0.  0.
        2    1    3    3  502    0  0.48139807657E+03  0.76325616469E+02  0.14479092258E+03  0.50846250513E+03  0.25500000920E-02 0. -1.
       -2    1    3    3    0  502 -0.48139807657E+03 -0.76325616469E+02 -0.60522993335E+03  0.77709264575E+03  0.25500000920E-02 0.  1.
</event>
<event>
 5   0  0.1012657E-04  0.1198910E+04  0.7818609E-02  0.9113812E-01
        2   -1    0    0  501    0  0.00000000000E+00  0.00000000000E+00  0.49356482941E+03  0.49356482942E+03  0.25500000920E-02 0. -1.
       -2   -1    0    0    0  501  0.00000000000E+00  0.00000000000E+00 -0.72806245055E+03  0.72806245055E+03  0.25500000920E-02 0.  1.
    10030    2    1    2    0    0  0.00000000000E+00  0.00000000000E+00 -0.23449762114E+03  0.12216272800E+04  0.11989095366E+04 0.  0.
        1    1    3    3  502    0 -0.33014541617E+03  0.50623342147E+01 -0.62705358236E+03  0.70867328031E+03  0.50400001928E-02 0.  1.
       -1    1    3    3    0  502  0.33014541617E+03 -0.50623342147E+01  0.39255596123E+03  0.51295399966E+03  0.50400001928E-02 0. -1.
</event>
<event>
 5   0  0.5732931E-05  0.1200033E+04  0.7818609E-02  0.9112828E-01
        1   -1    0    0  501    0  0.00000000000E+00  0.00000000000E+00  0.79788537866E+03  0.79788537867E+03  0.50400001928E-02 0. -1.
       -1   -1    0    0    0  501  0.00000000000E+00  0.00000000000E+00 -0.45121733842E+03  0.45121733844E+03  0.50400001928E-02 0.  1.
    10030    2    1    2    0    0  0.00000000000E+00  0.00000000000E+00  0.34666804024E+03  0.12491027171E+04  0.12000328611E+04 0.  0.
        4    1    3    3  502    0  0.12025347032E+03  0.42952698761E+03  0.59107198794E+03  0.74048770283E+03  0.12699999809E+01 0. -1.
       -4    1    3    3    0  502 -0.12025347032E+03 -0.42952698761E+03 -0.24440394770E+03  0.50861501429E+03  0.12699999809E+01 0.  1.
</event>
<event>
 5   0  0.1012657E-04  0.1200063E+04  0.7818609E-02  0.9112801E-01
       -2   -1    0    0    0  501  0.00000000000E+00  0.00000000000E+00  0.24945767297E+03  0.24945767299E+03  0.25500000920E-02 0.  1.
        2   -1    0    0  501    0  0.00000000000E+00  0.00000000000E+00 -0.14432821217E+04  0.14432821217E+04  0.25500000920E-02 0. -1.
    10030    2    1    2    0    0  0.00000000000E+00  0.00000000000E+00 -0.11938244487E+04  0.16927397946E+04  0.12000629976E+04 0.  0.
        1    1    3    3  502    0  0.42705515238E+03 -0.31755529743E+03 -0.98786494672E+03  0.11220938566E+04  0.50400001928E-02 0. -1.
       -1    1    3    3    0  502 -0.42705515238E+03  0.31755529743E+03 -0.20595950196E+03  0.57064593802E+03  0.50400001928E-02 0.  1.
</event>
<event>
 5   0  0.5620246E-05  0.1205385E+04  0.7818609E-02  0.9108156E-01
        1   -1    0    0  501    0  0.00000000000E+00  0.00000000000E+00  0.60093788902E+03  0.60093788904E+03  0.50400001928E-02 0. -1.
       -1   -1    0    0    0  501  0.00000000000E+00  0.00000000000E+00 -0.60445249168E+03  0.60445249170E+03  0.50400001928E-02 0.  1.
    10030    2    1    2    0    0  0.00000000000E+00  0.00000000000E+00 -0.35146026532E+01  0.12053903807E+04  0.12053852569E+04 0.  0.
        1    1    3    3  502    0 -0.41690748938E+03 -0.13995029390E+03  0.41036150292E+03  0.60149355987E+03  0.50400001928E-02 0. -1.
       -1    1    3    3    0  502  0.41690748938E+03  0.13995029390E+03 -0.41387610557E+03  0.60389682087E+03  0.50400001928E-02 0.  1.
</event>
<event>
 5   0  0.9838215E-05  0.1199740E+04  0.7818609E-02  0.9113084E-01
        2   -1    0    0  501    0  0.00000000000E+00  0.00000000000E+00  0.71530321934E+03  0.71530321934E+03  0.25500000920E-02 0.  1.
       -2   -1    0    0    0  501  0.00000000000E+00  0.00000000000E+00 -0.50306515655E+03  0.50306515656E+03  0.25500000920E-02 0. -1.
    10030    2    1    2    0    0  0.00000000000E+00  0.00000000000E+00  0.21223806278E+03  0.12183683759E+04  0.11997401819E+04 0.  0.
        4    1    3    3  502    0  0.13540187086E+03  0.28342219301E+03 -0.41287451787E+03  0.51877623936E+03  0.12699999809E+01 0. -1.
       -4    1    3    3    0  502 -0.13540187086E+03 -0.28342219301E+03  0.62511258065E+03  0.69959213654E+03  0.12699999809E+01 0.  1.
</event>
<event>
 5   0  0.5625746E-05  0.1199947E+04  0.7818609E-02  0.9112903E-01
       -1   -1    0    0    0  501  0.00000000000E+00  0.00000000000E+00  0.49396230828E+03  0.49396230831E+03  0.50400001928E-02 0.  1.
        1   -1    0    0  501    0  0.00000000000E+00  0.00000000000E+00 -0.72873601044E+03  0.72873601046E+03  0.50400001928E-02 0. -1.
    10030    2    1    2    0    0  0.00000000000E+00  0.00000000000E+00 -0.23477370216E+03  0.12226983188E+04  0.11999468686E+04 0.  0.
        5    1    3    3  502    0  0.11243227974E+03  0.50566440111E+03  0.19102087570E+03  0.55213093467E+03  0.46999998093E+01 0.  1.
       -5    1    3    3    0  502 -0.11243227974E+03 -0.50566440111E+03 -0.42579457785E+03  0.67056738409E+03  0.46999998093E+01 0. -1.
</event>
<event>
 5   0  0.1023063E-04  0.1200200E+04  0.7818609E-02  0.9112682E-01
        2   -1    0    0  501    0  0.00000000000E+00  0.00000000000E+00  0.73884724929E+03  0.73884724929E+03  0.25500000920E-02 0.  1.
       -2   -1    0    0    0  501  0.00000000000E+00  0.00000000000E+00 -0.48740760629E+03  0.48740760630E+03  0.25500000920E-02 0. -1.
    10030    2    1    2    0    0  0.00000000000E+00  0.00000000000E+00  0.25143964300E+03  0.12262548556E+04  0.12001995987E+04 0.  0.
        3    1    3    3  502    0  0.24347186216E+02  0.15862811018E+03  0.71651518904E+03  0.73426813164E+03  0.10100000352E+00 0.  1.
       -3    1    3    3    0  502 -0.24347186216E+02 -0.15862811018E+03 -0.46507554604E+03  0.49198672395E+03  0.10100000352E+00 0. -1.
</event>
<event>
 5   0  0.9941209E-05  0.1200151E+04  0.7818609E-02  0.9112725E-01
       -2   -1    0    0    0  501  0.00000000000E+00  0.00000000000E+00  0.24802169702E+03  0.24802169703E+03  0.25500000920E-02 0.  1.
        2   -1    0    0  501    0  0.00000000000E+00  0.00000000000E+00 -0.14518508357E+04  0.14518508357E+04  0.25500000920E-02 0. -1.
    10030    2    1    2    0    0  0.00000000000E+00  0.00000000000E+00 -0.12038291386E+04  0.16998725327E+04  0.12001508373E+04 0.  0.
        2    1    3    3  502    0  0.89512716821E+02  0.13158173161E+03  0.21758748590E+03  0.26957483672E+03  0.25500000920E-02 0.  1.
       -2    1    3    3    0  502 -0.89512716821E+02 -0.13158173161E+03 -0.14214166245E+04  0.14302976960E+04  0.25500000920E-02 0. -1.
</event>
<event>
 5   0  0.1012657E-04  0.1201151E+04  0.7818609E-02  0.9111850E-01
       -2   -1    0    0    0  501  0.00000000000E+00  0.00000000000E+00  0.26506818413E+03  0.26506818414E+03  0.25500000920E-02 0. -1.
        2   -1    0    0  501    0  0.00000000000E+00  0.00000000000E+00 -0.13607479771E+04  0.13607479771E+04  0.25500000920E-02 0.  1.
    10030    2    1    2    0    0  0.00000000000E+00  0.00000000000E+00 -0.10956797930E+04  0.16258161612E+04  0.12011511068E+04 0.  0.
        1    1    3    3  502    0  0.11549533613E+03 -0.98241389503E+01  0.24978414830E+03  0.27536849337E+03  0.50400001928E-02 0. -1.
       -1    1    3    3    0  502 -0.11549533613E+03  0.98241389503E+01 -0.13454639413E+04  0.13504476679E+04  0.50400001928E-02 0.  1.
</event>
<event>
 5   0  0.5447807E-05  0.1200087E+04  0.7818609E-02  0.9112780E-01
        1   -1    0    0  501    0  0.00000000000E+00  0.00000000000E+00  0.30166867092E+03  0.30166867096E+03  0.50400001928E-02 0. -1.
       -1   -1    0    0    0  501  0.00000000000E+00  0.00000000000E+00 -0.11935353060E+04  0.11935353060E+04  0.50400001928E-02 0.  1.
    10030    2    1    2    0    0  0.00000000000E+00  0.00000000000E+00 -0.89186663504E+03  0.14952039769E+04  0.12000870127E+04 0.  0.
        2    1    3    3  502    0  0.34991538637E+02  0.28414243333E+03 -0.11029570852E+04  0.11395067625E+04  0.25500000920E-02 0.  1.
       -2    1    3    3    0  502 -0.34991538637E+02 -0.28414243333E+03  0.21109045011E+03  0.35569721440E+03  0.25500000920E-02 0. -1.
</event>
<event>
 5   0  0.9941209E-05  0.1199709E+04  0.7818609E-02  0.9113111E-01
        2   -1    0    0  501    0  0.00000000000E+00  0.00000000000E+00  0.86517222426E+03  0.86517222426E+03  0.25500000920E-02 0.  1.
       -2   -1    0    0    0  501  0.00000000000E+00  0.00000000000E+00 -0.41590043086E+03  0.41590043087E+03  0.25500000920E-02 0. -1.
    10030    2    1    2    0    0  0.00000000000E+00  0.00000000000E+00  0.44927179340E+03  0.12810726551E+04  0.11997091328E+04 0.  0.
        2    1    3    3  502    0 -0.56603199910E+03  0.17501101356E+03  0.12444039584E+03  0.60539779567E+03  0.25500000920E-02 0.  1.
       -2    1    3    3    0  502  0.56603199910E+03 -0.17501101356E+03  0.32483139755E+03  0.67567485947E+03  0.25500000920E-02 0. -1.
</event>
<event>
 5   0  0.5745487E-05  0.1201229E+04  0.7818609E-02  0.9111782E-01
        1   -1    0    0  501    0  0.00000000000E+00  0.00000000000E+00  0.77448329353E+03  0.77448329355E+03  0.50400001928E-02 0. -1.
       -1   -1    0    0    0  501  0.00000000000E+00  0.00000000000E+00 -0.46577840321E+03  0.46577840323E+03  0.50400001928E-02 0.  1.
    10030    2    1    2    0    0  0.00000000000E+00  0.00000000000E+00  0.30870489032E+03  0.12402616968E+04  0.12012286906E+04 0.  0.
        3    1    3    3  502    0  0.20042638130E+03 -0.18107484322E+03  0.70823411742E+03  0.75799367309E+03  0.10100000352E+00 0. -1.
       -3    1    3    3    0  502 -0.20042638130E+03  0.18107484322E+03 -0.39952922709E+03  0.48226802369E+03  0.10100000352E+00 0.  1.
</event>
<event>
 5   0  0.5732931E-05  0.1200145E+04  0.7818609E-02  0.9112729E-01
        1   -1    0    0  501    0  0.00000000000E+00  0.00000000000E+00  0.72316568174E+03  0.72316568176E+03  0.50400001928E-02 0. -1.
       -1   -1    0    0    0  501  0.00000000000E+00  0.00000000000E+00 -0.49793183144E+03  0.49793183146E+03  0.50400001928E-02 0.  1.
    10030    2    1    2    0    0  0.00000000000E+00  0.00000000000E+00  0.22523385030E+03  0.12210975132E+04  0.12001453451E+04 0.  0.
        4    1    3    3  502    0  0.53373689519E+03 -0.27412998067E+03  0.12071066628E+03  0.61204166316E+03  0.12699999809E+01 0. -1.
       -4    1    3    3    0  502 -0.53373689519E+03  0.27412998067E+03  0.10452318402E+03  0.60905585006E+03  0.12699999809E+01 0.  1.
</event>
<event>
 5   0  0.5447807E-05  0.1200326E+04  0.7818609E-02  0.9112572E-01
        1   -1    0    0  501    0  0.00000000000E+00  0.00000000000E+00  0.51780859288E+03  0.51780859290E+03  0.50400001928E-02 0. -1.
       -1   -1    0    0    0  501  0.00000000000E+00  0.00000000000E+00 -0.69561493985E+03  0.69561493987E+03  0.50400001928E-02 0.  1.
    10030    2    1    2    0    0  0.00000000000E+00  0.00000000000E+00 -0.17780634697E+03  0.12134235328E+04  0.12003256112E+04 0.  0.
        2    1    3    3  502    0 -0.34302465396E+03 -0.49139479073E+03 -0.12182601158E+03  0.61153604201E+03  0.25500000920E-02 0. -1.
       -2    1    3    3    0  502  0.34302465396E+03  0.49139479073E+03 -0.55980335400E+02  0.60188749076E+03  0.25500000920E-02 0.  1.
</event>
<event>
 5   0  0.5625746E-05  0.1200218E+04  0.7818609E-02  0.9112666E-01
        1   -1    0    0  501    0  0.00000000000E+00  0.00000000000E+00  0.11396506519E+04  0.11396506520E+04  0.50400001928E-02 0.  1.
       -1   -1    0    0    0  501  0.00000000000E+00  0.00000000000E+00 -0.31600105793E+03  0.31600105797E+03  0.50400001928E-02 0. -1.
    10030    2    1    2    0    0  0.00000000000E+00  0.00000000000E+00  0.82364959401E+03  0.14556517099E+04  0.12002179997E+04 0.  0.
        5    1    3    3  502    0 -0.23712269076E+03 -0.54800061878E+03  0.48436004550E+03  0.76886838427E+03  0.46999998093E+01 0. -1.
       -5    1    3    3    0  502  0.23712269076E+03  0.54800061878E+03  0.33928954851E+03  0.68678332564E+03  0.46999998093E+01 0.  1.
</event>
<event>
 5   0  0.1012657E-04  0.1199692E+04  0.7818609E-02  0.9113126E-01
       -2   -1    0    0    0  501  0.00000000000E+00  0.00000000000E+00  0.51671782304E+03  0.51671782304E+03  0.25500000920E-02 0. -1.
        2   -1    0    0  501    0  0.00000000000E+00  0.00000000000E+00 -0.69634765360E+03  0.69634765360E+03  0.25500000920E-02 0.  1.
    10030    2    1    2    0    0  0.00000000000E+00  0.00000000000E+00 -0.17962983056E+03  0.12130654766E+04  0.11996920332E+04 0.  0.
        1    1    3    3  502    0 -0.51870166847E+03 -0.29870189925E+03 -0.12950806154E+03  0.61241046980E+03  0.50400001928E-02 0. -1.
       -1    1    3    3    0  502  0.51870166847E+03  0.29870189925E+03 -0.50121769020E+02  0.60065500684E+03  0.50400001928E-02 0.  1.
</event>
<event>
 5   0  0.9838215E-05  0.1200300E+04  0.7818609E-02  0.9112594E-01
        2   -1    0    0  501    0  0.00000000000E+00  0.00000000000E+00  0.82905052605E+03  0.82905052605E+03  0.25500000920E-02 0. -1.
       -2   -1    0    0    0  501  0.00000000000E+00  0.00000000000E+00 -0.43444914801E+03  0.43444914801E+03  0.25500000920E-02 0.  1.
    10030    2    1    2    0    0  0.00000000000E+00  0.00000000000E+00  0.39460137804E+03  0.12634996741E+04  0.12003004536E+04 0.  0.
        4    1    3    3  502    0  0.31562172926E+03  0.50764165262E+03  0.25361081078E+03  0.64933595288E+03  0.12699999809E+01 0. -1.
       -4    1    3    3    0  502 -0.31562172926E+03 -0.50764165262E+03  0.14099056726E+03  0.61416372118E+03  0.12699999809E+01 0.  1.
</event>
<event>
 5   0  0.1023063E-04  0.1200506E+04  0.7818609E-02  0.9112413E-01
       -2   -1    0    0    0  501  0.00000000000E+00  0.00000000000E+00  0.17560428748E+03  0.17560428750E+03  0.25500000920E-02 0. -1.
        2   -1    0    0  501    0  0.00000000000E+00  0.00000000000E+00 -0.20517947446E+04  0.20517947446E+04  0.25500000920E-02 0.  1.
    10030    2    1    2    0    0  0.00000000000E+00  0.00000000000E+00 -0.18761904571E+04  0.22273990321E+04  0.12005064834E+04 0.  0.
        3    1    3    3  502    0 -0.12408403454E+03  0.79176152220E+01  0.15144961714E+03  0.19595033297E+03  0.10100000352E+00 0. -1.
       -3    1    3    3    0  502  0.12408403454E+03 -0.79176152220E+01 -0.20276400742E+04  0.20314486991E+04  0.10100000352E+00 0.  1.
</event>
<event>
 5   0  0.5447807E-05  0.1203450E+04  0.7818609E-02  0.9109842E-01
       -1   -1    0    0    0  501  0.00000000000E+00  0.00000000000E+00  0.36401881814E+03  0.36401881817E+03  0.50400001928E-02 0. -1.
        1   -1    0    0  501    0  0.00000000000E+00  0.00000000000E+00 -0.99465511239E+03  0.99465511240E+03  0.50400001928E-02 0.  1.
    10030    2    1    2    0    0  0.00000000000E+00  0.00000000000E+00 -0.63063629425E+03  0.13586739306E+04  0.12034503372E+04 0.  0.
        2    1    3    3  502    0  0.17933824088E+03 -0.35290368576E+03 -0.82694759284E+03  0.91681270572E+03  0.25500000920E-02 0.  1.
       -2    1    3    3    0  502 -0.17933824088E+03  0.35290368576E+03  0.19631129859E+03  0.44186122485E+03  0.25500000920E-02 0. -1.
</event>
<event>
 5   0  0.3839750E-05  0.1200166E+04  0.7818609E-02  0.9112711E-01
       -4   -1    0    0    0  501  0.00000000000E+00  0.00000000000E+00  0.57893736160E+03  0.57893875458E+03  0.12699999809E+01 0.  1.
        4   -1    0    0  501    0  0.00000000000E+00  0.00000000000E+00 -0.62199802569E+03  0.62199932224E+03  0.12699999809E+01 0. -1.
    10030    2    1    2    0    0  0.00000000000E+00  0.00000000000E+00 -0.43060664094E+02  0.12009380768E+04  0.12001658400E+04 0.  0.
        1    1    3    3  502    0 -0.29198492273E+01 -0.49007437425E+03 -0.36804506955E+03  0.61289362133E+03  0.50400001928E-02 0. -1.
       -1    1    3    3    0  502  0.29198492273E+01  0.49007437425E+03  0.32498440546E+03  0.58804445549E+03  0.50400001928E-02 0.  1.
</event>
<event>
 5   0  0.3839750E-05  0.1200286E+04  0.7818609E-02  0.9112606E-01
        3   -1    0    0  501    0  0.00000000000E+00  0.00000000000E+00  0.10876782649E+04  0.10876782696E+04  0.10100000352E+00 0.  1.
       -3   -1    0    0    0  501  0.00000000000E+00  0.00000000000E+00 -0.33113784477E+03  0.33113786017E+03  0.10100000352E+00 0. -1.
    10030    2    1    2    0    0  0.00000000000E+00  0.00000000000E+00  0.75654042015E+03  0.14188161298E+04  0.12002857172E+04 0.  0.
        2    1    3    3  502    0 -0.53289150774E+03  0.53669706779E+02  0.58199628009E+02  0.53874019077E+03  0.25500000920E-02 0. -1.
       -2    1    3    3    0  502  0.53289150774E+03 -0.53669706779E+02  0.69834079214E+03  0.88007593901E+03  0.25500000920E-02 0.  1.
</event>
<event>
 5   0  0.5625746E-05  0.1200416E+04  0.7818609E-02  0.9112493E-01
        1   -1    0    0  501    0  0.00000000000E+00  0.00000000000E+00  0.11770670236E+04  0.11770670236E+04  0.50400001928E-02 0.  1.
       -1   -1    0    0    0  501  0.00000000000E+00  0.00000000000E+00 -0.30605682679E+03  0.30605682683E+03  0.50400001928E-02 0. -1.
    10030    2    1    2    0    0  0.00000000000E+00  0.00000000000E+00  0.87101019683E+03  0.14831238505E+04  0.12004155917E+04 0.  0.
        5    1    3    3  502    0  0.70631701727E+02 -0.48663828236E+03  0.86067386268E+03  0.99125538740E+03  0.46999998093E+01 0. -1.
       -5    1    3    3    0  502 -0.70631701727E+02  0.48663828236E+03  0.10336334152E+02  0.49186846306E+03  0.46999998093E+01 0.  1.
</event>
<event>
 5   0  0.5732931E-05  0.1199826E+04  0.7818609E-02  0.9113009E-01
       -1   -1    0    0    0  501  0.00000000000E+00  0.00000000000E+00  0.57662860781E+03  0.57662860784E+03  0.50400001928E-02 0. -1.
        1   -1    0    0  501    0  0.00000000000E+00  0.00000000000E+00 -0.62413733346E+03  0.62413733348E+03  0.50400001928E-02 0.  1.
    10030    2    1    2    0    0  0.00000000000E+00  0.00000000000E+00 -0.47508725651E+02  0.12007659413E+04  0.11998257235E+04 0.  0.
        4    1    3    3  502    0 -0.31932610896E+03  0.68405536397E+02  0.47987486950E+03  0.58045670343E+03  0.12699999809E+01 0. -1.
       -4    1    3    3    0  502  0.31932610896E+03 -0.68405536397E+02 -0.52738359516E+03  0.62030923789E+03  0.12699999809E+01 0.  1.
</event>
<event>
 5   0  0.5620246E-05  0.1199829E+04  0.7818609E-02  0.9113006E-01
        1   -1    0    0  501    0  0.00000000000E+00  0.00000000000E+00  0.14453480321E+04  0.14453480321E+04  0.50400001928E-02 0. -1.
       -1   -1    0    0    0  501  0.00000000000E+00  0.00000000000E+00 -0.24900399849E+03  0.24900399854E+03  0.50400001928E-02 0.  1.
    10030    2    1    2    0    0  0.00000000000E+00  0.00000000000E+00  0.11963440336E+04  0.16943520306E+04  0.11998290532E+04 0.  0.
        1    1    3    3  502    0  0.73700348994E+02  0.48682300510E+03  0.11417128384E+03  0.50543393418E+03  0.50400001928E-02 0.  1.
       -1    1    3    3    0  502 -0.73700348994E+02 -0.48682300510E+03  0.10821727497E+04  0.11889180964E+04  0.50400001928E-02 0. -1.
</event>
<event>
 5   0  0.9838215E-05  0.1197538E+04  0.7818609E-02  0.9115014E-01
       -2   -1    0    0    0  501  0.00000000000E+00  0.00000000000E+00  0.73809788058E+03  0.73809788058E+03  0.25500000920E-02 0. -1.
        2   -1    0    0  501    0  0.00000000000E+00  0.00000000000E+00 -0.48574075241E+03  0.48574075241E+03  0.25500000920E-02 0.  1.
    10030    2    1    2    0    0  0.00000000000E+00  0.00000000000E+00  0.25235712817E+03  0.12238386330E+04  0.11975378405E+04 0.  0.
        4    1    3    3  502    0  0.46765061028E+03 -0.25294614506E+03  0.40762441110E+03  0.66995381857E+03  0.12699999809E+01 0.  1.
       -4    1    3    3    0  502 -0.46765061028E+03  0.25294614506E+03 -0.15526728293E+03  0.55388481442E+03  0.12699999809E+01 0. -1.
</event>
<event>
 5   0  0.1004006E-04  0.1200803E+04  0.7818609E-02  0.9112154E-01
        2   -1    0    0  501    0  0.00000000000E+00  0.00000000000E+00  0.77600354536E+03  0.77600354537E+03  0.25500000920E-02 0.  1.
       -2   -1    0    0    0  501  0.00000000000E+00  0.00000000000E+00 -0.46453676481E+03  0.46453676482E+03  0.25500000920E-02 0. -1.
    10030    2    1    2    0    0  0.00000000000E+00  0.00000000000E+00  0.31146678055E+03  0.12405403102E+04  0.12008033585E+04 0.  0.
        5    1    3    3  502    0 -0.26068928109E+03 -0.36190355554E+03 -0.25947063261E+03  0.51602343355E+03  0.46999998093E+01 0. -1.
       -5    1    3    3    0  502  0.26068928109E+03  0.36190355554E+03  0.57093741316E+03  0.72451687664E+03  0.46999998093E+01 0.  1.
</event>
<event>
 5   0  0.5625746E-05  0.1200080E+04  0.7818609E-02  0.9112787E-01
       -1   -1    0    0    0  501  0.00000000000E+00  0.00000000000E+00  0.12157207828E+03  0.12157207839E+03  0.50400001928E-02 0. -1.
        1   -1    0    0  501    0  0.00000000000E+00  0.00000000000E+00 -0.29616007796E+04  0.29616007796E+04  0.50400001928E-02 0.  1.
    10030    2    1    2    0    0  0.00000000000E+00  0.00000000000E+00 -0.28400287013E+04  0.30831728580E+04  0.12000799340E+04 0.  0.
        5    1    3    3  502    0  0.55409029249E+02 -0.74699651489E+02 -0.29429219208E+04  0.29443949668E+04  0.46999998093E+01 0.  1.
       -5    1    3    3    0  502 -0.55409029249E+02  0.74699651489E+02  0.10289321953E+03  0.13877789117E+03  0.46999998093E+01 0. -1.
</event>
<event>
 5   0  0.1012657E-04  0.1199165E+04  0.7818609E-02  0.9113588E-01
       -2   -1    0    0    0  501  0.00000000000E+00  0.00000000000E+00  0.90556055257E+03  0.90556055258E+03  0.25500000920E-02 0.  1.
        2   -1    0    0  501    0  0.00000000000E+00  0.00000000000E+00 -0.39699045684E+03  0.39699045685E+03  0.25500000920E-02 0. -1.
    10030    2    1    2    0    0  0.00000000000E+00  0.00000000000E+00  0.50857009573E+03  0.13025510094E+04  0.11991645383E+04 0.  0.
        1    1    3    3  502    0  0.14508582347E+03  0.52860387925E+03 -0.96159898678E+01  0.54823756220E+03  0.50400001928E-02 0.  1.
       -1    1    3    3    0  502 -0.14508582347E+03 -0.52860387925E+03  0.51818608560E+03  0.75431344722E+03  0.50400001928E-02 0. -1.
</event>
<event>
 5   0  0.9941209E-05  0.1195638E+04  0.7818609E-02  0.9116684E-01
        2   -1    0    0  501    0  0.00000000000E+00  0.00000000000E+00  0.39703009622E+03  0.39703009623E+03  0.25500000920E-02 0. -1.
       -2   -1    0    0    0  501  0.00000000000E+00  0.00000000000E+00 -0.90015164159E+03  0.90015164159E+03  0.25500000920E-02 0.  1.
    10030    2    1    2    0    0  0.00000000000E+00  0.00000000000E+00 -0.50312154536E+03  0.12971817378E+04  0.11956375586E+04 0.  0.
        2    1    3    3  502    0 -0.28192092901E+03 -0.79985691849E+02  0.31375919968E+03  0.42932733025E+03  0.25500000920E-02 0. -1.
       -2    1    3    3    0  502  0.28192092901E+03  0.79985691849E+02 -0.81688074504E+03  0.86785440757E+03  0.25500000920E-02 0.  1.
</event>
<event>
 5   0  0.9941209E-05  0.1200057E+04  0.7818609E-02  0.9112807E-01
       -2   -1    0    0    0  501  0.00000000000E+00  0.00000000000E+00  0.25168792246E+03  0.25168792247E+03  0.25500000920E-02 0. -1.
        2   -1    0    0  501    0  0.00000000000E+00  0.00000000000E+00 -0.14304783075E+04  0.14304783075E+04  0.25500000920E-02 0.  1.
    10030    2    1    2    0    0  0.00000000000E+00  0.00000000000E+00 -0.11787903851E+04  0.16821662300E+04  0.12000568542E+04 0.  0.
        2    1    3    3  502    0 -0.61473985950E+02  0.71695251733E+02 -0.14199947383E+04  0.14231318691E+04  0.25500000920E-02 0.  1.
       -2    1    3    3    0  502  0.61473985950E+02 -0.71695251733E+02  0.24120435326E+03  0.25903436086E+03  0.25500000920E-02 0. -1.
</event>
<event>
 5   0  0.5732931E-05  0.1200535E+04  0.7818609E-02  0.9112389E-01
       -1   -1    0    0    0  501  0.00000000000E+00  0.00000000000E+00  0.19945697443E+03  0.19945697449E+03  0.50400001928E-02 0. -1.
        1   -1    0    0  501    0  0.00000000000E+00  0.00000000000E+00 -0.18065087767E+04  0.18065087767E+04  0.50400001928E-02 0.  1.
    10030    2    1    2    0    0  0.00000000000E+00  0.00000000000E+00 -0.16070518022E+04  0.20059657512E+04  0.12005345059E+04 0.  0.
        4    1    3    3  502    0 -0.48681161975E+03 -0.26171627397E+03 -0.41224336410E+03  0.68951226626E+03  0.12699999809E+01 0. -1.
       -4    1    3    3    0  502  0.48681161975E+03  0.26171627397E+03 -0.11948084381E+04  0.13164534849E+04  0.12699999809E+01 0.  1.
</event>
<event>
 5   0  0.5620246E-05  0.1206819E+04  0.7818609E-02  0.9106908E-01
        1   -1    0    0  501    0  0.00000000000E+00  0.00000000000E+00  0.76796817487E+03  0.76796817489E+03  0.50400001928E-02 0. -1.
       -1   -1    0    0    0  501  0.00000000000E+00  0.00000000000E+00 -0.47411244693E+03  0.47411244696E+03  0.50400001928E-02 0.  1.
    10030    2    1    2    0    0  0.00000000000E+00  0.00000000000E+00  0.29385572794E+03  0.12420806218E+04  0.12068194075E+04 0.  0.
        1    1    3    3  502    0 -0.34799317584E+03  0.23704085755E+03 -0.29792268467E+03  0.51579603008E+03  0.50400001928E-02 0.  1.
       -1    1    3    3    0  502  0.34799317584E+03 -0.23704085755E+03  0.59177841261E+03  0.72628459177E+03  0.50400001928E-02 0. -1.
</event>
<event>
 5   0  0.1004006E-04  0.1199912E+04  0.7818609E-02  0.9112934E-01
        2   -1    0    0  501    0  0.00000000000E+00  0.00000000000E+00  0.10034454023E+04  0.10034454023E+04  0.25500000920E-02 0. -1.
       -2   -1    0    0    0  501  0.00000000000E+00  0.00000000000E+00 -0.35871118816E+03  0.35871118817E+03  0.25500000920E-02 0.  1.
    10030    2    1    2    0    0  0.00000000000E+00  0.00000000000E+00  0.64473421416E+03  0.13621565905E+04  0.11999118176E+04 0.  0.
        5    1    3    3  502    0  0.40152658049E+03  0.44121597337E+03  0.25030227815E+03  0.64696866264E+03  0.46999998093E+01 0.  1.
       -5    1    3    3    0  502 -0.40152658049E+03 -0.44121597337E+03  0.39443193601E+03  0.71518792785E+03  0.46999998093E+01 0. -1.
</event>
<event>
 5   0  0.5625746E-05  0.1200216E+04  0.7818609E-02  0.9112668E-01
       -1   -1    0    0    0  501  0.00000000000E+00  0.00000000000E+00  0.27003457472E+03  0.27003457477E+03  0.50400001928E-02 0.  1.
        1   -1    0    0  501    0  0.00000000000E+00  0.00000000000E+00 -0.13336424710E+04  0.13336424710E+04  0.50400001928E-02 0. -1.
    10030    2    1    2    0    0  0.00000000000E+00  0.00000000000E+00 -0.10636078963E+04  0.16036770458E+04  0.12002159431E+04 0.  0.
        5    1    3    3  502    0 -0.54030922590E+02 -0.15089477802E+03 -0.13044897585E+04  0.13143074963E+04  0.46999998093E+01 0. -1.
       -5    1    3    3    0  502  0.54030922590E+02  0.15089477802E+03  0.24088186225E+03  0.28936954952E+03  0.46999998093E+01 0.  1.
</event>
<event>
 5   0  0.9941209E-05  0.1199816E+04  0.7818609E-02  0.9113018E-01
        2   -1    0    0  501    0  0.00000000000E+00  0.00000000000E+00  0.11258178746E+04  0.11258178746E+04  0.25500000920E-02 0. -1.
       -2   -1    0    0    0  501  0.00000000000E+00  0.00000000000E+00 -0.31966953534E+03  0.31966953535E+03  0.25500000920E-02 0.  1.
    10030    2    1    2    0    0  0.00000000000E+00  0.00000000000E+00  0.80614833927E+03  0.14454874100E+04  0.11998161140E+04 0.  0.
        2    1    3    3  502    0 -0.30165361246E+03  0.21838350630E+03 -0.16355058075E+03  0.40673707749E+03  0.25500000920E-02 0.  1.
       -2    1    3    3    0  502  0.30165361246E+03 -0.21838350630E+03  0.96969892002E+03  0.10387503325E+04  0.25500000920E-02 0. -1.
</event>
<event>
 5   0  0.9838215E-05  0.1200114E+04  0.7818609E-02  0.9112757E-01
       -2   -1    0    0    0  501  0.00000000000E+00  0.00000000000E+00  0.57356489942E+03  0.57356489942E+03  0.25500000920E-02 0.  1.
        2   -1    0    0  501    0  0.00000000000E+00  0.00000000000E+00 -0.62777279676E+03  0.62777279676E+03  0.25500000920E-02 0. -1.
    10030    2    1    2    0    0  0.00000000000E+00  0.00000000000E+00 -0.54207897337E+02  0.12013376962E+04  0.12001140630E+04 0.  0.
        4    1    3    3  502    0 -0.29868258957E+03  0.43457762863E+03  0.25954063666E+03  0.58773459963E+03  0.12699999809E+01 0.  1.
       -4    1    3    3    0  502  0.29868258957E+03 -0.43457762863E+03 -0.31374853400E+03  0.61360309656E+03  0.12699999809E+01 0. -1.
</event>
<event>
 5   0  0.5732931E-05  0.1199818E+04  0.7818609E-02  0.9113016E-01
       -1   -1    0    0    0  501  0.00000000000E+00  0.00000000000E+00  0.32446735468E+03  0.32446735472E+03  0.50400001928E-02 0. -1.
        1   -1    0    0  501    0  0.00000000000E+00  0.00000000000E+00 -0.11091747089E+04  0.11091747089E+04  0.50400001928E-02 0.  1.
    10030    2    1    2    0    0  0.00000000000E+00  0.00000000000E+00 -0.78470735419E+03  0.14336420636E+04  0.11998182924E+04 0.  0.
        4    1    3    3  502    0  0.96111739599E+02 -0.55642313318E+03 -0.63443230567E+03  0.84932333831E+03  0.12699999809E+01 0.  1.
       -4    1    3    3    0  502 -0.96111739599E+02  0.55642313318E+03 -0.15027504852E+03  0.58431872529E+03  0.12699999809E+01 0. -1.
</event>
<event>
 5   0  0.1004006E-04  0.1199248E+04  0.7818609E-02  0.9113515E-01
        2   -1    0    0  501    0  0.00000000000E+00  0.00000000000E+00  0.12870648223E+04  0.12870648223E+04  0.25500000920E-02 0.  1.
       -2   -1    0    0    0  501  0.00000000000E+00  0.00000000000E+00 -0.27935578921E+03  0.27935578922E+03  0.25500000920E-02 0. -1.
    10030    2    1    2    0    0  0.00000000000E+00  0.00000000000E+00  0.10077090331E+04  0.15664206115E+04  0.11992481131E+04 0.  0.
        5    1    3    3  502    0 -0.98424295530E+02  0.57203640805E+03  0.70027524628E+03  0.90957160501E+03  0.46999998093E+01 0.  1.
       -5    1    3    3    0  502  0.98424295530E+02 -0.57203640805E+03  0.30743378678E+03  0.65684900649E+03  0.46999998093E+01 0. -1.
</event>
<event>
 5   0  0.1023063E-04  0.1199790E+04  0.7818609E-02  0.9113041E-01
        2   -1    0    0  501    0  0.00000000000E+00  0.00000000000E+00  0.73607464112E+03  0.73607464112E+03  0.25500000920E-02 0.  1.
       -2   -1    0    0    0  501  0.00000000000E+00  0.00000000000E+00 -0.48890946687E+03  0.48890946688E+03  0.25500000920E-02 0. -1.
    10030    2    1    2    0    0  0.00000000000E+00  0.00000000000E+00  0.24716517425E+03  0.12249841080E+04  0.11997897489E+04 0.  0.
        3    1    3    3  502    0  0.19571089047E+03 -0.22951779764E+02 -0.45492332067E+03  0.49576685522E+03  0.10100000352E+00 0. -1.
       -3    1    3    3    0  502 -0.19571089047E+03  0.22951779764E+02  0.70208849492E+03  0.72921725278E+03  0.10100000352E+00 0.  1.
</event>
<event>
 5   0  0.9838215E-05  0.1205224E+04  0.7818609E-02  0.9108296E-01
       -2   -1    0    0    0  501  0.00000000000E+00  0.00000000000E+00  0.65915762589E+03  0.65915762590E+03  0.25500000920E-02 0. -1.
        2   -1    0    0  501    0  0.00000000000E+00  0.00000000000E+00 -0.55091704240E+03  0.55091704240E+03  0.25500000920E-02 0.  1.
    10030    2    1    2    0    0  0.00000000000E+00  0.00000000000E+00  0.10824058349E+03  0.12100746683E+04  0.12052239124E+04 0.  0.
        4    1    3    3  502    0  0.42410980872E+03 -0.94576563365E+02 -0.36508343940E+03  0.56753976673E+03  0.12699999809E+01 0.  1.
       -4    1    3    3    0  502 -0.42410980872E+03  0.94576563365E+02  0.47332402290E+03  0.64253490157E+03  0.12699999809E+01 0. -1.
</event>
<event>
 5   0  0.5447807E-05  0.1198049E+04  0.7818609E-02  0.9114566E-01
        1   -1    0    0  501    0  0.00000000000E+00  0.00000000000E+00  0.67546289296E+03  0.67546289298E+03  0.50400001928E-02 0. -1.
       -1   -1    0    0    0  501  0.00000000000E+00  0.00000000000E+00 -0.53123592750E+03  0.53123592753E+03  0.50400001928E-02 0.  1.
    10030    2    1    2    0    0  0.00000000000E+00  0.00000000000E+00  0.14422696546E+03  0.12066988205E+04  0.11980486742E+04 0.  0.
        2    1    3    3  502    0  0.18174900911E+03 -0.39182850492E+03  0.49016189272E+03  0.65331536080E+03  0.25500000920E-02 0. -1.
       -2    1    3    3    0  502 -0.18174900911E+03  0.39182850492E+03 -0.34593492726E+03  0.55338345971E+03  0.25500000920E-02 0.  1.
</event>
<event>
 5   0  0.1004006E-04  0.1199967E+04  0.7818609E-02  0.9112885E-01
        2   -1    0    0  501    0  0.00000000000E+00  0.00000000000E+00  0.63427022401E+03  0.63427022402E+03  0.25500000920E-02 0. -1.
       -2   -1    0    0    0  501  0.00000000000E+00  0.00000000000E+00 -0.56755065615E+03  0.56755065616E+03  0.25500000920E-02 0.  1.
    10030    2    1    2    0    0  0.00000000000E+00  0.00000000000E+00  0.66719567863E+02  0.12018208802E+04  0.11999674693E+04 0.  0.
        5    1    3    3  502    0 -0.86796659564E+02 -0.45759244455E+03 -0.34542257295E+03  0.57988218573E+03  0.46999998093E+01 0.  1.
       -5    1    3    3    0  502  0.86796659564E+02  0.45759244455E+03  0.41214214081E+03  0.62193869445E+03  0.46999998093E+01 0. -1.
</event>
<event>
 5   0  0.5745487E-05  0.1199221E+04  0.7818609E-02  0.9113538E-01
        1   -1    0    0  501    0  0.00000000000E+00  0.00000000000E+00  0.32974644372E+03  0.32974644375E+03  0.50400001928E-02 0.  1.
       -1   -1    0    0    0  501  0.00000000000E+00  0.00000000000E+00 -0.10903315141E+04  0.10903315141E+04  0.50400001928E-02 0. -1.
    10030    2    1    2    0    0  0.00000000000E+00  0.00000000000E+00 -0.76058507035E+03  0.14200779578E+04  0.11992213128E+04 0.  0.
        3    1    3    3  502    0  0.27878210171E+03 -0.43066830927E+03 -0.74783902867E+03  0.90689463326E+03  0.10100000352E+00 0. -1.
       -3    1    3    3    0  502 -0.27878210171E+03  0.43066830927E+03 -0.12746041688E+02  0.51318332457E+03  0.10100000352E+00 0.  1.
</event>
<event>
 5   0  0.9838215E-05  0.1200274E+04  0.7818609E-02  0.9112617E-01
        2   -1    0    0  501    0  0.00000000000E+00  0.00000000000E+00  0.88508618837E+03  0.88508618837E+03  0.25500000920E-02 0.  1.
       -2   -1    0    0    0  501  0.00000000000E+00  0.00000000000E+00 -0.40692588558E+03  0.40692588558E+03  0.25500000920E-02 0. -1.
    10030    2    1    2    0    0  0.00000000000E+00  0.00000000000E+00  0.47816030279E+03  0.12920120740E+04  0.12002741037E+04 0.  0.
        4    1    3    3  502    0  0.15936310822E+03  0.55746652791E+03  0.72329449228E+02  0.58429332713E+03  0.12699999809E+01 0. -1.
       -4    1    3    3    0  502 -0.15936310822E+03 -0.55746652791E+03  0.40583085357E+03  0.70771874683E+03  0.12699999809E+01 0.  1.
</event>
<event>
 5   0  0.5620246E-05  0.1197971E+04  0.7818609E-02  0.9114635E-01
        1   -1    0    0  501    0  0.00000000000E+00  0.00000000000E+00  0.16956412050E+04  0.16956412050E+04  0.50400001928E-02 0. -1.
       -1   -1    0    0    0  501  0.00000000000E+00  0.00000000000E+00 -0.21159160295E+03  0.21159160301E+03  0.50400001928E-02 0.  1.
    10030    2    1    2    0    0  0.00000000000E+00  0.00000000000E+00  0.14840496021E+04  0.19072328080E+04  0.11979706852E+04 0.  0.
        1    1    3    3  502    0  0.46881975126E+03 -0.32906923532E+03  0.46305223200E+03  0.73654320334E+03  0.50400001928E-02 0.  1.
       -1    1    3    3    0  502 -0.46881975126E+03  0.32906923532E+03  0.10209973701E+04  0.11706896047E+04  0.50400001928E-02 0. -1.
</event>
<event>
 5   0  0.1004006E-04  0.1201086E+04  0.7818609E-02  0.9111906E-01
       -2   -1    0    0    0  501  0.00000000000E+00  0.00000000000E+00  0.22011655954E+03  0.22011655956E+03  0.25500000920E-02 0. -1.
        2   -1    0    0  501    0  0.00000000000E+00  0.00000000000E+00 -0.16384598244E+04  0.16384598244E+04  0.25500000920E-02 0.  1.
    10030    2    1    2    0    0  0.00000000000E+00  0.00000000000E+00 -0.14183432649E+04  0.18585763840E+04  0.12010864074E+04 0.  0.
        5    1    3    3  502    0 -0.41117106333E+03 -0.40757429487E+03 -0.95603901368E+03  0.11176811418E+04  0.46999998093E+01 0.  1.
       -5    1    3    3    0  502  0.41117106333E+03  0.40757429487E+03 -0.46230425122E+03  0.74089524216E+03  0.46999998093E+01 0. -1.
</event>
<event>
 5   0  0.5625746E-05  0.1200572E+04  0.7818609E-02  0.9112356E-01
       -1   -1    0    0    0  501  0.00000000000E+00  0.00000000000E+00  0.25394859372E+03  0.25394859377E+03  0.50400001928E-02 0.  1.
        1   -1    0    0  501    0  0.00000000000E+00  0.00000000000E+00 -0.14189605798E+04  0.14189605799E+04  0.50400001928E-02 0. -1.
    10030    2    1    2    0    0  0.00000000000E+00  0.00000000000E+00 -0.11650119861E+04  0.16729091736E+04  0.12005716036E+04 0.  0.
        5    1    3    3  502    0  0.95704530263E+02  0.14091132523E+03  0.21953890555E+03  0.27791146025E+03  0.46999998093E+01 0.  1.
       -5    1    3    3    0  502 -0.95704530263E+02 -0.14091132523E+03 -0.13845508917E+04  0.13949977134E+04  0.46999998093E+01 0. -1.
</event>
<event>
 5   0  0.5625746E-05  0.1200767E+04  0.7818609E-02  0.9112185E-01
        1   -1    0    0  501    0  0.00000000000E+00  0.00000000000E+00  0.91316686098E+03  0.91316686099E+03  0.50400001928E-02 0. -1.
       -1   -1    0    0    0  501  0.00000000000E+00  0.00000000000E+00 -0.39473656512E+03  0.39473656515E+03  0.50400001928E-02 0.  1.
    10030    2    1    2    0    0  0.00000000000E+00  0.00000000000E+00  0.51843029586E+03  0.13079034261E+04  0.12007670051E+04 0.  0.
        5    1    3    3  502    0 -0.59790538839E+03 -0.43943822994E+02  0.22449049187E+03  0.64018746003E+03  0.46999998093E+01 0. -1.
       -5    1    3    3    0  502  0.59790538839E+03  0.43943822994E+02  0.29393980399E+03  0.66771596612E+03  0.46999998093E+01 0.  1.
</event>
<event>
 5   0  0.1004006E-04  0.1199978E+04  0.7818609E-02  0.9112876E-01
        2   -1    0    0  501    0  0.00000000000E+00  0.00000000000E+00  0.81889516638E+03  0.81889516638E+03  0.25500000920E-02 0.  1.
       -2   -1    0    0    0  501  0.00000000000E+00  0.00000000000E+00 -0.43960060002E+03  0.43960060003E+03  0.25500000920E-02 0. -1.
    10030    2    1    2    0    0  0.00000000000E+00  0.00000000000E+00  0.37929456636E+03  0.12584957664E+04  0.11999780106E+04 0.  0.
        5    1    3    3  502    0  0.58405360730E+03  0.22595408784E+02  0.33165940490E+03  0.67204852471E+03  0.46999998093E+01 0.  1.
       -5    1    3    3    0  502 -0.58405360730E+03 -0.22595408784E+02  0.47635161455E+02  0.58644724171E+03  0.46999998093E+01 0. -1.
</event>
<event>
 5   0  0.5732931E-05  0.1199920E+04  0.7818609E-02  0.9112926E-01
       -1   -1    0    0    0  501  0.00000000000E+00  0.00000000000E+00  0.46593495347E+03  0.46593495350E+03  0.50400001928E-02 0.  1.
        1   -1    0    0  501    0  0.00000000000E+00  0.00000000000E+00 -0.77253722598E+03  0.77253722599E+03  0.50400001928E-02 0. -1.
    10030    2    1    2    0    0  0.00000000000E+00  0.00000000000E+00 -0.30660227250E+03  0.12384721795E+04  0.11999201581E+04 0.  0.
        4    1    3    3  502    0 -0.59507463897E+02 -0.40368120104E+03  0.30066055802E+03  0.50685109685E+03  0.12699999809E+01 0.  1.
       -4    1    3    3    0  502  0.59507463897E+02  0.40368120104E+03 -0.60726283053E+03  0.73162108264E+03  0.12699999809E+01 0. -1.
</event>
<event>
 5   0  0.5732931E-05  0.1200058E+04  0.7818609E-02  0.9112806E-01
       -1   -1    0    0    0  501  0.00000000000E+00  0.00000000000E+00  0.74328145699E+03  0.74328145700E+03  0.50400001928E-02 0. -1.
        1   -1    0    0  501    0  0.00000000000E+00  0.00000000000E+00 -0.48438556248E+03  0.48438556250E+03  0.50400001928E-02 0.  1.
    10030    2    1    2    0    0  0.00000000000E+00  0.00000000000E+00  0.25889589451E+03  0.12276670195E+04  0.12000580097E+04 0.  0.
        4    1    3    3  502    0 -0.95454290471E+02  0.22182328185E+03  0.69137196415E+03  0.73233455172E+03  0.12699999809E+01 0. -1.
       -4    1    3    3    0  502  0.95454290471E+02 -0.22182328185E+03 -0.43247606963E+03  0.49533246779E+03  0.12699999809E+01 0.  1.
</event>
<event>
 5   0  0.5625746E-05  0.1197591E+04  0.7818609E-02  0.9114968E-01
       -1   -1    0    0    0  501  0.00000000000E+00  0.00000000000E+00  0.62694482421E+03  0.62694482423E+03  0.50400001928E-02 0.  1.
        1   -1    0    0  501    0  0.00000000000E+00  0.00000000000E+00 -0.57190973754E+03  0.57190973757E+03  0.50400001928E-02 0. -1.
    10030    2    1    2    0    0  0.00000000000E+00  0.00000000000E+00  0.55035086665E+02  0.11988545618E+04  0.11975906644E+04 0.  0.
        5    1    3    3  502    0  0.48770186772E+02 -0.52244698578E+03 -0.26123856614E+03  0.58617152994E+03  0.46999998093E+01 0. -1.
       -5    1    3    3    0  502 -0.48770186772E+02  0.52244698578E+03  0.31627365280E+03  0.61268303186E+03  0.46999998093E+01 0.  1.
</event>
<event>
 5   0  0.5447807E-05  0.1202273E+04  0.7818609E-02  0.9110869E-01
       -1   -1    0    0    0  501  0.00000000000E+00  0.00000000000E+00  0.49524905643E+03  0.49524905646E+03  0.50400001928E-02 0. -1.
        1   -1    0    0  501    0  0.00000000000E+00  0.00000000000E+00 -0.72966378856E+03  0.72966378858E+03  0.50400001928E-02 0.  1.
    10030    2    1    2    0    0  0.00000000000E+00  0.00000000000E+00 -0.23441473213E+03  0.12249128450E+04  0.12022733513E+04 0.  0.
        2    1    3    3  502    0 -0.46489457349E+03 -0.37972920643E+03 -0.84286868552E+02  0.60615634196E+03  0.25500000920E-02 0. -1.
       -2    1    3    3    0  502  0.46489457349E+03  0.37972920643E+03 -0.15012786358E+03  0.61875650308E+03  0.25500000920E-02 0.  1.
</event>
<event>
 5   0  0.5732931E-05  0.1200863E+04  0.7818609E-02  0.9112101E-01
       -1   -1    0    0    0  501  0.00000000000E+00  0.00000000000E+00  0.46665123816E+03  0.46665123819E+03  0.50400001928E-02 0.  1.
        1   -1    0    0  501    0  0.00000000000E+00  0.00000000000E+00 -0.77256455123E+03  0.77256455124E+03  0.50400001928E-02 0. -1.
    10030    2    1    2    0    0  0.00000000000E+00  0.00000000000E+00 -0.30591331306E+03  0.12392157894E+04  0.12008633635E+04 0.  0.
        4    1    3    3  502    0 -0.32734074184E+02 -0.19801586928E+03  0.43100939036E+03  0.47544979922E+03  0.12699999809E+01 0.  1.
       -4    1    3    3    0  502  0.32734074184E+02  0.19801586928E+03 -0.73692270342E+03  0.76376599022E+03  0.12699999809E+01 0. -1.
</event>
<event>
 5   0  0.5732931E-05  0.1200279E+04  0.7818609E-02  0.9112612E-01
       -1   -1    0    0    0  501  0.00000000000E+00  0.00000000000E+00  0.81741227736E+03  0.81741227737E+03  0.50400001928E-02 0. -1.
        1   -1    0    0  501    0  0.00000000000E+00  0.00000000000E+00 -0.44061906001E+03  0.44061906004E+03  0.50400001928E-02 0.  1.
    10030    2    1    2    0    0  0.00000000000E+00  0.00000000000E+00  0.37679321734E+03  0.12580313374E+04  0.12002790164E+04 0.  0.
        4    1    3    3  502    0 -0.30419493718E+03  0.12055885756E+03  0.71569031622E+03  0.78694551246E+03  0.12699999809E+01 0. -1.
       -4    1    3    3    0  502  0.30419493718E+03 -0.12055885756E+03 -0.33889709888E+03  0.47108582495E+03  0.12699999809E+01 0.  1.
</event>
<event>
 5   0  0.5620246E-05  0.1202988E+04  0.7818609E-02  0.9110245E-01
        1   -1    0    0  501    0  0.00000000000E+00  0.00000000000E+00  0.90610405248E+03  0.90610405249E+03  0.50400001928E-02 0.  1.
       -1   -1    0    0    0  501  0.00000000000E+00  0.00000000000E+00 -0.39928667386E+03  0.39928667389E+03  0.50400001928E-02 0. -1.
    10030    2    1    2    0    0  0.00000000000E+00  0.00000000000E+00  0.50681737862E+03  0.13053907264E+04  0.12029884011E+04 0.  0.
        1    1    3    3  502    0 -0.25026164166E+03  0.17124730159E+03  0.81708688775E+03  0.87154317722E+03  0.50400001928E-02 0.  1.
       -1    1    3    3    0  502  0.25026164166E+03 -0.17124730159E+03 -0.31026950913E+03  0.43384754916E+03  0.50400001928E-02 0. -1.
</event>
<event>
 5   0  0.9941209E-05  0.1200897E+04  0.7818609E-02  0.9112072E-01
        2   -1    0    0  501    0  0.00000000000E+00  0.00000000000E+00  0.72447783011E+03  0.72447783011E+03  0.25500000920E-02 0. -1.
       -2   -1    0    0    0  501  0.00000000000E+00  0.00000000000E+00 -0.49765258297E+03  0.49765258298E+03  0.25500000920E-02 0.  1.
    10030    2    1    2    0    0  0.00000000000E+00  0.00000000000E+00  0.22682524714E+03  0.12221304131E+04  0.12008967707E+04 0.  0.
        2    1    3    3  502    0  0.45247806926E+03 -0.30887575679E+03  0.36351730061E+03  0.65748419307E+03  0.25500000920E-02 0. -1.
       -2    1    3    3    0  502 -0.45247806926E+03  0.30887575679E+03 -0.13669205347E+03  0.56464622002E+03  0.25500000920E-02 0.  1.
</event>
<event>
 5   0  0.5620246E-05  0.1199932E+04  0.7818609E-02  0.9112916E-01
        1   -1    0    0  501    0  0.00000000000E+00  0.00000000000E+00  0.12670865202E+04  0.12670865202E+04  0.50400001928E-02 0. -1.
       -1   -1    0    0    0  501  0.00000000000E+00  0.00000000000E+00 -0.28408419444E+03  0.28408419449E+03  0.50400001928E-02 0.  1.
    10030    2    1    2    0    0  0.00000000000E+00  0.00000000000E+00  0.98300232579E+03  0.15511707147E+04  0.11999320871E+04 0.  0.
        1    1    3    3  502    0  0.17472797237E+03 -0.26038908609E+03  0.11527183572E+04  0.11946095393E+04  0.50400001928E-02 0. -1.
       -1    1    3    3    0  502 -0.17472797237E+03  0.26038908609E+03 -0.16971603136E+03  0.35656117541E+03  0.50400001928E-02 0.  1.
</event>
<event>
 5   0  0.5732931E-05  0.1200712E+04  0.7818609E-02  0.9112234E-01
       -1   -1    0    0    0  501  0.00000000000E+00  0.00000000000E+00  0.31668486806E+03  0.31668486810E+03  0.50400001928E-02 0. -1.
        1   -1    0    0  501    0  0.00000000000E+00  0.00000000000E+00 -0.11381260674E+04  0.11381260674E+04  0.50400001928E-02 0.  1.
    10030    2    1    2    0    0  0.00000000000E+00  0.00000000000E+00 -0.82144119932E+03  0.14548109355E+04  0.12007119613E+04 0.  0.
        4    1    3    3  502    0 -0.40094220903E+03 -0.22434196464E+03  0.57508382793E+02  0.46302570023E+03  0.12699999809E+01 0. -1.
       -4    1    3    3    0  502  0.40094220903E+03  0.22434196464E+03 -0.87894958211E+03  0.99178523525E+03  0.12699999809E+01 0.  1.
</event>
<event>
 5   0  0.1004006E-04  0.1200363E+04  0.7818609E-02  0.9112538E-01
        2   -1    0    0  501    0  0.00000000000E+00  0.00000000000E+00  0.27622520274E+03  0.27622520275E+03  0.25500000920E-02 0.  1.
       -2   -1    0    0    0  501  0.00000000000E+00  0.00000000000E+00 -0.13040740625E+04  0.13040740625E+04  0.25500000920E-02 0. -1.
    10030    2    1    2    0    0  0.00000000000E+00  0.00000000000E+00 -0.10278488598E+04  0.15802992653E+04  0.12003634822E+04 0.  0.
        5    1    3    3  502    0 -0.41076611105E+03 -0.40261669841E+03 -0.73953350538E+03  0.93688894721E+03  0.46999998093E+01 0.  1.
       -5    1    3    3    0  502  0.41076611105E+03  0.40261669841E+03 -0.28831535442E+03  0.64341031809E+03  0.46999998093E+01 0. -1.
</event>
<event>
 5   0  0.3839750E-05  0.1200282E+04  0.7818609E-02  0.9112609E-01
       -4   -1    0    0    0  501  0.00000000000E+00  0.00000000000E+00  0.83883442369E+03  0.83883538508E+03  0.12699999809E+01 0. -1.
        4   -1    0    0  501    0  0.00000000000E+00  0.00000000000E+00 -0.42936685013E+03  0.42936872835E+03  0.12699999809E+01 0.  1.
    10030    2    1    2    0    0  0.00000000000E+00  0.00000000000E+00  0.40946757356E+03  0.12682041134E+04  0.12002824582E+04 0.  0.
        4    1    3    3  502    0 -0.16131702329E+03 -0.30092816989E+03  0.72620782912E+03  0.80247141345E+03  0.12699999809E+01 0. -1.
       -4    1    3    3    0  502  0.16131702329E+03  0.30092816989E+03 -0.31674025556E+03  0.46573269998E+03  0.12699999809E+01 0.  1.
</event>
<event>
 5   0  0.5745487E-05  0.1201661E+04  0.7818609E-02  0.9111404E-01
        1   -1    0    0  501    0  0.00000000000E+00  0.00000000000E+00  0.38271796108E+03  0.38271796111E+03  0.50400001928E-02 0.  1.
       -1   -1    0    0    0  501  0.00000000000E+00  0.00000000000E+00 -0.94324625344E+03  0.94324625345E+03  0.50400001928E-02 0. -1.
    10030    2    1    2    0    0  0.00000000000E+00  0.00000000000E+00 -0.56052829236E+03  0.13259642146E+04  0.12016609887E+04 0.  0.
        3    1    3    3  502    0 -0.41448319768E+03  0.13002329529E+03  0.17775754403E+03  0.46936140993E+03  0.10100000352E+00 0.  1.
       -3    1    3    3    0  502  0.41448319768E+03 -0.13002329529E+03 -0.73828583639E+03  0.85660280462E+03  0.10100000352E+00 0. -1.
</event>
<event>
 5   0  0.5732931E-05  0.1200193E+04  0.7818609E-02  0.9112687E-01
        1   -1    0    0  501    0  0.00000000000E+00  0.00000000000E+00  0.91457716631E+03  0.91457716633E+03  0.50400001928E-02 0.  1.
       -1   -1    0    0    0  501  0.00000000000E+00  0.00000000000E+00 -0.39375144576E+03  0.39375144579E+03  0.50400001928E-02 0. -1.
    10030    2    1    2    0    0  0.00000000000E+00  0.00000000000E+00  0.52082572055E+03  0.13083286121E+04  0.12001934536E+04 0.  0.
        4    1    3    3  502    0 -0.39855699961E+03 -0.41834397705E+03  0.43704610760E+03  0.72447931519E+03  0.12699999809E+01 0. -1.
       -4    1    3    3    0  502  0.39855699961E+03  0.41834397705E+03  0.83779612949E+02  0.58384929693E+03  0.12699999809E+01 0.  1.
</event>
<event>
 5   0  0.5732931E-05  0.1198052E+04  0.7818609E-02  0.9114563E-01
       -1   -1    0    0    0  501  0.00000000000E+00  0.00000000000E+00  0.47786358397E+03  0.47786358400E+03  0.50400001928E-02 0. -1.
        1   -1    0    0  501    0  0.00000000000E+00  0.00000000000E+00 -0.75090918602E+03  0.75090918603E+03  0.50400001928E-02 0.  1.
    10030    2    1    2    0    0  0.00000000000E+00  0.00000000000E+00 -0.27304560205E+03  0.12287727700E+04  0.11980520104E+04 0.  0.
        4    1    3    3  502    0 -0.32541101544E+03 -0.35959379354E+03 -0.49715022411E+03  0.69452140611E+03  0.12699999809E+01 0.  1.
       -4    1    3    3    0  502  0.32541101544E+03  0.35959379354E+03  0.22410462206E+03  0.53425136392E+03  0.12699999809E+01 0. -1.
</event>
<event>
 5   0  0.9838215E-05  0.1200268E+04  0.7818609E-02  0.9112622E-01
       -2   -1    0    0    0  501  0.00000000000E+00  0.00000000000E+00  0.26974414313E+03  0.26974414314E+03  0.25500000920E-02 0.  1.
        2   -1    0    0  501    0  0.00000000000E+00  0.00000000000E+00 -0.13351940437E+04  0.13351940437E+04  0.25500000920E-02 0. -1.
    10030    2    1    2    0    0  0.00000000000E+00  0.00000000000E+00 -0.10654499006E+04  0.16049381869E+04  0.12002679255E+04 0.  0.
        4    1    3    3  502    0 -0.18228241237E+03  0.21326534319E+03 -0.12421081061E+04  0.12733982663E+04  0.12699999809E+01 0. -1.
       -4    1    3    3    0  502  0.18228241237E+03 -0.21326534319E+03  0.17665820550E+03  0.33153992058E+03  0.12699999809E+01 0.  1.
</event>
<event>
 5   0  0.3839750E-05  0.1199805E+04  0.7818609E-02  0.9113027E-01
       -3   -1    0    0    0  501  0.00000000000E+00  0.00000000000E+00  0.46227455379E+03  0.46227456482E+03  0.10100000352E+00 0.  1.
        3   -1    0    0  501    0  0.00000000000E+00  0.00000000000E+00 -0.77850497197E+03  0.77850497852E+03  0.10100000352E+00 0. -1.
    10030    2    1    2    0    0  0.00000000000E+00  0.00000000000E+00 -0.31623041817E+03  0.12407795433E+04  0.11998050666E+04 0.  0.
        2    1    3    3  502    0  0.29432741713E+03 -0.43017686984E+00  0.38247401530E+03  0.48261287375E+03  0.25500000920E-02 0.  1.
       -2    1    3    3    0  502 -0.29432741713E+03  0.43017686984E+00 -0.69870443347E+03  0.75816666959E+03  0.25500000920E-02 0. -1.
</event>
<event>
 5   0  0.5745487E-05  0.1199895E+04  0.7818609E-02  0.9112948E-01
        1   -1    0    0  501    0  0.00000000000E+00  0.00000000000E+00  0.14097288434E+04  0.14097288434E+04  0.50400001928E-02 0.  1.
       -1   -1    0    0    0  501  0.00000000000E+00  0.00000000000E+00 -0.25532357243E+03  0.25532357248E+03  0.50400001928E-02 0. -1.
    10030    2    1    2    0    0  0.00000000000E+00  0.00000000000E+00  0.11544052710E+04  0.16650524159E+04  0.11998950029E+04 0.  0.
        3    1    3    3  502    0  0.45752825180E+03 -0.70754932948E+02  0.47705868069E+02  0.46541832987E+03  0.10100000352E+00 0. -1.
       -3    1    3    3    0  502 -0.45752825180E+03  0.70754932948E+02  0.11066994029E+04  0.11996340860E+04  0.10100000352E+00 0.  1.
</event>
<event>
 5   0  0.9941209E-05  0.1199694E+04  0.7818609E-02  0.9113125E-01
       -2   -1    0    0    0  501  0.00000000000E+00  0.00000000000E+00  0.42925883675E+03  0.42925883676E+03  0.25500000920E-02 0. -1.
        2   -1    0    0  501    0  0.00000000000E+00  0.00000000000E+00 -0.83822676961E+03  0.83822676962E+03  0.25500000920E-02 0.  1.
    10030    2    1    2    0    0  0.00000000000E+00  0.00000000000E+00 -0.40896793286E+03  0.12674856064E+04  0.11996937077E+04 0.  0.
        2    1    3    3  502    0 -0.49255615352E+03 -0.28013873257E+03  0.34279771451E+01  0.56665776699E+03  0.25500000920E-02 0. -1.
       -2    1    3    3    0  502  0.49255615352E+03  0.28013873257E+03 -0.41239591000E+03  0.70082783938E+03  0.25500000920E-02 0.  1.
</event>
<event>
 5   0  0.1004006E-04  0.1199368E+04  0.7818609E-02  0.9113410E-01
       -2   -1    0    0    0  501  0.00000000000E+00  0.00000000000E+00  0.19550080735E+03  0.19550080737E+03  0.25500000920E-02 0.  1.
        2   -1    0    0  501    0  0.00000000000E+00  0.00000000000E+00 -0.18394848646E+04  0.18394848646E+04  0.25500000920E-02 0. -1.
    10030    2    1    2    0    0  0.00000000000E+00  0.00000000000E+00 -0.16439840572E+04  0.20349856720E+04  0.11993677937E+04 0.  0.
        5    1    3    3  502    0  0.40296645672E+03  0.14843099741E+03 -0.11183010678E+03  0.44378124004E+03  0.46999998093E+01 0.  1.
       -5    1    3    3    0  502 -0.40296645672E+03 -0.14843099741E+03 -0.15321539505E+04  0.15912044319E+04  0.46999998093E+01 0. -1.
</event>
<event>
 5   0  0.1023063E-04  0.1199317E+04  0.7818609E-02  0.9113455E-01
        2   -1    0    0  501    0  0.00000000000E+00  0.00000000000E+00  0.30296149784E+04  0.30296149784E+04  0.25500000920E-02 0.  1.
       -2   -1    0    0    0  501  0.00000000000E+00  0.00000000000E+00 -0.11869170902E+03  0.11869170905E+03  0.25500000920E-02 0. -1.
    10030    2    1    2    0    0  0.00000000000E+00  0.00000000000E+00  0.29109232693E+04  0.31483066874E+04  0.11993167713E+04 0.  0.
        3    1    3    3  502    0  0.12335550001E+01  0.71600627874E+02 -0.10742675656E+03  0.12910728018E+03  0.10100000352E+00 0. -1.
       -3    1    3    3    0  502 -0.12335550001E+01 -0.71600627874E+02  0.30183500259E+04  0.30191994072E+04  0.10100000352E+00 0.  1.
</event>
<event>
 5   0  0.5447807E-05  0.1199827E+04  0.7818609E-02  0.9113008E-01
        1   -1    0    0  501    0  0.00000000000E+00  0.00000000000E+00  0.95056316665E+03  0.95056316666E+03  0.50400001928E-02 0. -1.
       -1   -1    0    0    0  501  0.00000000000E+00  0.00000000000E+00 -0.37861377804E+03  0.37861377808E+03  0.50400001928E-02 0.  1.
    10030    2    1    2    0    0  0.00000000000E+00  0.00000000000E+00  0.57194938860E+03  0.13291769447E+04  0.11998271739E+04 0.  0.
        2    1    3    3  502    0 -0.31633887563E+03 -0.30489687119E+03 -0.16655317844E+03  0.46986417989E+03  0.25500000920E-02 0.  1.
       -2    1    3    3    0  502  0.31633887563E+03  0.30489687119E+03  0.73850256704E+03  0.85931276485E+03  0.25500000920E-02 0. -1.
</event>
<event>
 5   0  0.1023063E-04  0.1200091E+04  0.7818609E-02  0.9112777E-01
        2   -1    0    0  501    0  0.00000000000E+00  0.00000000000E+00  0.31396349981E+03  0.31396349982E+03  0.25500000920E-02 0. -1.
       -2   -1    0    0    0  501  0.00000000000E+00  0.00000000000E+00 -0.11468030784E+04  0.11468030784E+04  0.25500000920E-02 0.  1.
    10030    2    1    2    0    0  0.00000000000E+00  0.00000000000E+00 -0.83283957860E+03  0.14607665782E+04  0.12000905101E+04 0.  0.
        3    1    3    3  502    0  0.24298976395E+02  0.59302550206E+03 -0.30902448435E+03  0.66915306805E+03  0.10100000352E+00 0. -1.
       -3    1    3    3    0  502 -0.24298976395E+02 -0.59302550206E+03 -0.52381509425E+03  0.79161351019E+03  0.10100000352E+00 0.  1.
</event>
<event>
 5   0  0.5625746E-05  0.1199531E+04  0.7818609E-02  0.9113267E-01
        1   -1    0    0  501    0  0.00000000000E+00  0.00000000000E+00  0.68899449216E+03  0.68899449218E+03  0.50400001928E-02 0. -1.
       -1   -1    0    0    0  501  0.00000000000E+00  0.00000000000E+00 -0.52209228957E+03  0.52209228959E+03  0.50400001928E-02 0.  1.
    10030    2    1    2    0    0  0.00000000000E+00  0.00000000000E+00  0.16690220259E+03  0.12110867818E+04  0.11995310950E+04 0.  0.
        5    1    3    3  502    0  0.66857646532E+02 -0.22299947982E+03 -0.47459216839E+03  0.52863837280E+03  0.46999998093E+01 0.  1.
       -5    1    3    3    0  502 -0.66857646532E+02  0.22299947982E+03  0.64149437099E+03  0.68244840897E+03  0.46999998093E+01 0. -1.
</event>
<event>
 5   0  0.5745487E-05  0.1199735E+04  0.7818609E-02  0.9113088E-01
       -1   -1    0    0    0  501  0.00000000000E+00  0.00000000000E+00  0.44648911223E+03  0.44648911226E+03  0.50400001928E-02 0.  1.
        1   -1    0    0  501    0  0.00000000000E+00  0.00000000000E+00 -0.80593489612E+03  0.80593489613E+03  0.50400001928E-02 0. -1.
    10030    2    1    2    0    0  0.00000000000E+00  0.00000000000E+00 -0.35944578389E+03  0.12524240084E+04  0.11997352313E+04 0.  0.
        3    1    3    3  502    0 -0.21008988155E+03  0.56033906166E+03 -0.13638431876E+03  0.61377383046E+03  0.10100000352E+00 0. -1.
       -3    1    3    3    0  502  0.21008988155E+03 -0.56033906166E+03 -0.22306146513E+03  0.63865017793E+03  0.10100000352E+00 0.  1.
</event>
<event>
 5   0  0.3839750E-05  0.1196991E+04  0.7818609E-02  0.9115494E-01
       -3   -1    0    0    0  501  0.00000000000E+00  0.00000000000E+00  0.29322368062E+03  0.29322369802E+03  0.10100000352E+00 0. -1.
        3   -1    0    0  501    0  0.00000000000E+00  0.00000000000E+00 -0.12215826222E+04  0.12215826263E+04  0.10100000352E+00 0.  1.
    10030    2    1    2    0    0  0.00000000000E+00  0.00000000000E+00 -0.92835894155E+03  0.15148063244E+04  0.11969911762E+04 0.  0.
        5    1    3    3  502    0 -0.53193247256E+03 -0.20921612299E+03 -0.68861195686E+03  0.89494807593E+03  0.46999998093E+01 0. -1.
       -5    1    3    3    0  502  0.53193247256E+03  0.20921612299E+03 -0.23974698469E+03  0.61985824843E+03  0.46999998093E+01 0.  1.
</event>
<event>
 5   0  0.5732931E-05  0.1199652E+04  0.7818609E-02  0.9113161E-01
       -1   -1    0    0    0  501  0.00000000000E+00  0.00000000000E+00  0.16484293977E+03  0.16484293984E+03  0.50400001928E-02 0. -1.
        1   -1    0    0  501    0  0.00000000000E+00  0.00000000000E+00 -0.21826297486E+04  0.21826297486E+04  0.50400001928E-02 0.  1.
    10030    2    1    2    0    0  0.00000000000E+00  0.00000000000E+00 -0.20177868088E+04  0.23474726884E+04  0.11996517899E+04 0.  0.
        4    1    3    3  502    0 -0.27150706962E+03  0.38501962181E+03 -0.28241550247E+03  0.54928710796E+03  0.12699999809E+01 0. -1.
       -4    1    3    3    0  502  0.27150706962E+03 -0.38501962181E+03 -0.17353713063E+04  0.17981855804E+04  0.12699999809E+01 0.  1.
</event>
<event>
 5   0  0.9838215E-05  0.1199833E+04  0.7818609E-02  0.9113003E-01
        2   -1    0    0  501    0  0.00000000000E+00  0.00000000000E+00  0.43133963995E+03  0.43133963996E+03  0.25500000920E-02 0. -1.
       -2   -1    0    0    0  501  0.00000000000E+00  0.00000000000E+00 -0.83437667236E+03  0.83437667236E+03  0.25500000920E-02 0.  1.
    10030    2    1    2    0    0  0.00000000000E+00  0.00000000000E+00 -0.40303703241E+03  0.12657163123E+04  0.11998328774E+04 0.  0.
        4    1    3    3  502    0  0.39506330118E+03 -0.17841263995E+02  0.27436750233E+03  0.48132365605E+03  0.12699999809E+01 0. -1.
       -4    1    3    3    0  502 -0.39506330118E+03  0.17841263995E+02 -0.67740453473E+03  0.78439265627E+03  0.12699999809E+01 0.  1.
</event>
<event>
 5   0  0.5732931E-05  0.1200235E+04  0.7818609E-02  0.9112651E-01
        1   -1    0    0  501    0  0.00000000000E+00  0.00000000000E+00  0.45822962064E+03  0.45822962066E+03  0.50400001928E-02 0.  1.
       -1   -1    0    0    0  501  0.00000000000E+00  0.00000000000E+00 -0.78593996218E+03  0.78593996220E+03  0.50400001928E-02 0. -1.
    10030    2    1    2    0    0  0.00000000000E+00  0.00000000000E+00 -0.32771034155E+03  0.12441695829E+04  0.12002349282E+04 0.  0.
        4    1    3    3  502    0  0.43501067478E+03  0.40133997134E+03 -0.61072771740E+02  0.59501223191E+03  0.12699999809E+01 0.  1.
       -4    1    3    3    0  502 -0.43501067478E+03 -0.40133997134E+03 -0.26663756981E+03  0.64915735096E+03  0.12699999809E+01 0. -1.
</event>
<event>
 5   0  0.1004006E-04  0.1196786E+04  0.7818609E-02  0.9115674E-01
       -2   -1    0    0    0  501  0.00000000000E+00  0.00000000000E+00  0.41633236212E+03  0.41633236213E+03  0.25500000920E-02 0. -1.
        2   -1    0    0  501    0  0.00000000000E+00  0.00000000000E+00 -0.86006822730E+03  0.86006822731E+03  0.25500000920E-02 0.  1.
    10030    2    1    2    0    0  0.00000000000E+00  0.00000000000E+00 -0.44373586518E+03  0.12764005894E+04  0.11967860906E+04 0.  0.
        5    1    3    3  502    0 -0.20387494479E+03 -0.11105569327E+03  0.36632130917E+03  0.43371851663E+03  0.46999998093E+01 0. -1.
       -5    1    3    3    0  502  0.20387494479E+03  0.11105569327E+03 -0.81005717435E+03  0.84268207281E+03  0.46999998093E+01 0.  1.
</event>
<event>
 5   0  0.5745487E-05  0.1200136E+04  0.7818609E-02  0.9112738E-01
       -1   -1    0    0    0  501  0.00000000000E+00  0.00000000000E+00  0.32283702799E+03  0.32283702803E+03  0.50400001928E-02 0. -1.
        1   -1    0    0  501    0  0.00000000000E+00  0.00000000000E+00 -0.11153657527E+04  0.11153657527E+04  0.50400001928E-02 0.  1.
    10030    2    1    2    0    0  0.00000000000E+00  0.00000000000E+00 -0.79252872467E+03  0.14382027807E+04  0.12001356003E+04 0.  0.
        3    1    3    3  502    0  0.18062783087E+03 -0.37285973137E+03 -0.91645852822E+03  0.10057569471E+04  0.10100000352E+00 0.  1.
       -3    1    3    3    0  502 -0.18062783087E+03  0.37285973137E+03  0.12392980355E+03  0.43244583357E+03  0.10100000352E+00 0. -1.
</event>
<event>
 5   0  0.9941209E-05  0.1198741E+04  0.7818609E-02  0.9113959E-01
       -2   -1    0    0    0  501  0.00000000000E+00  0.00000000000E+00  0.81847078914E+03  0.81847078914E+03  0.25500000920E-02 0. -1.
        2   -1    0    0  501    0  0.00000000000E+00  0.00000000000E+00 -0.43892247479E+03  0.43892247480E+03  0.25500000920E-02 0.  1.
    10030    2    1    2    0    0  0.00000000000E+00  0.00000000000E+00  0.37954831435E+03  0.12573932639E+04  0.11987413805E+04 0.  0.
        2    1    3    3  502    0 -0.47563268700E+03 -0.36428669502E+03  0.17118784170E+03  0.62308629119E+03  0.25500000920E-02 0.  1.
       -2    1    3    3    0  502  0.47563268700E+03  0.36428669502E+03  0.20836047264E+03  0.63430697275E+03  0.25500000920E-02 0. -1.
</event>
<event>
 5   0  0.9838215E-05  0.1200299E+04  0.7818609E-02  0.9112595E-01
       -2   -1    0    0    0  501  0.00000000000E+00  0.00000000000E+00  0.20044090380E+03  0.20044090382E+03  0.25500000920E-02 0.  1.
        2   -1    0    0  501    0  0.00000000000E+00  0.00000000000E+00 -0.17969345519E+04  0.17969345519E+04  0.25500000920E-02 0. -1.
    10030    2    1    2    0    0  0.00000000000E+00  0.00000000000E+00 -0.15964936481E+04  0.19973754558E+04  0.12002986056E+04 0.  0.
        4    1    3    3  502    0 -0.24689462418E+03  0.15587566626E+03  0.74274913655E+02  0.30128483944E+03  0.12699999809E+01 0.  1.
       -4    1    3    3    0  502  0.24689462418E+03 -0.15587566626E+03 -0.16707685618E+04  0.16960906163E+04  0.12699999809E+01 0. -1.
</event>
<event>
 5   0  0.9941209E-05  0.1200282E+04  0.7818609E-02  0.9112610E-01
        2   -1    0    0  501    0  0.00000000000E+00  0.00000000000E+00  0.41022196935E+03  0.41022196936E+03  0.25500000920E-02 0.  1.
       -2   -1    0    0    0  501  0.00000000000E+00  0.00000000000E+00 -0.87798570504E+03  0.87798570504E+03  0.25500000920E-02 0. -1.
    10030    2    1    2    0    0  0.00000000000E+00  0.00000000000E+00 -0.46776373569E+03  0.12882076744E+04  0.12002816753E+04 0.  0.
        2    1    3    3  502    0 -0.57473461721E+03  0.16507692077E+03 -0.28859421856E+03  0.66397055129E+03  0.25500000920E-02 0.  1.
       -2    1    3    3    0  502  0.57473461721E+03 -0.16507692077E+03 -0.17916951713E+03  0.62423712311E+03  0.25500000920E-02 0. -1.
</event>
<event>
 5   0  0.5732931E-05  0.1200103E+04  0.7818609E-02  0.9112767E-01
        1   -1    0    0  501    0  0.00000000000E+00  0.00000000000E+00  0.37250978816E+03  0.37250978820E+03  0.50400001928E-02 0. -1.
       -1   -1    0    0    0  501  0.00000000000E+00  0.00000000000E+00 -0.96658306603E+03  0.96658306604E+03  0.50400001928E-02 0.  1.
    10030    2    1    2    0    0  0.00000000000E+00  0.00000000000E+00 -0.59407327787E+03  0.13390928542E+04  0.12001027509E+04 0.  0.
        4    1    3    3  502    0  0.34160421687E+03  0.45953839676E+03 -0.96838558836E+02  0.58073083133E+03  0.12699999809E+01 0. -1.
       -4    1    3    3    0  502 -0.34160421687E+03 -0.45953839676E+03 -0.49723471903E+03  0.75836202291E+03  0.12699999809E+01 0.  1.
</event>
<event>
 5   0  0.1004006E-04  0.1199951E+04  0.7818609E-02  0.9112899E-01
        2   -1    0    0  501    0  0.00000000000E+00  0.00000000000E+00  0.16410029674E+04  0.16410029674E+04  0.25500000920E-02 0. -1.
       -2   -1    0    0    0  501  0.00000000000E+00  0.00000000000E+00 -0.21936021978E+03  0.21936021979E+03  0.25500000920E-02 0.  1.
    10030    2    1    2    0    0  0.00000000000E+00  0.00000000000E+00  0.14216427476E+04  0.18603631872E+04  0.11999512850E+04 0.  0.
        5    1    3    3  502    0  0.45622839955E+03  0.19606859182E+03  0.18882583426E+03  0.53128573380E+03  0.46999998093E+01 0.  1.
       -5    1    3    3    0  502 -0.45622839955E+03 -0.19606859182E+03  0.12328169134E+04  0.13290774534E+04  0.46999998093E+01 0. -1.
</event>
<event>
 5   0  0.5447807E-05  0.1199740E+04  0.7818609E-02  0.9113084E-01
       -1   -1    0    0    0  501  0.00000000000E+00  0.00000000000E+00  0.14793421160E+03  0.14793421169E+03  0.50400001928E-02 0. -1.
        1   -1    0    0  501    0  0.00000000000E+00  0.00000000000E+00 -0.24324607026E+04  0.24324607026E+04  0.50400001928E-02 0.  1.
    10030    2    1    2    0    0  0.00000000000E+00  0.00000000000E+00 -0.22845264910E+04  0.25803949143E+04  0.11997402326E+04 0.  0.
        2    1    3    3  502    0  0.72677739934E+01 -0.48153727233E+03 -0.19114939681E+04  0.19712280830E+04  0.25500000920E-02 0.  1.
       -2    1    3    3    0  502 -0.72677739934E+01  0.48153727233E+03 -0.37303252292E+03  0.60916683129E+03  0.25500000920E-02 0. -1.
</event>
<event>
 5   0  0.5620246E-05  0.1200312E+04  0.7818609E-02  0.9112584E-01
        1   -1    0    0  501    0  0.00000000000E+00  0.00000000000E+00  0.75480090280E+03  0.75480090281E+03  0.50400001928E-02 0. -1.
       -1   -1    0    0    0  501  0.00000000000E+00  0.00000000000E+00 -0.47719473949E+03  0.47719473951E+03  0.50400001928E-02 0.  1.
    10030    2    1    2    0    0  0.00000000000E+00  0.00000000000E+00  0.27760616331E+03  0.12319956423E+04  0.12003116599E+04 0.  0.
        1    1    3    3  502    0 -0.40339961937E+03 -0.25067126867E+03  0.51539364007E+03  0.70085515058E+03  0.50400001928E-02 0. -1.
       -1    1    3    3    0  502  0.40339961937E+03  0.25067126867E+03 -0.23778747676E+03  0.53114049175E+03  0.50400001928E-02 0.  1.
</event>
<event>
 5   0  0.5625746E-05  0.1200123E+04  0.7818609E-02  0.9112749E-01
        1   -1    0    0  501    0  0.00000000000E+00  0.00000000000E+00  0.83609789147E+03  0.83609789149E+03  0.50400001928E-02 0.  1.
       -1   -1    0    0    0  501  0.00000000000E+00  0.00000000000E+00 -0.43065982253E+03  0.43065982256E+03  0.50400001928E-02 0. -1.
    10030    2    1    2    0    0  0.00000000000E+00  0.00000000000E+00  0.40543806894E+03  0.12667577140E+04  0.12001229430E+04 0.  0.
        5    1    3    3  502    0 -0.25006890019E+03  0.27183985278E+03 -0.29642220237E+03  0.47362387235E+03  0.46999998093E+01 0. -1.
       -5    1    3    3    0  502  0.25006890019E+03 -0.27183985278E+03  0.70186027131E+03  0.79313384170E+03  0.46999998093E+01 0.  1.
</event>
<event>
 5   0  0.5732931E-05  0.1200547E+04  0.7818609E-02  0.9112378E-01
       -1   -1    0    0    0  501  0.00000000000E+00  0.00000000000E+00  0.26336806645E+03  0.26336806650E+03  0.50400001928E-02 0.  1.
        1   -1    0    0  501    0  0.00000000000E+00  0.00000000000E+00 -0.13681553055E+04  0.13681553055E+04  0.50400001928E-02 0. -1.
    10030    2    1    2    0    0  0.00000000000E+00  0.00000000000E+00 -0.11047872390E+04  0.16315233720E+04  0.12005472376E+04 0.  0.
        4    1    3    3  502    0  0.25026881258E+03 -0.40227908625E+03 -0.51476325653E+02  0.47656517581E+03  0.12699999809E+01 0.  1.
       -4    1    3    3    0  502 -0.25026881258E+03  0.40227908625E+03 -0.10533109134E+04  0.11549581962E+04  0.12699999809E+01 0. -1.
</event>
<event>
 5   0  0.1012657E-04  0.1201094E+04  0.7818609E-02  0.9111900E-01
       -2   -1    0    0    0  501  0.00000000000E+00  0.00000000000E+00  0.49026789772E+03  0.49026789773E+03  0.25500000920E-02 0.  1.
        2   -1    0    0  501    0  0.00000000000E+00  0.00000000000E+00 -0.73563134800E+03  0.73563134801E+03  0.25500000920E-02 0. -1.
    10030    2    1    2    0    0  0.00000000000E+00  0.00000000000E+00 -0.24536345028E+03  0.12258992457E+04  0.12010935592E+04 0.  0.
        1    1    3    3  502    0  0.42041748871E+03  0.30556053359E+03 -0.42979188173E+03  0.67441764962E+03  0.50400001928E-02 0. -1.
       -1    1    3    3    0  502 -0.42041748871E+03 -0.30556053359E+03  0.18442843145E+03  0.55148159611E+03  0.50400001928E-02 0.  1.
</event>
<event>
 5   0  0.5620246E-05  0.1198432E+04  0.7818609E-02  0.9114230E-01
       -1   -1    0    0    0  501  0.00000000000E+00  0.00000000000E+00  0.91799844138E+03  0.91799844139E+03  0.50400001928E-02 0.  1.
        1   -1    0    0  501    0  0.00000000000E+00  0.00000000000E+00 -0.39113353189E+03  0.39113353193E+03  0.50400001928E-02 0. -1.
    10030    2    1    2    0    0  0.00000000000E+00  0.00000000000E+00  0.52686490948E+03  0.13091319733E+04  0.11984322637E+04 0.  0.
        1    1    3    3  502    0 -0.22471672640E+03 -0.29645082637E+03 -0.24972507971E+03  0.44804387624E+03  0.50400001928E-02 0. -1.
       -1    1    3    3    0  502  0.22471672640E+03  0.29645082637E+03  0.77658998919E+03  0.86108809707E+03  0.50400001928E-02 0.  1.
</event>
<event>
 5   0  0.1023063E-04  0.1199936E+04  0.7818609E-02  0.9112913E-01
       -2   -1    0    0    0  501  0.00000000000E+00  0.00000000000E+00  0.32632599972E+03  0.32632599973E+03  0.25500000920E-02 0.  1.
        2   -1    0    0  501    0  0.00000000000E+00  0.00000000000E+00 -0.11030733206E+04  0.11030733206E+04  0.25500000920E-02 0. -1.
    10030    2    1    2    0    0  0.00000000000E+00  0.00000000000E+00 -0.77674732086E+03  0.14293993203E+04  0.11999358385E+04 0.  0.
        3    1    3    3  502    0 -0.10961590826E+03  0.22572897988E+03 -0.10375581315E+04  0.10674718292E+04  0.10100000352E+00 0. -1.
       -3    1    3    3    0  502  0.10961590826E+03 -0.22572897988E+03  0.26081081062E+03  0.36192749113E+03  0.10100000352E+00 0.  1.
</event>
<event>
 5   0  0.1012657E-04  0.1197874E+04  0.7818609E-02  0.9114720E-01
        2   -1    0    0  501    0  0.00000000000E+00  0.00000000000E+00  0.96372655380E+03  0.96372655380E+03  0.25500000920E-02 0.  1.
       -2   -1    0    0    0  501  0.00000000000E+00  0.00000000000E+00 -0.37222745535E+03  0.37222745536E+03  0.25500000920E-02 0. -1.
    10030    2    1    2    0    0  0.00000000000E+00  0.00000000000E+00  0.59149909845E+03  0.13359540092E+04  0.11978739212E+04 0.  0.
        1    1    3    3  502    0  0.41519690672E+03  0.35722222035E+03  0.56602574508E+03  0.78764289508E+03  0.50400001928E-02 0.  1.
       -1    1    3    3    0  502 -0.41519690672E+03 -0.35722222035E+03  0.25473353375E+02  0.54831111408E+03  0.50400001928E-02 0. -1.
</event>
<event>
 5   0  0.1012657E-04  0.1199793E+04  0.7818609E-02  0.9113037E-01
       -2   -1    0    0    0  501  0.00000000000E+00  0.00000000000E+00  0.22891026581E+03  0.22891026583E+03  0.25500000920E-02 0. -1.
        2   -1    0    0  501    0  0.00000000000E+00  0.00000000000E+00 -0.15721274084E+04  0.15721274084E+04  0.25500000920E-02 0.  1.
    10030    2    1    2    0    0  0.00000000000E+00  0.00000000000E+00 -0.13432171426E+04  0.18010376742E+04  0.11997934872E+04 0.  0.
        1    1    3    3  502    0 -0.27856801983E+02  0.57407315156E+03 -0.41360696399E+03  0.70810077351E+03  0.50400001928E-02 0. -1.
       -1    1    3    3    0  502  0.27856801983E+02 -0.57407315156E+03 -0.92961017857E+03  0.10929369007E+04  0.50400001928E-02 0.  1.
</event>
<event>
 5   0  0.1004006E-04  0.1199627E+04  0.7818609E-02  0.9113183E-01
        2   -1    0    0  501    0  0.00000000000E+00  0.00000000000E+00  0.10935945985E+04  0.10935945985E+04  0.25500000920E-02 0.  1.
       -2   -1    0    0    0  501  0.00000000000E+00  0.00000000000E+00 -0.32898512936E+03  0.32898512937E+03  0.25500000920E-02 0. -1.
    10030    2    1    2    0    0  0.00000000000E+00  0.00000000000E+00  0.76460946913E+03  0.14225797279E+04  0.11996272095E+04 0.  0.
        5    1    3    3  502    0  0.51854145952E+03  0.27789151375E+03  0.24378158475E+03  0.63683631313E+03  0.46999998093E+01 0.  1.
       -5    1    3    3    0  502 -0.51854145952E+03 -0.27789151375E+03  0.52082788438E+03  0.78574341474E+03  0.46999998093E+01 0. -1.
</event>
<event>
 5   0  0.5625746E-05  0.1200055E+04  0.7818609E-02  0.9112808E-01
       -1   -1    0    0    0  501  0.00000000000E+00  0.00000000000E+00  0.46396983560E+03  0.46396983562E+03  0.50400001928E-02 0. -1.
        1   -1    0    0  501    0  0.00000000000E+00  0.00000000000E+00 -0.77598350162E+03  0.77598350163E+03  0.50400001928E-02 0.  1.
    10030    2    1    2    0    0  0.00000000000E+00  0.00000000000E+00 -0.31201366602E+03  0.12399533373E+04  0.12000548949E+04 0.  0.
        5    1    3    3  502    0 -0.96750083463E+02 -0.35887640173E+03  0.33067123269E+03  0.49751221542E+03  0.46999998093E+01 0. -1.
       -5    1    3    3    0  502  0.96750083463E+02  0.35887640173E+03 -0.64268489871E+03  0.74244112184E+03  0.46999998093E+01 0.  1.
</event>
<event>
 5   0  0.1023063E-04  0.1200049E+04  0.7818609E-02  0.9112813E-01
        2   -1    0    0  501    0  0.00000000000E+00  0.00000000000E+00  0.80841119129E+03  0.80841119130E+03  0.25500000920E-02 0. -1.
       -2   -1    0    0    0  501  0.00000000000E+00  0.00000000000E+00 -0.44535457381E+03  0.44535457381E+03  0.25500000920E-02 0.  1.
    10030    2    1    2    0    0  0.00000000000E+00  0.00000000000E+00  0.36305661749E+03  0.12537657651E+04  0.12000493683E+04 0.  0.
        3    1    3    3  502    0  0.47185619797E+03  0.28029167673E+03 -0.71851561736E+02  0.55351093280E+03  0.10100000352E+00 0.  1.
       -3    1    3    3    0  502 -0.47185619797E+03 -0.28029167673E+03  0.43490817922E+03  0.70025483231E+03  0.10100000352E+00 0. -1.
</event>
<event>
 5   0  0.5447807E-05  0.1199551E+04  0.7818609E-02  0.9113250E-01
        1   -1    0    0  501    0  0.00000000000E+00  0.00000000000E+00  0.94746999671E+03  0.94746999673E+03  0.50400001928E-02 0. -1.
       -1   -1    0    0    0  501  0.00000000000E+00  0.00000000000E+00 -0.37967500109E+03  0.37967500112E+03  0.50400001928E-02 0.  1.
    10030    2    1    2    0    0  0.00000000000E+00  0.00000000000E+00  0.56779499562E+03  0.13271449978E+04  0.11995510361E+04 0.  0.
        2    1    3    3  502    0  0.27188720354E+03 -0.23367675415E+03 -0.24808403947E+03  0.43597381519E+03  0.25500000920E-02 0.  1.
       -2    1    3    3    0  502 -0.27188720354E+03  0.23367675415E+03  0.81587903510E+03  0.89117118266E+03  0.25500000920E-02 0. -1.
</event>
<event>
 5   0  0.5620246E-05  0.1200115E+04  0.7818609E-02  0.9112756E-01
        1   -1    0    0  501    0  0.00000000000E+00  0.00000000000E+00  0.38462926455E+03  0.38462926458E+03  0.50400001928E-02 0.  1.
       -1   -1    0    0    0  501  0.00000000000E+00  0.00000000000E+00 -0.93614623705E+03  0.93614623706E+03  0.50400001928E-02 0. -1.
    10030    2    1    2    0    0  0.00000000000E+00  0.00000000000E+00 -0.55151697250E+03  0.13207755016E+04  0.12001153923E+04 0.  0.
        1    1    3    3  502    0  0.77696361781E+02 -0.44531171671E+03  0.15854380981E+03  0.47903589566E+03  0.50400001928E-02 0.  1.
       -1    1    3    3    0  502 -0.77696361781E+02  0.44531171671E+03 -0.71006078231E+03  0.84173960598E+03  0.50400001928E-02 0. -1.
</event>
<event>
 5   0  0.5745487E-05  0.1198710E+04  0.7818609E-02  0.9113986E-01
       -1   -1    0    0    0  501  0.00000000000E+00  0.00000000000E+00  0.30658386739E+03  0.30658386743E+03  0.50400001928E-02 0. -1.
        1   -1    0    0  501    0  0.00000000000E+00  0.00000000000E+00 -0.11717073723E+04  0.11717073723E+04  0.50400001928E-02 0.  1.
    10030    2    1    2    0    0  0.00000000000E+00  0.00000000000E+00 -0.86512350495E+03  0.14782912398E+04  0.11987102697E+04 0.  0.
        3    1    3    3  502    0 -0.35404066637E+03  0.16435999986E+03 -0.99347019641E+03  0.10673996648E+04  0.10100000352E+00 0.  1.
       -3    1    3    3    0  502  0.35404066637E+03 -0.16435999986E+03  0.12834669146E+03  0.41089157500E+03  0.10100000352E+00 0. -1.
</event>
<event>
 5   0  0.5745487E-05  0.1198923E+04  0.7818609E-02  0.9113800E-01
       -1   -1    0    0    0  501  0.00000000000E+00  0.00000000000E+00  0.48613078528E+03  0.48613078531E+03  0.50400001928E-02 0. -1.
        1   -1    0    0  501    0  0.00000000000E+00  0.00000000000E+00 -0.73921217258E+03  0.73921217260E+03  0.50400001928E-02 0.  1.
    10030    2    1    2    0    0  0.00000000000E+00  0.00000000000E+00 -0.25308138730E+03  0.12253429579E+04  0.11989225062E+04 0.  0.
        3    1    3    3  502    0  0.59828818308E+03 -0.15777005729E+01 -0.88264839671E+02  0.60476601366E+03  0.10100000352E+00 0.  1.
       -3    1    3    3    0  502 -0.59828818308E+03  0.15777005729E+01 -0.16481654763E+03  0.62057694425E+03  0.10100000352E+00 0. -1.
</event>
<event>
 5   0  0.9941209E-05  0.1200056E+04  0.7818609E-02  0.9112807E-01
        2   -1    0    0  501    0  0.00000000000E+00  0.00000000000E+00  0.90103688766E+03  0.90103688766E+03  0.25500000920E-02 0. -1.
       -2   -1    0    0    0  501  0.00000000000E+00  0.00000000000E+00 -0.39957717593E+03  0.39957717594E+03  0.25500000920E-02 0.  1.
    10030    2    1    2    0    0  0.00000000000E+00  0.00000000000E+00  0.50145971172E+03  0.13006140636E+04  0.12000562903E+04 0.  0.
        2    1    3    3  502    0 -0.17552761563E+03  0.22615563143E+03  0.82224760591E+03  0.87065919791E+03  0.25500000920E-02 0. -1.
       -2    1    3    3    0  502  0.17552761563E+03 -0.22615563143E+03 -0.32078789418E+03  0.42995486570E+03  0.25500000920E-02 0.  1.
</event>
<event>
 5   0  0.5625746E-05  0.1200365E+04  0.7818609E-02  0.9112537E-01
        1   -1    0    0  501    0  0.00000000000E+00  0.00000000000E+00  0.14037203775E+04  0.14037203775E+04  0.50400001928E-02 0. -1.
       -1   -1    0    0    0  501  0.00000000000E+00  0.00000000000E+00 -0.25661718091E+03  0.25661718096E+03  0.50400001928E-02 0.  1.
    10030    2    1    2    0    0  0.00000000000E+00  0.00000000000E+00  0.11471031966E+04  0.16603375585E+04  0.12003645548E+04 0.  0.
        5    1    3    3  502    0 -0.17953315538E+02 -0.22032822581E+03  0.13453317313E+04  0.13633805067E+04  0.46999998093E+01 0. -1.
       -5    1    3    3    0  502  0.17953315538E+02  0.22032822581E+03 -0.19822853474E+03  0.29695705180E+03  0.46999998093E+01 0.  1.
</event>
<event>
 5   0  0.1004006E-04  0.1197793E+04  0.7818609E-02  0.9114791E-01
        2   -1    0    0  501    0  0.00000000000E+00  0.00000000000E+00  0.47562733709E+03  0.47562733710E+03  0.25500000920E-02 0.  1.
       -2   -1    0    0    0  501  0.00000000000E+00  0.00000000000E+00 -0.75411298104E+03  0.75411298104E+03  0.25500000920E-02 0. -1.
    10030    2    1    2    0    0  0.00000000000E+00  0.00000000000E+00 -0.27848564394E+03  0.12297403181E+04  0.11977925514E+04 0.  0.
        5    1    3    3  502    0 -0.32229022190E+03 -0.91768109266E+02 -0.64883049827E+03  0.73027082545E+03  0.46999998093E+01 0. -1.
       -5    1    3    3    0  502  0.32229022190E+03  0.91768109266E+02  0.37034485433E+03  0.49946949270E+03  0.46999998093E+01 0.  1.
</event>
<event>
 5   0  0.5447807E-05  0.1202144E+04  0.7818609E-02  0.9110982E-01
       -1   -1    0    0    0  501  0.00000000000E+00  0.00000000000E+00  0.28222479242E+03  0.28222479247E+03  0.50400001928E-02 0.  1.
        1   -1    0    0  501    0  0.00000000000E+00  0.00000000000E+00 -0.12801419666E+04  0.12801419666E+04  0.50400001928E-02 0. -1.
    10030    2    1    2    0    0  0.00000000000E+00  0.00000000000E+00 -0.99791717421E+03  0.15623667591E+04  0.12021444187E+04 0.  0.
        2    1    3    3  502    0  0.30214908440E+03  0.44495743735E+03 -0.84770723321E+03  0.10039366232E+04  0.25500000920E-02 0. -1.
       -2    1    3    3    0  502 -0.30214908440E+03 -0.44495743735E+03 -0.15020994101E+03  0.55843013586E+03  0.25500000920E-02 0.  1.
</event>
<event>
 5   0  0.3839750E-05  0.1199781E+04  0.7818609E-02  0.9113048E-01
       -4   -1    0    0    0  501  0.00000000000E+00  0.00000000000E+00  0.87091189950E+03  0.87091282549E+03  0.12699999809E+01 0.  1.
        4   -1    0    0  501    0  0.00000000000E+00  0.00000000000E+00 -0.41320685458E+03  0.41320880626E+03  0.12699999809E+01 0. -1.
    10030    2    1    2    0    0  0.00000000000E+00  0.00000000000E+00  0.45770504493E+03  0.12841216317E+04  0.11997810038E+04 0.  0.
        4    1    3    3  502    0  0.19128283162E+02 -0.59320344465E+03  0.13548004955E+03  0.60877966022E+03  0.12699999809E+01 0. -1.
       -4    1    3    3    0  502 -0.19128283162E+02  0.59320344465E+03  0.32222499537E+03  0.67534197153E+03  0.12699999809E+01 0.  1.
</event>
<event>
 5   0  0.5620246E-05  0.1199729E+04  0.7818609E-02  0.9113094E-01
        1   -1    0    0  501    0  0.00000000000E+00  0.00000000000E+00  0.66191672035E+03  0.66191672037E+03  0.50400001928E-02 0.  1.
       -1   -1    0    0    0  501  0.00000000000E+00  0.00000000000E+00 -0.54362967535E+03  0.54362967537E+03  0.50400001928E-02 0. -1.
    10030    2    1    2    0    0  0.00000000000E+00  0.00000000000E+00  0.11828704500E+03  0.12055463957E+04  0.11997292558E+04 0.  0.
        1    1    3    3  502    0  0.22134303948E+03 -0.53720239685E+03  0.20905945898E+03  0.61748280439E+03  0.50400001928E-02 0.  1.
       -1    1    3    3    0  502 -0.22134303948E+03  0.53720239685E+03 -0.90772413976E+02  0.58806359135E+03  0.50400001928E-02 0. -1.
</event>
<event>
 5   0  0.5447807E-05  0.1199716E+04  0.7818609E-02  0.9113105E-01
        1   -1    0    0  501    0  0.00000000000E+00  0.00000000000E+00  0.10469024541E+04  0.10469024541E+04  0.50400001928E-02 0. -1.
       -1   -1    0    0    0  501  0.00000000000E+00  0.00000000000E+00 -0.34370905954E+03  0.34370905957E+03  0.50400001928E-02 0.  1.
    10030    2    1    2    0    0  0.00000000000E+00  0.00000000000E+00  0.70319339452E+03  0.13906115136E+04  0.11997163964E+04 0.  0.
        2    1    3    3  502    0  0.28287877528E+03  0.45739278347E+03  0.65958453690E+03  0.85104660342E+03  0.25500000920E-02 0. -1.
       -2    1    3    3    0  502 -0.28287877528E+03 -0.45739278347E+03  0.43608857620E+02  0.53956491022E+03  0.25500000920E-02 0.  1.
</event>
<event>
 5   0  0.1012657E-04  0.1199158E+04  0.7818609E-02  0.9113593E-01
        2   -1    0    0  501    0  0.00000000000E+00  0.00000000000E+00  0.17168353056E+04  0.17168353056E+04  0.25500000920E-02 0. -1.
       -2   -1    0    0    0  501  0.00000000000E+00  0.00000000000E+00 -0.20939413732E+03  0.20939413733E+03  0.25500000920E-02 0.  1.
    10030    2    1    2    0    0  0.00000000000E+00  0.00000000000E+00  0.15074411683E+04  0.19262294429E+04  0.11991584512E+04 0.  0.
        1    1    3    3  502    0 -0.45563166522E+03 -0.36478739017E+03  0.53332587378E+03  0.79063679528E+03  0.50400001928E-02 0. -1.
       -1    1    3    3    0  502  0.45563166522E+03  0.36478739017E+03  0.97411529450E+03  0.11355926476E+04  0.50400001928E-02 0.  1.
</event>
<event>
 5   0  0.1012657E-04  0.1200158E+04  0.7818609E-02  0.9112718E-01
       -2   -1    0    0    0  501  0.00000000000E+00  0.00000000000E+00  0.40225046493E+03  0.40225046494E+03  0.25500000920E-02 0.  1.
        2   -1    0    0  501    0  0.00000000000E+00  0.00000000000E+00 -0.89520107764E+03  0.89520107764E+03  0.25500000920E-02 0. -1.
    10030    2    1    2    0    0  0.00000000000E+00  0.00000000000E+00 -0.49295061271E+03  0.12974515426E+04  0.12001584057E+04 0.  0.
        1    1    3    3  502    0  0.23842064306E+03  0.54609839063E+03 -0.32312588096E+03  0.67784820591E+03  0.50400001928E-02 0. -1.
       -1    1    3    3    0  502 -0.23842064306E+03 -0.54609839063E+03 -0.16982473176E+03  0.61960333668E+03  0.50400001928E-02 0.  1.
</event>
<event>
 5   0  0.3839750E-05  0.1200312E+04  0.7818609E-02  0.9112584E-01
        3   -1    0    0  501    0  0.00000000000E+00  0.00000000000E+00  0.47665464784E+03  0.47665465854E+03  0.10100000352E+00 0.  1.
       -3   -1    0    0    0  501  0.00000000000E+00  0.00000000000E+00 -0.75565646516E+03  0.75565647191E+03  0.10100000352E+00 0. -1.
    10030    2    1    2    0    0  0.00000000000E+00  0.00000000000E+00 -0.27900181732E+03  0.12323111305E+04  0.12003119212E+04 0.  0.
        2    1    3    3  502    0  0.13272903364E+02 -0.47264080000E+02  0.47458980480E+03  0.47712215003E+03  0.25500000920E-02 0.  1.
       -2    1    3    3    0  502 -0.13272903364E+02  0.47264080000E+02 -0.75359162212E+03  0.75518898042E+03  0.25500000920E-02 0. -1.
</event>
<event>
 5   0  0.5732931E-05  0.1199910E+04  0.7818609E-02  0.9112935E-01
       -1   -1    0    0    0  501  0.00000000000E+00  0.00000000000E+00  0.56382061486E+03  0.56382061489E+03  0.50400001928E-02 0. -1.
        1   -1    0    0  501    0  0.00000000000E+00  0.00000000000E+00 -0.63840569707E+03  0.63840569709E+03  0.50400001928E-02 0.  1.
    10030    2    1    2    0    0  0.00000000000E+00  0.00000000000E+00 -0.74585082209E+02  0.12022263120E+04  0.11999104845E+04 0.  0.
        4    1    3    3  502    0 -0.45766102811E+03  0.35651636121E+03 -0.19051626262E+03  0.61061902335E+03  0.12699999809E+01 0.  1.
       -4    1    3    3    0  502  0.45766102811E+03 -0.35651636121E+03  0.11593118041E+03  0.59160728862E+03  0.12699999809E+01 0. -1.
</event>
<event>
 5   0  0.1004006E-04  0.1200347E+04  0.7818609E-02  0.9112553E-01
       -2   -1    0    0    0  501  0.00000000000E+00  0.00000000000E+00  0.24204289680E+03  0.24204289681E+03  0.25500000920E-02 0. -1.
        2   -1    0    0  501    0  0.00000000000E+00  0.00000000000E+00 -0.14882009134E+04  0.14882009134E+04  0.25500000920E-02 0.  1.
    10030    2    1    2    0    0  0.00000000000E+00  0.00000000000E+00 -0.12461580166E+04  0.17302438102E+04  0.12003473832E+04 0.  0.
        5    1    3    3  502    0 -0.30954229172E+03  0.29102222693E+01 -0.13642176096E+04  0.13989055279E+04  0.46999998093E+01 0.  1.
       -5    1    3    3    0  502  0.30954229172E+03 -0.29102222693E+01  0.11805959305E+03  0.33133828222E+03  0.46999998093E+01 0. -1.
</event>
<event>
 5   0  0.5625746E-05  0.1199685E+04  0.7818609E-02  0.9113132E-01
       -1   -1    0    0    0  501  0.00000000000E+00  0.00000000000E+00  0.33334421882E+03  0.33334421886E+03  0.50400001928E-02 0. -1.
        1   -1    0    0  501    0  0.00000000000E+00  0.00000000000E+00 -0.10793983218E+04  0.10793983219E+04  0.50400001928E-02 0.  1.
    10030    2    1    2    0    0  0.00000000000E+00  0.00000000000E+00 -0.74605410303E+03  0.14127425407E+04  0.11996852761E+04 0.  0.
        5    1    3    3  502    0 -0.59159190057E+03 -0.60120459233E+02 -0.28035064970E+03  0.65742986183E+03  0.46999998093E+01 0. -1.
       -5    1    3    3    0  502  0.59159190057E+03  0.60120459233E+02 -0.46570345333E+03  0.75531267888E+03  0.46999998093E+01 0.  1.
</event>
<event>
 5   0  0.5447807E-05  0.1200009E+04  0.7818609E-02  0.9112849E-01
       -1   -1    0    0    0  501  0.00000000000E+00  0.00000000000E+00  0.37964050298E+03  0.37964050301E+03  0.50400001928E-02 0.  1.
        1   -1    0    0  501    0  0.00000000000E+00  0.00000000000E+00 -0.94828000271E+03  0.94828000273E+03  0.50400001928E-02 0. -1.
    10030    2    1    2    0    0  0.00000000000E+00  0.00000000000E+00 -0.56863949974E+03  0.13279205057E+04  0.12000091620E+04 0.  0.
        2    1    3    3  502    0 -0.21666624153E+03  0.55908883656E+03 -0.30858693158E+03  0.67435189755E+03  0.25500000920E-02 0. -1.
       -2    1    3    3    0  502  0.21666624153E+03 -0.55908883656E+03 -0.26005256816E+03  0.65356860818E+03  0.25500000920E-02 0.  1.
</event>
<event>
 5   0  0.1004006E-04  0.1199833E+04  0.7818609E-02  0.9113003E-01
       -2   -1    0    0    0  501  0.00000000000E+00  0.00000000000E+00  0.14210432724E+04  0.14210432724E+04  0.25500000920E-02 0. -1.
        2   -1    0    0  501    0  0.00000000000E+00  0.00000000000E+00 -0.25326453669E+03  0.25326453670E+03  0.25500000920E-02 0.  1.
    10030    2    1    2    0    0  0.00000000000E+00  0.00000000000E+00  0.11677787357E+04  0.16743078091E+04  0.11998330984E+04 0.  0.
        5    1    3    3  502    0  0.46795625381E+03 -0.30300801067E+03  0.27473842655E+03  0.62153053266E+03  0.46999998093E+01 0.  1.
       -5    1    3    3    0  502 -0.46795625381E+03  0.30300801067E+03  0.89304030913E+03  0.10527772764E+04  0.46999998093E+01 0. -1.
</event>
<event>
 5   0  0.1012657E-04  0.1199903E+04  0.7818609E-02  0.9112941E-01
        2   -1    0    0  501    0  0.00000000000E+00  0.00000000000E+00  0.95475413987E+03  0.95475413987E+03  0.25500000920E-02 0. -1.
       -2   -1    0    0    0  501  0.00000000000E+00  0.00000000000E+00 -0.37699959442E+03  0.37699959443E+03  0.25500000920E-02 0.  1.
    10030    2    1    2    0    0  0.00000000000E+00  0.00000000000E+00  0.57775454545E+03  0.13317537343E+04  0.11999032019E+04 0.  0.
        1    1    3    3  502    0 -0.42850252556E+03 -0.41945809936E+03  0.31058145554E+03  0.67529278989E+03  0.50400001928E-02 0. -1.
       -1    1    3    3    0  502  0.42850252556E+03  0.41945809936E+03  0.26717308992E+03  0.65646094441E+03  0.50400001928E-02 0.  1.
</event>
<event>
 5   0  0.5447807E-05  0.1200144E+04  0.7818609E-02  0.9112731E-01
        1   -1    0    0  501    0  0.00000000000E+00  0.00000000000E+00  0.33667916437E+03  0.33667916440E+03  0.50400001928E-02 0. -1.
       -1   -1    0    0    0  501  0.00000000000E+00  0.00000000000E+00 -0.10695237438E+04  0.10695237439E+04  0.50400001928E-02 0.  1.
    10030    2    1    2    0    0  0.00000000000E+00  0.00000000000E+00 -0.73284457948E+03  0.14062029083E+04  0.12001439253E+04 0.  0.
        2    1    3    3  502    0  0.54937299671E+03  0.83597656831E+02 -0.63177207660E+03  0.84138886047E+03  0.25500000920E-02 0. -1.
       -2    1    3    3    0  502 -0.54937299671E+03 -0.83597656831E+02 -0.10107250289E+03  0.56481404780E+03  0.25500000920E-02 0.  1.
</event>
<event>
 5   0  0.5625746E-05  0.1200250E+04  0.7818609E-02  0.9112638E-01
       -1   -1    0    0    0  501  0.00000000000E+00  0.00000000000E+00  0.87150804260E+03  0.87150804262E+03  0.50400001928E-02 0.  1.
        1   -1    0    0  501    0  0.00000000000E+00  0.00000000000E+00 -0.41324934567E+03  0.41324934570E+03  0.50400001928E-02 0. -1.
    10030    2    1    2    0    0  0.00000000000E+00  0.00000000000E+00  0.45825869693E+03  0.12847573883E+04  0.12002501879E+04 0.  0.
        5    1    3    3  502    0 -0.23959009963E+03 -0.45903296233E+02  0.81601903520E+03  0.85171572972E+03  0.46999998093E+01 0.  1.
       -5    1    3    3    0  502  0.23959009963E+03  0.45903296233E+02 -0.35776033827E+03  0.43304165860E+03  0.46999998093E+01 0. -1.
</event>
<event>
 5   0  0.5745487E-05  0.1199446E+04  0.7818609E-02  0.9113341E-01
       -1   -1    0    0    0  501  0.00000000000E+00  0.00000000000E+00  0.40541993359E+03  0.40541993362E+03  0.50400001928E-02 0. -1.
        1   -1    0    0  501    0  0.00000000000E+00  0.00000000000E+00 -0.88714893767E+03  0.88714893769E+03  0.50400001928E-02 0.  1.
    10030    2    1    2    0    0  0.00000000000E+00  0.00000000000E+00 -0.48172900408E+03  0.12925688713E+04  0.11994463113E+04 0.  0.
        3    1    3    3  502    0 -0.39556549281E+03 -0.35378367353E+03  0.60166879064E+02  0.53409269823E+03  0.10100000352E+00 0. -1.
       -3    1    3    3    0  502  0.39556549281E+03  0.35378367353E+03 -0.54189588314E+03  0.75847617308E+03  0.10100000352E+00 0.  1.
</event>
<event>
 5   0  0.5745487E-05  0.1200721E+04  0.7818609E-02  0.9112226E-01
        1   -1    0    0  501    0  0.00000000000E+00  0.00000000000E+00  0.70786083963E+03  0.70786083965E+03  0.50400001928E-02 0.  1.
       -1   -1    0    0    0  501  0.00000000000E+00  0.00000000000E+00 -0.50918596793E+03  0.50918596795E+03  0.50400001928E-02 0. -1.
    10030    2    1    2    0    0  0.00000000000E+00  0.00000000000E+00  0.19867487170E+03  0.12170468076E+04  0.12007211280E+04 0.  0.
        3    1    3    3  502    0  0.33469736127E+03 -0.21323956084E+03 -0.35727556738E+03  0.53398433984E+03  0.10100000352E+00 0. -1.
       -3    1    3    3    0  502 -0.33469736127E+03  0.21323956084E+03  0.55595043909E+03  0.68306246776E+03  0.10100000352E+00 0.  1.
</event>
<event>
 5   0  0.5625746E-05  0.1203106E+04  0.7818609E-02  0.9110142E-01
       -1   -1    0    0    0  501  0.00000000000E+00  0.00000000000E+00  0.53556806168E+03  0.53556806170E+03  0.50400001928E-02 0.  1.
        1   -1    0    0  501    0  0.00000000000E+00  0.00000000000E+00 -0.67566790199E+03  0.67566790201E+03  0.50400001928E-02 0. -1.
    10030    2    1    2    0    0  0.00000000000E+00  0.00000000000E+00 -0.14009984031E+03  0.12112359637E+04  0.12031062274E+04 0.  0.
        5    1    3    3  502    0 -0.57244298455E+03 -0.10437300230E+03  0.83490846392E+02  0.58785840608E+03  0.46999998093E+01 0.  1.
       -5    1    3    3    0  502  0.57244298455E+03  0.10437300230E+03 -0.22359068670E+03  0.62337755762E+03  0.46999998093E+01 0. -1.
</event>
<event>
 5   0  0.5732931E-05  0.1198989E+04  0.7818609E-02  0.9113742E-01
        1   -1    0    0  501    0  0.00000000000E+00  0.00000000000E+00  0.32873730372E+03  0.32873730376E+03  0.50400001928E-02 0.  1.
       -1   -1    0    0    0  501  0.00000000000E+00  0.00000000000E+00 -0.10932546671E+04  0.10932546671E+04  0.50400001928E-02 0. -1.
    10030    2    1    2    0    0  0.00000000000E+00  0.00000000000E+00 -0.76451736338E+03  0.14219919709E+04  0.11989888933E+04 0.  0.
        4    1    3    3  502    0 -0.47744721522E+03 -0.17966901898E+03 -0.75571489170E+03  0.91178035192E+03  0.12699999809E+01 0. -1.
       -4    1    3    3    0  502  0.47744721522E+03  0.17966901898E+03 -0.88024716710E+01  0.51021161895E+03  0.12699999809E+01 0.  1.
</event>
<event>
 5   0  0.5745487E-05  0.1202217E+04  0.7818609E-02  0.9110918E-01
       -1   -1    0    0    0  501  0.00000000000E+00  0.00000000000E+00  0.31607611466E+03  0.31607611470E+03  0.50400001928E-02 0. -1.
        1   -1    0    0  501    0  0.00000000000E+00  0.00000000000E+00 -0.11431782743E+04  0.11431782744E+04  0.50400001928E-02 0.  1.
    10030    2    1    2    0    0  0.00000000000E+00  0.00000000000E+00 -0.82710215968E+03  0.14592543891E+04  0.12022168646E+04 0.  0.
        3    1    3    3  502    0  0.15942115838E+03 -0.29184557934E+03 -0.10213530062E+04  0.10741279819E+04  0.10100000352E+00 0.  1.
       -3    1    3    3    0  502 -0.15942115838E+03  0.29184557934E+03  0.19425084655E+03  0.38512640718E+03  0.10100000352E+00 0. -1.
</event>
<event>
 5   0  0.9838215E-05  0.1198463E+04  0.7818609E-02  0.9114203E-01
       -2   -1    0    0    0  501  0.00000000000E+00  0.00000000000E+00  0.27507917245E+03  0.27507917246E+03  0.25500000920E-02 0.  1.
        2   -1    0    0  501    0  0.00000000000E+00  0.00000000000E+00 -0.13053631689E+04  0.13053631689E+04  0.25500000920E-02 0. -1.
    10030    2    1    2    0    0  0.00000000000E+00  0.00000000000E+00 -0.10302839964E+04  0.15804423414E+04  0.11984627157E+04 0.  0.
        4    1    3    3  502    0  0.79266145754E+02  0.22178671150E+03  0.21147904892E+03  0.31653983681E+03  0.12699999809E+01 0.  1.
       -4    1    3    3    0  502 -0.79266145754E+02 -0.22178671150E+03 -0.12417630454E+04  0.12639025045E+04  0.12699999809E+01 0. -1.
</event>
<event>
 5   0  0.5745487E-05  0.1200068E+04  0.7818609E-02  0.9112797E-01
        1   -1    0    0  501    0  0.00000000000E+00  0.00000000000E+00  0.78027017634E+03  0.78027017636E+03  0.50400001928E-02 0.  1.
       -1   -1    0    0    0  501  0.00000000000E+00  0.00000000000E+00 -0.46143090910E+03  0.46143090913E+03  0.50400001928E-02 0. -1.
    10030    2    1    2    0    0  0.00000000000E+00  0.00000000000E+00  0.31883926724E+03  0.12417010855E+04  0.12000679595E+04 0.  0.
        3    1    3    3  502    0  0.23544766675E+03  0.50171378644E+03  0.39737285907E+03  0.68195126411E+03  0.10100000352E+00 0.  1.
       -3    1    3    3    0  502 -0.23544766675E+03 -0.50171378644E+03 -0.78533591835E+02  0.55974982138E+03  0.10100000352E+00 0. -1.
</event>
<event>
 5   0  0.1023063E-04  0.1200149E+04  0.7818609E-02  0.9112726E-01
        2   -1    0    0  501    0  0.00000000000E+00  0.00000000000E+00  0.18753602208E+03  0.18753602209E+03  0.25500000920E-02 0.  1.
       -2   -1    0    0    0  501  0.00000000000E+00  0.00000000000E+00 -0.19201067840E+04  0.19201067840E+04  0.25500000920E-02 0. -1.
    10030    2    1    2    0    0  0.00000000000E+00  0.00000000000E+00 -0.17325707619E+04  0.21076428061E+04  0.12001486379E+04 0.  0.
        3    1    3    3  502    0 -0.36665947153E+03  0.41342732770E+03 -0.45545156246E+03  0.71609877761E+03  0.10100000352E+00 0.  1.
       -3    1    3    3    0  502  0.36665947153E+03 -0.41342732770E+03 -0.12771191995E+04  0.13915440285E+04  0.10100000352E+00 0. -1.
</event>
<event>
 5   0  0.1023063E-04  0.1199101E+04  0.7818609E-02  0.9113644E-01
        2   -1    0    0  501    0  0.00000000000E+00  0.00000000000E+00  0.31741062908E+03  0.31741062909E+03  0.25500000920E-02 0.  1.
       -2   -1    0    0    0  501  0.00000000000E+00  0.00000000000E+00 -0.11324790884E+04  0.11324790884E+04  0.25500000920E-02 0. -1.
    10030    2    1    2    0    0  0.00000000000E+00  0.00000000000E+00 -0.81506845937E+03  0.14498897175E+04  0.11991011632E+04 0.  0.
        3    1    3    3  502    0  0.83976929664E+02 -0.48722874314E+03 -0.81760612589E+03  0.95547043918E+03  0.10100000352E+00 0. -1.
       -3    1    3    3    0  502 -0.83976929664E+02  0.48722874314E+03  0.25376665196E+01  0.49441927835E+03  0.10100000352E+00 0.  1.
</event>
<event>
 5   0  0.3839750E-05  0.1199839E+04  0.7818609E-02  0.9112997E-01
        4   -1    0    0  501    0  0.00000000000E+00  0.00000000000E+00  0.67753419515E+03  0.67753538542E+03  0.12699999809E+01 0. -1.
       -4   -1    0    0    0  501  0.00000000000E+00  0.00000000000E+00 -0.53119369467E+03  0.53119521285E+03  0.12699999809E+01 0.  1.
    10030    2    1    2    0    0  0.00000000000E+00  0.00000000000E+00  0.14634050048E+03  0.12087305983E+04  0.11998392047E+04 0.  0.
        1    1    3    3  502    0  0.29303039105E+03 -0.50265748560E+03 -0.74105346620E+02  0.58653470513E+03  0.50400001928E-02 0.  1.
       -1    1    3    3    0  502 -0.29303039105E+03  0.50265748560E+03  0.22044584710E+03  0.62219589313E+03  0.50400001928E-02 0. -1.
</event>
<event>
 5   0  0.1004006E-04  0.1200122E+04  0.7818609E-02  0.9112749E-01
        2   -1    0    0  501    0  0.00000000000E+00  0.00000000000E+00  0.24737270555E+03  0.24737270556E+03  0.25500000920E-02 0. -1.
       -2   -1    0    0    0  501  0.00000000000E+00  0.00000000000E+00 -0.14555907030E+04  0.14555907030E+04  0.25500000920E-02 0.  1.
    10030    2    1    2    0    0  0.00000000000E+00  0.00000000000E+00 -0.12082179975E+04  0.17029634086E+04  0.12001223444E+04 0.  0.
        5    1    3    3  502    0  0.46576343452E+03  0.15069510968E+03 -0.11172359416E+03  0.50214424671E+03  0.46999998093E+01 0. -1.
       -5    1    3    3    0  502 -0.46576343452E+03 -0.15069510968E+03 -0.10964944033E+04  0.12008191619E+04  0.46999998093E+01 0.  1.
</event>
<event>
 5   0  0.5625746E-05  0.1199977E+04  0.7818609E-02  0.9112877E-01
        1   -1    0    0  501    0  0.00000000000E+00  0.00000000000E+00  0.64923747254E+03  0.64923747256E+03  0.50400001928E-02 0. -1.
       -1   -1    0    0    0  501  0.00000000000E+00  0.00000000000E+00 -0.55447500679E+03  0.55447500681E+03  0.50400001928E-02 0.  1.
    10030    2    1    2    0    0  0.00000000000E+00  0.00000000000E+00  0.94762465747E+02  0.12037124794E+04  0.11999765865E+04 0.  0.
        5    1    3    3  502    0  0.30676759554E+03 -0.14735965617E+03  0.54302746091E+03  0.64087607167E+03  0.46999998093E+01 0. -1.
       -5    1    3    3    0  502 -0.30676759554E+03  0.14735965617E+03 -0.44826499517E+03  0.56283640770E+03  0.46999998093E+01 0.  1.
</event>
<event>
 5   0  0.5447807E-05  0.1200366E+04  0.7818609E-02  0.9112536E-01
       -1   -1    0    0    0  501  0.00000000000E+00  0.00000000000E+00  0.47310064894E+03  0.47310064897E+03  0.50400001928E-02 0.  1.
        1   -1    0    0  501    0  0.00000000000E+00  0.00000000000E+00 -0.76140213237E+03  0.76140213239E+03  0.50400001928E-02 0. -1.
    10030    2    1    2    0    0  0.00000000000E+00  0.00000000000E+00 -0.28830148343E+03  0.12345027814E+04  0.12003663490E+04 0.  0.
        2    1    3    3  502    0  0.27843875931E+03 -0.51259263522E+03  0.10758617182E+01  0.58333567511E+03  0.25500000920E-02 0.  1.
       -2    1    3    3    0  502 -0.27843875931E+03  0.51259263522E+03 -0.28937734515E+03  0.65116710625E+03  0.25500000920E-02 0. -1.
</event>
<event>
 5   0  0.1004006E-04  0.1200084E+04  0.7818609E-02  0.9112783E-01
        2   -1    0    0  501    0  0.00000000000E+00  0.00000000000E+00  0.20213982169E+04  0.20213982169E+04  0.25500000920E-02 0.  1.
       -2   -1    0    0    0  501  0.00000000000E+00  0.00000000000E+00 -0.17811958854E+03  0.17811958856E+03  0.25500000920E-02 0. -1.
    10030    2    1    2    0    0  0.00000000000E+00  0.00000000000E+00  0.18432786284E+04  0.21995178055E+04  0.12000843615E+04 0.  0.
        5    1    3    3  502    0 -0.58210608483E+03 -0.30622863544E+01  0.11883209629E+04  0.13232481522E+04  0.46999998093E+01 0.  1.
       -5    1    3    3    0  502  0.58210608483E+03  0.30622863544E+01  0.65495766551E+03  0.87626965325E+03  0.46999998093E+01 0. -1.
</event>
<event>
 5   0  0.1012657E-04  0.1199842E+04  0.7818609E-02  0.9112995E-01
        2   -1    0    0  501    0  0.00000000000E+00  0.00000000000E+00  0.10175260505E+04  0.10175260505E+04  0.25500000920E-02 0.  1.
       -2   -1    0    0    0  501  0.00000000000E+00  0.00000000000E+00 -0.35370623028E+03  0.35370623029E+03  0.25500000920E-02 0. -1.
    10030    2    1    2    0    0  0.00000000000E+00  0.00000000000E+00  0.66381982022E+03  0.13712322808E+04  0.11998421622E+04 0.  0.
        1    1    3    3  502    0  0.59719948229E+03  0.14846602103E+02  0.26892209988E+03  0.65512345331E+03  0.50400001928E-02 0.  1.
       -1    1    3    3    0  502 -0.59719948229E+03 -0.14846602103E+02  0.39489772033E+03  0.71610882748E+03  0.50400001928E-02 0. -1.
</event>
<event>
 5   0  0.5447807E-05  0.1200031E+04  0.7818609E-02  0.9112829E-01
       -1   -1    0    0    0  501  0.00000000000E+00  0.00000000000E+00  0.51036107146E+03  0.51036107149E+03  0.50400001928E-02 0. -1.
        1   -1    0    0  501    0  0.00000000000E+00  0.00000000000E+00 -0.70541930726E+03  0.70541930728E+03  0.50400001928E-02 0.  1.
    10030    2    1    2    0    0  0.00000000000E+00  0.00000000000E+00 -0.19505823580E+03  0.12157803788E+04  0.12000309221E+04 0.  0.
        2    1    3    3  502    0 -0.59783259890E+03 -0.33656941846E+02 -0.13653041919E+03  0.61414750786E+03  0.25500000920E-02 0.  1.
       -2    1    3    3    0  502  0.59783259890E+03  0.33656941846E+02 -0.58527816604E+02  0.60163287091E+03  0.25500000920E-02 0. -1.
</event>
<event>
 5   0  0.1012657E-04  0.1199258E+04  0.7818609E-02  0.9113506E-01
       -2   -1    0    0    0  501  0.00000000000E+00  0.00000000000E+00  0.15904564534E+03  0.15904564536E+03  0.25500000920E-02 0.  1.
        2   -1    0    0  501    0  0.00000000000E+00  0.00000000000E+00 -0.22607040917E+04  0.22607040917E+04  0.25500000920E-02 0. -1.
    10030    2    1    2    0    0  0.00000000000E+00  0.00000000000E+00 -0.21016584464E+04  0.24197497371E+04  0.11992583395E+04 0.  0.
        1    1    3    3  502    0  0.14400006394E+03  0.14250808470E+03  0.87897802069E+02  0.22084065806E+03  0.50400001928E-02 0.  1.
       -1    1    3    3    0  502 -0.14400006394E+03 -0.14250808470E+03 -0.21895562484E+04  0.21989090790E+04  0.50400001928E-02 0. -1.
</event>
<event>
 5   0  0.5732931E-05  0.1200612E+04  0.7818609E-02  0.9112321E-01
        1   -1    0    0  501    0  0.00000000000E+00  0.00000000000E+00  0.65622787467E+03  0.65622787469E+03  0.50400001928E-02 0.  1.
       -1   -1    0    0    0  501  0.00000000000E+00  0.00000000000E+00 -0.54914944400E+03  0.54914944402E+03  0.50400001928E-02 0. -1.
    10030    2    1    2    0    0  0.00000000000E+00  0.00000000000E+00  0.10707843067E+03  0.12053773187E+04  0.12006117983E+04 0.  0.
        4    1    3    3  502    0  0.33785412907E+02 -0.50579540912E+02 -0.54604632622E+03  0.54942510624E+03  0.12699999809E+01 0. -1.
       -4    1    3    3    0  502 -0.33785412907E+02  0.50579540912E+02  0.65312475689E+03  0.65595221248E+03  0.12699999809E+01 0.  1.
</event>
<event>
 5   0  0.3839750E-05  0.1199904E+04  0.7818609E-02  0.9112941E-01
       -3   -1    0    0    0  501  0.00000000000E+00  0.00000000000E+00  0.95384556774E+03  0.95384557309E+03  0.10100000352E+00 0.  1.
        3   -1    0    0  501    0  0.00000000000E+00  0.00000000000E+00 -0.37735899151E+03  0.37735900502E+03  0.10100000352E+00 0. -1.
    10030    2    1    2    0    0  0.00000000000E+00  0.00000000000E+00  0.57648657623E+03  0.13312045781E+04  0.11999036862E+04 0.  0.
        5    1    3    3  502    0  0.58568667168E+03  0.65285302482E+02  0.16356690278E+03  0.61161039051E+03  0.46999998093E+01 0. -1.
       -5    1    3    3    0  502 -0.58568667168E+03 -0.65285302482E+02  0.41291967346E+03  0.71959418760E+03  0.46999998093E+01 0.  1.
</event>
<event>
 5   0  0.1023063E-04  0.1199891E+04  0.7818609E-02  0.9112952E-01
        2   -1    0    0  501    0  0.00000000000E+00  0.00000000000E+00  0.58611292632E+03  0.58611292632E+03  0.25500000920E-02 0. -1.
       -2   -1    0    0    0  501  0.00000000000E+00  0.00000000000E+00 -0.61410486576E+03  0.61410486577E+03  0.25500000920E-02 0.  1.
    10030    2    1    2    0    0  0.00000000000E+00  0.00000000000E+00 -0.27991939447E+02  0.12002177921E+04  0.11998913283E+04 0.  0.
        3    1    3    3  502    0 -0.31691050604E+03  0.16509130383E+03  0.46805566465E+03  0.58886630303E+03  0.10100000352E+00 0. -1.
       -3    1    3    3    0  502  0.31691050604E+03 -0.16509130383E+03 -0.49604760410E+03  0.61135148905E+03  0.10100000352E+00 0.  1.
</event>
<event>
 5   0  0.5732931E-05  0.1198176E+04  0.7818609E-02  0.9114455E-01
       -1   -1    0    0    0  501  0.00000000000E+00  0.00000000000E+00  0.19868725867E+03  0.19868725874E+03  0.50400001928E-02 0.  1.
        1   -1    0    0  501    0  0.00000000000E+00  0.00000000000E+00 -0.18063878974E+04  0.18063878975E+04  0.50400001928E-02 0. -1.
    10030    2    1    2    0    0  0.00000000000E+00  0.00000000000E+00 -0.16077006388E+04  0.20050751562E+04  0.11981757125E+04 0.  0.
        4    1    3    3  502    0 -0.54161871521E+03  0.17503303468E+03 -0.11165519634E+04  0.12532666499E+04  0.12699999809E+01 0. -1.
       -4    1    3    3    0  502  0.54161871521E+03 -0.17503303468E+03 -0.49114867536E+03  0.75180850627E+03  0.12699999809E+01 0.  1.
</event>
<event>
 5   0  0.1023063E-04  0.1199471E+04  0.7818609E-02  0.9113320E-01
        2   -1    0    0  501    0  0.00000000000E+00  0.00000000000E+00  0.70988196747E+03  0.70988196747E+03  0.25500000920E-02 0.  1.
       -2   -1    0    0    0  501  0.00000000000E+00  0.00000000000E+00 -0.50667957335E+03  0.50667957335E+03  0.25500000920E-02 0. -1.
    10030    2    1    2    0    0  0.00000000000E+00  0.00000000000E+00  0.20320239412E+03  0.12165615408E+04  0.11994710374E+04 0.  0.
        3    1    3    3  502    0 -0.53525222658E+03  0.26013960659E+03  0.17692319805E+03  0.62086181166E+03  0.10100000352E+00 0.  1.
       -3    1    3    3    0  502  0.53525222658E+03 -0.26013960659E+03  0.26279196077E+02  0.59569972916E+03  0.10100000352E+00 0. -1.
</event>
<event>
 5   0  0.9838215E-05  0.1200219E+04  0.7818609E-02  0.9112665E-01
       -2   -1    0    0    0  501  0.00000000000E+00  0.00000000000E+00  0.52510505318E+03  0.52510505318E+03  0.25500000920E-02 0. -1.
        2   -1    0    0  501    0  0.00000000000E+00  0.00000000000E+00 -0.68582691545E+03  0.68582691546E+03  0.25500000920E-02 0.  1.
    10030    2    1    2    0    0  0.00000000000E+00  0.00000000000E+00 -0.16072186227E+03  0.12109319686E+04  0.12002186116E+04 0.  0.
        4    1    3    3  502    0 -0.13160972447E+03  0.17540259485E+03  0.48323282865E+03  0.53066257588E+03  0.12699999809E+01 0. -1.
       -4    1    3    3    0  502  0.13160972447E+03 -0.17540259485E+03 -0.64395469093E+03  0.68026939276E+03  0.12699999809E+01 0.  1.
</event>
<event>
 5   0  0.9941209E-05  0.1200140E+04  0.7818609E-02  0.9112734E-01
       -2   -1    0    0    0  501  0.00000000000E+00  0.00000000000E+00  0.32106455698E+03  0.32106455699E+03  0.25500000920E-02 0.  1.
        2   -1    0    0  501    0  0.00000000000E+00  0.00000000000E+00 -0.11215322469E+04  0.11215322469E+04  0.25500000920E-02 0. -1.
    10030    2    1    2    0    0  0.00000000000E+00  0.00000000000E+00 -0.80046768994E+03  0.14425968039E+04  0.12001404151E+04 0.  0.
        2    1    3    3  502    0  0.19027719916E+03  0.49489821374E+03 -0.73798871690E+03  0.90871172588E+03  0.25500000920E-02 0.  1.
       -2    1    3    3    0  502 -0.19027719916E+03 -0.49489821374E+03 -0.62478973047E+02  0.53388507805E+03  0.25500000920E-02 0. -1.
</event>
<event>
 5   0  0.9941209E-05  0.1200189E+04  0.7818609E-02  0.9112691E-01
       -2   -1    0    0    0  501  0.00000000000E+00  0.00000000000E+00  0.39373291659E+03  0.39373291660E+03  0.25500000920E-02 0.  1.
        2   -1    0    0  501    0  0.00000000000E+00  0.00000000000E+00 -0.91461369873E+03  0.91461369874E+03  0.25500000920E-02 0. -1.
    10030    2    1    2    0    0  0.00000000000E+00  0.00000000000E+00 -0.52088078214E+03  0.13083466153E+04  0.12001891837E+04 0.  0.
        2    1    3    3  502    0 -0.26077976748E+03  0.53311184345E+03 -0.16355361433E+03  0.61560060877E+03  0.25500000920E-02 0. -1.
       -2    1    3    3    0  502  0.26077976748E+03 -0.53311184345E+03 -0.35732716781E+03  0.69274600657E+03  0.25500000920E-02 0.  1.
</event>
<event>
 5   0  0.5447807E-05  0.1195019E+04  0.7818609E-02  0.9117228E-01
        1   -1    0    0  501    0  0.00000000000E+00  0.00000000000E+00  0.66503880023E+03  0.66503880024E+03  0.50400001928E-02 0. -1.
       -1   -1    0    0    0  501  0.00000000000E+00  0.00000000000E+00 -0.53683699741E+03  0.53683699743E+03  0.50400001928E-02 0.  1.
    10030    2    1    2    0    0  0.00000000000E+00  0.00000000000E+00  0.12820180282E+03  0.12018757977E+04  0.11950187157E+04 0.  0.
        2    1    3    3  502    0  0.40566883497E+03 -0.20313067239E+03 -0.32695943733E+03  0.55922423713E+03  0.25500000920E-02 0.  1.
       -2    1    3    3    0  502 -0.40566883497E+03  0.20313067239E+03  0.45516124014E+03  0.64265156054E+03  0.25500000920E-02 0. -1.
</event>
<event>
 5   0  0.9941209E-05  0.1200526E+04  0.7818609E-02  0.9112396E-01
       -2   -1    0    0    0  501  0.00000000000E+00  0.00000000000E+00  0.32442201351E+03  0.32442201352E+03  0.25500000920E-02 0.  1.
        2   -1    0    0  501    0  0.00000000000E+00  0.00000000000E+00 -0.11106383065E+04  0.11106383065E+04  0.25500000920E-02 0. -1.
    10030    2    1    2    0    0  0.00000000000E+00  0.00000000000E+00 -0.78621629298E+03  0.14350603200E+04  0.12005257443E+04 0.  0.
        2    1    3    3  502    0 -0.58151884160E+03 -0.12125464972E+03 -0.28994185334E+03  0.66100917659E+03  0.25500000920E-02 0.  1.
       -2    1    3    3    0  502  0.58151884160E+03  0.12125464972E+03 -0.49627443964E+03  0.77405114343E+03  0.25500000920E-02 0. -1.
</event>
<event>
 5   0  0.1004006E-04  0.1201677E+04  0.7818609E-02  0.9111390E-01
       -2   -1    0    0    0  501  0.00000000000E+00  0.00000000000E+00  0.36902487088E+03  0.36902487089E+03  0.25500000920E-02 0. -1.
        2   -1    0    0  501    0  0.00000000000E+00  0.00000000000E+00 -0.97827333769E+03  0.97827333769E+03  0.25500000920E-02 0.  1.
    10030    2    1    2    0    0  0.00000000000E+00  0.00000000000E+00 -0.60924846680E+03  0.13472982086E+04  0.12016774811E+04 0.  0.
        5    1    3    3  502    0  0.24106637687E+03 -0.54680170137E+03 -0.37446224501E+03  0.70522986438E+03  0.46999998093E+01 0.  1.
       -5    1    3    3    0  502 -0.24106637687E+03  0.54680170137E+03 -0.23478622179E+03  0.64206834420E+03  0.46999998093E+01 0. -1.
</event>
<event>
 5   0  0.1004006E-04  0.1199732E+04  0.7818609E-02  0.9113091E-01
        2   -1    0    0  501    0  0.00000000000E+00  0.00000000000E+00  0.61673139669E+03  0.61673139670E+03  0.25500000920E-02 0.  1.
       -2   -1    0    0    0  501  0.00000000000E+00  0.00000000000E+00 -0.58346155119E+03  0.58346155119E+03  0.25500000920E-02 0. -1.
    10030    2    1    2    0    0  0.00000000000E+00  0.00000000000E+00  0.33269845505E+02  0.12001929479E+04  0.11997317323E+04 0.  0.
        5    1    3    3  502    0 -0.29909239034E+03 -0.51838679346E+03 -0.23826166994E+02  0.59897487578E+03  0.46999998093E+01 0.  1.
       -5    1    3    3    0  502  0.29909239034E+03  0.51838679346E+03  0.57096012499E+02  0.60121807211E+03  0.46999998093E+01 0. -1.
</event>
<event>
 5   0  0.1023063E-04  0.1200177E+04  0.7818609E-02  0.9112702E-01
        2   -1    0    0  501    0  0.00000000000E+00  0.00000000000E+00  0.69402053595E+03  0.69402053596E+03  0.25500000920E-02 0.  1.
       -2   -1    0    0    0  501  0.00000000000E+00  0.00000000000E+00 -0.51886938162E+03  0.51886938162E+03  0.25500000920E-02 0. -1.
    10030    2    1    2    0    0  0.00000000000E+00  0.00000000000E+00  0.17515115434E+03  0.12128899176E+04  0.12001766642E+04 0.  0.
        3    1    3    3  502    0  0.11141784569E+03  0.53832162746E+03  0.33075261256E+03  0.64156169761E+03  0.10100000352E+00 0.  1.
       -3    1    3    3    0  502 -0.11141784569E+03 -0.53832162746E+03 -0.15560145822E+03  0.57132821997E+03  0.10100000352E+00 0. -1.
</event>
<event>
 5   0  0.5625746E-05  0.1200457E+04  0.7818609E-02  0.9112457E-01
        1   -1    0    0  501    0  0.00000000000E+00  0.00000000000E+00  0.51348645366E+03  0.51348645369E+03  0.50400001928E-02 0.  1.
       -1   -1    0    0    0  501  0.00000000000E+00  0.00000000000E+00 -0.70162370872E+03  0.70162370874E+03  0.50400001928E-02 0. -1.
    10030    2    1    2    0    0  0.00000000000E+00  0.00000000000E+00 -0.18813725506E+03  0.12151101624E+04  0.12004570297E+04 0.  0.
        5    1    3    3  502    0 -0.13469960627E+02 -0.45450100339E+03  0.30250390160E+03  0.54615318584E+03  0.46999998093E+01 0.  1.
       -5    1    3    3    0  502  0.13469960627E+02  0.45450100339E+03 -0.49064115666E+03  0.66895697659E+03  0.46999998093E+01 0. -1.
</event>
<event>
 5   0  0.5620246E-05  0.1200028E+04  0.7818609E-02  0.9112832E-01
        1   -1    0    0  501    0  0.00000000000E+00  0.00000000000E+00  0.58137808131E+03  0.58137808134E+03  0.50400001928E-02 0.  1.
       -1   -1    0    0    0  501  0.00000000000E+00  0.00000000000E+00 -0.61924723131E+03  0.61924723133E+03  0.50400001928E-02 0. -1.
    10030    2    1    2    0    0  0.00000000000E+00  0.00000000000E+00 -0.37869149999E+02  0.12006253127E+04  0.12000279450E+04 0.  0.
        1    1    3    3  502    0  0.29762704872E+03  0.53290424860E+01  0.50229165717E+03  0.58387256119E+03  0.50400001928E-02 0.  1.
       -1    1    3    3    0  502 -0.29762704872E+03 -0.53290424860E+01 -0.54016080717E+03  0.61675275148E+03  0.50400001928E-02 0. -1.
</event>
<event>
 5   0  0.1023063E-04  0.1202647E+04  0.7818609E-02  0.9110543E-01
        2   -1    0    0  501    0  0.00000000000E+00  0.00000000000E+00  0.21327966212E+04  0.21327966213E+04  0.25500000920E-02 0.  1.
       -2   -1    0    0    0  501  0.00000000000E+00  0.00000000000E+00 -0.16953785919E+03  0.16953785921E+03  0.25500000920E-02 0. -1.
    10030    2    1    2    0    0  0.00000000000E+00  0.00000000000E+00  0.19632587621E+04  0.23023344805E+04  0.12026467034E+04 0.  0.
        3    1    3    3  502    0 -0.22351346930E+03 -0.38442499616E+03  0.20671782632E+03  0.49038058542E+03  0.10100000352E+00 0. -1.
       -3    1    3    3    0  502  0.22351346930E+03  0.38442499616E+03  0.17565409357E+04  0.18119538950E+04  0.10100000352E+00 0.  1.
</event>
<event>
 5   0  0.3839750E-05  0.1199852E+04  0.7818609E-02  0.9112986E-01
        4   -1    0    0  501    0  0.00000000000E+00  0.00000000000E+00  0.81690907244E+03  0.81691005963E+03  0.12699999809E+01 0.  1.
       -4   -1    0    0    0  501  0.00000000000E+00  0.00000000000E+00 -0.44057472236E+03  0.44057655281E+03  0.12699999809E+01 0. -1.
    10030    2    1    2    0    0  0.00000000000E+00  0.00000000000E+00  0.37633435008E+03  0.12574866124E+04  0.11998520898E+04 0.  0.
        5    1    3    3  502    0  0.94573279578E+02  0.48625247530E+03 -0.16647078313E+03  0.52260901884E+03  0.46999998093E+01 0. -1.
       -5    1    3    3    0  502 -0.94573279578E+02 -0.48625247530E+03  0.54280513321E+03  0.73487759360E+03  0.46999998093E+01 0.  1.
</event>
<event>
 5   0  0.9838215E-05  0.1200027E+04  0.7818609E-02  0.9112833E-01
       -2   -1    0    0    0  501  0.00000000000E+00  0.00000000000E+00  0.21207051980E+03  0.21207051981E+03  0.25500000920E-02 0. -1.
        2   -1    0    0  501    0  0.00000000000E+00  0.00000000000E+00 -0.16976235230E+04  0.16976235230E+04  0.25500000920E-02 0.  1.
    10030    2    1    2    0    0  0.00000000000E+00  0.00000000000E+00 -0.14855530032E+04  0.19096940428E+04  0.12000265046E+04 0.  0.
        4    1    3    3  502    0  0.86312829983E+02 -0.48473748158E+03 -0.12884909617E+04  0.13793588735E+04  0.12699999809E+01 0.  1.
       -4    1    3    3    0  502 -0.86312829983E+02  0.48473748158E+03 -0.19706204147E+03  0.53033516926E+03  0.12699999809E+01 0. -1.
</event>
<event>
 5   0  0.3839750E-05  0.1200180E+04  0.7818609E-02  0.9112699E-01
        3   -1    0    0  501    0  0.00000000000E+00  0.00000000000E+00  0.83548104714E+03  0.83548105324E+03  0.10100000352E+00 0. -1.
       -3   -1    0    0    0  501  0.00000000000E+00  0.00000000000E+00 -0.43101887076E+03  0.43101888259E+03  0.10100000352E+00 0.  1.
    10030    2    1    2    0    0  0.00000000000E+00  0.00000000000E+00  0.40446217638E+03  0.12664999358E+04  0.12001801679E+04 0.  0.
        1    1    3    3  502    0 -0.42838579836E+03  0.41939454412E+03  0.23018911621E+03  0.64217848385E+03  0.50400001928E-02 0.  1.
       -1    1    3    3    0  502  0.42838579836E+03 -0.41939454412E+03  0.17427306017E+03  0.62432145198E+03  0.50400001928E-02 0. -1.
</event>
<event>
 5   0  0.5732931E-05  0.1199684E+04  0.7818609E-02  0.9113133E-01
        1   -1    0    0  501    0  0.00000000000E+00  0.00000000000E+00  0.18036060151E+04  0.18036060151E+04  0.50400001928E-02 0.  1.
       -1   -1    0    0    0  501  0.00000000000E+00  0.00000000000E+00 -0.19949500251E+03  0.19949500258E+03  0.50400001928E-02 0. -1.
    10030    2    1    2    0    0  0.00000000000E+00  0.00000000000E+00  0.16041110126E+04  0.20031010177E+04  0.11996839360E+04 0.  0.
        4    1    3    3  502    0 -0.44922541040E+03  0.10532065117E+03  0.16207621413E+03  0.48904623605E+03  0.12699999809E+01 0. -1.
       -4    1    3    3    0  502  0.44922541040E+03 -0.10532065117E+03  0.14420347985E+04  0.15140547816E+04  0.12699999809E+01 0.  1.
</event>
<event>
 5   0  0.9838215E-05  0.1200983E+04  0.7818609E-02  0.9111997E-01
       -2   -1    0    0    0  501  0.00000000000E+00  0.00000000000E+00  0.61013581699E+03  0.61013581699E+03  0.25500000920E-02 0. -1.
        2   -1    0    0  501    0  0.00000000000E+00  0.00000000000E+00 -0.59099919225E+03  0.59099919226E+03  0.25500000920E-02 0.  1.
    10030    2    1    2    0    0  0.00000000000E+00  0.00000000000E+00  0.19136624734E+02  0.12011350092E+04  0.12009825561E+04 0.  0.
        4    1    3    3  502    0  0.26528210057E+03 -0.42802185061E+03  0.33673498907E+03  0.60577996273E+03  0.12699999809E+01 0. -1.
       -4    1    3    3    0  502 -0.26528210057E+03  0.42802185061E+03 -0.31759836434E+03  0.59535504652E+03  0.12699999809E+01 0.  1.
</event>
<event>
 5   0  0.1012657E-04  0.1199613E+04  0.7818609E-02  0.9113195E-01
        2   -1    0    0  501    0  0.00000000000E+00  0.00000000000E+00  0.93869814008E+03  0.93869814008E+03  0.25500000920E-02 0. -1.
       -2   -1    0    0    0  501  0.00000000000E+00  0.00000000000E+00 -0.38326279385E+03  0.38326279386E+03  0.25500000920E-02 0.  1.
    10030    2    1    2    0    0  0.00000000000E+00  0.00000000000E+00  0.55543534623E+03  0.13219609339E+04  0.11996133906E+04 0.  0.
        1    1    3    3  502    0  0.54051248180E+03  0.25267611794E+03  0.34537216197E+03  0.68940618930E+03  0.50400001928E-02 0. -1.
       -1    1    3    3    0  502 -0.54051248180E+03 -0.25267611794E+03  0.21006318426E+03  0.63255474464E+03  0.50400001928E-02 0.  1.
</event>
<event>
 5   0  0.9941209E-05  0.1200795E+04  0.7818609E-02  0.9112161E-01
       -2   -1    0    0    0  501  0.00000000000E+00  0.00000000000E+00  0.60473047167E+03  0.60473047167E+03  0.25500000920E-02 0. -1.
        2   -1    0    0  501    0  0.00000000000E+00  0.00000000000E+00 -0.59609539414E+03  0.59609539415E+03  0.25500000920E-02 0.  1.
    10030    2    1    2    0    0  0.00000000000E+00  0.00000000000E+00  0.86350775263E+01  0.12008258658E+04  0.12007948182E+04 0.  0.
        2    1    3    3  502    0 -0.20420766819E+03  0.96710346326E+02 -0.55195522442E+03  0.59641280386E+03  0.25500000920E-02 0.  1.
       -2    1    3    3    0  502  0.20420766819E+03 -0.96710346326E+02  0.56059030194E+03  0.60441306197E+03  0.25500000920E-02 0. -1.
</event>
<event>
 5   0  0.5745487E-05  0.1200440E+04  0.7818609E-02  0.9112472E-01
        1   -1    0    0  501    0  0.00000000000E+00  0.00000000000E+00  0.51821902667E+03  0.51821902669E+03  0.50400001928E-02 0. -1.
       -1   -1    0    0    0  501  0.00000000000E+00  0.00000000000E+00 -0.69519609497E+03  0.69519609499E+03  0.50400001928E-02 0.  1.
    10030    2    1    2    0    0  0.00000000000E+00  0.00000000000E+00 -0.17697706830E+03  0.12134151217E+04  0.12004396590E+04 0.  0.
        3    1    3    3  502    0 -0.35375012052E+03 -0.40032888971E+03  0.18807711100E+03  0.56637035373E+03  0.10100000352E+00 0. -1.
       -3    1    3    3    0  502  0.35375012052E+03  0.40032888971E+03 -0.36505417930E+03  0.64704476795E+03  0.10100000352E+00 0.  1.
</event>
<event>
 5   0  0.3839750E-05  0.1198549E+04  0.7818609E-02  0.9114128E-01
       -3   -1    0    0    0  501  0.00000000000E+00  0.00000000000E+00  0.51875291214E+03  0.51875292197E+03  0.10100000352E+00 0.  1.
        3   -1    0    0  501    0  0.00000000000E+00  0.00000000000E+00 -0.69229449603E+03  0.69229450340E+03  0.10100000352E+00 0. -1.
    10030    2    1    2    0    0  0.00000000000E+00  0.00000000000E+00 -0.17354158389E+03  0.12110474254E+04  0.11985487830E+04 0.  0.
        1    1    3    3  502    0 -0.25351718059E+03  0.30801020526E+03 -0.53863505993E+03  0.67027529807E+03  0.50400001928E-02 0. -1.
       -1    1    3    3    0  502  0.25351718059E+03 -0.30801020526E+03  0.36509347604E+03  0.54077212730E+03  0.50400001928E-02 0.  1.
</event>
<event>
 5   0  0.5620246E-05  0.1199619E+04  0.7818609E-02  0.9113190E-01
        1   -1    0    0  501    0  0.00000000000E+00  0.00000000000E+00  0.11714794906E+04  0.11714794906E+04  0.50400001928E-02 0. -1.
       -1   -1    0    0    0  501  0.00000000000E+00  0.00000000000E+00 -0.30710848776E+03  0.30710848780E+03  0.50400001928E-02 0.  1.
    10030    2    1    2    0    0  0.00000000000E+00  0.00000000000E+00  0.86437100279E+03  0.14785879784E+04  0.11996187642E+04 0.  0.
        1    1    3    3  502    0  0.91242058062E+02 -0.62177886203E+02  0.11588456906E+04  0.11640938696E+04  0.50400001928E-02 0. -1.
       -1    1    3    3    0  502 -0.91242058062E+02  0.62177886203E+02 -0.29447468776E+03  0.31449410877E+03  0.50400001928E-02 0.  1.
</event>
<event>
 5   0  0.5447807E-05  0.1199857E+04  0.7818609E-02  0.9112982E-01
       -1   -1    0    0    0  501  0.00000000000E+00  0.00000000000E+00  0.28236507871E+03  0.28236507876E+03  0.50400001928E-02 0. -1.
        1   -1    0    0  501    0  0.00000000000E+00  0.00000000000E+00 -0.12746404194E+04  0.12746404194E+04  0.50400001928E-02 0.  1.
    10030    2    1    2    0    0  0.00000000000E+00  0.00000000000E+00 -0.99227534068E+03  0.15570054982E+04  0.11998565621E+04 0.  0.
        2    1    3    3  502    0 -0.45845075722E+03  0.38308830881E+03 -0.56697840038E+03  0.82364935236E+03  0.25500000920E-02 0. -1.
       -2    1    3    3    0  502  0.45845075722E+03 -0.38308830881E+03 -0.42529694030E+03  0.73335614580E+03  0.25500000920E-02 0.  1.
</event>
<event>
 5   0  0.9941209E-05  0.1200299E+04  0.7818609E-02  0.9112595E-01
       -2   -1    0    0    0  501  0.00000000000E+00  0.00000000000E+00  0.26476063003E+03  0.26476063004E+03  0.25500000920E-02 0. -1.
        2   -1    0    0  501    0  0.00000000000E+00  0.00000000000E+00 -0.13603962890E+04  0.13603962890E+04  0.25500000920E-02 0.  1.
    10030    2    1    2    0    0  0.00000000000E+00  0.00000000000E+00 -0.10956356590E+04  0.16251569191E+04  0.12002989271E+04 0.  0.
        2    1    3    3  502    0  0.73744650093E+02 -0.35636978766E+03 -0.11939585966E+04  0.12481886193E+04  0.25500000920E-02 0.  1.
       -2    1    3    3    0  502 -0.73744650093E+02  0.35636978766E+03  0.98322937588E+02  0.37696829978E+03  0.25500000920E-02 0. -1.
</event>
<event>
 5   0  0.1004006E-04  0.1200082E+04  0.7818609E-02  0.9112785E-01
        2   -1    0    0  501    0  0.00000000000E+00  0.00000000000E+00  0.60233813126E+03  0.60233813127E+03  0.25500000920E-02 0. -1.
       -2   -1    0    0    0  501  0.00000000000E+00  0.00000000000E+00 -0.59775217689E+03  0.59775217690E+03  0.25500000920E-02 0.  1.
    10030    2    1    2    0    0  0.00000000000E+00  0.00000000000E+00  0.45859543729E+01  0.12000903082E+04  0.12000815459E+04 0.  0.
        5    1    3    3  502    0 -0.31708546256E+03  0.14357464270E+03 -0.48645384765E+03  0.59817748577E+03  0.46999998093E+01 0.  1.
       -5    1    3    3    0  502  0.31708546256E+03 -0.14357464270E+03  0.49103980202E+03  0.60191282239E+03  0.46999998093E+01 0. -1.
</event>
<event>
 5   0  0.5620246E-05  0.1200290E+04  0.7818609E-02  0.9112602E-01
       -1   -1    0    0    0  501  0.00000000000E+00  0.00000000000E+00  0.28125584651E+03  0.28125584656E+03  0.50400001928E-02 0.  1.
        1   -1    0    0  501    0  0.00000000000E+00  0.00000000000E+00 -0.12805931524E+04  0.12805931524E+04  0.50400001928E-02 0. -1.
    10030    2    1    2    0    0  0.00000000000E+00  0.00000000000E+00 -0.99933730588E+03  0.15618489990E+04  0.12002904834E+04 0.  0.
        1    1    3    3  502    0  0.35352758811E+03  0.38202897803E+03 -0.88839866509E+03  0.10296504668E+04  0.50400001928E-02 0. -1.
       -1    1    3    3    0  502 -0.35352758811E+03 -0.38202897803E+03 -0.11093864079E+03  0.53219853218E+03  0.50400001928E-02 0.  1.
</event>
<event>
 5   0  0.1012657E-04  0.1199867E+04  0.7818609E-02  0.9112973E-01
       -2   -1    0    0    0  501  0.00000000000E+00  0.00000000000E+00  0.16509068534E+04  0.16509068534E+04  0.25500000920E-02 0. -1.
        2   -1    0    0  501    0  0.00000000000E+00  0.00000000000E+00 -0.21801356753E+03  0.21801356754E+03  0.25500000920E-02 0.  1.
    10030    2    1    2    0    0  0.00000000000E+00  0.00000000000E+00  0.14328932859E+04  0.18689204210E+04  0.11998668139E+04 0.  0.
        1    1    3    3  502    0  0.42493594499E+03 -0.42246119398E+03  0.76254956060E+03  0.96980712008E+03  0.50400001928E-02 0.  1.
       -1    1    3    3    0  502 -0.42493594499E+03  0.42246119398E+03  0.67034372531E+03  0.89911330090E+03  0.50400001928E-02 0. -1.
</event>
<event>
 5   0  0.5620246E-05  0.1200374E+04  0.7818609E-02  0.9112530E-01
       -1   -1    0    0    0  501  0.00000000000E+00  0.00000000000E+00  0.51209183422E+03  0.51209183425E+03  0.50400001928E-02 0. -1.
        1   -1    0    0  501    0  0.00000000000E+00  0.00000000000E+00 -0.70343660550E+03  0.70343660552E+03  0.50400001928E-02 0.  1.
    10030    2    1    2    0    0  0.00000000000E+00  0.00000000000E+00 -0.19134477128E+03  0.12155284398E+04  0.12003735112E+04 0.  0.
        1    1    3    3  502    0  0.38795775829E+03 -0.68948176180E+02  0.36276738907E+03  0.53559803194E+03  0.50400001928E-02 0. -1.
       -1    1    3    3    0  502 -0.38795775829E+03  0.68948176180E+02 -0.55411216035E+03  0.67993040783E+03  0.50400001928E-02 0.  1.
</event>
<event>
 5   0  0.1004006E-04  0.1197954E+04  0.7818609E-02  0.9114649E-01
        2   -1    0    0  501    0  0.00000000000E+00  0.00000000000E+00  0.14888493145E+04  0.14888493145E+04  0.25500000920E-02 0.  1.
       -2   -1    0    0    0  501  0.00000000000E+00  0.00000000000E+00 -0.24097363846E+03  0.24097363847E+03  0.25500000920E-02 0. -1.
    10030    2    1    2    0    0  0.00000000000E+00  0.00000000000E+00  0.12478756761E+04  0.17298229530E+04  0.11979539832E+04 0.  0.
        5    1    3    3  502    0  0.21600763564E+03  0.39673187136E+03  0.11918757746E+04  0.12746157965E+04  0.46999998093E+01 0.  1.
       -5    1    3    3    0  502 -0.21600763564E+03 -0.39673187136E+03  0.55999901426E+02  0.45520715654E+03  0.46999998093E+01 0. -1.
</event>
<event>
 5   0  0.9838215E-05  0.1199905E+04  0.7818609E-02  0.9112939E-01
       -2   -1    0    0    0  501  0.00000000000E+00  0.00000000000E+00  0.73435073696E+03  0.73435073697E+03  0.25500000920E-02 0.  1.
        2   -1    0    0  501    0  0.00000000000E+00  0.00000000000E+00 -0.49015169252E+03  0.49015169252E+03  0.25500000920E-02 0. -1.
    10030    2    1    2    0    0  0.00000000000E+00  0.00000000000E+00  0.24419904444E+03  0.12245024295E+04  0.11999054240E+04 0.  0.
        4    1    3    3  502    0  0.10224315484E+03  0.51368413383E+03 -0.17650171448E+03  0.55270201752E+03  0.12699999809E+01 0. -1.
       -4    1    3    3    0  502 -0.10224315484E+03 -0.51368413383E+03  0.42070075893E+03  0.67180041197E+03  0.12699999809E+01 0.  1.
</event>
<event>
 5   0  0.1004006E-04  0.1199710E+04  0.7818609E-02  0.9113110E-01
       -2   -1    0    0    0  501  0.00000000000E+00  0.00000000000E+00  0.29067214012E+03  0.29067214013E+03  0.25500000920E-02 0. -1.
        2   -1    0    0  501    0  0.00000000000E+00  0.00000000000E+00 -0.12379106039E+04  0.12379106039E+04  0.25500000920E-02 0.  1.
    10030    2    1    2    0    0  0.00000000000E+00  0.00000000000E+00 -0.94723846380E+03  0.15285827440E+04  0.11997101725E+04 0.  0.
        5    1    3    3  502    0 -0.31207996288E+02  0.54964651561E+03 -0.17017691821E+03  0.57625298667E+03  0.46999998093E+01 0. -1.
       -5    1    3    3    0  502  0.31207996288E+02 -0.54964651561E+03 -0.77706154559E+03  0.95232975738E+03  0.46999998093E+01 0.  1.
</event>
<event>
 5   0  0.1004006E-04  0.1200064E+04  0.7818609E-02  0.9112800E-01
       -2   -1    0    0    0  501  0.00000000000E+00  0.00000000000E+00  0.34156990797E+03  0.34156990798E+03  0.25500000920E-02 0.  1.
        2   -1    0    0  501    0  0.00000000000E+00  0.00000000000E+00 -0.10540701212E+04  0.10540701212E+04  0.25500000920E-02 0. -1.
    10030    2    1    2    0    0  0.00000000000E+00  0.00000000000E+00 -0.71250021321E+03  0.13956400292E+04  0.12000643888E+04 0.  0.
        5    1    3    3  502    0 -0.12517390070E+03  0.42827894948E+03 -0.82278149754E+03  0.93599297363E+03  0.46999998093E+01 0.  1.
       -5    1    3    3    0  502  0.12517390070E+03 -0.42827894948E+03  0.11028128433E+03  0.45964705553E+03  0.46999998093E+01 0. -1.
</event>
<event>
 5   0  0.3839750E-05  0.1199892E+04  0.7818609E-02  0.9112951E-01
        4   -1    0    0  501    0  0.00000000000E+00  0.00000000000E+00  0.27802161120E+03  0.27802451186E+03  0.12699999809E+01 0.  1.
       -4   -1    0    0    0  501  0.00000000000E+00  0.00000000000E+00 -0.12946197178E+04  0.12946203407E+04  0.12699999809E+01 0. -1.
    10030    2    1    2    0    0  0.00000000000E+00  0.00000000000E+00 -0.10165981066E+04  0.15726448526E+04  0.11998917126E+04 0.  0.
        1    1    3    3  502    0  0.59825307109E+03 -0.15823281184E+02 -0.45303479208E+03  0.75059818555E+03  0.50400001928E-02 0.  1.
       -1    1    3    3    0  502 -0.59825307109E+03  0.15823281184E+02 -0.56356331454E+03  0.82204666706E+03  0.50400001928E-02 0. -1.
</event>
<event>
 5   0  0.1012657E-04  0.1200289E+04  0.7818609E-02  0.9112604E-01
        2   -1    0    0  501    0  0.00000000000E+00  0.00000000000E+00  0.19404580302E+04  0.19404580302E+04  0.25500000920E-02 0. -1.
       -2   -1    0    0    0  501  0.00000000000E+00  0.00000000000E+00 -0.18561246315E+03  0.18561246317E+03  0.25500000920E-02 0.  1.
    10030    2    1    2    0    0  0.00000000000E+00  0.00000000000E+00  0.17548455670E+04  0.21260704933E+04  0.12002886230E+04 0.  0.
        1    1    3    3  502    0 -0.21049891528E+03  0.55060975301E+03  0.67786799439E+03  0.89832394563E+03  0.50400001928E-02 0.  1.
       -1    1    3    3    0  502  0.21049891528E+03 -0.55060975301E+03  0.10769775726E+04  0.12277465477E+04  0.50400001928E-02 0. -1.
</event>
<event>
 5   0  0.5447807E-05  0.1196808E+04  0.7818609E-02  0.9115655E-01
       -1   -1    0    0    0  501  0.00000000000E+00  0.00000000000E+00  0.30211168341E+03  0.30211168346E+03  0.50400001928E-02 0. -1.
        1   -1    0    0  501    0  0.00000000000E+00  0.00000000000E+00 -0.11852806522E+04  0.11852806522E+04  0.50400001928E-02 0.  1.
    10030    2    1    2    0    0  0.00000000000E+00  0.00000000000E+00 -0.88316896882E+03  0.14873923357E+04  0.11968076424E+04 0.  0.
        2    1    3    3  502    0  0.10438340937E+03  0.55436545736E+03 -0.19342820685E+03  0.59634841131E+03  0.25500000920E-02 0. -1.
       -2    1    3    3    0  502 -0.10438340937E+03 -0.55436545736E+03 -0.68974076197E+03  0.89104392439E+03  0.25500000920E-02 0.  1.
</event>
<event>
 5   0  0.9838215E-05  0.1200119E+04  0.7818609E-02  0.9112752E-01
       -2   -1    0    0    0  501  0.00000000000E+00  0.00000000000E+00  0.12195555180E+03  0.12195555182E+03  0.25500000920E-02 0.  1.
        2   -1    0    0  501    0  0.00000000000E+00  0.00000000000E+00 -0.29524821984E+04  0.29524821984E+04  0.25500000920E-02 0. -1.
    10030    2    1    2    0    0  0.00000000000E+00  0.00000000000E+00 -0.28305266466E+04  0.30744377502E+04  0.12001193203E+04 0.  0.
        4    1    3    3  502    0  0.50086373382E+03  0.31444559363E+03 -0.11548996861E+04  0.12975112366E+04  0.12699999809E+01 0.  1.
       -4    1    3    3    0  502 -0.50086373382E+03 -0.31444559363E+03 -0.16756269605E+04  0.17769265136E+04  0.12699999809E+01 0. -1.
</event>
<event>
 5   0  0.5745487E-05  0.1199910E+04  0.7818609E-02  0.9112936E-01
        1   -1    0    0  501    0  0.00000000000E+00  0.00000000000E+00  0.78516397201E+03  0.78516397203E+03  0.50400001928E-02 0. -1.
       -1   -1    0    0    0  501  0.00000000000E+00  0.00000000000E+00 -0.45843380655E+03  0.45843380658E+03  0.50400001928E-02 0.  1.
    10030    2    1    2    0    0  0.00000000000E+00  0.00000000000E+00  0.32673016546E+03  0.12435977786E+04  0.11999095107E+04 0.  0.
        3    1    3    3  502    0 -0.46838857718E+03 -0.36012130152E+03  0.27142283940E+03  0.65018887948E+03  0.10100000352E+00 0. -1.
       -3    1    3    3    0  502  0.46838857718E+03  0.36012130152E+03  0.55307326054E+02  0.59340889913E+03  0.10100000352E+00 0.  1.
</event>
<event>
 5   0  0.1023063E-04  0.1199990E+04  0.7818609E-02  0.9112866E-01
       -2   -1    0    0    0  501  0.00000000000E+00  0.00000000000E+00  0.23893257705E+03  0.23893257707E+03  0.25500000920E-02 0.  1.
        2   -1    0    0  501    0  0.00000000000E+00  0.00000000000E+00 -0.15066754508E+04  0.15066754508E+04  0.25500000920E-02 0. -1.
    10030    2    1    2    0    0  0.00000000000E+00  0.00000000000E+00 -0.12677428737E+04  0.17456080278E+04  0.11999897470E+04 0.  0.
        3    1    3    3  502    0  0.23586066257E+03 -0.54601926920E+03 -0.74865843818E+03  0.95616774770E+03  0.10100000352E+00 0. -1.
       -3    1    3    3    0  502 -0.23586066257E+03  0.54601926920E+03 -0.51908443554E+03  0.78944028014E+03  0.10100000352E+00 0.  1.
</event>
<event>
 5   0  0.5732931E-05  0.1196672E+04  0.7818609E-02  0.9115775E-01
       -1   -1    0    0    0  501  0.00000000000E+00  0.00000000000E+00  0.59484553568E+03  0.59484553570E+03  0.50400001928E-02 0. -1.
        1   -1    0    0  501    0  0.00000000000E+00  0.00000000000E+00 -0.60184662875E+03  0.60184662877E+03  0.50400001928E-02 0.  1.
    10030    2    1    2    0    0  0.00000000000E+00  0.00000000000E+00 -0.70010930721E+01  0.11966921645E+04  0.11966716848E+04 0.  0.
        4    1    3    3  502    0  0.24554388930E+03  0.44651631367E+03 -0.31709090558E+03  0.60018070216E+03  0.12699999809E+01 0.  1.
       -4    1    3    3    0  502 -0.24554388930E+03 -0.44651631367E+03  0.31008981251E+03  0.59651146231E+03  0.12699999809E+01 0. -1.
</event>
<event>
 5   0  0.1012657E-04  0.1199979E+04  0.7818609E-02  0.9112875E-01
       -2   -1    0    0    0  501  0.00000000000E+00  0.00000000000E+00  0.18061170905E+03  0.18061170907E+03  0.25500000920E-02 0.  1.
        2   -1    0    0  501    0  0.00000000000E+00  0.00000000000E+00 -0.19931578810E+04  0.19931578810E+04  0.25500000920E-02 0. -1.
    10030    2    1    2    0    0  0.00000000000E+00  0.00000000000E+00 -0.18125461719E+04  0.21737695900E+04  0.11999794187E+04 0.  0.
        1    1    3    3  502    0  0.50785861836E+03  0.30648404754E+03 -0.74288768466E+03  0.95064975658E+03  0.50400001928E-02 0.  1.
       -1    1    3    3    0  502 -0.50785861836E+03 -0.30648404754E+03 -0.10696584872E+04  0.12231198335E+04  0.50400001928E-02 0. -1.
</event>
<event>
 5   0  0.5625746E-05  0.1200303E+04  0.7818609E-02  0.9112592E-01
       -1   -1    0    0    0  501  0.00000000000E+00  0.00000000000E+00  0.67332480937E+03  0.67332480938E+03  0.50400001928E-02 0.  1.
        1   -1    0    0  501    0  0.00000000000E+00  0.00000000000E+00 -0.53492996519E+03  0.53492996521E+03  0.50400001928E-02 0. -1.
    10030    2    1    2    0    0  0.00000000000E+00  0.00000000000E+00  0.13839484418E+03  0.12082547746E+04  0.12003026566E+04 0.  0.
        5    1    3    3  502    0 -0.36092960365E+03  0.28562733791E+03  0.45685444664E+03  0.64853005355E+03  0.46999998093E+01 0.  1.
       -5    1    3    3    0  502  0.36092960365E+03 -0.28562733791E+03 -0.31845960246E+03  0.55972472104E+03  0.46999998093E+01 0. -1.
</event>
<event>
 5   0  0.5732931E-05  0.1200621E+04  0.7818609E-02  0.9112313E-01
        1   -1    0    0  501    0  0.00000000000E+00  0.00000000000E+00  0.73128281478E+03  0.73128281480E+03  0.50400001928E-02 0.  1.
       -1   -1    0    0    0  501  0.00000000000E+00  0.00000000000E+00 -0.49279539620E+03  0.49279539623E+03  0.50400001928E-02 0. -1.
    10030    2    1    2    0    0  0.00000000000E+00  0.00000000000E+00  0.23848741858E+03  0.12240782110E+04  0.12006211800E+04 0.  0.
        4    1    3    3  502    0 -0.58803747512E+03  0.40511350610E+02  0.23522902905E+03  0.63463655007E+03  0.12699999809E+01 0. -1.
       -4    1    3    3    0  502  0.58803747512E+03 -0.40511350610E+02  0.32583895270E+01  0.58944166096E+03  0.12699999809E+01 0.  1.
</event>
<event>
 5   0  0.1023063E-04  0.1200117E+04  0.7818609E-02  0.9112754E-01
        2   -1    0    0  501    0  0.00000000000E+00  0.00000000000E+00  0.83934829251E+03  0.83934829251E+03  0.25500000920E-02 0.  1.
       -2   -1    0    0    0  501  0.00000000000E+00  0.00000000000E+00 -0.42898757319E+03  0.42898757320E+03  0.25500000920E-02 0. -1.
    10030    2    1    2    0    0  0.00000000000E+00  0.00000000000E+00  0.41036071931E+03  0.12683358657E+04  0.12001166395E+04 0.  0.
        3    1    3    3  502    0 -0.59273181206E+03  0.83237225447E+02  0.16021118720E+03  0.61961848862E+03  0.10100000352E+00 0. -1.
       -3    1    3    3    0  502  0.59273181206E+03 -0.83237225447E+02  0.25014953211E+03  0.64871737709E+03  0.10100000352E+00 0.  1.
</event>
<event>
 5   0  0.5625746E-05  0.1199486E+04  0.7818609E-02  0.9113306E-01
        1   -1    0    0  501    0  0.00000000000E+00  0.00000000000E+00  0.62923214428E+03  0.62923214430E+03  0.50400001928E-02 0. -1.
       -1   -1    0    0    0  501  0.00000000000E+00  0.00000000000E+00 -0.57163629681E+03  0.57163629683E+03  0.50400001928E-02 0.  1.
    10030    2    1    2    0    0  0.00000000000E+00  0.00000000000E+00  0.57595847467E+02  0.12008684411E+04  0.11994864448E+04 0.  0.
        5    1    3    3  502    0  0.47159002268E+03 -0.17929635081E+03 -0.29580628694E+03  0.58486560875E+03  0.46999998093E+01 0.  1.
       -5    1    3    3    0  502 -0.47159002268E+03  0.17929635081E+03  0.35340213440E+03  0.61600283238E+03  0.46999998093E+01 0. -1.
</event>
<event>
 5   0  0.5745487E-05  0.1200252E+04  0.7818609E-02  0.9112636E-01
        1   -1    0    0  501    0  0.00000000000E+00  0.00000000000E+00  0.10627988461E+04  0.10627988461E+04  0.50400001928E-02 0.  1.
       -1   -1    0    0    0  501  0.00000000000E+00  0.00000000000E+00 -0.33887071901E+03  0.33887071905E+03  0.50400001928E-02 0. -1.
    10030    2    1    2    0    0  0.00000000000E+00  0.00000000000E+00  0.72392812712E+03  0.14016695652E+04  0.12002523221E+04 0.  0.
        3    1    3    3  502    0  0.53442257494E+03 -0.71948926004E+02  0.54389535459E+02  0.54198004421E+03  0.10100000352E+00 0. -1.
       -3    1    3    3    0  502 -0.53442257494E+03  0.71948926004E+02  0.66953859166E+03  0.85968952097E+03  0.10100000352E+00 0.  1.
</event>
<event>
 5   0  0.5447807E-05  0.1199841E+04  0.7818609E-02  0.9112996E-01
       -1   -1    0    0    0  501  0.00000000000E+00  0.00000000000E+00  0.33251459922E+03  0.33251459926E+03  0.50400001928E-02 0. -1.
        1   -1    0    0  501    0  0.00000000000E+00  0.00000000000E+00 -0.10823716271E+04  0.10823716271E+04  0.50400001928E-02 0.  1.
    10030    2    1    2    0    0  0.00000000000E+00  0.00000000000E+00 -0.74985702788E+03  0.14148862264E+04  0.11998406025E+04 0.  0.
        2    1    3    3  502    0  0.19522237533E+03 -0.54670939919E+03 -0.19647331035E+03  0.61286597612E+03  0.25500000920E-02 0.  1.
       -2    1    3    3    0  502 -0.19522237533E+03  0.54670939919E+03 -0.55338371754E+03  0.80202025027E+03  0.25500000920E-02 0. -1.
</event>
<event>
 5   0  0.9941209E-05  0.1200071E+04  0.7818609E-02  0.9112794E-01
       -2   -1    0    0    0  501  0.00000000000E+00  0.00000000000E+00  0.21545978542E+03  0.21545978543E+03  0.25500000920E-02 0. -1.
        2   -1    0    0  501    0  0.00000000000E+00  0.00000000000E+00 -0.16710435969E+04  0.16710435969E+04  0.25500000920E-02 0.  1.
    10030    2    1    2    0    0  0.00000000000E+00  0.00000000000E+00 -0.14555838115E+04  0.18865033823E+04  0.12000711559E+04 0.  0.
        2    1    3    3  502    0  0.51083705021E+03 -0.18993895216E+03 -0.11223946909E+04  0.12477183735E+04  0.25500000920E-02 0.  1.
       -2    1    3    3    0  502 -0.51083705021E+03  0.18993895216E+03 -0.33318912054E+03  0.63878500880E+03  0.25500000920E-02 0. -1.
</event>
<event>
 5   0  0.5447807E-05  0.1199783E+04  0.7818609E-02  0.9113046E-01
        1   -1    0    0  501    0  0.00000000000E+00  0.00000000000E+00  0.49146039112E+03  0.49146039115E+03  0.50400001928E-02 0. -1.
       -1   -1    0    0    0  501  0.00000000000E+00  0.00000000000E+00 -0.73224582695E+03  0.73224582697E+03  0.50400001928E-02 0.  1.
    10030    2    1    2    0    0  0.00000000000E+00  0.00000000000E+00 -0.24078543583E+03  0.12237062181E+04  0.11997830146E+04 0.  0.
        2    1    3    3  502    0 -0.36951891546E+03 -0.33173425505E+03  0.22288625113E+03  0.54430701429E+03  0.25500000920E-02 0. -1.
       -2    1    3    3    0  502  0.36951891546E+03  0.33173425505E+03 -0.46367168696E+03  0.67939920382E+03  0.25500000920E-02 0.  1.
</event>
<event>
 5   0  0.5447807E-05  0.1200184E+04  0.7818609E-02  0.9112696E-01
        1   -1    0    0  501    0  0.00000000000E+00  0.00000000000E+00  0.72465107825E+03  0.72465107827E+03  0.50400001928E-02 0.  1.
       -1   -1    0    0    0  501  0.00000000000E+00  0.00000000000E+00 -0.49694309806E+03  0.49694309809E+03  0.50400001928E-02 0. -1.
    10030    2    1    2    0    0  0.00000000000E+00  0.00000000000E+00  0.22770798019E+03  0.12215941764E+04  0.12001839057E+04 0.  0.
        2    1    3    3  502    0  0.12640391706E+02 -0.40601938161E+03  0.56343348192E+03  0.69459974539E+03  0.25500000920E-02 0.  1.
       -2    1    3    3    0  502 -0.12640391706E+02  0.40601938161E+03 -0.33572550173E+03  0.52699443096E+03  0.25500000920E-02 0. -1.
</event>
<event>
 5   0  0.5745487E-05  0.1198287E+04  0.7818609E-02  0.9114357E-01
        1   -1    0    0  501    0  0.00000000000E+00  0.00000000000E+00  0.54699777347E+03  0.54699777349E+03  0.50400001928E-02 0.  1.
       -1   -1    0    0    0  501  0.00000000000E+00  0.00000000000E+00 -0.65626015407E+03  0.65626015409E+03  0.50400001928E-02 0. -1.
    10030    2    1    2    0    0  0.00000000000E+00  0.00000000000E+00 -0.10926238060E+03  0.12032579276E+04  0.11982868490E+04 0.  0.
        3    1    3    3  502    0  0.24001069402E+03 -0.20728877502E+03  0.45580728912E+03  0.55527836669E+03  0.10100000352E+00 0.  1.
       -3    1    3    3    0  502 -0.24001069402E+03  0.20728877502E+03 -0.56506966972E+03  0.64797956089E+03  0.10100000352E+00 0. -1.
</event>
<event>
 5   0  0.1012657E-04  0.1199953E+04  0.7818609E-02  0.9112898E-01
       -2   -1    0    0    0  501  0.00000000000E+00  0.00000000000E+00  0.24580053569E+03  0.24580053570E+03  0.25500000920E-02 0. -1.
        2   -1    0    0  501    0  0.00000000000E+00  0.00000000000E+00 -0.14644868920E+04  0.14644868920E+04  0.25500000920E-02 0.  1.
    10030    2    1    2    0    0  0.00000000000E+00  0.00000000000E+00 -0.12186863564E+04  0.17102874277E+04  0.11999527701E+04 0.  0.
        1    1    3    3  502    0  0.48814723960E+03  0.30419609956E+03 -0.85268362872E+03  0.10285389469E+04  0.50400001928E-02 0.  1.
       -1    1    3    3    0  502 -0.48814723960E+03 -0.30419609956E+03 -0.36600272763E+03  0.68174848088E+03  0.50400001928E-02 0. -1.
</event>
<event>
 5   0  0.9838215E-05  0.1199978E+04  0.7818609E-02  0.9112876E-01
        2   -1    0    0  501    0  0.00000000000E+00  0.00000000000E+00  0.12915328309E+04  0.12915328309E+04  0.25500000920E-02 0.  1.
       -2   -1    0    0    0  501  0.00000000000E+00  0.00000000000E+00 -0.27872835223E+03  0.27872835224E+03  0.25500000920E-02 0. -1.
    10030    2    1    2    0    0  0.00000000000E+00  0.00000000000E+00  0.10128044786E+04  0.15702611831E+04  0.11999780295E+04 0.  0.
        4    1    3    3  502    0 -0.13868199876E+03 -0.33353864368E+03  0.11332963436E+04  0.11894717058E+04  0.12699999809E+01 0.  1.
       -4    1    3    3    0  502  0.13868199876E+03  0.33353864368E+03 -0.12049186495E+03  0.38078947731E+03  0.12699999809E+01 0. -1.
</event>
<event>
 5   0  0.5620246E-05  0.1199713E+04  0.7818609E-02  0.9113108E-01
       -1   -1    0    0    0  501  0.00000000000E+00  0.00000000000E+00  0.21596847575E+03  0.21596847581E+03  0.50400001928E-02 0. -1.
        1   -1    0    0  501    0  0.00000000000E+00  0.00000000000E+00 -0.16661116884E+04  0.16661116884E+04  0.50400001928E-02 0.  1.
    10030    2    1    2    0    0  0.00000000000E+00  0.00000000000E+00 -0.14501432126E+04  0.18820801642E+04  0.11997126353E+04 0.  0.
        1    1    3    3  502    0 -0.87077492101E+02  0.54021271020E+03 -0.11106693610E+04  0.12381432435E+04  0.50400001928E-02 0. -1.
       -1    1    3    3    0  502  0.87077492101E+02 -0.54021271020E+03 -0.33947385163E+03  0.64393692071E+03  0.50400001928E-02 0.  1.
</event>
<event>
 5   0  0.1012657E-04  0.1198893E+04  0.7818609E-02  0.9113826E-01
        2   -1    0    0  501    0  0.00000000000E+00  0.00000000000E+00  0.14305847490E+04  0.14305847490E+04  0.25500000920E-02 0. -1.
       -2   -1    0    0    0  501  0.00000000000E+00  0.00000000000E+00 -0.25118113218E+03  0.25118113220E+03  0.25500000920E-02 0.  1.
    10030    2    1    2    0    0  0.00000000000E+00  0.00000000000E+00  0.11794036168E+04  0.16817658812E+04  0.11988926507E+04 0.  0.
        1    1    3    3  502    0  0.38822929203E+02  0.54309364039E+03  0.23795147932E+03  0.59420436603E+03  0.50400001928E-02 0.  1.
       -1    1    3    3    0  502 -0.38822929203E+02 -0.54309364039E+03  0.94145213753E+03  0.10875615152E+04  0.50400001928E-02 0. -1.
</event>
<event>
 5   0  0.9838215E-05  0.1200003E+04  0.7818609E-02  0.9112854E-01
        2   -1    0    0  501    0  0.00000000000E+00  0.00000000000E+00  0.10933820102E+04  0.10933820102E+04  0.25500000920E-02 0. -1.
       -2   -1    0    0    0  501  0.00000000000E+00  0.00000000000E+00 -0.32925552491E+03  0.32925552492E+03  0.25500000920E-02 0.  1.
    10030    2    1    2    0    0  0.00000000000E+00  0.00000000000E+00  0.76412648524E+03  0.14226375351E+04  0.12000034461E+04 0.  0.
        4    1    3    3  502    0  0.29241446315E+03  0.22956624251E+03  0.94038718528E+03  0.10112054930E+04  0.12699999809E+01 0. -1.
       -4    1    3    3    0  502 -0.29241446315E+03 -0.22956624251E+03 -0.17626070004E+03  0.41143204207E+03  0.12699999809E+01 0.  1.
</event>
<event>
 5   0  0.1004006E-04  0.1200423E+04  0.7818609E-02  0.9112486E-01
        2   -1    0    0  501    0  0.00000000000E+00  0.00000000000E+00  0.18384984964E+04  0.18384984964E+04  0.25500000920E-02 0.  1.
       -2   -1    0    0    0  501  0.00000000000E+00  0.00000000000E+00 -0.19595007276E+03  0.19595007277E+03  0.25500000920E-02 0. -1.
    10030    2    1    2    0    0  0.00000000000E+00  0.00000000000E+00  0.16425484236E+04  0.20344485692E+04  0.12004231157E+04 0.  0.
        5    1    3    3  502    0 -0.16955781153E+03 -0.45013959157E+03  0.14296406245E+04  0.15083997841E+04  0.46999998093E+01 0.  1.
       -5    1    3    3    0  502  0.16955781153E+03  0.45013959157E+03  0.21290779910E+03  0.52604878506E+03  0.46999998093E+01 0. -1.
</event>
<event>
 5   0  0.1012657E-04  0.1199704E+04  0.7818609E-02  0.9113115E-01
       -2   -1    0    0    0  501  0.00000000000E+00  0.00000000000E+00  0.33216713541E+03  0.33216713542E+03  0.25500000920E-02 0.  1.
        2   -1    0    0  501    0  0.00000000000E+00  0.00000000000E+00 -0.10832576896E+04  0.10832576896E+04  0.25500000920E-02 0. -1.
    10030    2    1    2    0    0  0.00000000000E+00  0.00000000000E+00 -0.75109055417E+03  0.14154248250E+04  0.11997043030E+04 0.  0.
        1    1    3    3  502    0 -0.27547996617E+03 -0.47633416247E+03 -0.65731812602E+03  0.85723425323E+03  0.50400001928E-02 0.  1.
       -1    1    3    3    0  502  0.27547996617E+03  0.47633416247E+03 -0.93772428157E+02  0.55819057177E+03  0.50400001928E-02 0. -1.
</event>
<event>
 5   0  0.1004006E-04  0.1200206E+04  0.7818609E-02  0.9112677E-01
        2   -1    0    0  501    0  0.00000000000E+00  0.00000000000E+00  0.12537715676E+04  0.12537715676E+04  0.25500000920E-02 0.  1.
       -2   -1    0    0    0  501  0.00000000000E+00  0.00000000000E+00 -0.28723207178E+03  0.28723207180E+03  0.25500000920E-02 0. -1.
    10030    2    1    2    0    0  0.00000000000E+00  0.00000000000E+00  0.96653949582E+03  0.15410036394E+04  0.12002056572E+04 0.  0.
        5    1    3    3  502    0  0.14080484055E+03 -0.16399900055E+03 -0.23548939690E+03  0.31968581663E+03  0.46999998093E+01 0. -1.
       -5    1    3    3    0  502 -0.14080484055E+03  0.16399900055E+03  0.12020288927E+04  0.12213178228E+04  0.46999998093E+01 0.  1.
</event>
<event>
 5   0  0.1012657E-04  0.1200875E+04  0.7818609E-02  0.9112091E-01
       -2   -1    0    0    0  501  0.00000000000E+00  0.00000000000E+00  0.36941222785E+03  0.36941222786E+03  0.25500000920E-02 0.  1.
        2   -1    0    0  501    0  0.00000000000E+00  0.00000000000E+00 -0.97594343547E+03  0.97594343547E+03  0.25500000920E-02 0. -1.
    10030    2    1    2    0    0  0.00000000000E+00  0.00000000000E+00 -0.60653120762E+03  0.13453556633E+04  0.12008754120E+04 0.  0.
        1    1    3    3  502    0 -0.44413846004E+03 -0.21839543736E+03 -0.68412223998E+03  0.84438070680E+03  0.50400001928E-02 0. -1.
       -1    1    3    3    0  502  0.44413846004E+03  0.21839543736E+03  0.77591032364E+02  0.50097495654E+03  0.50400001928E-02 0.  1.
</event>
<event>
 5   0  0.5732931E-05  0.1200426E+04  0.7818609E-02  0.9112484E-01
        1   -1    0    0  501    0  0.00000000000E+00  0.00000000000E+00  0.74982705021E+03  0.74982705023E+03  0.50400001928E-02 0. -1.
       -1   -1    0    0    0  501  0.00000000000E+00  0.00000000000E+00 -0.48045130407E+03  0.48045130410E+03  0.50400001928E-02 0.  1.
    10030    2    1    2    0    0  0.00000000000E+00  0.00000000000E+00  0.26937574614E+03  0.12302783543E+04  0.12004255648E+04 0.  0.
        4    1    3    3  502    0 -0.15622207056E+03  0.22607213153E+03  0.68156814361E+03  0.73488141306E+03  0.12699999809E+01 0. -1.
       -4    1    3    3    0  502  0.15622207056E+03 -0.22607213153E+03 -0.41219239747E+03  0.49539694126E+03  0.12699999809E+01 0.  1.
</event>
<event>
 5   0  0.5745487E-05  0.1200351E+04  0.7818609E-02  0.9112550E-01
        1   -1    0    0  501    0  0.00000000000E+00  0.00000000000E+00  0.16767313646E+04  0.16767313646E+04  0.50400001928E-02 0.  1.
       -1   -1    0    0    0  501  0.00000000000E+00  0.00000000000E+00 -0.21482895833E+03  0.21482895839E+03  0.50400001928E-02 0. -1.
    10030    2    1    2    0    0  0.00000000000E+00  0.00000000000E+00  0.14619024063E+04  0.18915603230E+04  0.12003507030E+04 0.  0.
        3    1    3    3  502    0 -0.17899611062E+03 -0.13937785034E+03 -0.14466091759E+03  0.26905870003E+03  0.10100000352E+00 0. -1.
       -3    1    3    3    0  502  0.17899611062E+03  0.13937785034E+03  0.16065633239E+04  0.16225016230E+04  0.10100000352E+00 0.  1.
</event>
<event>
 5   0  0.1012657E-04  0.1199955E+04  0.7818609E-02  0.9112896E-01
        2   -1    0    0  501    0  0.00000000000E+00  0.00000000000E+00  0.10332250123E+04  0.10332250123E+04  0.25500000920E-02 0.  1.
       -2   -1    0    0    0  501  0.00000000000E+00  0.00000000000E+00 -0.34839754254E+03  0.34839754255E+03  0.25500000920E-02 0. -1.
    10030    2    1    2    0    0  0.00000000000E+00  0.00000000000E+00  0.68482746980E+03  0.13816225549E+04  0.11999550912E+04 0.  0.
        1    1    3    3  502    0  0.24219944690E+03 -0.54888470510E+03  0.33531012153E+03  0.68729023651E+03  0.50400001928E-02 0. -1.
       -1    1    3    3    0  502 -0.24219944690E+03  0.54888470510E+03  0.34951734827E+03  0.69433231838E+03  0.50400001928E-02 0.  1.
</event>
<event>
 5   0  0.5447807E-05  0.1199891E+04  0.7818609E-02  0.9112952E-01
        1   -1    0    0  501    0  0.00000000000E+00  0.00000000000E+00  0.90536716709E+03  0.90536716710E+03  0.50400001928E-02 0. -1.
       -1   -1    0    0    0  501  0.00000000000E+00  0.00000000000E+00 -0.39755626069E+03  0.39755626072E+03  0.50400001928E-02 0.  1.
    10030    2    1    2    0    0  0.00000000000E+00  0.00000000000E+00  0.50781090640E+03  0.13029234278E+04  0.11998906376E+04 0.  0.
        2    1    3    3  502    0  0.31833504394E+03 -0.35420181839E+03 -0.14230749334E+03  0.49703878221E+03  0.25500000920E-02 0. -1.
       -2    1    3    3    0  502 -0.31833504394E+03  0.35420181839E+03  0.65011839974E+03  0.80588464562E+03  0.25500000920E-02 0.  1.
</event>
<event>
 5   0  0.9941209E-05  0.1204459E+04  0.7818609E-02  0.9108962E-01
       -2   -1    0    0    0  501  0.00000000000E+00  0.00000000000E+00  0.30548209404E+03  0.30548209405E+03  0.25500000920E-02 0.  1.
        2   -1    0    0  501    0  0.00000000000E+00  0.00000000000E+00 -0.11872395141E+04  0.11872395141E+04  0.25500000920E-02 0. -1.
    10030    2    1    2    0    0  0.00000000000E+00  0.00000000000E+00 -0.88175742009E+03  0.14927216082E+04  0.12044590701E+04 0.  0.
        2    1    3    3  502    0 -0.74783864038E+02  0.18971565507E+03 -0.11431486131E+04  0.11611948191E+04  0.25500000920E-02 0. -1.
       -2    1    3    3    0  502  0.74783864038E+02 -0.18971565507E+03  0.26139119304E+03  0.33152678912E+03  0.25500000920E-02 0.  1.
</event>
<event>
 5   0  0.5732931E-05  0.1200129E+04  0.7818609E-02  0.9112744E-01
       -1   -1    0    0    0  501  0.00000000000E+00  0.00000000000E+00  0.21693349067E+03  0.21693349073E+03  0.50400001928E-02 0. -1.
        1   -1    0    0  501    0  0.00000000000E+00  0.00000000000E+00 -0.16598520079E+04  0.16598520079E+04  0.50400001928E-02 0.  1.
    10030    2    1    2    0    0  0.00000000000E+00  0.00000000000E+00 -0.14429185172E+04  0.18767854986E+04  0.12001291433E+04 0.  0.
        4    1    3    3  502    0 -0.22611645789E+03  0.17177936233E+03  0.10520702504E+03  0.30283152556E+03  0.12699999809E+01 0. -1.
       -4    1    3    3    0  502  0.22611645789E+03 -0.17177936233E+03 -0.15481255422E+04  0.15739539730E+04  0.12699999809E+01 0.  1.
</event>
<event>
 5   0  0.1004006E-04  0.1206078E+04  0.7818609E-02  0.9107553E-01
       -2   -1    0    0    0  501  0.00000000000E+00  0.00000000000E+00  0.11580812102E+04  0.11580812102E+04  0.25500000920E-02 0. -1.
        2   -1    0    0  501    0  0.00000000000E+00  0.00000000000E+00 -0.31401618287E+03  0.31401618288E+03  0.25500000920E-02 0.  1.
    10030    2    1    2    0    0  0.00000000000E+00  0.00000000000E+00  0.84406502728E+03  0.14720973930E+04  0.12060783409E+04 0.  0.
        5    1    3    3  502    0 -0.36433563324E+03 -0.31744225477E+03  0.86232362219E+03  0.98850096517E+03  0.46999998093E+01 0. -1.
       -5    1    3    3    0  502  0.36433563324E+03  0.31744225477E+03 -0.18258594906E+02  0.48359642787E+03  0.46999998093E+01 0.  1.
</event>
<event>
 5   0  0.5732931E-05  0.1200041E+04  0.7818609E-02  0.9112821E-01
        1   -1    0    0  501    0  0.00000000000E+00  0.00000000000E+00  0.62898610184E+03  0.62898610186E+03  0.50400001928E-02 0.  1.
       -1   -1    0    0    0  501  0.00000000000E+00  0.00000000000E+00 -0.57238845249E+03  0.57238845252E+03  0.50400001928E-02 0. -1.
    10030    2    1    2    0    0  0.00000000000E+00  0.00000000000E+00  0.56597649350E+02  0.12013745544E+04  0.12000406351E+04 0.  0.
        4    1    3    3  502    0 -0.57567177905E+03  0.14857637706E+03 -0.52722164964E+02  0.59687031807E+03  0.12699999809E+01 0. -1.
       -4    1    3    3    0  502  0.57567177905E+03 -0.14857637706E+03  0.10931981431E+03  0.60450423631E+03  0.12699999809E+01 0.  1.
</event>
<event>
 5   0  0.1012657E-04  0.1200066E+04  0.7818609E-02  0.9112799E-01
       -2   -1    0    0    0  501  0.00000000000E+00  0.00000000000E+00  0.43939793054E+03  0.43939793055E+03  0.25500000920E-02 0.  1.
        2   -1    0    0  501    0  0.00000000000E+00  0.00000000000E+00 -0.81939258402E+03  0.81939258402E+03  0.25500000920E-02 0. -1.
    10030    2    1    2    0    0  0.00000000000E+00  0.00000000000E+00 -0.37999465348E+03  0.12587905146E+04  0.12000656744E+04 0.  0.
        1    1    3    3  502    0  0.20745127156E+03  0.51773621430E+03  0.42081904110E+02  0.55933684337E+03  0.50400001928E-02 0.  1.
       -1    1    3    3    0  502 -0.20745127156E+03 -0.51773621430E+03 -0.42207655759E+03  0.69945367120E+03  0.50400001928E-02 0. -1.
</event>
<event>
 5   0  0.5447807E-05  0.1200248E+04  0.7818609E-02  0.9112640E-01
        1   -1    0    0  501    0  0.00000000000E+00  0.00000000000E+00  0.13893844744E+04  0.13893844744E+04  0.50400001928E-02 0. -1.
       -1   -1    0    0    0  501  0.00000000000E+00  0.00000000000E+00 -0.25921464133E+03  0.25921464138E+03  0.50400001928E-02 0.  1.
    10030    2    1    2    0    0  0.00000000000E+00  0.00000000000E+00  0.11301698331E+04  0.16485991158E+04  0.12002479715E+04 0.  0.
        2    1    3    3  502    0 -0.10210930027E+03  0.33862517284E+03  0.12310159796E+04  0.12808175744E+04  0.25500000920E-02 0. -1.
       -2    1    3    3    0  502  0.10210930027E+03 -0.33862517284E+03 -0.10084614655E+03  0.36778154136E+03  0.25500000920E-02 0.  1.
</event>
<event>
 5   0  0.5447807E-05  0.1201485E+04  0.7818609E-02  0.9111558E-01
        1   -1    0    0  501    0  0.00000000000E+00  0.00000000000E+00  0.17941346324E+04  0.17941346324E+04  0.50400001928E-02 0.  1.
       -1   -1    0    0    0  501  0.00000000000E+00  0.00000000000E+00 -0.20115078682E+03  0.20115078688E+03  0.50400001928E-02 0. -1.
    10030    2    1    2    0    0  0.00000000000E+00  0.00000000000E+00  0.15929838456E+04  0.19952854193E+04  0.12014850695E+04 0.  0.
        2    1    3    3  502    0  0.38443660012E+03 -0.45896513274E+03  0.71427386650E+03  0.93200195760E+03  0.25500000920E-02 0. -1.
       -2    1    3    3    0  502 -0.38443660012E+03  0.45896513274E+03  0.87870997908E+03  0.10632834617E+04  0.25500000920E-02 0.  1.
</event>
<event>
 5   0  0.5745487E-05  0.1200235E+04  0.7818609E-02  0.9112651E-01
       -1   -1    0    0    0  501  0.00000000000E+00  0.00000000000E+00  0.62019713508E+03  0.62019713511E+03  0.50400001928E-02 0. -1.
        1   -1    0    0  501    0  0.00000000000E+00  0.00000000000E+00 -0.58068828830E+03  0.58068828832E+03  0.50400001928E-02 0.  1.
    10030    2    1    2    0    0  0.00000000000E+00  0.00000000000E+00  0.39508846786E+02  0.12008854234E+04  0.12002353316E+04 0.  0.
        3    1    3    3  502    0  0.33533321352E+03  0.40448602916E+03 -0.27037486034E+03  0.59089752681E+03  0.10100000352E+00 0.  1.
       -3    1    3    3    0  502 -0.33533321352E+03 -0.40448602916E+03  0.30988370713E+03  0.60998789662E+03  0.10100000352E+00 0. -1.
</event>
<event>
 5   0  0.5625746E-05  0.1200258E+04  0.7818609E-02  0.9112631E-01
        1   -1    0    0  501    0  0.00000000000E+00  0.00000000000E+00  0.78028078779E+03  0.78028078781E+03  0.50400001928E-02 0.  1.
       -1   -1    0    0    0  501  0.00000000000E+00  0.00000000000E+00 -0.46157071931E+03  0.46157071933E+03  0.50400001928E-02 0. -1.
    10030    2    1    2    0    0  0.00000000000E+00  0.00000000000E+00  0.31871006848E+03  0.12418515071E+04  0.12002579131E+04 0.  0.
        5    1    3    3  502    0 -0.47738429247E+03 -0.20405823867E+03  0.47077923008E+03  0.70084998462E+03  0.46999998093E+01 0.  1.
       -5    1    3    3    0  502  0.47738429247E+03  0.20405823867E+03 -0.15206916159E+03  0.54100152252E+03  0.46999998093E+01 0. -1.
</event>
<event>
 5   0  0.5732931E-05  0.1199847E+04  0.7818609E-02  0.9112990E-01
        1   -1    0    0  501    0  0.00000000000E+00  0.00000000000E+00  0.23714388351E+04  0.23714388351E+04  0.50400001928E-02 0. -1.
       -1   -1    0    0    0  501  0.00000000000E+00  0.00000000000E+00 -0.15176792580E+03  0.15176792588E+03  0.50400001928E-02 0.  1.
    10030    2    1    2    0    0  0.00000000000E+00  0.00000000000E+00  0.22196709093E+04  0.25232067610E+04  0.11998472457E+04 0.  0.
        4    1    3    3  502    0  0.13060351528E+02 -0.51820419069E+03  0.47475946853E+03  0.70292554505E+03  0.12699999809E+01 0.  1.
       -4    1    3    3    0  502 -0.13060351528E+02  0.51820419069E+03  0.17449114408E+04  0.18202812159E+04  0.12699999809E+01 0. -1.
</event>
<event>
 5   0  0.9838215E-05  0.1200790E+04  0.7818609E-02  0.9112166E-01
        2   -1    0    0  501    0  0.00000000000E+00  0.00000000000E+00  0.91143579888E+03  0.91143579888E+03  0.25500000920E-02 0.  1.
       -2   -1    0    0    0  501  0.00000000000E+00  0.00000000000E+00 -0.39550110974E+03  0.39550110975E+03  0.25500000920E-02 0. -1.
    10030    2    1    2    0    0  0.00000000000E+00  0.00000000000E+00  0.51593468914E+03  0.13069369086E+04  0.12007895235E+04 0.  0.
        4    1    3    3  502    0  0.52722638474E+03  0.26817914985E+03  0.14599166064E+03  0.60926422433E+03  0.12699999809E+01 0. -1.
       -4    1    3    3    0  502 -0.52722638474E+03 -0.26817914985E+03  0.36994302850E+03  0.69767268429E+03  0.12699999809E+01 0.  1.
</event>
<event>
 5   0  0.1012657E-04  0.1202399E+04  0.7818609E-02  0.9110760E-01
       -2   -1    0    0    0  501  0.00000000000E+00  0.00000000000E+00  0.70210323384E+03  0.70210323385E+03  0.25500000920E-02 0. -1.
        2   -1    0    0  501    0  0.00000000000E+00  0.00000000000E+00 -0.51479705773E+03  0.51479705773E+03  0.25500000920E-02 0.  1.
    10030    2    1    2    0    0  0.00000000000E+00  0.00000000000E+00  0.18730617612E+03  0.12169002916E+04  0.12023987342E+04 0.  0.
        1    1    3    3  502    0  0.24510070749E+03  0.38226101024E+03 -0.30510754558E+03  0.54707261964E+03  0.50400001928E-02 0.  1.
       -1    1    3    3    0  502 -0.24510070749E+03 -0.38226101024E+03  0.49241372170E+03  0.66982767194E+03  0.50400001928E-02 0. -1.
</event>
<event>
 5   0  0.1004006E-04  0.1199709E+04  0.7818609E-02  0.9113111E-01
        2   -1    0    0  501    0  0.00000000000E+00  0.00000000000E+00  0.26702824718E+03  0.26702824719E+03  0.25500000920E-02 0.  1.
       -2   -1    0    0    0  501  0.00000000000E+00  0.00000000000E+00 -0.13475179223E+04  0.13475179223E+04  0.25500000920E-02 0. -1.
    10030    2    1    2    0    0  0.00000000000E+00  0.00000000000E+00 -0.10804896751E+04  0.16145461695E+04  0.11997088794E+04 0.  0.
        5    1    3    3  502    0  0.18728828799E+03 -0.95650835099E+02 -0.12962546901E+04  0.13132114440E+04  0.46999998093E+01 0. -1.
       -5    1    3    3    0  502 -0.18728828799E+03  0.95650835099E+02  0.21576501500E+03  0.30133472547E+03  0.46999998093E+01 0.  1.
</event>
<event>
 5   0  0.9941209E-05  0.1199375E+04  0.7818609E-02  0.9113404E-01
       -2   -1    0    0    0  501  0.00000000000E+00  0.00000000000E+00  0.61877995069E+03  0.61877995070E+03  0.25500000920E-02 0. -1.
        2   -1    0    0  501    0  0.00000000000E+00  0.00000000000E+00 -0.58118377710E+03  0.58118377710E+03  0.25500000920E-02 0.  1.
    10030    2    1    2    0    0  0.00000000000E+00  0.00000000000E+00  0.37596173591E+02  0.11999637278E+04  0.11993746186E+04 0.  0.
        2    1    3    3  502    0 -0.53323727540E+02  0.58327811322E+03  0.14757840942E+03  0.60401669200E+03  0.25500000920E-02 0. -1.
       -2    1    3    3    0  502  0.53323727540E+02 -0.58327811322E+03 -0.10998223583E+03  0.59594703580E+03  0.25500000920E-02 0.  1.
</event>
<event>
 5   0  0.5447807E-05  0.1200022E+04  0.7818609E-02  0.9112837E-01
        1   -1    0    0  501    0  0.00000000000E+00  0.00000000000E+00  0.68659238100E+03  0.68659238102E+03  0.50400001928E-02 0.  1.
       -1   -1    0    0    0  501  0.00000000000E+00  0.00000000000E+00 -0.52434820453E+03  0.52434820455E+03  0.50400001928E-02 0. -1.
    10030    2    1    2    0    0  0.00000000000E+00  0.00000000000E+00  0.16224417647E+03  0.12109405856E+04  0.12000224702E+04 0.  0.
        2    1    3    3  502    0  0.80762935421E+02 -0.26684383558E+01 -0.51883219627E+03  0.52508725007E+03  0.25500000920E-02 0. -1.
       -2    1    3    3    0  502 -0.80762935421E+02  0.26684383558E+01  0.68107637274E+03  0.68585333549E+03  0.25500000920E-02 0.  1.
</event>
<event>
 5   0  0.5620246E-05  0.1199603E+04  0.7818609E-02  0.9113205E-01
        1   -1    0    0  501    0  0.00000000000E+00  0.00000000000E+00  0.10366694428E+04  0.10366694429E+04  0.50400001928E-02 0.  1.
       -1   -1    0    0    0  501  0.00000000000E+00  0.00000000000E+00 -0.34703594475E+03  0.34703594479E+03  0.50400001928E-02 0. -1.
    10030    2    1    2    0    0  0.00000000000E+00  0.00000000000E+00  0.68963349809E+03  0.13837053877E+04  0.11996025334E+04 0.  0.
        1    1    3    3  502    0  0.42735917212E+03  0.38207499524E+03  0.14125498268E+03  0.59039828433E+03  0.50400001928E-02 0. -1.
       -1    1    3    3    0  502 -0.42735917212E+03 -0.38207499524E+03  0.54837851541E+03  0.79330710332E+03  0.50400001928E-02 0.  1.
</event>
<event>
 5   0  0.1004006E-04  0.1200260E+04  0.7818609E-02  0.9112629E-01
        2   -1    0    0  501    0  0.00000000000E+00  0.00000000000E+00  0.12142718283E+04  0.12142718283E+04  0.25500000920E-02 0.  1.
       -2   -1    0    0    0  501  0.00000000000E+00  0.00000000000E+00 -0.29660226818E+03  0.29660226819E+03  0.25500000920E-02 0. -1.
    10030    2    1    2    0    0  0.00000000000E+00  0.00000000000E+00  0.91766956015E+03  0.15108740965E+04  0.12002596027E+04 0.  0.
        5    1    3    3  502    0  0.45852930148E+03 -0.13982698066E+02 -0.28186688135E+02  0.45963160852E+03  0.46999998093E+01 0. -1.
       -5    1    3    3    0  502 -0.45852930148E+03  0.13982698066E+02  0.94585624828E+03  0.10512424880E+04  0.46999998093E+01 0.  1.
</event>
<event>
 5   0  0.1012657E-04  0.1199485E+04  0.7818609E-02  0.9113308E-01
       -2   -1    0    0    0  501  0.00000000000E+00  0.00000000000E+00  0.37696884469E+03  0.37696884470E+03  0.25500000920E-02 0.  1.
        2   -1    0    0  501    0  0.00000000000E+00  0.00000000000E+00 -0.95416581155E+03  0.95416581155E+03  0.25500000920E-02 0. -1.
    10030    2    1    2    0    0  0.00000000000E+00  0.00000000000E+00 -0.57719696686E+03  0.13311346562E+04  0.11994845287E+04 0.  0.
        1    1    3    3  502    0 -0.21809452923E+03 -0.15318905675E+03 -0.88483647468E+03  0.92410372672E+03  0.50400001928E-02 0. -1.
       -1    1    3    3    0  502  0.21809452923E+03  0.15318905675E+03  0.30763950782E+03  0.40703092952E+03  0.50400001928E-02 0.  1.
</event>
<event>
 5   0  0.5625746E-05  0.1199494E+04  0.7818609E-02  0.9113299E-01
       -1   -1    0    0    0  501  0.00000000000E+00  0.00000000000E+00  0.26752410374E+03  0.26752410378E+03  0.50400001928E-02 0.  1.
        1   -1    0    0  501    0  0.00000000000E+00  0.00000000000E+00 -0.13445388055E+04  0.13445388055E+04  0.50400001928E-02 0. -1.
    10030    2    1    2    0    0  0.00000000000E+00  0.00000000000E+00 -0.10770147017E+04  0.16120629092E+04  0.11994941249E+04 0.  0.
        5    1    3    3  502    0 -0.43102769409E+03 -0.41632062503E+03 -0.50651357824E+03  0.78465650500E+03  0.46999998093E+01 0. -1.
       -5    1    3    3    0  502  0.43102769409E+03  0.41632062503E+03 -0.57050112347E+03  0.82740640424E+03  0.46999998093E+01 0.  1.
</event>
<event>
 5   0  0.5745487E-05  0.1202897E+04  0.7818609E-02  0.9110324E-01
       -1   -1    0    0    0  501  0.00000000000E+00  0.00000000000E+00  0.35535868163E+03  0.35535868167E+03  0.50400001928E-02 0. -1.
        1   -1    0    0  501    0  0.00000000000E+00  0.00000000000E+00 -0.10179587953E+04  0.10179587953E+04  0.50400001928E-02 0.  1.
    10030    2    1    2    0    0  0.00000000000E+00  0.00000000000E+00 -0.66260011364E+03  0.13733174770E+04  0.12028973281E+04 0.  0.
        3    1    3    3  502    0 -0.13093536189E+03  0.39882101902E+02 -0.99994126769E+03  0.10092656737E+04  0.10100000352E+00 0.  1.
       -3    1    3    3    0  502  0.13093536189E+03 -0.39882101902E+02  0.33734115405E+03  0.36405180327E+03  0.10100000352E+00 0. -1.
</event>
<event>
 5   0  0.1004006E-04  0.1199925E+04  0.7818609E-02  0.9112922E-01
        2   -1    0    0  501    0  0.00000000000E+00  0.00000000000E+00  0.28751505954E+04  0.28751505954E+04  0.25500000920E-02 0. -1.
       -2   -1    0    0    0  501  0.00000000000E+00  0.00000000000E+00 -0.12519513931E+03  0.12519513934E+03  0.25500000920E-02 0.  1.
    10030    2    1    2    0    0  0.00000000000E+00  0.00000000000E+00  0.27499554561E+04  0.30003457348E+04  0.11999247966E+04 0.  0.
        5    1    3    3  502    0  0.10576544499E+03 -0.21909567961E+03  0.37315506393E+01  0.24336240598E+03  0.46999998093E+01 0.  1.
       -5    1    3    3    0  502 -0.10576544499E+03  0.21909567961E+03  0.27462239055E+04  0.27569833288E+04  0.46999998093E+01 0. -1.
</event>
<event>
 5   0  0.5745487E-05  0.1199646E+04  0.7818609E-02  0.9113167E-01
        1   -1    0    0  501    0  0.00000000000E+00  0.00000000000E+00  0.53147709628E+03  0.53147709631E+03  0.50400001928E-02 0. -1.
       -1   -1    0    0    0  501  0.00000000000E+00  0.00000000000E+00 -0.67695740550E+03  0.67695740552E+03  0.50400001928E-02 0.  1.
    10030    2    1    2    0    0  0.00000000000E+00  0.00000000000E+00 -0.14548030922E+03  0.12084345018E+04  0.11996455413E+04 0.  0.
        3    1    3    3  502    0  0.60269163069E+02 -0.30948546696E+03 -0.58674681412E+03  0.66609718537E+03  0.10100000352E+00 0.  1.
       -3    1    3    3    0  502 -0.60269163069E+02  0.30948546696E+03  0.44126650490E+03  0.54233731646E+03  0.10100000352E+00 0. -1.
</event>
<event>
 5   0  0.1004006E-04  0.1200223E+04  0.7818609E-02  0.9112661E-01
        2   -1    0    0  501    0  0.00000000000E+00  0.00000000000E+00  0.18431924459E+04  0.18431924459E+04  0.25500000920E-02 0. -1.
       -2   -1    0    0    0  501  0.00000000000E+00  0.00000000000E+00 -0.19538598819E+03  0.19538598821E+03  0.25500000920E-02 0.  1.
    10030    2    1    2    0    0  0.00000000000E+00  0.00000000000E+00  0.16478064577E+04  0.20385784341E+04  0.12002232750E+04 0.  0.
        5    1    3    3  502    0  0.33175864131E+03  0.72384167688E+02 -0.16482632496E+02  0.33999563377E+03  0.46999998093E+01 0.  1.
       -5    1    3    3    0  502 -0.33175864131E+03 -0.72384167688E+02  0.16642890902E+04  0.16985828003E+04  0.46999998093E+01 0. -1.
</event>
<event>
 5   0  0.5447807E-05  0.1199939E+04  0.7818609E-02  0.9112910E-01
        1   -1    0    0  501    0  0.00000000000E+00  0.00000000000E+00  0.10126320400E+04  0.10126320400E+04  0.50400001928E-02 0. -1.
       -1   -1    0    0    0  501  0.00000000000E+00  0.00000000000E+00 -0.35547292182E+03  0.35547292185E+03  0.50400001928E-02 0.  1.
    10030    2    1    2    0    0  0.00000000000E+00  0.00000000000E+00  0.65715911821E+03  0.13681049619E+04  0.11999387818E+04 0.  0.
        2    1    3    3  502    0 -0.63424437458E+02  0.25752635651E+03  0.94216520660E+03  0.97878381683E+03  0.25500000920E-02 0. -1.
       -2    1    3    3    0  502  0.63424437458E+02 -0.25752635651E+03 -0.28500608839E+03  0.38932114506E+03  0.25500000920E-02 0.  1.
</event>
<event>
 5   0  0.1012657E-04  0.1197386E+04  0.7818609E-02  0.9115147E-01
        2   -1    0    0  501    0  0.00000000000E+00  0.00000000000E+00  0.11692016244E+04  0.11692016244E+04  0.25500000920E-02 0.  1.
       -2   -1    0    0    0  501  0.00000000000E+00  0.00000000000E+00 -0.30656255050E+03  0.30656255051E+03  0.25500000920E-02 0. -1.
    10030    2    1    2    0    0  0.00000000000E+00  0.00000000000E+00  0.86263907386E+03  0.14757641749E+04  0.11973862067E+04 0.  0.
        1    1    3    3  502    0 -0.36080320054E+03 -0.45839260953E+03  0.59727439663E+03  0.83488887816E+03  0.50400001928E-02 0.  1.
       -1    1    3    3    0  502  0.36080320054E+03  0.45839260953E+03  0.26536467723E+03  0.64087529671E+03  0.50400001928E-02 0. -1.
</event>
<event>
 5   0  0.5447807E-05  0.1199375E+04  0.7818609E-02  0.9113404E-01
       -1   -1    0    0    0  501  0.00000000000E+00  0.00000000000E+00  0.39612212669E+03  0.39612212672E+03  0.50400001928E-02 0. -1.
        1   -1    0    0  501    0  0.00000000000E+00  0.00000000000E+00 -0.90786353795E+03  0.90786353797E+03  0.50400001928E-02 0.  1.
    10030    2    1    2    0    0  0.00000000000E+00  0.00000000000E+00 -0.51174141126E+03  0.13039856647E+04  0.11993745627E+04 0.  0.
        2    1    3    3  502    0  0.37959310042E+03  0.43252897637E+03 -0.43926209817E+03  0.72396369259E+03  0.25500000920E-02 0.  1.
       -2    1    3    3    0  502 -0.37959310042E+03 -0.43252897637E+03 -0.72479313094E+02  0.58002197210E+03  0.25500000920E-02 0. -1.
</event>
<event>
 5   0  0.9838215E-05  0.1200317E+04  0.7818609E-02  0.9112579E-01
        2   -1    0    0  501    0  0.00000000000E+00  0.00000000000E+00  0.18355941949E+03  0.18355941950E+03  0.25500000920E-02 0.  1.
       -2   -1    0    0    0  501  0.00000000000E+00  0.00000000000E+00 -0.19622527798E+04  0.19622527798E+04  0.25500000920E-02 0. -1.
    10030    2    1    2    0    0  0.00000000000E+00  0.00000000000E+00 -0.17786933603E+04  0.21458121993E+04  0.12003165935E+04 0.  0.
        4    1    3    3  502    0 -0.50584435482E+03 -0.20332546767E+03 -0.44074803527E+03  0.70105648888E+03  0.12699999809E+01 0. -1.
       -4    1    3    3    0  502  0.50584435482E+03  0.20332546767E+03 -0.13379453250E+04  0.14447557104E+04  0.12699999809E+01 0.  1.
</event>
<event>
 5   0  0.5732931E-05  0.1200669E+04  0.7818609E-02  0.9112271E-01
        1   -1    0    0  501    0  0.00000000000E+00  0.00000000000E+00  0.57538078290E+03  0.57538078292E+03  0.50400001928E-02 0. -1.
       -1   -1    0    0    0  501  0.00000000000E+00  0.00000000000E+00 -0.62637011531E+03  0.62637011533E+03  0.50400001928E-02 0.  1.
    10030    2    1    2    0    0  0.00000000000E+00  0.00000000000E+00 -0.50989332409E+02  0.12017508982E+04  0.12006686926E+04 0.  0.
        4    1    3    3  502    0 -0.24841996652E+03 -0.54414218363E+03 -0.76496641274E+02  0.60303942226E+03  0.12699999809E+01 0. -1.
       -4    1    3    3    0  502  0.24841996652E+03  0.54414218363E+03  0.25507308865E+02  0.59871147599E+03  0.12699999809E+01 0.  1.
</event>
<event>
 5   0  0.3839750E-05  0.1199746E+04  0.7818609E-02  0.9113079E-01
        4   -1    0    0  501    0  0.00000000000E+00  0.00000000000E+00  0.97789945094E+03  0.97790027561E+03  0.12699999809E+01 0.  1.
       -4   -1    0    0    0  501  0.00000000000E+00  0.00000000000E+00 -0.36797793909E+03  0.36798013065E+03  0.12699999809E+01 0. -1.
    10030    2    1    2    0    0  0.00000000000E+00  0.00000000000E+00  0.60992151185E+03  0.13458804063E+04  0.11997457303E+04 0.  0.
        1    1    3    3  502    0 -0.35378469004E+03  0.38585920729E+03  0.63354905389E+03  0.82184873210E+03  0.50400001928E-02 0.  1.
       -1    1    3    3    0  502  0.35378469004E+03 -0.38585920729E+03 -0.23627542033E+02  0.52403167416E+03  0.50400001928E-02 0. -1.
</event>
<event>
 5   0  0.5745487E-05  0.1200214E+04  0.7818609E-02  0.9112670E-01
        1   -1    0    0  501    0  0.00000000000E+00  0.00000000000E+00  0.11211552335E+04  0.11211552335E+04  0.50400001928E-02 0.  1.
       -1   -1    0    0    0  501  0.00000000000E+00  0.00000000000E+00 -0.32121168574E+03  0.32121168578E+03  0.50400001928E-02 0. -1.
    10030    2    1    2    0    0  0.00000000000E+00  0.00000000000E+00  0.79994354774E+03  0.14423669193E+04  0.12002135853E+04 0.  0.
        3    1    3    3  502    0  0.44717060375E+03 -0.15174494915E+03  0.84501214039E+03  0.96800496179E+03  0.10100000352E+00 0.  1.
       -3    1    3    3    0  502 -0.44717060375E+03  0.15174494915E+03 -0.45068592644E+02  0.47436195747E+03  0.10100000352E+00 0. -1.
</event>
<event>
 5   0  0.5447807E-05  0.1200066E+04  0.7818609E-02  0.9112799E-01
        1   -1    0    0  501    0  0.00000000000E+00  0.00000000000E+00  0.14743288892E+04  0.14743288892E+04  0.50400001928E-02 0.  1.
       -1   -1    0    0    0  501  0.00000000000E+00  0.00000000000E+00 -0.24420570202E+03  0.24420570208E+03  0.50400001928E-02 0. -1.
    10030    2    1    2    0    0  0.00000000000E+00  0.00000000000E+00  0.12301231872E+04  0.17185345913E+04  0.12000658673E+04 0.  0.
        2    1    3    3  502    0  0.19195924884E+03  0.50673513133E+03  0.98410048888E+03  0.11234245051E+04  0.25500000920E-02 0.  1.
       -2    1    3    3    0  502 -0.19195924884E+03 -0.50673513133E+03  0.24602269828E+03  0.59511008613E+03  0.25500000920E-02 0. -1.
</event>
<event>
 5   0  0.5745487E-05  0.1200068E+04  0.7818609E-02  0.9112797E-01
        1   -1    0    0  501    0  0.00000000000E+00  0.00000000000E+00  0.14719136806E+04  0.14719136807E+04  0.50400001928E-02 0. -1.
       -1   -1    0    0    0  501  0.00000000000E+00  0.00000000000E+00 -0.24460735159E+03  0.24460735164E+03  0.50400001928E-02 0.  1.
    10030    2    1    2    0    0  0.00000000000E+00  0.00000000000E+00  0.12273063291E+04  0.17165210323E+04  0.12000681768E+04 0.  0.
        3    1    3    3  502    0  0.48079144704E+03 -0.35332243891E+03  0.52269648690E+03  0.79322682065E+03  0.10100000352E+00 0.  1.
       -3    1    3    3    0  502 -0.48079144704E+03  0.35332243891E+03  0.70460984216E+03  0.92329421164E+03  0.10100000352E+00 0. -1.
</event>
<event>
 5   0  0.5625746E-05  0.1200186E+04  0.7818609E-02  0.9112694E-01
        1   -1    0    0  501    0  0.00000000000E+00  0.00000000000E+00  0.21966970698E+04  0.21966970698E+04  0.50400001928E-02 0.  1.
       -1   -1    0    0    0  501  0.00000000000E+00  0.00000000000E+00 -0.16393317044E+03  0.16393317051E+03  0.50400001928E-02 0. -1.
    10030    2    1    2    0    0  0.00000000000E+00  0.00000000000E+00  0.20327638994E+04  0.23606302404E+04  0.12001858443E+04 0.  0.
        5    1    3    3  502    0 -0.63153779477E+02  0.59660863968E+03  0.99156824681E+03  0.11589477757E+04  0.46999998093E+01 0.  1.
       -5    1    3    3    0  502  0.63153779477E+02 -0.59660863968E+03  0.10411956526E+04  0.12016824646E+04  0.46999998093E+01 0. -1.
</event>
<event>
 5   0  0.5625746E-05  0.1200867E+04  0.7818609E-02  0.9112098E-01
        1   -1    0    0  501    0  0.00000000000E+00  0.00000000000E+00  0.49456993243E+03  0.49456993245E+03  0.50400001928E-02 0. -1.
       -1   -1    0    0    0  501  0.00000000000E+00  0.00000000000E+00 -0.72895756476E+03  0.72895756478E+03  0.50400001928E-02 0.  1.
    10030    2    1    2    0    0  0.00000000000E+00  0.00000000000E+00 -0.23438763234E+03  0.12235274972E+04  0.12008671760E+04 0.  0.
        5    1    3    3  502    0  0.25542999029E+03  0.19093987436E+02 -0.67047805523E+03  0.71775481387E+03  0.46999998093E+01 0.  1.
       -5    1    3    3    0  502 -0.25542999029E+03 -0.19093987436E+02  0.43609042289E+03  0.50577268336E+03  0.46999998093E+01 0. -1.
</event>
<event>
 5   0  0.5625746E-05  0.1200304E+04  0.7818609E-02  0.9112590E-01
       -1   -1    0    0    0  501  0.00000000000E+00  0.00000000000E+00  0.44269621613E+03  0.44269621615E+03  0.50400001928E-02 0.  1.
        1   -1    0    0  501    0  0.00000000000E+00  0.00000000000E+00 -0.81361128884E+03  0.81361128886E+03  0.50400001928E-02 0. -1.
    10030    2    1    2    0    0  0.00000000000E+00  0.00000000000E+00 -0.37091507272E+03  0.12563075050E+04  0.12003043597E+04 0.  0.
        5    1    3    3  502    0  0.17748117319E+02 -0.30723154324E+03 -0.72471911574E+03  0.78736656237E+03  0.46999998093E+01 0. -1.
       -5    1    3    3    0  502 -0.17748117319E+02  0.30723154324E+03  0.35380404302E+03  0.46894094264E+03  0.46999998093E+01 0.  1.
</event>
<event>
 5   0  0.9838215E-05  0.1200240E+04  0.7818609E-02  0.9112647E-01
        2   -1    0    0  501    0  0.00000000000E+00  0.00000000000E+00  0.16418326353E+04  0.16418326353E+04  0.25500000920E-02 0. -1.
       -2   -1    0    0    0  501  0.00000000000E+00  0.00000000000E+00 -0.21935481087E+03  0.21935481088E+03  0.25500000920E-02 0.  1.
    10030    2    1    2    0    0  0.00000000000E+00  0.00000000000E+00  0.14224778244E+04  0.18611874462E+04  0.12002397881E+04 0.  0.
        4    1    3    3  502    0  0.48686701405E+03  0.79409231896E+02  0.18128529314E+03  0.52555807090E+03  0.12699999809E+01 0. -1.
       -4    1    3    3    0  502 -0.48686701405E+03 -0.79409231896E+02  0.12411925313E+04  0.13356293753E+04  0.12699999809E+01 0.  1.
</event>
<event>
 5   0  0.5732931E-05  0.1200084E+04  0.7818609E-02  0.9112783E-01
       -1   -1    0    0    0  501  0.00000000000E+00  0.00000000000E+00  0.53378725890E+03  0.53378725892E+03  0.50400001928E-02 0.  1.
        1   -1    0    0  501    0  0.00000000000E+00  0.00000000000E+00 -0.67452090430E+03  0.67452090432E+03  0.50400001928E-02 0. -1.
    10030    2    1    2    0    0  0.00000000000E+00  0.00000000000E+00 -0.14073364540E+03  0.12083081632E+04  0.12000844380E+04 0.  0.
        4    1    3    3  502    0 -0.47049757021E+03 -0.20184688254E+03  0.24472967059E+03  0.56745427316E+03  0.12699999809E+01 0.  1.
       -4    1    3    3    0  502  0.47049757021E+03  0.20184688254E+03 -0.38546331598E+03  0.64085389008E+03  0.12699999809E+01 0. -1.
</event>
<event>
 5   0  0.1023063E-04  0.1200072E+04  0.7818609E-02  0.9112794E-01
       -2   -1    0    0    0  501  0.00000000000E+00  0.00000000000E+00  0.60061462346E+03  0.60061462346E+03  0.25500000920E-02 0. -1.
        2   -1    0    0  501    0  0.00000000000E+00  0.00000000000E+00 -0.59945746424E+03  0.59945746425E+03  0.25500000920E-02 0.  1.
    10030    2    1    2    0    0  0.00000000000E+00  0.00000000000E+00  0.11571592151E+01  0.12000720877E+04  0.12000715298E+04 0.  0.
        3    1    3    3  502    0  0.17839220775E+03 -0.41170883381E+03 -0.39781207404E+03  0.59965189909E+03  0.10100000352E+00 0.  1.
       -3    1    3    3    0  502 -0.17839220775E+03  0.41170883381E+03  0.39896923326E+03  0.60042018863E+03  0.10100000352E+00 0. -1.
</event>
<event>
 5   0  0.1012657E-04  0.1199767E+04  0.7818609E-02  0.9113060E-01
       -2   -1    0    0    0  501  0.00000000000E+00  0.00000000000E+00  0.33530144389E+03  0.33530144390E+03  0.25500000920E-02 0.  1.
        2   -1    0    0  501    0  0.00000000000E+00  0.00000000000E+00 -0.10732442346E+04  0.10732442346E+04  0.25500000920E-02 0. -1.
    10030    2    1    2    0    0  0.00000000000E+00  0.00000000000E+00 -0.73794279072E+03  0.14085456785E+04  0.11997672133E+04 0.  0.
        1    1    3    3  502    0 -0.14325382177E+03 -0.58188318266E+03 -0.40113698155E+03  0.72112452025E+03  0.50400001928E-02 0.  1.
       -1    1    3    3    0  502  0.14325382177E+03  0.58188318266E+03 -0.33680580917E+03  0.68742115827E+03  0.50400001928E-02 0. -1.
</event>
<event>
 5   0  0.5732931E-05  0.1200062E+04  0.7818609E-02  0.9112802E-01
        1   -1    0    0  501    0  0.00000000000E+00  0.00000000000E+00  0.99323498404E+03  0.99323498406E+03  0.50400001928E-02 0. -1.
       -1   -1    0    0    0  501  0.00000000000E+00  0.00000000000E+00 -0.36248936359E+03  0.36248936363E+03  0.50400001928E-02 0.  1.
    10030    2    1    2    0    0  0.00000000000E+00  0.00000000000E+00  0.63074562045E+03  0.13557243477E+04  0.12000618606E+04 0.  0.
        4    1    3    3  502    0  0.41872268921E+03 -0.23177874906E+03 -0.93491544223E+02  0.48763958076E+03  0.12699999809E+01 0.  1.
       -4    1    3    3    0  502 -0.41872268921E+03  0.23177874906E+03  0.72423716468E+03  0.86808476693E+03  0.12699999809E+01 0. -1.
</event>
<event>
 5   0  0.1012657E-04  0.1200363E+04  0.7818609E-02  0.9112539E-01
        2   -1    0    0  501    0  0.00000000000E+00  0.00000000000E+00  0.15394486776E+04  0.15394486776E+04  0.25500000920E-02 0.  1.
       -2   -1    0    0    0  501  0.00000000000E+00  0.00000000000E+00 -0.23399128340E+03  0.23399128341E+03  0.25500000920E-02 0. -1.
    10030    2    1    2    0    0  0.00000000000E+00  0.00000000000E+00  0.13054573942E+04  0.17734399611E+04  0.12003625649E+04 0.  0.
        1    1    3    3  502    0  0.44273154691E+03 -0.11396004259E+03  0.78205080433E+02  0.46380399801E+03  0.50400001928E-02 0. -1.
       -1    1    3    3    0  502 -0.44273154691E+03  0.11396004259E+03  0.12272523138E+04  0.13096359631E+04  0.50400001928E-02 0.  1.
</event>
<event>
 5   0  0.1023063E-04  0.1203498E+04  0.7818609E-02  0.9109800E-01
       -2   -1    0    0    0  501  0.00000000000E+00  0.00000000000E+00  0.33581269845E+03  0.33581269846E+03  0.25500000920E-02 0.  1.
        2   -1    0    0  501    0  0.00000000000E+00  0.00000000000E+00 -0.10782858231E+04  0.10782858231E+04  0.25500000920E-02 0. -1.
    10030    2    1    2    0    0  0.00000000000E+00  0.00000000000E+00 -0.74247312464E+03  0.14140985215E+04  0.12034983539E+04 0.  0.
        3    1    3    3  502    0  0.14441134958E+03  0.88568679565E+02  0.30721512620E+03  0.35082786784E+03  0.10100000352E+00 0.  1.
       -3    1    3    3    0  502 -0.14441134958E+03 -0.88568679565E+02 -0.10496882508E+04  0.10632706537E+04  0.10100000352E+00 0. -1.
</event>
<event>
 5   0  0.5447807E-05  0.1200412E+04  0.7818609E-02  0.9112496E-01
       -1   -1    0    0    0  501  0.00000000000E+00  0.00000000000E+00  0.71996217726E+03  0.71996217728E+03  0.50400001928E-02 0.  1.
        1   -1    0    0  501    0  0.00000000000E+00  0.00000000000E+00 -0.50036997655E+03  0.50036997658E+03  0.50400001928E-02 0. -1.
    10030    2    1    2    0    0  0.00000000000E+00  0.00000000000E+00  0.21959220071E+03  0.12203321539E+04  0.12004123588E+04 0.  0.
        2    1    3    3  502    0  0.23339256798E+03  0.36046209202E+03 -0.31649813119E+03  0.53345672517E+03  0.25500000920E-02 0. -1.
       -2    1    3    3    0  502 -0.23339256798E+03 -0.36046209202E+03  0.53609033191E+03  0.68687542869E+03  0.25500000920E-02 0.  1.
</event>
<event>
 5   0  0.1023063E-04  0.1198830E+04  0.7818609E-02  0.9113882E-01
        2   -1    0    0  501    0  0.00000000000E+00  0.00000000000E+00  0.14140910119E+04  0.14140910119E+04  0.25500000920E-02 0.  1.
       -2   -1    0    0    0  501  0.00000000000E+00  0.00000000000E+00 -0.25408410786E+03  0.25408410788E+03  0.25500000920E-02 0. -1.
    10030    2    1    2    0    0  0.00000000000E+00  0.00000000000E+00  0.11600069040E+04  0.16681751197E+04  0.11988295178E+04 0.  0.
        3    1    3    3  502    0  0.97603744931E+02  0.50136396202E+03  0.10165136602E+04  0.11376257491E+04  0.10100000352E+00 0. -1.
       -3    1    3    3    0  502 -0.97603744931E+02 -0.50136396202E+03  0.14349324375E+03  0.53054937060E+03  0.10100000352E+00 0.  1.
</event>
<event>
 5   0  0.5732931E-05  0.1200086E+04  0.7818609E-02  0.9112781E-01
        1   -1    0    0  501    0  0.00000000000E+00  0.00000000000E+00  0.18333578710E+04  0.18333578710E+04  0.50400001928E-02 0. -1.
       -1   -1    0    0    0  501  0.00000000000E+00  0.00000000000E+00 -0.19638928101E+03  0.19638928108E+03  0.50400001928E-02 0.  1.
    10030    2    1    2    0    0  0.00000000000E+00  0.00000000000E+00  0.16369685900E+04  0.20297471521E+04  0.12000863872E+04 0.  0.
        4    1    3    3  502    0  0.16342429114E+03  0.82026815761E+02 -0.14811627021E+03  0.23532092946E+03  0.12699999809E+01 0.  1.
       -4    1    3    3    0  502 -0.16342429114E+03 -0.82026815761E+02  0.17850848602E+04  0.17944262226E+04  0.12699999809E+01 0. -1.
</event>
<event>
 5   0  0.5447807E-05  0.1199814E+04  0.7818609E-02  0.9113020E-01
       -1   -1    0    0    0  501  0.00000000000E+00  0.00000000000E+00  0.71138607476E+03  0.71138607478E+03  0.50400001928E-02 0.  1.
        1   -1    0    0  501    0  0.00000000000E+00  0.00000000000E+00 -0.50589729780E+03  0.50589729782E+03  0.50400001928E-02 0. -1.
    10030    2    1    2    0    0  0.00000000000E+00  0.00000000000E+00  0.20548877696E+03  0.12172833726E+04  0.11998138071E+04 0.  0.
        2    1    3    3  502    0  0.32745873163E+03  0.24470188011E+03  0.54820457251E+03  0.68383951653E+03  0.25500000920E-02 0.  1.
       -2    1    3    3    0  502 -0.32745873163E+03 -0.24470188011E+03 -0.34271579554E+03  0.53344385607E+03  0.25500000920E-02 0. -1.
</event>
<event>
 5   0  0.5732931E-05  0.1200114E+04  0.7818609E-02  0.9112756E-01
        1   -1    0    0  501    0  0.00000000000E+00  0.00000000000E+00  0.59080558643E+03  0.59080558645E+03  0.50400001928E-02 0. -1.
       -1   -1    0    0    0  501  0.00000000000E+00  0.00000000000E+00 -0.60945376302E+03  0.60945376304E+03  0.50400001928E-02 0.  1.
    10030    2    1    2    0    0  0.00000000000E+00  0.00000000000E+00 -0.18648176592E+02  0.12002593495E+04  0.12001144744E+04 0.  0.
        4    1    3    3  502    0 -0.14092126746E+02  0.53693736301E+03 -0.27687601776E+03  0.60428657269E+03  0.12699999809E+01 0.  1.
       -4    1    3    3    0  502  0.14092126746E+02 -0.53693736301E+03  0.25822784117E+03  0.59597277680E+03  0.12699999809E+01 0. -1.
</event>
<event>
 5   0  0.1012657E-04  0.1199763E+04  0.7818609E-02  0.9113064E-01
        2   -1    0    0  501    0  0.00000000000E+00  0.00000000000E+00  0.10893723888E+04  0.10893723888E+04  0.25500000920E-02 0.  1.
       -2   -1    0    0    0  501  0.00000000000E+00  0.00000000000E+00 -0.33033478936E+03  0.33033478937E+03  0.25500000920E-02 0. -1.
    10030    2    1    2    0    0  0.00000000000E+00  0.00000000000E+00  0.75903759941E+03  0.14197071781E+04  0.11997626408E+04 0.  0.
        1    1    3    3  502    0  0.19316999050E+02 -0.19948870767E+03 -0.28954432077E+03  0.35214315932E+03  0.50400001928E-02 0. -1.
       -1    1    3    3    0  502 -0.19316999050E+02  0.19948870767E+03  0.10485819202E+04  0.10675640188E+04  0.50400001928E-02 0.  1.
</event>
<event>
 5   0  0.5620246E-05  0.1200018E+04  0.7818609E-02  0.9112840E-01
        1   -1    0    0  501    0  0.00000000000E+00  0.00000000000E+00  0.48540279372E+03  0.48540279375E+03  0.50400001928E-02 0. -1.
       -1   -1    0    0    0  501  0.00000000000E+00  0.00000000000E+00 -0.74167477733E+03  0.74167477734E+03  0.50400001928E-02 0.  1.
    10030    2    1    2    0    0  0.00000000000E+00  0.00000000000E+00 -0.25627198360E+03  0.12270775711E+04  0.12000183482E+04 0.  0.
        1    1    3    3  502    0  0.39860909888E+03 -0.21075692720E+03 -0.53291988267E+03  0.69807685640E+03  0.50400001928E-02 0.  1.
       -1    1    3    3    0  502 -0.39860909888E+03  0.21075692720E+03  0.27664789906E+03  0.52900071470E+03  0.50400001928E-02 0. -1.
</event>
<event>
 5   0  0.5447807E-05  0.1200072E+04  0.7818609E-02  0.9112794E-01
        1   -1    0    0  501    0  0.00000000000E+00  0.00000000000E+00  0.94478893073E+03  0.94478893074E+03  0.50400001928E-02 0.  1.
       -1   -1    0    0    0  501  0.00000000000E+00  0.00000000000E+00 -0.38108318725E+03  0.38108318728E+03  0.50400001928E-02 0. -1.
    10030    2    1    2    0    0  0.00000000000E+00  0.00000000000E+00  0.56370574348E+03  0.13258721180E+04  0.12000719596E+04 0.  0.
        2    1    3    3  502    0 -0.50202909285E+03 -0.18759802719E+03 -0.16280494071E+02  0.53618213731E+03  0.25500000920E-02 0. -1.
       -2    1    3    3    0  502  0.50202909285E+03  0.18759802719E+03  0.57998623755E+03  0.78968998071E+03  0.25500000920E-02 0.  1.
</event>
<event>
 5   0  0.9941209E-05  0.1201664E+04  0.7818609E-02  0.9111401E-01
       -2   -1    0    0    0  501  0.00000000000E+00  0.00000000000E+00  0.47938810864E+03  0.47938810865E+03  0.25500000920E-02 0.  1.
        2   -1    0    0  501    0  0.00000000000E+00  0.00000000000E+00 -0.75304119006E+03  0.75304119007E+03  0.25500000920E-02 0. -1.
    10030    2    1    2    0    0  0.00000000000E+00  0.00000000000E+00 -0.27365308142E+03  0.12324292987E+04  0.12016638329E+04 0.  0.
        2    1    3    3  502    0 -0.41066102515E+03 -0.26081542033E+03  0.22480823648E+03  0.53591594887E+03  0.25500000920E-02 0.  1.
       -2    1    3    3    0  502  0.41066102515E+03  0.26081542033E+03 -0.49846131790E+03  0.69651334984E+03  0.25500000920E-02 0. -1.
</event>
<event>
 5   0  0.9941209E-05  0.1200707E+04  0.7818609E-02  0.9112238E-01
       -2   -1    0    0    0  501  0.00000000000E+00  0.00000000000E+00  0.53900372824E+03  0.53900372824E+03  0.25500000920E-02 0.  1.
        2   -1    0    0  501    0  0.00000000000E+00  0.00000000000E+00 -0.66868655224E+03  0.66868655224E+03  0.25500000920E-02 0. -1.
    10030    2    1    2    0    0  0.00000000000E+00  0.00000000000E+00 -0.12968282400E+03  0.12076902805E+04  0.12007073660E+04 0.  0.
        2    1    3    3  502    0  0.43359472316E+03  0.66917501834E+02 -0.47703224258E+03  0.64810654716E+03  0.25500000920E-02 0. -1.
       -2    1    3    3    0  502 -0.43359472316E+03 -0.66917501834E+02  0.34734941858E+03  0.55958373332E+03  0.25500000920E-02 0.  1.
</event>
<event>
 5   0  0.1004006E-04  0.1208507E+04  0.7818609E-02  0.9105443E-01
        2   -1    0    0  501    0  0.00000000000E+00  0.00000000000E+00  0.12067196041E+04  0.12067196041E+04  0.25500000920E-02 0. -1.
       -2   -1    0    0    0  501  0.00000000000E+00  0.00000000000E+00 -0.30257411849E+03  0.30257411850E+03  0.25500000920E-02 0.  1.
    10030    2    1    2    0    0  0.00000000000E+00  0.00000000000E+00  0.90414548559E+03  0.15092937226E+04  0.12085067157E+04 0.  0.
        5    1    3    3  502    0  0.58870916657E+03  0.48810404014E+02  0.61073157305E+03  0.84969175744E+03  0.46999998093E+01 0.  1.
       -5    1    3    3    0  502 -0.58870916657E+03 -0.48810404014E+02  0.29341391254E+03  0.65960196514E+03  0.46999998093E+01 0. -1.
</event>
<event>
 5   0  0.1012657E-04  0.1201428E+04  0.7818609E-02  0.9111608E-01
        2   -1    0    0  501    0  0.00000000000E+00  0.00000000000E+00  0.88909221047E+03  0.88909221048E+03  0.25500000920E-02 0.  1.
       -2   -1    0    0    0  501  0.00000000000E+00  0.00000000000E+00 -0.40587147222E+03  0.40587147223E+03  0.25500000920E-02 0. -1.
    10030    2    1    2    0    0  0.00000000000E+00  0.00000000000E+00  0.48322073825E+03  0.12949636827E+04  0.12014277580E+04 0.  0.
        1    1    3    3  502    0 -0.53104753713E+02  0.56885823953E+03  0.44163100668E+03  0.72212032075E+03  0.50400001928E-02 0.  1.
       -1    1    3    3    0  502  0.53104753713E+02 -0.56885823953E+03  0.41589731569E+02  0.57284336196E+03  0.50400001928E-02 0. -1.
</event>
<event>
 5   0  0.5745487E-05  0.1199669E+04  0.7818609E-02  0.9113146E-01
        1   -1    0    0  501    0  0.00000000000E+00  0.00000000000E+00  0.58767266489E+03  0.58767266491E+03  0.50400001928E-02 0. -1.
       -1   -1    0    0    0  501  0.00000000000E+00  0.00000000000E+00 -0.61224805331E+03  0.61224805334E+03  0.50400001928E-02 0.  1.
    10030    2    1    2    0    0  0.00000000000E+00  0.00000000000E+00 -0.24575388425E+02  0.11999207182E+04  0.11996690295E+04 0.  0.
        3    1    3    3  502    0  0.98293679879E+02  0.39650422806E+03 -0.45161120076E+03  0.60895807510E+03  0.10100000352E+00 0.  1.
       -3    1    3    3    0  502 -0.98293679879E+02 -0.39650422806E+03  0.42703581234E+03  0.59096264315E+03  0.10100000352E+00 0. -1.
</event>
<event>
 5   0  0.9838215E-05  0.1200448E+04  0.7818609E-02  0.9112465E-01
        2   -1    0    0  501    0  0.00000000000E+00  0.00000000000E+00  0.37067550442E+03  0.37067550443E+03  0.25500000920E-02 0.  1.
       -2   -1    0    0    0  501  0.00000000000E+00  0.00000000000E+00 -0.97192503665E+03  0.97192503666E+03  0.25500000920E-02 0. -1.
    10030    2    1    2    0    0  0.00000000000E+00  0.00000000000E+00 -0.60124953223E+03  0.13426005411E+04  0.12004479218E+04 0.  0.
        4    1    3    3  502    0 -0.26881752881E+03  0.53585670035E+03 -0.33345982405E+03  0.68600461679E+03  0.12699999809E+01 0. -1.
       -4    1    3    3    0  502  0.26881752881E+03 -0.53585670035E+03 -0.26778970818E+03  0.65659592430E+03  0.12699999809E+01 0.  1.
</event>
<event>
 5   0  0.1004006E-04  0.1199865E+04  0.7818609E-02  0.9112975E-01
        2   -1    0    0  501    0  0.00000000000E+00  0.00000000000E+00  0.67915309923E+03  0.67915309923E+03  0.25500000920E-02 0.  1.
       -2   -1    0    0    0  501  0.00000000000E+00  0.00000000000E+00 -0.52995273834E+03  0.52995273834E+03  0.25500000920E-02 0. -1.
    10030    2    1    2    0    0  0.00000000000E+00  0.00000000000E+00  0.14920036089E+03  0.12091058376E+04  0.11998650669E+04 0.  0.
        5    1    3    3  502    0  0.51780239734E+03 -0.23262998549E+03 -0.12095862771E+03  0.58042149551E+03  0.46999998093E+01 0. -1.
       -5    1    3    3    0  502 -0.51780239734E+03  0.23262998549E+03  0.27015898860E+03  0.62868434206E+03  0.46999998093E+01 0.  1.
</event>
<event>
 5   0  0.1023063E-04  0.1199526E+04  0.7818609E-02  0.9113272E-01
       -2   -1    0    0    0  501  0.00000000000E+00  0.00000000000E+00  0.69486989811E+03  0.69486989812E+03  0.25500000920E-02 0.  1.
        2   -1    0    0  501    0  0.00000000000E+00  0.00000000000E+00 -0.51767301414E+03  0.51767301415E+03  0.25500000920E-02 0. -1.
    10030    2    1    2    0    0  0.00000000000E+00  0.00000000000E+00  0.17719688397E+03  0.12125429123E+04  0.11995255639E+04 0.  0.
        3    1    3    3  502    0 -0.43962629041E+03 -0.44658781861E+01 -0.32377985701E+03  0.54600789856E+03  0.10100000352E+00 0. -1.
       -3    1    3    3    0  502  0.43962629041E+03  0.44658781861E+01  0.50097674098E+03  0.66653501370E+03  0.10100000352E+00 0.  1.
</event>
<event>
 5   0  0.5620246E-05  0.1198278E+04  0.7818609E-02  0.9114365E-01
        1   -1    0    0  501    0  0.00000000000E+00  0.00000000000E+00  0.13628820146E+04  0.13628820146E+04  0.50400001928E-02 0.  1.
       -1   -1    0    0    0  501  0.00000000000E+00  0.00000000000E+00 -0.26338844831E+03  0.26338844836E+03  0.50400001928E-02 0. -1.
    10030    2    1    2    0    0  0.00000000000E+00  0.00000000000E+00  0.10994935663E+04  0.16262704629E+04  0.11982777292E+04 0.  0.
        1    1    3    3  502    0  0.56244180650E+03 -0.18269660284E+03  0.68026525670E+03  0.90137653280E+03  0.50400001928E-02 0.  1.
       -1    1    3    3    0  502 -0.56244180650E+03  0.18269660284E+03  0.41922830956E+03  0.72489393014E+03  0.50400001928E-02 0. -1.
</event>
<event>
 5   0  0.3839750E-05  0.1199888E+04  0.7818609E-02  0.9112955E-01
       -4   -1    0    0    0  501  0.00000000000E+00  0.00000000000E+00  0.79803980839E+03  0.79804081893E+03  0.12699999809E+01 0. -1.
        4   -1    0    0  501    0  0.00000000000E+00  0.00000000000E+00 -0.45101883435E+03  0.45102062241E+03  0.12699999809E+01 0.  1.
    10030    2    1    2    0    0  0.00000000000E+00  0.00000000000E+00  0.34702097404E+03  0.12490614413E+04  0.11998878814E+04 0.  0.
        3    1    3    3  502    0  0.18771338261E+03  0.76536085075E+02  0.76130916595E+03  0.78783611411E+03  0.10100000352E+00 0. -1.
       -3    1    3    3    0  502 -0.18771338261E+03 -0.76536085075E+02 -0.41428819190E+03  0.46122532723E+03  0.10100000352E+00 0.  1.
</event>
<event>
 5   0  0.5447807E-05  0.1200606E+04  0.7818609E-02  0.9112326E-01
        1   -1    0    0  501    0  0.00000000000E+00  0.00000000000E+00  0.12177113403E+04  0.12177113403E+04  0.50400001928E-02 0.  1.
       -1   -1    0    0    0  501  0.00000000000E+00  0.00000000000E+00 -0.29593536304E+03  0.29593536309E+03  0.50400001928E-02 0. -1.
    10030    2    1    2    0    0  0.00000000000E+00  0.00000000000E+00  0.92177597723E+03  0.15136467034E+04  0.12006062595E+04 0.  0.
        2    1    3    3  502    0 -0.36228974714E+02  0.42532291092E+03  0.99301945248E+03  0.10808791561E+04  0.25500000920E-02 0.  1.
       -2    1    3    3    0  502  0.36228974714E+02 -0.42532291092E+03 -0.71243475252E+02  0.43276754723E+03  0.25500000920E-02 0. -1.
</event>
<event>
 5   0  0.9941209E-05  0.1206067E+04  0.7818609E-02  0.9107563E-01
       -2   -1    0    0    0  501  0.00000000000E+00  0.00000000000E+00  0.35224652877E+03  0.35224652878E+03  0.25500000920E-02 0. -1.
        2   -1    0    0  501    0  0.00000000000E+00  0.00000000000E+00 -0.10323713307E+04  0.10323713307E+04  0.25500000920E-02 0.  1.
    10030    2    1    2    0    0  0.00000000000E+00  0.00000000000E+00 -0.68012480196E+03  0.13846178595E+04  0.12060666941E+04 0.  0.
        2    1    3    3  502    0  0.35273234965E+03 -0.76667046970E+02 -0.89464174541E+03  0.96471850776E+03  0.25500000920E-02 0.  1.
       -2    1    3    3    0  502 -0.35273234965E+03  0.76667046970E+02  0.21451694344E+03  0.41989935176E+03  0.25500000920E-02 0. -1.
</event>
<event>
 5   0  0.9838215E-05  0.1198962E+04  0.7818609E-02  0.9113766E-01
        2   -1    0    0  501    0  0.00000000000E+00  0.00000000000E+00  0.17571741525E+04  0.17571741525E+04  0.25500000920E-02 0. -1.
       -2   -1    0    0    0  501  0.00000000000E+00  0.00000000000E+00 -0.20452003481E+03  0.20452003483E+03  0.25500000920E-02 0.  1.
    10030    2    1    2    0    0  0.00000000000E+00  0.00000000000E+00  0.15526541177E+04  0.19616941873E+04  0.11989617489E+04 0.  0.
        4    1    3    3  502    0  0.28903597296E+02 -0.44190411062E+03  0.11522689702E+03  0.45759535795E+03  0.12699999809E+01 0.  1.
       -4    1    3    3    0  502 -0.28903597296E+02  0.44190411062E+03  0.14374272207E+04  0.15040988294E+04  0.12699999809E+01 0. -1.
</event>
<event>
 5   0  0.1004006E-04  0.1200707E+04  0.7818609E-02  0.9112238E-01
       -2   -1    0    0    0  501  0.00000000000E+00  0.00000000000E+00  0.27717341376E+03  0.27717341377E+03  0.25500000920E-02 0.  1.
        2   -1    0    0  501    0  0.00000000000E+00  0.00000000000E+00 -0.13003567556E+04  0.13003567556E+04  0.25500000920E-02 0. -1.
    10030    2    1    2    0    0  0.00000000000E+00  0.00000000000E+00 -0.10231833419E+04  0.15775301694E+04  0.12007069935E+04 0.  0.
        5    1    3    3  502    0 -0.12649119305E+03 -0.50094034779E+03 -0.91324908884E+03  0.10492793919E+04  0.46999998093E+01 0. -1.
       -5    1    3    3    0  502  0.12649119305E+03  0.50094034779E+03 -0.10993425303E+03  0.52825077752E+03  0.46999998093E+01 0.  1.
</event>
<event>
 5   0  0.5732931E-05  0.1197917E+04  0.7818609E-02  0.9114682E-01
       -1   -1    0    0    0  501  0.00000000000E+00  0.00000000000E+00  0.23228198635E+03  0.23228198641E+03  0.50400001928E-02 0.  1.
        1   -1    0    0  501    0  0.00000000000E+00  0.00000000000E+00 -0.15444642166E+04  0.15444642166E+04  0.50400001928E-02 0. -1.
    10030    2    1    2    0    0  0.00000000000E+00  0.00000000000E+00 -0.13121822303E+04  0.17767462030E+04  0.11979168855E+04 0.  0.
        4    1    3    3  502    0  0.38612034617E+03  0.24927860226E+03 -0.12257638407E+04  0.13090940949E+04  0.12699999809E+01 0. -1.
       -4    1    3    3    0  502 -0.38612034617E+03 -0.24927860226E+03 -0.86418389561E+02  0.46765210812E+03  0.12699999809E+01 0.  1.
</event>
<event>
 5   0  0.5732931E-05  0.1200033E+04  0.7818609E-02  0.9112828E-01
        1   -1    0    0  501    0  0.00000000000E+00  0.00000000000E+00  0.10873330461E+04  0.10873330461E+04  0.50400001928E-02 0. -1.
       -1   -1    0    0    0  501  0.00000000000E+00  0.00000000000E+00 -0.33110360411E+03  0.33110360415E+03  0.50400001928E-02 0.  1.
    10030    2    1    2    0    0  0.00000000000E+00  0.00000000000E+00  0.75622944201E+03  0.14184366503E+04  0.12000331503E+04 0.  0.
        4    1    3    3  502    0 -0.42651061667E+03 -0.75157954643E+02  0.86897590707E+03  0.97091748581E+03  0.12699999809E+01 0. -1.
       -4    1    3    3    0  502  0.42651061667E+03  0.75157954643E+02 -0.11274646506E+03  0.44751916447E+03  0.12699999809E+01 0.  1.
</event>
<event>
 5   0  0.9941209E-05  0.1200053E+04  0.7818609E-02  0.9112810E-01
        2   -1    0    0  501    0  0.00000000000E+00  0.00000000000E+00  0.45899972082E+03  0.45899972083E+03  0.25500000920E-02 0. -1.
       -2   -1    0    0    0  501  0.00000000000E+00  0.00000000000E+00 -0.78438396444E+03  0.78438396445E+03  0.25500000920E-02 0.  1.
    10030    2    1    2    0    0  0.00000000000E+00  0.00000000000E+00 -0.32538424362E+03  0.12433836853E+04  0.12000533667E+04 0.  0.
        2    1    3    3  502    0  0.49999777405E+03 -0.28507540465E+03  0.13038039600E+02  0.57570456910E+03  0.25500000920E-02 0. -1.
       -2    1    3    3    0  502 -0.49999777405E+03  0.28507540465E+03 -0.33842228322E+03  0.66767911618E+03  0.25500000920E-02 0.  1.
</event>
<event>
 5   0  0.1012657E-04  0.1199980E+04  0.7818609E-02  0.9112874E-01
       -2   -1    0    0    0  501  0.00000000000E+00  0.00000000000E+00  0.25295269211E+03  0.25295269212E+03  0.25500000920E-02 0.  1.
        2   -1    0    0  501    0  0.00000000000E+00  0.00000000000E+00 -0.14231428331E+04  0.14231428331E+04  0.25500000920E-02 0. -1.
    10030    2    1    2    0    0  0.00000000000E+00  0.00000000000E+00 -0.11701901410E+04  0.16760955252E+04  0.11999796847E+04 0.  0.
        1    1    3    3  502    0 -0.52600110983E+02 -0.15145097884E+03  0.22247912679E+03  0.27422824901E+03  0.50400001928E-02 0.  1.
       -1    1    3    3    0  502  0.52600110983E+02  0.15145097884E+03 -0.13926692678E+04  0.14018672762E+04  0.50400001928E-02 0. -1.
</event>
<event>
 5   0  0.1012657E-04  0.1198963E+04  0.7818609E-02  0.9113764E-01
       -2   -1    0    0    0  501  0.00000000000E+00  0.00000000000E+00  0.32293441376E+03  0.32293441377E+03  0.25500000920E-02 0. -1.
        2   -1    0    0  501    0  0.00000000000E+00  0.00000000000E+00 -0.11128520589E+04  0.11128520589E+04  0.25500000920E-02 0.  1.
    10030    2    1    2    0    0  0.00000000000E+00  0.00000000000E+00 -0.78991764517E+03  0.14357864727E+04  0.11989632643E+04 0.  0.
        1    1    3    3  502    0  0.14516737712E+03 -0.51897533545E+03 -0.70945239010E+03  0.89091619136E+03  0.50400001928E-02 0.  1.
       -1    1    3    3    0  502 -0.14516737712E+03  0.51897533545E+03 -0.80465255066E+02  0.54487028134E+03  0.50400001928E-02 0. -1.
</event>
<event>
 5   0  0.5447807E-05  0.1200105E+04  0.7818609E-02  0.9112764E-01
        1   -1    0    0  501    0  0.00000000000E+00  0.00000000000E+00  0.22304832379E+04  0.22304832379E+04  0.50400001928E-02 0.  1.
       -1   -1    0    0    0  501  0.00000000000E+00  0.00000000000E+00 -0.16142834855E+03  0.16142834862E+03  0.50400001928E-02 0. -1.
    10030    2    1    2    0    0  0.00000000000E+00  0.00000000000E+00  0.20690548893E+04  0.23919115865E+04  0.12001053715E+04 0.  0.
        2    1    3    3  502    0 -0.20673742400E+03  0.38375146196E+03  0.21261819840E+03  0.48498664449E+03  0.25500000920E-02 0. -1.
       -2    1    3    3    0  502  0.20673742400E+03 -0.38375146196E+03  0.18564366909E+04  0.19069249420E+04  0.25500000920E-02 0.  1.
</event>
<event>
 5   0  0.1004006E-04  0.1199564E+04  0.7818609E-02  0.9113238E-01
       -2   -1    0    0    0  501  0.00000000000E+00  0.00000000000E+00  0.91931547926E+03  0.91931547926E+03  0.25500000920E-02 0. -1.
        2   -1    0    0  501    0  0.00000000000E+00  0.00000000000E+00 -0.39131124233E+03  0.39131124233E+03  0.25500000920E-02 0.  1.
    10030    2    1    2    0    0  0.00000000000E+00  0.00000000000E+00  0.52800423693E+03  0.13106267216E+04  0.11995640580E+04 0.  0.
        5    1    3    3  502    0 -0.23014188859E+01  0.34641721430E+03  0.79892997648E+03  0.87081650203E+03  0.46999998093E+01 0. -1.
       -5    1    3    3    0  502  0.23014188859E+01 -0.34641721430E+03 -0.27092573954E+03  0.43981021957E+03  0.46999998093E+01 0.  1.
</event>
<event>
 5   0  0.5732931E-05  0.1200066E+04  0.7818609E-02  0.9112799E-01
        1   -1    0    0  501    0  0.00000000000E+00  0.00000000000E+00  0.10026596359E+04  0.10026596359E+04  0.50400001928E-02 0.  1.
       -1   -1    0    0    0  501  0.00000000000E+00  0.00000000000E+00 -0.35908432586E+03  0.35908432589E+03  0.50400001928E-02 0. -1.
    10030    2    1    2    0    0  0.00000000000E+00  0.00000000000E+00  0.64357531002E+03  0.13617439618E+04  0.12000655973E+04 0.  0.
        4    1    3    3  502    0  0.36649397005E+03  0.26401392672E+03  0.76999175550E+03  0.89269821330E+03  0.12699999809E+01 0.  1.
       -4    1    3    3    0  502 -0.36649397005E+03 -0.26401392672E+03 -0.12641644548E+03  0.46904574849E+03  0.12699999809E+01 0. -1.
</event>
<event>
 5   0  0.5620246E-05  0.1199994E+04  0.7818609E-02  0.9112862E-01
        1   -1    0    0  501    0  0.00000000000E+00  0.00000000000E+00  0.20341164350E+04  0.20341164350E+04  0.50400001928E-02 0. -1.
       -1   -1    0    0    0  501  0.00000000000E+00  0.00000000000E+00 -0.17697923431E+03  0.17697923438E+03  0.50400001928E-02 0.  1.
    10030    2    1    2    0    0  0.00000000000E+00  0.00000000000E+00  0.18571372007E+04  0.22110956694E+04  0.11999939487E+04 0.  0.
        1    1    3    3  502    0  0.56995456814E+02 -0.12834039646E+03  0.20034103800E+04  0.20083258924E+04  0.50400001928E-02 0. -1.
       -1    1    3    3    0  502 -0.56995456814E+02  0.12834039646E+03 -0.14627317928E+03  0.20276977699E+03  0.50400001928E-02 0.  1.
</event>
<event>
 5   0  0.5620246E-05  0.1199929E+04  0.7818609E-02  0.9112919E-01
        1   -1    0    0  501    0  0.00000000000E+00  0.00000000000E+00  0.85769841362E+03  0.85769841363E+03  0.50400001928E-02 0. -1.
       -1   -1    0    0    0  501  0.00000000000E+00  0.00000000000E+00 -0.41967825299E+03  0.41967825302E+03  0.50400001928E-02 0.  1.
    10030    2    1    2    0    0  0.00000000000E+00  0.00000000000E+00  0.43802016063E+03  0.12773766667E+04  0.11999289510E+04 0.  0.
        1    1    3    3  502    0  0.42862762234E+03  0.41371344295E+03  0.29486148366E+03  0.66469823686E+03  0.50400001928E-02 0. -1.
       -1    1    3    3    0  502 -0.42862762234E+03 -0.41371344295E+03  0.14315867697E+03  0.61267842979E+03  0.50400001928E-02 0.  1.
</event>
<event>
 5   0  0.5447807E-05  0.1200291E+04  0.7818609E-02  0.9112602E-01
       -1   -1    0    0    0  501  0.00000000000E+00  0.00000000000E+00  0.60184992567E+03  0.60184992569E+03  0.50400001928E-02 0. -1.
        1   -1    0    0  501    0  0.00000000000E+00  0.00000000000E+00 -0.59844544259E+03  0.59844544261E+03  0.50400001928E-02 0.  1.
    10030    2    1    2    0    0  0.00000000000E+00  0.00000000000E+00  0.34044830853E+01  0.12002953683E+04  0.12002905401E+04 0.  0.
        2    1    3    3  502    0  0.58746326973E+03 -0.11740545129E+03  0.37440486610E+02  0.60024905107E+03  0.25500000920E-02 0.  1.
       -2    1    3    3    0  502 -0.58746326973E+03  0.11740545129E+03 -0.34036003525E+02  0.60004631722E+03  0.25500000920E-02 0. -1.
</event>
<event>
 5   0  0.3839750E-05  0.1199993E+04  0.7818609E-02  0.9112863E-01
        3   -1    0    0  501    0  0.00000000000E+00  0.00000000000E+00  0.13058649545E+04  0.13058649584E+04  0.10100000352E+00 0. -1.
       -3   -1    0    0    0  501  0.00000000000E+00  0.00000000000E+00 -0.27567604062E+03  0.27567605913E+03  0.10100000352E+00 0.  1.
    10030    2    1    2    0    0  0.00000000000E+00  0.00000000000E+00  0.10301889139E+04  0.15815410176E+04  0.11999928299E+04 0.  0.
        5    1    3    3  502    0  0.62315457709E+02 -0.54887570992E+03  0.82369343448E+03  0.99178663290E+03  0.46999998093E+01 0. -1.
       -5    1    3    3    0  502 -0.62315457709E+02  0.54887570992E+03  0.20649547943E+03  0.58975438467E+03  0.46999998093E+01 0.  1.
</event>
<event>
 5   0  0.5620246E-05  0.1200057E+04  0.7818609E-02  0.9112807E-01
        1   -1    0    0  501    0  0.00000000000E+00  0.00000000000E+00  0.69727813964E+03  0.69727813965E+03  0.50400001928E-02 0.  1.
       -1   -1    0    0    0  501  0.00000000000E+00  0.00000000000E+00 -0.51634196758E+03  0.51634196760E+03  0.50400001928E-02 0. -1.
    10030    2    1    2    0    0  0.00000000000E+00  0.00000000000E+00  0.18093617206E+03  0.12136201073E+04  0.12000566097E+04 0.  0.
        1    1    3    3  502    0  0.19350954114E+03  0.41930098498E+03  0.47791003665E+03  0.66457299198E+03  0.50400001928E-02 0.  1.
       -1    1    3    3    0  502 -0.19350954114E+03 -0.41930098498E+03 -0.29697386459E+03  0.54904711527E+03  0.50400001928E-02 0. -1.
</event>
<event>
 5   0  0.1023063E-04  0.1199705E+04  0.7818609E-02  0.9113115E-01
        2   -1    0    0  501    0  0.00000000000E+00  0.00000000000E+00  0.69859572490E+03  0.69859572491E+03  0.25500000920E-02 0.  1.
       -2   -1    0    0    0  501  0.00000000000E+00  0.00000000000E+00 -0.51506633936E+03  0.51506633937E+03  0.25500000920E-02 0. -1.
    10030    2    1    2    0    0  0.00000000000E+00  0.00000000000E+00  0.18352938554E+03  0.12136620643E+04  0.11997052017E+04 0.  0.
        3    1    3    3  502    0 -0.50036198853E+03  0.21819829348E+03  0.34335557900E+03  0.64487648327E+03  0.10100000352E+00 0.  1.
       -3    1    3    3    0  502  0.50036198853E+03 -0.21819829348E+03 -0.15982619346E+03  0.56878558101E+03  0.10100000352E+00 0. -1.
</event>
<event>
 5   0  0.5745487E-05  0.1200163E+04  0.7818609E-02  0.9112714E-01
        1   -1    0    0  501    0  0.00000000000E+00  0.00000000000E+00  0.79611799525E+03  0.79611799527E+03  0.50400001928E-02 0.  1.
       -1   -1    0    0    0  501  0.00000000000E+00  0.00000000000E+00 -0.45231695635E+03  0.45231695638E+03  0.50400001928E-02 0. -1.
    10030    2    1    2    0    0  0.00000000000E+00  0.00000000000E+00  0.34380103890E+03  0.12484349516E+04  0.12001627699E+04 0.  0.
        3    1    3    3  502    0  0.74778907346E+02  0.13690372455E+03 -0.43085650396E+03  0.45822685647E+03  0.10100000352E+00 0. -1.
       -3    1    3    3    0  502 -0.74778907346E+02 -0.13690372455E+03  0.77465754286E+03  0.79020809518E+03  0.10100000352E+00 0.  1.
</event>
<event>
 5   0  0.9838215E-05  0.1200136E+04  0.7818609E-02  0.9112737E-01
       -2   -1    0    0    0  501  0.00000000000E+00  0.00000000000E+00  0.22544461531E+03  0.22544461532E+03  0.25500000920E-02 0. -1.
        2   -1    0    0  501    0  0.00000000000E+00  0.00000000000E+00 -0.15972065815E+04  0.15972065815E+04  0.25500000920E-02 0.  1.
    10030    2    1    2    0    0  0.00000000000E+00  0.00000000000E+00 -0.13717619662E+04  0.18226511968E+04  0.12001360312E+04 0.  0.
        4    1    3    3  502    0  0.41344824421E+03  0.40970454694E+02 -0.13434323612E+04  0.14062112753E+04  0.12699999809E+01 0.  1.
       -4    1    3    3    0  502 -0.41344824421E+03 -0.40970454694E+02 -0.28329604966E+02  0.41643992149E+03  0.12699999809E+01 0. -1.
</event>
<event>
 5   0  0.1023063E-04  0.1206459E+04  0.7818609E-02  0.9107222E-01
       -2   -1    0    0    0  501  0.00000000000E+00  0.00000000000E+00  0.46641365795E+03  0.46641365796E+03  0.25500000920E-02 0. -1.
        2   -1    0    0  501    0  0.00000000000E+00  0.00000000000E+00 -0.78017859298E+03  0.78017859299E+03  0.25500000920E-02 0.  1.
    10030    2    1    2    0    0  0.00000000000E+00  0.00000000000E+00 -0.31376493503E+03  0.12465922509E+04  0.12064592018E+04 0.  0.
        3    1    3    3  502    0  0.83749793168E+02 -0.55074822236E+03  0.82220332977E+02  0.56311439836E+03  0.10100000352E+00 0. -1.
       -3    1    3    3    0  502 -0.83749793168E+02  0.55074822236E+03 -0.39598526801E+03  0.68347785258E+03  0.10100000352E+00 0.  1.
</event>
<event>
 5   0  0.9941209E-05  0.1199884E+04  0.7818609E-02  0.9112958E-01
        2   -1    0    0  501    0  0.00000000000E+00  0.00000000000E+00  0.10255222275E+04  0.10255222276E+04  0.25500000920E-02 0. -1.
       -2   -1    0    0    0  501  0.00000000000E+00  0.00000000000E+00 -0.35097278197E+03  0.35097278198E+03  0.25500000920E-02 0.  1.
    10030    2    1    2    0    0  0.00000000000E+00  0.00000000000E+00  0.67454944557E+03  0.13764950095E+04  0.11998839764E+04 0.  0.
        2    1    3    3  502    0 -0.10285392682E+02  0.35702033340E+03 -0.21571502796E+03  0.41725565431E+03  0.25500000920E-02 0.  1.
       -2    1    3    3    0  502  0.10285392682E+02 -0.35702033340E+03  0.89026447353E+03  0.95923935522E+03  0.25500000920E-02 0. -1.
</event>
<event>
 5   0  0.5625746E-05  0.1199860E+04  0.7818609E-02  0.9112979E-01
       -1   -1    0    0    0  501  0.00000000000E+00  0.00000000000E+00  0.69494253176E+03  0.69494253178E+03  0.50400001928E-02 0.  1.
        1   -1    0    0  501    0  0.00000000000E+00  0.00000000000E+00 -0.51790765477E+03  0.51790765479E+03  0.50400001928E-02 0. -1.
    10030    2    1    2    0    0  0.00000000000E+00  0.00000000000E+00  0.17703487700E+03  0.12128501866E+04  0.11998600866E+04 0.  0.
        5    1    3    3  502    0  0.17372763476E+03  0.56778865672E+03  0.19826910497E+01  0.59379396329E+03  0.46999998093E+01 0.  1.
       -5    1    3    3    0  502 -0.17372763476E+03 -0.56778865672E+03  0.17505218595E+03  0.61905622328E+03  0.46999998093E+01 0. -1.
</event>
<event>
 5   0  0.5620246E-05  0.1199634E+04  0.7818609E-02  0.9113177E-01
        1   -1    0    0  501    0  0.00000000000E+00  0.00000000000E+00  0.81300482792E+03  0.81300482793E+03  0.50400001928E-02 0. -1.
       -1   -1    0    0    0  501  0.00000000000E+00  0.00000000000E+00 -0.44253198160E+03  0.44253198162E+03  0.50400001928E-02 0.  1.
    10030    2    1    2    0    0  0.00000000000E+00  0.00000000000E+00  0.37047284632E+03  0.12555368096E+04  0.11996343402E+04 0.  0.
        1    1    3    3  502    0 -0.19683315289E+03 -0.26352203620E+03  0.71020130906E+03  0.78267046262E+03  0.50400001928E-02 0. -1.
       -1    1    3    3    0  502  0.19683315289E+03  0.26352203620E+03 -0.33972846274E+03  0.47286634693E+03  0.50400001928E-02 0.  1.
</event>
<event>
 5   0  0.9838215E-05  0.1200214E+04  0.7818609E-02  0.9112669E-01
        2   -1    0    0  501    0  0.00000000000E+00  0.00000000000E+00  0.89758251743E+03  0.89758251743E+03  0.25500000920E-02 0.  1.
       -2   -1    0    0    0  501  0.00000000000E+00  0.00000000000E+00 -0.40122032129E+03  0.40122032130E+03  0.25500000920E-02 0. -1.
    10030    2    1    2    0    0  0.00000000000E+00  0.00000000000E+00  0.49636219614E+03  0.12988028387E+04  0.12002138910E+04 0.  0.
        4    1    3    3  502    0  0.12274907255E+03  0.12208220943E+03 -0.37360890934E+03  0.41177254729E+03  0.12699999809E+01 0. -1.
       -4    1    3    3    0  502 -0.12274907255E+03 -0.12208220943E+03  0.86997110547E+03  0.88703029144E+03  0.12699999809E+01 0.  1.
</event>
<event>
 5   0  0.9838215E-05  0.1199790E+04  0.7818609E-02  0.9113040E-01
        2   -1    0    0  501    0  0.00000000000E+00  0.00000000000E+00  0.67862248826E+03  0.67862248826E+03  0.25500000920E-02 0.  1.
       -2   -1    0    0    0  501  0.00000000000E+00  0.00000000000E+00 -0.53030102519E+03  0.53030102520E+03  0.25500000920E-02 0. -1.
    10030    2    1    2    0    0  0.00000000000E+00  0.00000000000E+00  0.14832146307E+03  0.12089235135E+04  0.11997903171E+04 0.  0.
        4    1    3    3  502    0 -0.45512264526E+03 -0.18113920245E+03 -0.27477667643E+03  0.56165101950E+03  0.12699999809E+01 0. -1.
       -4    1    3    3    0  502  0.45512264526E+03  0.18113920245E+03  0.42309813950E+03  0.64727249396E+03  0.12699999809E+01 0.  1.
</event>
<event>
 5   0  0.1004006E-04  0.1200082E+04  0.7818609E-02  0.9112785E-01
       -2   -1    0    0    0  501  0.00000000000E+00  0.00000000000E+00  0.66681659381E+03  0.66681659382E+03  0.25500000920E-02 0. -1.
        2   -1    0    0  501    0  0.00000000000E+00  0.00000000000E+00 -0.53995261147E+03  0.53995261147E+03  0.25500000920E-02 0.  1.
    10030    2    1    2    0    0  0.00000000000E+00  0.00000000000E+00  0.12686398235E+03  0.12067692053E+04  0.12000822659E+04 0.  0.
        5    1    3    3  502    0 -0.11919058017E+03 -0.44345328616E+03  0.45180946544E+03  0.64421354725E+03  0.46999998093E+01 0. -1.
       -5    1    3    3    0  502  0.11919058017E+03  0.44345328616E+03 -0.32494548310E+03  0.56255565804E+03  0.46999998093E+01 0.  1.
</event>
<event>
 5   0  0.1023063E-04  0.1201195E+04  0.7818609E-02  0.9111812E-01
        2   -1    0    0  501    0  0.00000000000E+00  0.00000000000E+00  0.14886052175E+04  0.14886052175E+04  0.25500000920E-02 0. -1.
       -2   -1    0    0    0  501  0.00000000000E+00  0.00000000000E+00 -0.24231887678E+03  0.24231887679E+03  0.25500000920E-02 0.  1.
    10030    2    1    2    0    0  0.00000000000E+00  0.00000000000E+00  0.12462863407E+04  0.17309240943E+04  0.12011946458E+04 0.  0.
        3    1    3    3  502    0  0.56256680234E+03  0.13638598134E+03  0.85385923360E+03  0.10315804108E+04  0.10100000352E+00 0. -1.
       -3    1    3    3    0  502 -0.56256680234E+03 -0.13638598134E+03  0.39242710711E+03  0.69934368346E+03  0.10100000352E+00 0.  1.
</event>
<event>
 5   0  0.9838215E-05  0.1199525E+04  0.7818609E-02  0.9113272E-01
        2   -1    0    0  501    0  0.00000000000E+00  0.00000000000E+00  0.11449850675E+04  0.11449850675E+04  0.25500000920E-02 0.  1.
       -2   -1    0    0    0  501  0.00000000000E+00  0.00000000000E+00 -0.31416597235E+03  0.31416597236E+03  0.25500000920E-02 0. -1.
    10030    2    1    2    0    0  0.00000000000E+00  0.00000000000E+00  0.83081909513E+03  0.14591510399E+04  0.11995254846E+04 0.  0.
        4    1    3    3  502    0  0.55887685028E+03  0.15597656798E+03  0.23076005059E+03  0.62443881797E+03  0.12699999809E+01 0. -1.
       -4    1    3    3    0  502 -0.55887685028E+03 -0.15597656798E+03  0.60005904454E+03  0.83471222189E+03  0.12699999809E+01 0.  1.
</event>
<event>
 5   0  0.5625746E-05  0.1200059E+04  0.7818609E-02  0.9112805E-01
        1   -1    0    0  501    0  0.00000000000E+00  0.00000000000E+00  0.31194604673E+03  0.31194604677E+03  0.50400001928E-02 0. -1.
       -1   -1    0    0    0  501  0.00000000000E+00  0.00000000000E+00 -0.11541593928E+04  0.11541593929E+04  0.50400001928E-02 0.  1.
    10030    2    1    2    0    0  0.00000000000E+00  0.00000000000E+00 -0.84221334612E+03  0.14661054396E+04  0.12000590984E+04 0.  0.
        5    1    3    3  502    0 -0.28384122888E+03 -0.34623163615E+03  0.66915776623E+02  0.45270520236E+03  0.46999998093E+01 0. -1.
       -5    1    3    3    0  502  0.28384122888E+03  0.34623163615E+03 -0.90912912274E+03  0.10134002373E+04  0.46999998093E+01 0.  1.
</event>
<event>
 5   0  0.5447807E-05  0.1199907E+04  0.7818609E-02  0.9112938E-01
       -1   -1    0    0    0  501  0.00000000000E+00  0.00000000000E+00  0.10144642358E+04  0.10144642358E+04  0.50400001928E-02 0. -1.
        1   -1    0    0  501    0  0.00000000000E+00  0.00000000000E+00 -0.35481209859E+03  0.35481209862E+03  0.50400001928E-02 0.  1.
    10030    2    1    2    0    0  0.00000000000E+00  0.00000000000E+00  0.65965213722E+03  0.13692763344E+04  0.11999069705E+04 0.  0.
        2    1    3    3  502    0  0.20077766354E+03 -0.54117848112E+03  0.51649554951E+03  0.77456663449E+03  0.25500000920E-02 0.  1.
       -2    1    3    3    0  502 -0.20077766354E+03  0.54117848112E+03  0.14315658771E+03  0.59470969995E+03  0.25500000920E-02 0. -1.
</event>
<event>
 5   0  0.3839750E-05  0.1199986E+04  0.7818609E-02  0.9112869E-01
        3   -1    0    0  501    0  0.00000000000E+00  0.00000000000E+00  0.91636380948E+03  0.91636381505E+03  0.10100000352E+00 0.  1.
       -3   -1    0    0    0  501  0.00000000000E+00  0.00000000000E+00 -0.39284762682E+03  0.39284763981E+03  0.10100000352E+00 0. -1.
    10030    2    1    2    0    0  0.00000000000E+00  0.00000000000E+00  0.52351618266E+03  0.13092114549E+04  0.11999855999E+04 0.  0.
        3    1    3    3  502    0 -0.28294992156E+03  0.12758258157E+03 -0.29845135910E+03  0.43059400504E+03  0.10100000352E+00 0. -1.
       -3    1    3    3    0  502  0.28294992156E+03 -0.12758258157E+03  0.82196754175E+03  0.87861744982E+03  0.10100000352E+00 0.  1.
</event>
<event>
 5   0  0.9838215E-05  0.1200172E+04  0.7818609E-02  0.9112706E-01
        2   -1    0    0  501    0  0.00000000000E+00  0.00000000000E+00  0.78194959640E+03  0.78194959640E+03  0.25500000920E-02 0.  1.
       -2   -1    0    0    0  501  0.00000000000E+00  0.00000000000E+00 -0.46051961270E+03  0.46051961271E+03  0.25500000920E-02 0. -1.
    10030    2    1    2    0    0  0.00000000000E+00  0.00000000000E+00  0.32142998370E+03  0.12424692091E+04  0.12001718632E+04 0.  0.
        4    1    3    3  502    0  0.30468016066E+03  0.42823455013E+03  0.46055439367E+03  0.69880382988E+03  0.12699999809E+01 0. -1.
       -4    1    3    3    0  502 -0.30468016066E+03 -0.42823455013E+03 -0.13912440997E+03  0.54366537923E+03  0.12699999809E+01 0.  1.
</event>
<event>
 5   0  0.1023063E-04  0.1200995E+04  0.7818609E-02  0.9111986E-01
        2   -1    0    0  501    0  0.00000000000E+00  0.00000000000E+00  0.57732161900E+03  0.57732161901E+03  0.25500000920E-02 0. -1.
       -2   -1    0    0    0  501  0.00000000000E+00  0.00000000000E+00 -0.62460416368E+03  0.62460416369E+03  0.25500000920E-02 0.  1.
    10030    2    1    2    0    0  0.00000000000E+00  0.00000000000E+00 -0.47282544680E+02  0.12019257827E+04  0.12009953989E+04 0.  0.
        3    1    3    3  502    0  0.15419048070E+03 -0.35375186932E+02 -0.60337525361E+03  0.62376903983E+03  0.10100000352E+00 0.  1.
       -3    1    3    3    0  502 -0.15419048070E+03  0.35375186932E+02  0.55609270893E+03  0.57815674286E+03  0.10100000352E+00 0. -1.
</event>
<event>
 5   0  0.5625746E-05  0.1200295E+04  0.7818609E-02  0.9112599E-01
       -1   -1    0    0    0  501  0.00000000000E+00  0.00000000000E+00  0.22513486868E+03  0.22513486874E+03  0.50400001928E-02 0.  1.
        1   -1    0    0  501    0  0.00000000000E+00  0.00000000000E+00 -0.15998267772E+04  0.15998267772E+04  0.50400001928E-02 0. -1.
    10030    2    1    2    0    0  0.00000000000E+00  0.00000000000E+00 -0.13746919085E+04  0.18249616459E+04  0.12002946163E+04 0.  0.
        5    1    3    3  502    0 -0.53606556300E+03  0.26669645443E+03 -0.74931929725E+03  0.95916358660E+03  0.46999998093E+01 0. -1.
       -5    1    3    3    0  502  0.53606556300E+03 -0.26669645443E+03 -0.62537261123E+03  0.86579805931E+03  0.46999998093E+01 0.  1.
</event>
<event>
 5   0  0.9941209E-05  0.1198139E+04  0.7818609E-02  0.9114487E-01
        2   -1    0    0  501    0  0.00000000000E+00  0.00000000000E+00  0.52224036037E+03  0.52224036038E+03  0.25500000920E-02 0.  1.
       -2   -1    0    0    0  501  0.00000000000E+00  0.00000000000E+00 -0.68720077741E+03  0.68720077741E+03  0.25500000920E-02 0. -1.
    10030    2    1    2    0    0  0.00000000000E+00  0.00000000000E+00 -0.16496041703E+03  0.12094411378E+04  0.11981385256E+04 0.  0.
        2    1    3    3  502    0 -0.23509577489E+03 -0.23632211345E+03  0.41997620951E+03  0.53618856873E+03  0.25500000920E-02 0.  1.
       -2    1    3    3    0  502  0.23509577489E+03  0.23632211345E+03 -0.58493662654E+03  0.67325256906E+03  0.25500000920E-02 0. -1.
</event>
<event>
 5   0  0.9838215E-05  0.1199849E+04  0.7818609E-02  0.9112989E-01
        2   -1    0    0  501    0  0.00000000000E+00  0.00000000000E+00  0.91169959633E+03  0.91169959633E+03  0.25500000920E-02 0. -1.
       -2   -1    0    0    0  501  0.00000000000E+00  0.00000000000E+00 -0.39476728584E+03  0.39476728585E+03  0.25500000920E-02 0.  1.
    10030    2    1    2    0    0  0.00000000000E+00  0.00000000000E+00  0.51693231048E+03  0.13064668822E+04  0.11998486157E+04 0.  0.
        4    1    3    3  502    0 -0.43550253881E+03  0.14560615111E+03  0.67883364942E+03  0.81956107096E+03  0.12699999809E+01 0. -1.
       -4    1    3    3    0  502  0.43550253881E+03 -0.14560615111E+03 -0.16190133894E+03  0.48690581122E+03  0.12699999809E+01 0.  1.
</event>
<event>
 5   0  0.5620246E-05  0.1200043E+04  0.7818609E-02  0.9112819E-01
       -1   -1    0    0    0  501  0.00000000000E+00  0.00000000000E+00  0.51071099631E+03  0.51071099633E+03  0.50400001928E-02 0. -1.
        1   -1    0    0  501    0  0.00000000000E+00  0.00000000000E+00 -0.70494983856E+03  0.70494983858E+03  0.50400001928E-02 0.  1.
    10030    2    1    2    0    0  0.00000000000E+00  0.00000000000E+00 -0.19423884225E+03  0.12156608349E+04  0.12000427233E+04 0.  0.
        1    1    3    3  502    0  0.49020084776E+03 -0.66438555272E+02 -0.44111908602E+03  0.66279484069E+03  0.50400001928E-02 0.  1.
       -1    1    3    3    0  502 -0.49020084776E+03  0.66438555272E+02  0.24688024376E+03  0.55286599422E+03  0.50400001928E-02 0. -1.
</event>
<event>
 5   0  0.9941209E-05  0.1200383E+04  0.7818609E-02  0.9112522E-01
        2   -1    0    0  501    0  0.00000000000E+00  0.00000000000E+00  0.67733001828E+03  0.67733001828E+03  0.25500000920E-02 0.  1.
       -2   -1    0    0    0  501  0.00000000000E+00  0.00000000000E+00 -0.53183761355E+03  0.53183761356E+03  0.25500000920E-02 0. -1.
    10030    2    1    2    0    0  0.00000000000E+00  0.00000000000E+00  0.14549240472E+03  0.12091676318E+04  0.12003825732E+04 0.  0.
        2    1    3    3  502    0 -0.22361218739E+03 -0.10788829859E+02 -0.48820522417E+03  0.53708765589E+03  0.25500000920E-02 0. -1.
       -2    1    3    3    0  502  0.22361218739E+03  0.10788829859E+02  0.63369762889E+03  0.67207997595E+03  0.25500000920E-02 0.  1.
</event>
<event>
 5   0  0.5625746E-05  0.1199725E+04  0.7818609E-02  0.9113097E-01
       -1   -1    0    0    0  501  0.00000000000E+00  0.00000000000E+00  0.47875870941E+03  0.47875870944E+03  0.50400001928E-02 0.  1.
        1   -1    0    0  501    0  0.00000000000E+00  0.00000000000E+00 -0.75159989652E+03  0.75159989654E+03  0.50400001928E-02 0. -1.
    10030    2    1    2    0    0  0.00000000000E+00  0.00000000000E+00 -0.27284118711E+03  0.12303586060E+04  0.11997249626E+04 0.  0.
        5    1    3    3  502    0 -0.15382523097E+03 -0.40300762803E+03  0.29103831348E+03  0.52038710577E+03  0.46999998093E+01 0.  1.
       -5    1    3    3    0  502  0.15382523097E+03  0.40300762803E+03 -0.56387950059E+03  0.70997150021E+03  0.46999998093E+01 0. -1.
</event>
<event>
 5   0  0.3839750E-05  0.1200293E+04  0.7818609E-02  0.9112600E-01
        3   -1    0    0  501    0  0.00000000000E+00  0.00000000000E+00  0.45758504079E+03  0.45758505193E+03  0.10100000352E+00 0. -1.
       -3   -1    0    0    0  501  0.00000000000E+00  0.00000000000E+00 -0.78712312053E+03  0.78712312701E+03  0.10100000352E+00 0.  1.
    10030    2    1    2    0    0  0.00000000000E+00  0.00000000000E+00 -0.32953807975E+03  0.12447081789E+04  0.12002929246E+04 0.  0.
        1    1    3    3  502    0  0.17263491084E+03  0.39964485323E+03  0.26362388874E+03  0.50893651461E+03  0.50400001928E-02 0. -1.
       -1    1    3    3    0  502 -0.17263491084E+03 -0.39964485323E+03 -0.59316196849E+03  0.73577166434E+03  0.50400001928E-02 0.  1.
</event>
<event>
 5   0  0.5620246E-05  0.1200475E+04  0.7818609E-02  0.9112441E-01
        1   -1    0    0  501    0  0.00000000000E+00  0.00000000000E+00  0.78881585068E+03  0.78881585070E+03  0.50400001928E-02 0.  1.
       -1   -1    0    0    0  501  0.00000000000E+00  0.00000000000E+00 -0.45674166817E+03  0.45674166820E+03  0.50400001928E-02 0. -1.
    10030    2    1    2    0    0  0.00000000000E+00  0.00000000000E+00  0.33207418251E+03  0.12455575189E+04  0.12004750186E+04 0.  0.
        1    1    3    3  502    0 -0.16146519370E+03  0.56657250957E+03  0.28528652311E+03  0.65457147636E+03  0.50400001928E-02 0.  1.
       -1    1    3    3    0  502  0.16146519370E+03 -0.56657250957E+03  0.46787659407E+02  0.59098604254E+03  0.50400001928E-02 0. -1.
</event>
<event>
 5   0  0.1004006E-04  0.1200085E+04  0.7818609E-02  0.9112782E-01
        2   -1    0    0  501    0  0.00000000000E+00  0.00000000000E+00  0.49891240932E+03  0.49891240933E+03  0.25500000920E-02 0. -1.
       -2   -1    0    0    0  501  0.00000000000E+00  0.00000000000E+00 -0.72167181414E+03  0.72167181414E+03  0.25500000920E-02 0.  1.
    10030    2    1    2    0    0  0.00000000000E+00  0.00000000000E+00 -0.22275940481E+03  0.12205842235E+04  0.12000850362E+04 0.  0.
        5    1    3    3  502    0 -0.15397178303E+03 -0.11015490887E+03  0.46772071432E+03  0.50460496481E+03  0.46999998093E+01 0. -1.
       -5    1    3    3    0  502  0.15397178303E+03  0.11015490887E+03 -0.69048011913E+03  0.71597925866E+03  0.46999998093E+01 0.  1.
</event>
<event>
 5   0  0.5625746E-05  0.1203173E+04  0.7818609E-02  0.9110084E-01
        1   -1    0    0  501    0  0.00000000000E+00  0.00000000000E+00  0.38522002582E+03  0.38522002585E+03  0.50400001928E-02 0.  1.
       -1   -1    0    0    0  501  0.00000000000E+00  0.00000000000E+00 -0.93947887878E+03  0.93947887879E+03  0.50400001928E-02 0. -1.
    10030    2    1    2    0    0  0.00000000000E+00  0.00000000000E+00 -0.55425885296E+03  0.13246989046E+04  0.12031726027E+04 0.  0.
        5    1    3    3  502    0 -0.46310145059E+03 -0.75090240345E+02 -0.69170197669E+03  0.83580811930E+03  0.46999998093E+01 0. -1.
       -5    1    3    3    0  502  0.46310145059E+03  0.75090240345E+02  0.13744312374E+03  0.48889078534E+03  0.46999998093E+01 0.  1.
</event>
<event>
 5   0  0.1023063E-04  0.1200165E+04  0.7818609E-02  0.9112712E-01
        2   -1    0    0  501    0  0.00000000000E+00  0.00000000000E+00  0.85464749616E+03  0.85464749616E+03  0.25500000920E-02 0. -1.
       -2   -1    0    0    0  501  0.00000000000E+00  0.00000000000E+00 -0.42134212891E+03  0.42134212892E+03  0.25500000920E-02 0.  1.
    10030    2    1    2    0    0  0.00000000000E+00  0.00000000000E+00  0.43330536725E+03  0.12759896251E+04  0.12001649812E+04 0.  0.
        3    1    3    3  502    0 -0.22426518265E+03 -0.35080197779E+02  0.80724188363E+03  0.83854931955E+03  0.10100000352E+00 0. -1.
       -3    1    3    3    0  502  0.22426518265E+03  0.35080197779E+02 -0.37393651638E+03  0.43744030553E+03  0.10100000352E+00 0.  1.
</event>
<event>
 5   0  0.5620246E-05  0.1201115E+04  0.7818609E-02  0.9111881E-01
        1   -1    0    0  501    0  0.00000000000E+00  0.00000000000E+00  0.97466650668E+03  0.97466650669E+03  0.50400001928E-02 0.  1.
       -1   -1    0    0    0  501  0.00000000000E+00  0.00000000000E+00 -0.37004372218E+03  0.37004372221E+03  0.50400001928E-02 0. -1.
    10030    2    1    2    0    0  0.00000000000E+00  0.00000000000E+00  0.60462278450E+03  0.13447102289E+04  0.12011148522E+04 0.  0.
        1    1    3    3  502    0  0.68844480981E+00  0.64241595818E+02  0.97080825976E+03  0.97293172105E+03  0.50400001928E-02 0.  1.
       -1    1    3    3    0  502 -0.68844480981E+00 -0.64241595818E+02 -0.36618547526E+03  0.37177850785E+03  0.50400001928E-02 0. -1.
</event>
<event>
 5   0  0.5745487E-05  0.1199907E+04  0.7818609E-02  0.9112938E-01
       -1   -1    0    0    0  501  0.00000000000E+00  0.00000000000E+00  0.18340710021E+03  0.18340710028E+03  0.50400001928E-02 0.  1.
        1   -1    0    0  501    0  0.00000000000E+00  0.00000000000E+00 -0.19625425695E+04  0.19625425695E+04  0.50400001928E-02 0. -1.
    10030    2    1    2    0    0  0.00000000000E+00  0.00000000000E+00 -0.17791354693E+04  0.21459496698E+04  0.11999070660E+04 0.  0.
        3    1    3    3  502    0 -0.88280132237E+02  0.51734001689E+03 -0.36965988467E+03  0.64193653531E+03  0.10100000352E+00 0.  1.
       -3    1    3    3    0  502  0.88280132237E+02 -0.51734001689E+03 -0.14094755846E+04  0.15040131344E+04  0.10100000352E+00 0. -1.
</event>
<event>
 5   0  0.1023063E-04  0.1200018E+04  0.7818609E-02  0.9112840E-01
        2   -1    0    0  501    0  0.00000000000E+00  0.00000000000E+00  0.17960567808E+04  0.17960567808E+04  0.25500000920E-02 0.  1.
       -2   -1    0    0    0  501  0.00000000000E+00  0.00000000000E+00 -0.20044522586E+03  0.20044522588E+03  0.25500000920E-02 0. -1.
    10030    2    1    2    0    0  0.00000000000E+00  0.00000000000E+00  0.15956115550E+04  0.19965020067E+04  0.12000183450E+04 0.  0.
        3    1    3    3  502    0  0.94827849692E+02 -0.37120258112E+03  0.15660570523E+04  0.16122401739E+04  0.10100000352E+00 0.  1.
       -3    1    3    3    0  502 -0.94827849692E+02  0.37120258112E+03  0.29554502725E+02  0.38426183279E+03  0.10100000352E+00 0. -1.
</event>
<event>
 5   0  0.1004006E-04  0.1200025E+04  0.7818609E-02  0.9112834E-01
        2   -1    0    0  501    0  0.00000000000E+00  0.00000000000E+00  0.88211420136E+03  0.88211420136E+03  0.25500000920E-02 0.  1.
       -2   -1    0    0    0  501  0.00000000000E+00  0.00000000000E+00 -0.40812762213E+03  0.40812762214E+03  0.25500000920E-02 0. -1.
    10030    2    1    2    0    0  0.00000000000E+00  0.00000000000E+00  0.47398657923E+03  0.12902418235E+04  0.12000252855E+04 0.  0.
        5    1    3    3  502    0 -0.17112883936E+03  0.57493228107E+03  0.22335613968E+03  0.64011113301E+03  0.46999998093E+01 0. -1.
       -5    1    3    3    0  502  0.17112883936E+03 -0.57493228107E+03  0.25063043955E+03  0.65013069048E+03  0.46999998093E+01 0.  1.
</event>
<event>
 5   0  0.1004006E-04  0.1199757E+04  0.7818609E-02  0.9113070E-01
       -2   -1    0    0    0  501  0.00000000000E+00  0.00000000000E+00  0.19793833616E+03  0.19793833617E+03  0.25500000920E-02 0. -1.
        2   -1    0    0  501    0  0.00000000000E+00  0.00000000000E+00 -0.18180104760E+04  0.18180104760E+04  0.25500000920E-02 0.  1.
    10030    2    1    2    0    0  0.00000000000E+00  0.00000000000E+00 -0.16200721399E+04  0.20159488122E+04  0.11997565899E+04 0.  0.
        5    1    3    3  502    0  0.25481249013E+03 -0.29736030193E+03 -0.15735634964E+04  0.16215661323E+04  0.46999998093E+01 0.  1.
       -5    1    3    3    0  502 -0.25481249013E+03  0.29736030193E+03 -0.46508643497E+02  0.39438267991E+03  0.46999998093E+01 0. -1.
</event>
<event>
 5   0  0.5732931E-05  0.1200042E+04  0.7818609E-02  0.9112819E-01
        1   -1    0    0  501    0  0.00000000000E+00  0.00000000000E+00  0.60257147037E+03  0.60257147039E+03  0.50400001928E-02 0.  1.
       -1   -1    0    0    0  501  0.00000000000E+00  0.00000000000E+00 -0.59748176102E+03  0.59748176104E+03  0.50400001928E-02 0. -1.
    10030    2    1    2    0    0  0.00000000000E+00  0.00000000000E+00  0.50897093500E+01  0.12000532314E+04  0.12000424380E+04 0.  0.
        4    1    3    3  502    0 -0.80410108389E+02 -0.53950010604E+03  0.25254250400E+03  0.60108691482E+03  0.12699999809E+01 0. -1.
       -4    1    3    3    0  502  0.80410108389E+02  0.53950010604E+03 -0.24745279465E+03  0.59896631660E+03  0.12699999809E+01 0.  1.
</event>
<event>
 5   0  0.5625746E-05  0.1197910E+04  0.7818609E-02  0.9114688E-01
       -1   -1    0    0    0  501  0.00000000000E+00  0.00000000000E+00  0.33621966591E+03  0.33621966595E+03  0.50400001928E-02 0.  1.
        1   -1    0    0  501    0  0.00000000000E+00  0.00000000000E+00 -0.10670021844E+04  0.10670021844E+04  0.50400001928E-02 0. -1.
    10030    2    1    2    0    0  0.00000000000E+00  0.00000000000E+00 -0.73078251845E+03  0.14032218503E+04  0.11979100433E+04 0.  0.
        5    1    3    3  502    0 -0.22088834855E+03  0.33237739217E+02  0.28557863165E+03  0.36259296006E+03  0.46999998093E+01 0.  1.
       -5    1    3    3    0  502  0.22088834855E+03 -0.33237739217E+02 -0.10163611501E+04  0.10406288903E+04  0.46999998093E+01 0. -1.
</event>
<event>
 5   0  0.5732931E-05  0.1199671E+04  0.7818609E-02  0.9113144E-01
        1   -1    0    0  501    0  0.00000000000E+00  0.00000000000E+00  0.46538076064E+03  0.46538076067E+03  0.50400001928E-02 0. -1.
       -1   -1    0    0    0  501  0.00000000000E+00  0.00000000000E+00 -0.77313628859E+03  0.77313628860E+03  0.50400001928E-02 0.  1.
    10030    2    1    2    0    0  0.00000000000E+00  0.00000000000E+00 -0.30775552795E+03  0.12385170493E+04  0.11996712118E+04 0.  0.
        4    1    3    3  502    0 -0.78938348622E+01  0.46409922835E+03  0.23835986191E+03  0.52179252874E+03  0.12699999809E+01 0. -1.
       -4    1    3    3    0  502  0.78938348622E+01 -0.46409922835E+03 -0.54611538986E+03  0.71672452053E+03  0.12699999809E+01 0.  1.
</event>
<event>
 5   0  0.5620246E-05  0.1203346E+04  0.7818609E-02  0.9109933E-01
       -1   -1    0    0    0  501  0.00000000000E+00  0.00000000000E+00  0.11300614135E+04  0.11300614135E+04  0.50400001928E-02 0.  1.
        1   -1    0    0  501    0  0.00000000000E+00  0.00000000000E+00 -0.32034560726E+03  0.32034560730E+03  0.50400001928E-02 0. -1.
    10030    2    1    2    0    0  0.00000000000E+00  0.00000000000E+00  0.80971580621E+03  0.14504070208E+04  0.12033456856E+04 0.  0.
        1    1    3    3  502    0 -0.35084268774E+03  0.38250269597E+03  0.77165973158E+03  0.92997722839E+03  0.50400001928E-02 0.  1.
       -1    1    3    3    0  502  0.35084268774E+03 -0.38250269597E+03  0.38056074637E+02  0.52042979239E+03  0.50400001928E-02 0. -1.
</event>
<event>
 5   0  0.3839750E-05  0.1199748E+04  0.7818609E-02  0.9113077E-01
        3   -1    0    0  501    0  0.00000000000E+00  0.00000000000E+00  0.47541330846E+03  0.47541331919E+03  0.10100000352E+00 0. -1.
       -3   -1    0    0    0  501  0.00000000000E+00  0.00000000000E+00 -0.75691745931E+03  0.75691746605E+03  0.10100000352E+00 0.  1.
    10030    2    1    2    0    0  0.00000000000E+00  0.00000000000E+00 -0.28150415085E+03  0.12323307852E+04  0.11997477140E+04 0.  0.
        5    1    3    3  502    0  0.54595510399E+03 -0.18350998550E+03  0.31380969308E+02  0.57684464597E+03  0.46999998093E+01 0. -1.
       -5    1    3    3    0  502 -0.54595510399E+03  0.18350998550E+03 -0.31288512016E+03  0.65548613926E+03  0.46999998093E+01 0.  1.
</event>
<event>
 5   0  0.5732931E-05  0.1200268E+04  0.7818609E-02  0.9112622E-01
        1   -1    0    0  501    0  0.00000000000E+00  0.00000000000E+00  0.53795788200E+03  0.53795788202E+03  0.50400001928E-02 0. -1.
       -1   -1    0    0    0  501  0.00000000000E+00  0.00000000000E+00 -0.66949582043E+03  0.66949582045E+03  0.50400001928E-02 0.  1.
    10030    2    1    2    0    0  0.00000000000E+00  0.00000000000E+00 -0.13153793843E+03  0.12074537025E+04  0.12002675595E+04 0.  0.
        4    1    3    3  502    0  0.12995722854E+03  0.44541366201E+03 -0.44867458466E+03  0.64543993321E+03  0.12699999809E+01 0.  1.
       -4    1    3    3    0  502 -0.12995722854E+03 -0.44541366201E+03  0.31713664624E+03  0.56201376926E+03  0.12699999809E+01 0. -1.
</event>
<event>
 5   0  0.1023063E-04  0.1200069E+04  0.7818609E-02  0.9112796E-01
       -2   -1    0    0    0  501  0.00000000000E+00  0.00000000000E+00  0.31227347823E+03  0.31227347824E+03  0.25500000920E-02 0.  1.
        2   -1    0    0  501    0  0.00000000000E+00  0.00000000000E+00 -0.11529681234E+04  0.11529681234E+04  0.25500000920E-02 0. -1.
    10030    2    1    2    0    0  0.00000000000E+00  0.00000000000E+00 -0.84069464521E+03  0.14652416017E+04  0.12000689417E+04 0.  0.
        3    1    3    3  502    0 -0.40047437383E+03 -0.16308386767E+03 -0.92828218790E+03  0.10240526854E+04  0.10100000352E+00 0. -1.
       -3    1    3    3    0  502  0.40047437383E+03  0.16308386767E+03  0.87587542691E+02  0.44118891625E+03  0.10100000352E+00 0.  1.
</event>
<event>
 5   0  0.1004006E-04  0.1200050E+04  0.7818609E-02  0.9112813E-01
        2   -1    0    0  501    0  0.00000000000E+00  0.00000000000E+00  0.84002984645E+03  0.84002984645E+03  0.25500000920E-02 0. -1.
       -2   -1    0    0    0  501  0.00000000000E+00  0.00000000000E+00 -0.42859184318E+03  0.42859184319E+03  0.25500000920E-02 0.  1.
    10030    2    1    2    0    0  0.00000000000E+00  0.00000000000E+00  0.41143800327E+03  0.12686216896E+04  0.12000498993E+04 0.  0.
        5    1    3    3  502    0 -0.45449511387E+03 -0.38557197129E+03  0.27877880078E+03  0.65800551923E+03  0.46999998093E+01 0. -1.
       -5    1    3    3    0  502  0.45449511387E+03  0.38557197129E+03  0.13265920248E+03  0.61061617041E+03  0.46999998093E+01 0.  1.
</event>
<event>
 5   0  0.1004006E-04  0.1200131E+04  0.7818609E-02  0.9112742E-01
        2   -1    0    0  501    0  0.00000000000E+00  0.00000000000E+00  0.86832305394E+03  0.86832305394E+03  0.25500000920E-02 0. -1.
       -2   -1    0    0    0  501  0.00000000000E+00  0.00000000000E+00 -0.41468256047E+03  0.41468256048E+03  0.25500000920E-02 0.  1.
    10030    2    1    2    0    0  0.00000000000E+00  0.00000000000E+00  0.45364049346E+03  0.12830056144E+04  0.12001307051E+04 0.  0.
        5    1    3    3  502    0 -0.19725036771E+03 -0.55525442836E+03  0.34796426133E+03  0.68433647056E+03  0.46999998093E+01 0. -1.
       -5    1    3    3    0  502  0.19725036771E+03  0.55525442836E+03  0.10567623213E+03  0.59866914386E+03  0.46999998093E+01 0.  1.
</event>
<event>
 5   0  0.5620246E-05  0.1200685E+04  0.7818609E-02  0.9112257E-01
       -1   -1    0    0    0  501  0.00000000000E+00  0.00000000000E+00  0.42576900895E+03  0.42576900898E+03  0.50400001928E-02 0.  1.
        1   -1    0    0  501    0  0.00000000000E+00  0.00000000000E+00 -0.84649496211E+03  0.84649496213E+03  0.50400001928E-02 0. -1.
    10030    2    1    2    0    0  0.00000000000E+00  0.00000000000E+00 -0.42072595316E+03  0.12722639711E+04  0.12006853395E+04 0.  0.
        1    1    3    3  502    0  0.32204220936E+03  0.96631596202E+02  0.31664225466E+03  0.46185621946E+03  0.50400001928E-02 0.  1.
       -1    1    3    3    0  502 -0.32204220936E+03 -0.96631596202E+02 -0.73736820783E+03  0.81040775165E+03  0.50400001928E-02 0. -1.
</event>
<event>
 5   0  0.1012657E-04  0.1199984E+04  0.7818609E-02  0.9112871E-01
        2   -1    0    0  501    0  0.00000000000E+00  0.00000000000E+00  0.14313469728E+04  0.14313469728E+04  0.25500000920E-02 0.  1.
       -2   -1    0    0    0  501  0.00000000000E+00  0.00000000000E+00 -0.25150445641E+03  0.25150445642E+03  0.25500000920E-02 0. -1.
    10030    2    1    2    0    0  0.00000000000E+00  0.00000000000E+00  0.11798425164E+04  0.16828514292E+04  0.11999835704E+04 0.  0.
        1    1    3    3  502    0 -0.35851105436E+03 -0.14407975137E+03  0.12336512824E+04  0.12927430671E+04  0.50400001928E-02 0.  1.
       -1    1    3    3    0  502  0.35851105436E+03  0.14407975137E+03 -0.53808766062E+02  0.39010836210E+03  0.50400001928E-02 0. -1.
</event>
<event>
 5   0  0.1012657E-04  0.1199769E+04  0.7818609E-02  0.9113059E-01
        2   -1    0    0  501    0  0.00000000000E+00  0.00000000000E+00  0.49517875109E+03  0.49517875109E+03  0.25500000920E-02 0.  1.
       -2   -1    0    0    0  501  0.00000000000E+00  0.00000000000E+00 -0.72673040784E+03  0.72673040785E+03  0.25500000920E-02 0. -1.
    10030    2    1    2    0    0  0.00000000000E+00  0.00000000000E+00 -0.23155165676E+03  0.12219091589E+04  0.11997690707E+04 0.  0.
        1    1    3    3  502    0  0.28171006769E+03 -0.54960900481E+02 -0.65226041874E+03  0.71261835277E+03  0.50400001928E-02 0. -1.
       -1    1    3    3    0  502 -0.28171006769E+03  0.54960900481E+02  0.42070876198E+03  0.50929080618E+03  0.50400001928E-02 0.  1.
</event>
<event>
 5   0  0.5745487E-05  0.1199952E+04  0.7818609E-02  0.9112898E-01
        1   -1    0    0  501    0  0.00000000000E+00  0.00000000000E+00  0.31292916772E+03  0.31292916776E+03  0.50400001928E-02 0.  1.
       -1   -1    0    0    0  501  0.00000000000E+00  0.00000000000E+00 -0.11503288668E+04  0.11503288668E+04  0.50400001928E-02 0. -1.
    10030    2    1    2    0    0  0.00000000000E+00  0.00000000000E+00 -0.83739969912E+03  0.14632580346E+04  0.11999524240E+04 0.  0.
        3    1    3    3  502    0  0.23177583362E+03  0.76231374415E+02 -0.10870990176E+04  0.11141434125E+04  0.10100000352E+00 0. -1.
       -3    1    3    3    0  502 -0.23177583362E+03 -0.76231374415E+02  0.24969931846E+03  0.34911462206E+03  0.10100000352E+00 0.  1.
</event>
<event>
 5   0  0.9838215E-05  0.1199593E+04  0.7818609E-02  0.9113212E-01
        2   -1    0    0  501    0  0.00000000000E+00  0.00000000000E+00  0.16367157127E+04  0.16367157127E+04  0.25500000920E-02 0. -1.
       -2   -1    0    0    0  501  0.00000000000E+00  0.00000000000E+00 -0.21980365019E+03  0.21980365021E+03  0.25500000920E-02 0.  1.
    10030    2    1    2    0    0  0.00000000000E+00  0.00000000000E+00  0.14169120625E+04  0.18565193629E+04  0.11995934111E+04 0.  0.
        4    1    3    3  502    0  0.43027603608E+03 -0.35373912184E+03  0.10527306563E+04  0.11910131322E+04  0.12699999809E+01 0. -1.
       -4    1    3    3    0  502 -0.43027603608E+03  0.35373912184E+03  0.36418140622E+03  0.66550623069E+03  0.12699999809E+01 0.  1.
</event>
<event>
 5   0  0.5447807E-05  0.1199565E+04  0.7818609E-02  0.9113238E-01
        1   -1    0    0  501    0  0.00000000000E+00  0.00000000000E+00  0.56844140572E+03  0.56844140574E+03  0.50400001928E-02 0.  1.
       -1   -1    0    0    0  501  0.00000000000E+00  0.00000000000E+00 -0.63285126367E+03  0.63285126369E+03  0.50400001928E-02 0. -1.
    10030    2    1    2    0    0  0.00000000000E+00  0.00000000000E+00 -0.64409857953E+02  0.12012926694E+04  0.11995646910E+04 0.  0.
        2    1    3    3  502    0  0.53728758785E+03 -0.23648456193E+03 -0.15541044879E+03  0.60725226034E+03  0.25500000920E-02 0.  1.
       -2    1    3    3    0  502 -0.53728758785E+03  0.23648456193E+03  0.91000590836E+02  0.59404040909E+03  0.25500000920E-02 0. -1.
</event>
<event>
 5   0  0.9941209E-05  0.1197730E+04  0.7818609E-02  0.9114846E-01
        2   -1    0    0  501    0  0.00000000000E+00  0.00000000000E+00  0.12272341495E+04  0.12272341495E+04  0.25500000920E-02 0. -1.
       -2   -1    0    0    0  501  0.00000000000E+00  0.00000000000E+00 -0.29223361690E+03  0.29223361692E+03  0.25500000920E-02 0.  1.
    10030    2    1    2    0    0  0.00000000000E+00  0.00000000000E+00  0.93500053259E+03  0.15194677664E+04  0.11977296428E+04 0.  0.
        2    1    3    3  502    0 -0.59292609790E+03 -0.51316858810E+01  0.57402975214E+03  0.82528652486E+03  0.25500000920E-02 0. -1.
       -2    1    3    3    0  502  0.59292609790E+03  0.51316858810E+01  0.36097078044E+03  0.69418124154E+03  0.25500000920E-02 0.  1.
</event>
<event>
 5   0  0.5620246E-05  0.1199622E+04  0.7818609E-02  0.9113187E-01
        1   -1    0    0  501    0  0.00000000000E+00  0.00000000000E+00  0.89355512871E+03  0.89355512873E+03  0.50400001928E-02 0.  1.
       -1   -1    0    0    0  501  0.00000000000E+00  0.00000000000E+00 -0.40263134455E+03  0.40263134458E+03  0.50400001928E-02 0. -1.
    10030    2    1    2    0    0  0.00000000000E+00  0.00000000000E+00  0.49092378416E+03  0.12961864733E+04  0.11996221121E+04 0.  0.
        1    1    3    3  502    0  0.54848729836E+03  0.22543804736E+03  0.34278254520E+03  0.68495292026E+03  0.50400001928E-02 0.  1.
       -1    1    3    3    0  502 -0.54848729836E+03 -0.22543804736E+03  0.14814123896E+03  0.61123355304E+03  0.50400001928E-02 0. -1.
</event>
<event>
 5   0  0.9941209E-05  0.1200274E+04  0.7818609E-02  0.9112617E-01
       -2   -1    0    0    0  501  0.00000000000E+00  0.00000000000E+00  0.28866427599E+03  0.28866427600E+03  0.25500000920E-02 0. -1.
        2   -1    0    0  501    0  0.00000000000E+00  0.00000000000E+00 -0.12476934597E+04  0.12476934597E+04  0.25500000920E-02 0.  1.
    10030    2    1    2    0    0  0.00000000000E+00  0.00000000000E+00 -0.95902918373E+03  0.15363577357E+04  0.12002741840E+04 0.  0.
        2    1    3    3  502    0  0.38601878191E+03 -0.36144904809E+03 -0.84270390726E+03  0.99488983796E+03  0.25500000920E-02 0.  1.
       -2    1    3    3    0  502 -0.38601878191E+03  0.36144904809E+03 -0.11632527647E+03  0.54146789776E+03  0.25500000920E-02 0. -1.
</event>
<event>
 5   0  0.1004006E-04  0.1200118E+04  0.7818609E-02  0.9112753E-01
       -2   -1    0    0    0  501  0.00000000000E+00  0.00000000000E+00  0.13777351197E+03  0.13777351199E+03  0.25500000920E-02 0. -1.
        2   -1    0    0  501    0  0.00000000000E+00  0.00000000000E+00 -0.26134976356E+04  0.26134976356E+04  0.25500000920E-02 0.  1.
    10030    2    1    2    0    0  0.00000000000E+00  0.00000000000E+00 -0.24757241236E+04  0.27512711476E+04  0.12001179072E+04 0.  0.
        5    1    3    3  502    0  0.48515120575E+03  0.94672995431E+02 -0.45802762208E+03  0.67390359926E+03  0.46999998093E+01 0. -1.
       -5    1    3    3    0  502 -0.48515120575E+03 -0.94672995431E+02 -0.20176965015E+04  0.20773675483E+04  0.46999998093E+01 0.  1.
</event>
<event>
 5   0  0.1004006E-04  0.1197967E+04  0.7818609E-02  0.9114638E-01
       -2   -1    0    0    0  501  0.00000000000E+00  0.00000000000E+00  0.21076984440E+03  0.21076984441E+03  0.25500000920E-02 0. -1.
        2   -1    0    0  501    0  0.00000000000E+00  0.00000000000E+00 -0.17022403906E+04  0.17022403906E+04  0.25500000920E-02 0.  1.
    10030    2    1    2    0    0  0.00000000000E+00  0.00000000000E+00 -0.14914705462E+04  0.19130102350E+04  0.11979665142E+04 0.  0.
        5    1    3    3  502    0 -0.17824887181E+03 -0.13449995183E+03  0.14178590587E+03  0.26455288781E+03  0.46999998093E+01 0. -1.
       -5    1    3    3    0  502  0.17824887181E+03  0.13449995183E+03 -0.16332564521E+04  0.16484573472E+04  0.46999998093E+01 0.  1.
</event>
<event>
 5   0  0.1004006E-04  0.1199822E+04  0.7818609E-02  0.9113013E-01
       -2   -1    0    0    0  501  0.00000000000E+00  0.00000000000E+00  0.38722468217E+03  0.38722468218E+03  0.25500000920E-02 0.  1.
        2   -1    0    0  501    0  0.00000000000E+00  0.00000000000E+00 -0.92941642106E+03  0.92941642107E+03  0.25500000920E-02 0. -1.
    10030    2    1    2    0    0  0.00000000000E+00  0.00000000000E+00 -0.54219173889E+03  0.13166411032E+04  0.11998216172E+04 0.  0.
        5    1    3    3  502    0 -0.38751223200E+03  0.45685885665E+03 -0.30553882857E+03  0.67250413427E+03  0.46999998093E+01 0. -1.
       -5    1    3    3    0  502  0.38751223200E+03 -0.45685885665E+03 -0.23665291032E+03  0.64413696898E+03  0.46999998093E+01 0.  1.
</event>
<event>
 5   0  0.5620246E-05  0.1199856E+04  0.7818609E-02  0.9112982E-01
        1   -1    0    0  501    0  0.00000000000E+00  0.00000000000E+00  0.14006665680E+04  0.14006665680E+04  0.50400001928E-02 0. -1.
       -1   -1    0    0    0  501  0.00000000000E+00  0.00000000000E+00 -0.25695887507E+03  0.25695887512E+03  0.50400001928E-02 0.  1.
    10030    2    1    2    0    0  0.00000000000E+00  0.00000000000E+00  0.11437076929E+04  0.16576254431E+04  0.11998561676E+04 0.  0.
        1    1    3    3  502    0  0.49599128177E+03 -0.32022709722E+03  0.42460064792E+03  0.72721279941E+03  0.50400001928E-02 0.  1.
       -1    1    3    3    0  502 -0.49599128177E+03  0.32022709722E+03  0.71910704496E+03  0.93041264368E+03  0.50400001928E-02 0. -1.
</event>
<event>
 5   0  0.5620246E-05  0.1199946E+04  0.7818609E-02  0.9112904E-01
       -1   -1    0    0    0  501  0.00000000000E+00  0.00000000000E+00  0.17851765126E+03  0.17851765133E+03  0.50400001928E-02 0. -1.
        1   -1    0    0  501    0  0.00000000000E+00  0.00000000000E+00 -0.20164246912E+04  0.20164246912E+04  0.50400001928E-02 0.  1.
    10030    2    1    2    0    0  0.00000000000E+00  0.00000000000E+00 -0.18379070400E+04  0.21949423426E+04  0.11999456653E+04 0.  0.
        1    1    3    3  502    0  0.57800675302E+03 -0.57096183476E+02 -0.11940378024E+04  0.13278094947E+04  0.50400001928E-02 0.  1.
       -1    1    3    3    0  502 -0.57800675302E+03  0.57096183476E+02 -0.64386923762E+03  0.86713284789E+03  0.50400001928E-02 0. -1.
</event>
<event>
 5   0  0.5745487E-05  0.1199916E+04  0.7818609E-02  0.9112930E-01
        1   -1    0    0  501    0  0.00000000000E+00  0.00000000000E+00  0.12277615388E+04  0.12277615388E+04  0.50400001928E-02 0. -1.
       -1   -1    0    0    0  501  0.00000000000E+00  0.00000000000E+00 -0.29317548208E+03  0.29317548212E+03  0.50400001928E-02 0.  1.
    10030    2    1    2    0    0  0.00000000000E+00  0.00000000000E+00  0.93458605675E+03  0.15209370210E+04  0.11999159655E+04 0.  0.
        3    1    3    3  502    0 -0.10109382746E+03 -0.49757845078E+03  0.87239987310E+03  0.10093987445E+04  0.10100000352E+00 0. -1.
       -3    1    3    3    0  502  0.10109382746E+03  0.49757845078E+03  0.62186183646E+02  0.51153827645E+03  0.10100000352E+00 0.  1.
</event>
<event>
 5   0  0.1012657E-04  0.1200152E+04  0.7818609E-02  0.9112724E-01
        2   -1    0    0  501    0  0.00000000000E+00  0.00000000000E+00  0.10256147311E+04  0.10256147311E+04  0.25500000920E-02 0.  1.
       -2   -1    0    0    0  501  0.00000000000E+00  0.00000000000E+00 -0.35109787061E+03  0.35109787062E+03  0.25500000920E-02 0. -1.
    10030    2    1    2    0    0  0.00000000000E+00  0.00000000000E+00  0.67451686048E+03  0.13767126017E+04  0.12001519040E+04 0.  0.
        1    1    3    3  502    0 -0.26408774435E+03  0.30982568890E+03  0.84297478578E+03  0.93613075139E+03  0.50400001928E-02 0.  1.
       -1    1    3    3    0  502  0.26408774435E+03 -0.30982568890E+03 -0.16845792530E+03  0.44058185033E+03  0.50400001928E-02 0. -1.
</event>
<event>
 5   0  0.5625746E-05  0.1199810E+04  0.7818609E-02  0.9113023E-01
        1   -1    0    0  501    0  0.00000000000E+00  0.00000000000E+00  0.50998520228E+03  0.50998520231E+03  0.50400001928E-02 0.  1.
       -1   -1    0    0    0  501  0.00000000000E+00  0.00000000000E+00 -0.70567965542E+03  0.70567965544E+03  0.50400001928E-02 0. -1.
    10030    2    1    2    0    0  0.00000000000E+00  0.00000000000E+00 -0.19569445314E+03  0.12156648577E+04  0.11998102881E+04 0.  0.
        5    1    3    3  502    0 -0.19635020086E+03 -0.47654756801E+03 -0.40884475773E+03  0.65789597344E+03  0.46999998093E+01 0. -1.
       -5    1    3    3    0  502  0.19635020086E+03  0.47654756801E+03  0.21315030458E+03  0.55776888430E+03  0.46999998093E+01 0.  1.
</event>
<event>
 5   0  0.1012657E-04  0.1199189E+04  0.7818609E-02  0.9113566E-01
        2   -1    0    0  501    0  0.00000000000E+00  0.00000000000E+00  0.73363466464E+03  0.73363466464E+03  0.25500000920E-02 0. -1.
       -2   -1    0    0    0  501  0.00000000000E+00  0.00000000000E+00 -0.49004472608E+03  0.49004472609E+03  0.25500000920E-02 0.  1.
    10030    2    1    2    0    0  0.00000000000E+00  0.00000000000E+00  0.24358993856E+03  0.12236793907E+04  0.11991893900E+04 0.  0.
        1    1    3    3  502    0 -0.29009391057E+03 -0.76757089464E+02  0.65149890810E+03  0.71728443104E+03  0.50400001928E-02 0. -1.
       -1    1    3    3    0  502  0.29009391057E+03  0.76757089464E+02 -0.40790896954E+03  0.50639495968E+03  0.50400001928E-02 0.  1.
</event>
<event>
 5   0  0.1023063E-04  0.1200783E+04  0.7818609E-02  0.9112171E-01
       -2   -1    0    0    0  501  0.00000000000E+00  0.00000000000E+00  0.14087576072E+03  0.14087576074E+03  0.25500000920E-02 0.  1.
        2   -1    0    0  501    0  0.00000000000E+00  0.00000000000E+00 -0.25587798885E+04  0.25587798885E+04  0.25500000920E-02 0. -1.
    10030    2    1    2    0    0  0.00000000000E+00  0.00000000000E+00 -0.24179041278E+04  0.26996556493E+04  0.12007831833E+04 0.  0.
        3    1    3    3  502    0  0.34128114435E+03  0.38964950773E+03 -0.18915103358E+04  0.19611504070E+04  0.10100000352E+00 0. -1.
       -3    1    3    3    0  502 -0.34128114435E+03 -0.38964950773E+03 -0.52639379206E+03  0.73850524229E+03  0.10100000352E+00 0.  1.
</event>
<event>
 5   0  0.9941209E-05  0.1199747E+04  0.7818609E-02  0.9113078E-01
       -2   -1    0    0    0  501  0.00000000000E+00  0.00000000000E+00  0.48618086936E+03  0.48618086936E+03  0.25500000920E-02 0.  1.
        2   -1    0    0  501    0  0.00000000000E+00  0.00000000000E+00 -0.74015290194E+03  0.74015290194E+03  0.25500000920E-02 0. -1.
    10030    2    1    2    0    0  0.00000000000E+00  0.00000000000E+00 -0.25397203258E+03  0.12263337713E+04  0.11997469422E+04 0.  0.
        2    1    3    3  502    0  0.15874750700E+03  0.55674937387E+03 -0.28755808890E+03  0.64642114042E+03  0.25500000920E-02 0. -1.
       -2    1    3    3    0  502 -0.15874750700E+03 -0.55674937387E+03  0.33586056317E+02  0.57991263089E+03  0.25500000920E-02 0.  1.
</event>
<event>
 5   0  0.5447807E-05  0.1200800E+04  0.7818609E-02  0.9112157E-01
       -1   -1    0    0    0  501  0.00000000000E+00  0.00000000000E+00  0.16928848000E+03  0.16928848007E+03  0.50400001928E-02 0.  1.
        1   -1    0    0  501    0  0.00000000000E+00  0.00000000000E+00 -0.21293841957E+04  0.21293841957E+04  0.50400001928E-02 0. -1.
    10030    2    1    2    0    0  0.00000000000E+00  0.00000000000E+00 -0.19600957157E+04  0.22986726758E+04  0.12008000898E+04 0.  0.
        2    1    3    3  502    0 -0.11419584918E+03  0.44674259518E+02 -0.21051581059E+04  0.21087264242E+04  0.25500000920E-02 0. -1.
       -2    1    3    3    0  502  0.11419584918E+03 -0.44674259518E+02  0.14506239017E+03  0.18994625156E+03  0.25500000920E-02 0.  1.
</event>
<event>
 5   0  0.1004006E-04  0.1200114E+04  0.7818609E-02  0.9112757E-01
       -2   -1    0    0    0  501  0.00000000000E+00  0.00000000000E+00  0.49488915538E+03  0.49488915539E+03  0.25500000920E-02 0. -1.
        2   -1    0    0  501    0  0.00000000000E+00  0.00000000000E+00 -0.72757372882E+03  0.72757372882E+03  0.25500000920E-02 0.  1.
    10030    2    1    2    0    0  0.00000000000E+00  0.00000000000E+00 -0.23268457344E+03  0.12224628842E+04  0.12001139082E+04 0.  0.
        5    1    3    3  502    0  0.58257041790E+03  0.16600050933E+02 -0.26176790635E+03  0.63891187209E+03  0.46999998093E+01 0.  1.
       -5    1    3    3    0  502 -0.58257041790E+03 -0.16600050933E+02  0.29083332919E+02  0.58355101213E+03  0.46999998093E+01 0. -1.
</event>
<event>
 5   0  0.3839750E-05  0.1199456E+04  0.7818609E-02  0.9113333E-01
        3   -1    0    0  501    0  0.00000000000E+00  0.00000000000E+00  0.14755727261E+04  0.14755727295E+04  0.10100000352E+00 0.  1.
       -3   -1    0    0    0  501  0.00000000000E+00  0.00000000000E+00 -0.24375201726E+03  0.24375203818E+03  0.10100000352E+00 0. -1.
    10030    2    1    2    0    0  0.00000000000E+00  0.00000000000E+00  0.12318207088E+04  0.17193247677E+04  0.11994562927E+04 0.  0.
        2    1    3    3  502    0  0.51742436721E+03 -0.99951571351E+01  0.10503240876E+04  0.11709007507E+04  0.25500000920E-02 0.  1.
       -2    1    3    3    0  502 -0.51742436721E+03  0.99951571351E+01  0.18149662125E+03  0.54842401706E+03  0.25500000920E-02 0. -1.
</event>
<event>
 5   0  0.1004006E-04  0.1201396E+04  0.7818609E-02  0.9111636E-01
       -2   -1    0    0    0  501  0.00000000000E+00  0.00000000000E+00  0.44853033995E+03  0.44853033996E+03  0.25500000920E-02 0. -1.
        2   -1    0    0  501    0  0.00000000000E+00  0.00000000000E+00 -0.80448980246E+03  0.80448980246E+03  0.25500000920E-02 0.  1.
    10030    2    1    2    0    0  0.00000000000E+00  0.00000000000E+00 -0.35595946251E+03  0.12530201424E+04  0.12013959957E+04 0.  0.
        5    1    3    3  502    0 -0.13626077915E+03  0.54059302351E+03 -0.41121401365E+03  0.69276754544E+03  0.46999998093E+01 0.  1.
       -5    1    3    3    0  502  0.13626077915E+03 -0.54059302351E+03  0.55254551143E+02  0.56025259698E+03  0.46999998093E+01 0. -1.
</event>
<event>
 5   0  0.1012657E-04  0.1199773E+04  0.7818609E-02  0.9113055E-01
        2   -1    0    0  501    0  0.00000000000E+00  0.00000000000E+00  0.12195614385E+04  0.12195614385E+04  0.25500000920E-02 0.  1.
       -2   -1    0    0    0  501  0.00000000000E+00  0.00000000000E+00 -0.29507627912E+03  0.29507627913E+03  0.25500000920E-02 0. -1.
    10030    2    1    2    0    0  0.00000000000E+00  0.00000000000E+00  0.92448515938E+03  0.15146377176E+04  0.11997727309E+04 0.  0.
        1    1    3    3  502    0 -0.18097367420E+03 -0.56891996462E+03  0.38817446845E+03  0.71211011430E+03  0.50400001928E-02 0. -1.
       -1    1    3    3    0  502  0.18097367420E+03  0.56891996462E+03  0.53631069092E+03  0.80252760334E+03  0.50400001928E-02 0.  1.
</event>
<event>
 5   0  0.9838215E-05  0.1199585E+04  0.7818609E-02  0.9113219E-01
        2   -1    0    0  501    0  0.00000000000E+00  0.00000000000E+00  0.56758161009E+03  0.56758161009E+03  0.25500000920E-02 0.  1.
       -2   -1    0    0    0  501  0.00000000000E+00  0.00000000000E+00 -0.63383188565E+03  0.63383188566E+03  0.25500000920E-02 0. -1.
    10030    2    1    2    0    0  0.00000000000E+00  0.00000000000E+00 -0.66250275564E+02  0.12014134958E+04  0.11995854654E+04 0.  0.
        4    1    3    3  502    0  0.36673898238E+03  0.46355595412E+03 -0.13510420021E+03  0.60633024138E+03  0.12699999809E+01 0.  1.
       -4    1    3    3    0  502 -0.36673898238E+03 -0.46355595412E+03  0.68853924646E+02  0.59508325437E+03  0.12699999809E+01 0. -1.
</event>
<event>
 5   0  0.5447807E-05  0.1199559E+04  0.7818609E-02  0.9113242E-01
        1   -1    0    0  501    0  0.00000000000E+00  0.00000000000E+00  0.18086501948E+04  0.18086501948E+04  0.50400001928E-02 0.  1.
       -1   -1    0    0    0  501  0.00000000000E+00  0.00000000000E+00 -0.19889733732E+03  0.19889733739E+03  0.50400001928E-02 0. -1.
    10030    2    1    2    0    0  0.00000000000E+00  0.00000000000E+00  0.16097528575E+04  0.20075475322E+04  0.11995594324E+04 0.  0.
        2    1    3    3  502    0 -0.13619320393E+03  0.55250242363E+03  0.48765556564E+03  0.74941007975E+03  0.25500000920E-02 0.  1.
       -2    1    3    3    0  502  0.13619320393E+03 -0.55250242363E+03  0.11220972919E+04  0.12581374525E+04  0.25500000920E-02 0. -1.
</event>
<event>
 5   0  0.5447807E-05  0.1190838E+04  0.7818609E-02  0.9120914E-01
        1   -1    0    0  501    0  0.00000000000E+00  0.00000000000E+00  0.58710864622E+03  0.58710864624E+03  0.50400001928E-02 0. -1.
       -1   -1    0    0    0  501  0.00000000000E+00  0.00000000000E+00 -0.60384690969E+03  0.60384690971E+03  0.50400001928E-02 0.  1.
    10030    2    1    2    0    0  0.00000000000E+00  0.00000000000E+00 -0.16738263462E+02  0.11909555560E+04  0.11908379263E+04 0.  0.
        2    1    3    3  502    0 -0.55078580964E+03 -0.19542172446E+03  0.10552400004E+03  0.59387706900E+03  0.25500000920E-02 0.  1.
       -2    1    3    3    0  502  0.55078580964E+03  0.19542172446E+03 -0.12226226350E+03  0.59707848695E+03  0.25500000920E-02 0. -1.
</event>
<event>
 5   0  0.1004006E-04  0.1200393E+04  0.7818609E-02  0.9112513E-01
        2   -1    0    0  501    0  0.00000000000E+00  0.00000000000E+00  0.17698298459E+04  0.17698298459E+04  0.25500000920E-02 0. -1.
       -2   -1    0    0    0  501  0.00000000000E+00  0.00000000000E+00 -0.20354255368E+03  0.20354255369E+03  0.25500000920E-02 0.  1.
    10030    2    1    2    0    0  0.00000000000E+00  0.00000000000E+00  0.15662872922E+04  0.19733723996E+04  0.12003927465E+04 0.  0.
        5    1    3    3  502    0 -0.15313200365E+03  0.27022027630E+03  0.16274070409E+04  0.16567873053E+04  0.46999998093E+01 0. -1.
       -5    1    3    3    0  502  0.15313200365E+03 -0.27022027630E+03 -0.61119748656E+02  0.31658509431E+03  0.46999998093E+01 0.  1.
</event>
<event>
 5   0  0.1023063E-04  0.1200404E+04  0.7818609E-02  0.9112503E-01
       -2   -1    0    0    0  501  0.00000000000E+00  0.00000000000E+00  0.30433795156E+03  0.30433795157E+03  0.25500000920E-02 0. -1.
        2   -1    0    0  501    0  0.00000000000E+00  0.00000000000E+00 -0.11836923129E+04  0.11836923129E+04  0.25500000920E-02 0.  1.
    10030    2    1    2    0    0  0.00000000000E+00  0.00000000000E+00 -0.87935436131E+03  0.14880302644E+04  0.12004040883E+04 0.  0.
        3    1    3    3  502    0  0.21305775258E+03  0.21554208921E+03 -0.10818735653E+04  0.11235223272E+04  0.10100000352E+00 0.  1.
       -3    1    3    3    0  502 -0.21305775258E+03 -0.21554208921E+03  0.20251920398E+03  0.36450793728E+03  0.10100000352E+00 0. -1.
</event>
<event>
 5   0  0.5447807E-05  0.1200913E+04  0.7818609E-02  0.9112058E-01
        1   -1    0    0  501    0  0.00000000000E+00  0.00000000000E+00  0.66394879066E+03  0.66394879068E+03  0.50400001928E-02 0. -1.
       -1   -1    0    0    0  501  0.00000000000E+00  0.00000000000E+00 -0.54303587166E+03  0.54303587169E+03  0.50400001928E-02 0.  1.
    10030    2    1    2    0    0  0.00000000000E+00  0.00000000000E+00  0.12091291900E+03  0.12069846624E+04  0.12009130032E+04 0.  0.
        2    1    3    3  502    0 -0.54264927269E+03  0.21939202194E+03 -0.74186962762E+02  0.59000406599E+03  0.25500000920E-02 0. -1.
       -2    1    3    3    0  502  0.54264927269E+03 -0.21939202194E+03  0.19509988176E+03  0.61698059638E+03  0.25500000920E-02 0.  1.
</event>
<event>
 5   0  0.9838215E-05  0.1199872E+04  0.7818609E-02  0.9112968E-01
        2   -1    0    0  501    0  0.00000000000E+00  0.00000000000E+00  0.24286802703E+04  0.24286802703E+04  0.25500000920E-02 0. -1.
       -2   -1    0    0    0  501  0.00000000000E+00  0.00000000000E+00 -0.14819709045E+03  0.14819709047E+03  0.25500000920E-02 0.  1.
    10030    2    1    2    0    0  0.00000000000E+00  0.00000000000E+00  0.22804831799E+04  0.25768773608E+04  0.11998722427E+04 0.  0.
        4    1    3    3  502    0 -0.87986945213E+02 -0.33705858838E+03  0.91259526102E+02  0.36011124466E+03  0.12699999809E+01 0.  1.
       -4    1    3    3    0  502  0.87986945213E+02  0.33705858838E+03  0.21892236538E+04  0.22167661161E+04  0.12699999809E+01 0. -1.
</event>
<event>
 5   0  0.5447807E-05  0.1200196E+04  0.7818609E-02  0.9112685E-01
       -1   -1    0    0    0  501  0.00000000000E+00  0.00000000000E+00  0.74234843962E+03  0.74234843964E+03  0.50400001928E-02 0.  1.
        1   -1    0    0  501    0  0.00000000000E+00  0.00000000000E+00 -0.48510607020E+03  0.48510607023E+03  0.50400001928E-02 0. -1.
    10030    2    1    2    0    0  0.00000000000E+00  0.00000000000E+00  0.25724236942E+03  0.12274545099E+04  0.12001962078E+04 0.  0.
        2    1    3    3  502    0 -0.29928908626E+03 -0.41887721725E+03 -0.18674175452E+03  0.54763542908E+03  0.25500000920E-02 0. -1.
       -2    1    3    3    0  502  0.29928908626E+03  0.41887721725E+03  0.44398412394E+03  0.67981908079E+03  0.25500000920E-02 0.  1.
</event>
<event>
 5   0  0.5745487E-05  0.1199861E+04  0.7818609E-02  0.9112978E-01
        1   -1    0    0  501    0  0.00000000000E+00  0.00000000000E+00  0.13651292749E+04  0.13651292749E+04  0.50400001928E-02 0. -1.
       -1   -1    0    0    0  501  0.00000000000E+00  0.00000000000E+00 -0.26365029151E+03  0.26365029155E+03  0.50400001928E-02 0.  1.
    10030    2    1    2    0    0  0.00000000000E+00  0.00000000000E+00  0.11014789834E+04  0.16287795665E+04  0.11998612108E+04 0.  0.
        3    1    3    3  502    0 -0.43906050859E+03  0.30450677686E+03  0.18042481955E+03  0.56396066623E+03  0.10100000352E+00 0. -1.
       -3    1    3    3    0  502  0.43906050859E+03 -0.30450677686E+03  0.92105416387E+03  0.10648189003E+04  0.10100000352E+00 0.  1.
</event>
<event>
 5   0  0.1012657E-04  0.1199840E+04  0.7818609E-02  0.9112997E-01
       -2   -1    0    0    0  501  0.00000000000E+00  0.00000000000E+00  0.39300901511E+03  0.39300901512E+03  0.25500000920E-02 0. -1.
        2   -1    0    0  501    0  0.00000000000E+00  0.00000000000E+00 -0.91576528068E+03  0.91576528068E+03  0.25500000920E-02 0.  1.
    10030    2    1    2    0    0  0.00000000000E+00  0.00000000000E+00 -0.52275626557E+03  0.13087742958E+04  0.11998400077E+04 0.  0.
        1    1    3    3  502    0  0.54823054503E+03 -0.23638661497E+03 -0.19713575881E+03  0.62872718222E+03  0.50400001928E-02 0. -1.
       -1    1    3    3    0  502 -0.54823054503E+03  0.23638661497E+03 -0.32562050676E+03  0.68004711358E+03  0.50400001928E-02 0.  1.
</event>
<event>
 5   0  0.5447807E-05  0.1195822E+04  0.7818609E-02  0.9116521E-01
        1   -1    0    0  501    0  0.00000000000E+00  0.00000000000E+00  0.10834137333E+04  0.10834137333E+04  0.50400001928E-02 0.  1.
       -1   -1    0    0    0  501  0.00000000000E+00  0.00000000000E+00 -0.32997349423E+03  0.32997349426E+03  0.50400001928E-02 0. -1.
    10030    2    1    2    0    0  0.00000000000E+00  0.00000000000E+00  0.75344023904E+03  0.14133872275E+04  0.11958224204E+04 0.  0.
        2    1    3    3  502    0 -0.15891186946E+03  0.46791669819E+03 -0.21118664803E+02  0.49461602957E+03  0.25500000920E-02 0. -1.
       -2    1    3    3    0  502  0.15891186946E+03 -0.46791669819E+03  0.77455890385E+03  0.91877119798E+03  0.25500000920E-02 0.  1.
</event>
<event>
 5   0  0.1012657E-04  0.1200090E+04  0.7818609E-02  0.9112778E-01
        2   -1    0    0  501    0  0.00000000000E+00  0.00000000000E+00  0.88287678419E+03  0.88287678419E+03  0.25500000920E-02 0. -1.
       -2   -1    0    0    0  501  0.00000000000E+00  0.00000000000E+00 -0.40781916284E+03  0.40781916285E+03  0.25500000920E-02 0.  1.
    10030    2    1    2    0    0  0.00000000000E+00  0.00000000000E+00  0.47505762135E+03  0.12906959470E+04  0.12000901150E+04 0.  0.
        1    1    3    3  502    0 -0.12645519975E+03  0.46839394137E+03 -0.14221572762E+03  0.50557800097E+03  0.50400001928E-02 0. -1.
       -1    1    3    3    0  502  0.12645519975E+03 -0.46839394137E+03  0.61727334897E+03  0.78511794606E+03  0.50400001928E-02 0.  1.
</event>
<event>
 5   0  0.1023063E-04  0.1199502E+04  0.7818609E-02  0.9113292E-01
        2   -1    0    0  501    0  0.00000000000E+00  0.00000000000E+00  0.42772652180E+03  0.42772652181E+03  0.25500000920E-02 0.  1.
       -2   -1    0    0    0  501  0.00000000000E+00  0.00000000000E+00 -0.84096124285E+03  0.84096124286E+03  0.25500000920E-02 0. -1.
    10030    2    1    2    0    0  0.00000000000E+00  0.00000000000E+00 -0.41323472106E+03  0.12686877647E+04  0.11995022757E+04 0.  0.
        3    1    3    3  502    0 -0.17548254621E+03 -0.57343902447E+03 -0.21577580385E+03  0.63732695419E+03  0.10100000352E+00 0.  1.
       -3    1    3    3    0  502  0.17548254621E+03  0.57343902447E+03 -0.19745891721E+03  0.63136081047E+03  0.10100000352E+00 0. -1.
</event>
<event>
 5   0  0.5620246E-05  0.1200026E+04  0.7818609E-02  0.9112834E-01
       -1   -1    0    0    0  501  0.00000000000E+00  0.00000000000E+00  0.18472600662E+03  0.18472600668E+03  0.50400001928E-02 0. -1.
        1   -1    0    0  501    0  0.00000000000E+00  0.00000000000E+00 -0.19489171805E+04  0.19489171805E+04  0.50400001928E-02 0.  1.
    10030    2    1    2    0    0  0.00000000000E+00  0.00000000000E+00 -0.17641911739E+04  0.21336431872E+04  0.12000261465E+04 0.  0.
        1    1    3    3  502    0 -0.31545837135E+03  0.96020456292E+02  0.91791179906E+01  0.32987598929E+03  0.50400001928E-02 0. -1.
       -1    1    3    3    0  502  0.31545837135E+03 -0.96020456292E+02 -0.17733702919E+04  0.18037671979E+04  0.50400001928E-02 0.  1.
</event>
<event>
 5   0  0.5620246E-05  0.1199345E+04  0.7818609E-02  0.9113430E-01
       -1   -1    0    0    0  501  0.00000000000E+00  0.00000000000E+00  0.41496938837E+03  0.41496938840E+03  0.50400001928E-02 0.  1.
        1   -1    0    0  501    0  0.00000000000E+00  0.00000000000E+00 -0.86658741204E+03  0.86658741205E+03  0.50400001928E-02 0. -1.
    10030    2    1    2    0    0  0.00000000000E+00  0.00000000000E+00 -0.45161802367E+03  0.12815568005E+04  0.11993452353E+04 0.  0.
        1    1    3    3  502    0  0.36514282361E+03 -0.23090716081E+03 -0.67020107629E+03  0.79738126466E+03  0.50400001928E-02 0. -1.
       -1    1    3    3    0  502 -0.36514282361E+03  0.23090716081E+03  0.21858305262E+03  0.48417553580E+03  0.50400001928E-02 0.  1.
</event>
<event>
 5   0  0.1012657E-04  0.1200632E+04  0.7818609E-02  0.9112304E-01
       -2   -1    0    0    0  501  0.00000000000E+00  0.00000000000E+00  0.19865131455E+03  0.19865131456E+03  0.25500000920E-02 0. -1.
        2   -1    0    0  501    0  0.00000000000E+00  0.00000000000E+00 -0.18141290504E+04  0.18141290504E+04  0.25500000920E-02 0.  1.
    10030    2    1    2    0    0  0.00000000000E+00  0.00000000000E+00 -0.16154777359E+04  0.20127803650E+04  0.12006317015E+04 0.  0.
        1    1    3    3  502    0  0.51953475256E+03 -0.28388212090E+03 -0.97432030693E+03  0.11400901185E+04  0.50400001928E-02 0. -1.
       -1    1    3    3    0  502 -0.51953475256E+03  0.28388212090E+03 -0.64115742896E+03  0.87269024655E+03  0.50400001928E-02 0.  1.
</event>
<event>
 5   0  0.5447807E-05  0.1200048E+04  0.7818609E-02  0.9112814E-01
       -1   -1    0    0    0  501  0.00000000000E+00  0.00000000000E+00  0.27949902662E+03  0.27949902666E+03  0.50400001928E-02 0.  1.
        1   -1    0    0  501    0  0.00000000000E+00  0.00000000000E+00 -0.12881227765E+04  0.12881227765E+04  0.50400001928E-02 0. -1.
    10030    2    1    2    0    0  0.00000000000E+00  0.00000000000E+00 -0.10086237499E+04  0.15676218032E+04  0.12000484361E+04 0.  0.
        2    1    3    3  502    0 -0.29915318049E+03 -0.12421457132E+03 -0.11640990333E+04  0.12083246436E+04  0.25500000920E-02 0. -1.
       -2    1    3    3    0  502  0.29915318049E+03  0.12421457132E+03  0.15547528337E+03  0.35929715956E+03  0.25500000920E-02 0.  1.
</event>
<event>
 5   0  0.5620246E-05  0.1200156E+04  0.7818609E-02  0.9112720E-01
       -1   -1    0    0    0  501  0.00000000000E+00  0.00000000000E+00  0.75576874865E+03  0.75576874867E+03  0.50400001928E-02 0.  1.
        1   -1    0    0  501    0  0.00000000000E+00  0.00000000000E+00 -0.47645980900E+03  0.47645980903E+03  0.50400001928E-02 0. -1.
    10030    2    1    2    0    0  0.00000000000E+00  0.00000000000E+00  0.27930893965E+03  0.12322285577E+04  0.12001557127E+04 0.  0.
        1    1    3    3  502    0 -0.20128757112E+03 -0.53848638439E+02  0.71743377594E+03  0.74707936997E+03  0.50400001928E-02 0.  1.
       -1    1    3    3    0  502  0.20128757112E+03  0.53848638439E+02 -0.43812483629E+03  0.48514918773E+03  0.50400001928E-02 0. -1.
</event>
<event>
 5   0  0.1023063E-04  0.1199987E+04  0.7818609E-02  0.9112868E-01
       -2   -1    0    0    0  501  0.00000000000E+00  0.00000000000E+00  0.66769734557E+03  0.66769734557E+03  0.25500000920E-02 0. -1.
        2   -1    0    0  501    0  0.00000000000E+00  0.00000000000E+00 -0.53915478811E+03  0.53915478811E+03  0.25500000920E-02 0.  1.
    10030    2    1    2    0    0  0.00000000000E+00  0.00000000000E+00  0.12854255746E+03  0.12068521337E+04  0.11999870347E+04 0.  0.
        3    1    3    3  502    0  0.58373163022E+03  0.13737835068E+03  0.83793235159E+02  0.60550536234E+03  0.10100000352E+00 0.  1.
       -3    1    3    3    0  502 -0.58373163022E+03 -0.13737835068E+03  0.44749322300E+02  0.60134677135E+03  0.10100000352E+00 0. -1.
</event>
<event>
 5   0  0.5732931E-05  0.1198995E+04  0.7818609E-02  0.9113736E-01
        1   -1    0    0  501    0  0.00000000000E+00  0.00000000000E+00  0.45537762970E+03  0.45537762973E+03  0.50400001928E-02 0.  1.
       -1   -1    0    0    0  501  0.00000000000E+00  0.00000000000E+00 -0.78922966413E+03  0.78922966414E+03  0.50400001928E-02 0. -1.
    10030    2    1    2    0    0  0.00000000000E+00  0.00000000000E+00 -0.33385203442E+03  0.12446072939E+04  0.11989954692E+04 0.  0.
        4    1    3    3  502    0 -0.23424402297E+03 -0.35309790951E+01  0.40589356315E+03  0.46865117904E+03  0.12699999809E+01 0.  1.
       -4    1    3    3    0  502  0.23424402297E+03  0.35309790951E+01 -0.73974559757E+03  0.77595611483E+03  0.12699999809E+01 0. -1.
</event>
<event>
 5   0  0.5732931E-05  0.1197289E+04  0.7818609E-02  0.9115232E-01
        1   -1    0    0  501    0  0.00000000000E+00  0.00000000000E+00  0.11060285429E+04  0.11060285429E+04  0.50400001928E-02 0. -1.
       -1   -1    0    0    0  501  0.00000000000E+00  0.00000000000E+00 -0.32402009993E+03  0.32402009997E+03  0.50400001928E-02 0.  1.
    10030    2    1    2    0    0  0.00000000000E+00  0.00000000000E+00  0.78200844298E+03  0.14300486429E+04  0.11972894037E+04 0.  0.
        4    1    3    3  502    0  0.38298404791E+03  0.44735780839E+03  0.51946845987E+03  0.78527376333E+03  0.12699999809E+01 0.  1.
       -4    1    3    3    0  502 -0.38298404791E+03 -0.44735780839E+03  0.26253998312E+03  0.64477487956E+03  0.12699999809E+01 0. -1.
</event>
<event>
 5   0  0.5732931E-05  0.1200216E+04  0.7818609E-02  0.9112667E-01
       -1   -1    0    0    0  501  0.00000000000E+00  0.00000000000E+00  0.73381980320E+03  0.73381980322E+03  0.50400001928E-02 0. -1.
        1   -1    0    0  501    0  0.00000000000E+00  0.00000000000E+00 -0.49076050038E+03  0.49076050041E+03  0.50400001928E-02 0.  1.
    10030    2    1    2    0    0  0.00000000000E+00  0.00000000000E+00  0.24305930282E+03  0.12245803036E+04  0.12002162702E+04 0.  0.
        4    1    3    3  502    0 -0.11662161906E+03 -0.14055749704E+03  0.70477275546E+03  0.72805443597E+03  0.12699999809E+01 0. -1.
       -4    1    3    3    0  502  0.11662161906E+03  0.14055749704E+03 -0.46171345264E+03  0.49652586765E+03  0.12699999809E+01 0.  1.
</event>
<event>
 5   0  0.9941209E-05  0.1199772E+04  0.7818609E-02  0.9113056E-01
        2   -1    0    0  501    0  0.00000000000E+00  0.00000000000E+00  0.17471442877E+04  0.17471442877E+04  0.25500000920E-02 0.  1.
       -2   -1    0    0    0  501  0.00000000000E+00  0.00000000000E+00 -0.20597221749E+03  0.20597221751E+03  0.25500000920E-02 0. -1.
    10030    2    1    2    0    0  0.00000000000E+00  0.00000000000E+00  0.15411720702E+04  0.19531165052E+04  0.11997719504E+04 0.  0.
        2    1    3    3  502    0  0.45086226703E+03  0.20083035309E+03  0.21553541454E+03  0.53857694852E+03  0.25500000920E-02 0. -1.
       -2    1    3    3    0  502 -0.45086226703E+03 -0.20083035309E+03  0.13256366557E+04  0.14145395567E+04  0.25500000920E-02 0.  1.
</event>
<event>
 5   0  0.9838215E-05  0.1199976E+04  0.7818609E-02  0.9112877E-01
       -2   -1    0    0    0  501  0.00000000000E+00  0.00000000000E+00  0.20415271016E+03  0.20415271018E+03  0.25500000920E-02 0.  1.
        2   -1    0    0  501    0  0.00000000000E+00  0.00000000000E+00 -0.17633156989E+04  0.17633156989E+04  0.25500000920E-02 0. -1.
    10030    2    1    2    0    0  0.00000000000E+00  0.00000000000E+00 -0.15591629887E+04  0.19674684090E+04  0.11999761311E+04 0.  0.
        4    1    3    3  502    0 -0.12625562901E+03 -0.41189128341E+03 -0.94890061150E+02  0.44113563652E+03  0.12699999809E+01 0.  1.
       -4    1    3    3    0  502  0.12625562901E+03  0.41189128341E+03 -0.14642729275E+04  0.15263327725E+04  0.12699999809E+01 0. -1.
</event>
<event>
 5   0  0.1023063E-04  0.1200237E+04  0.7818609E-02  0.9112649E-01
       -2   -1    0    0    0  501  0.00000000000E+00  0.00000000000E+00  0.23460489973E+03  0.23460489974E+03  0.25500000920E-02 0. -1.
        2   -1    0    0  501    0  0.00000000000E+00  0.00000000000E+00 -0.15351013144E+04  0.15351013144E+04  0.25500000920E-02 0.  1.
    10030    2    1    2    0    0  0.00000000000E+00  0.00000000000E+00 -0.13004964147E+04  0.17697062142E+04  0.12002371265E+04 0.  0.
        3    1    3    3  502    0 -0.43013985131E+03  0.10439937812E+03 -0.12477659284E+04  0.13239483918E+04  0.10100000352E+00 0.  1.
       -3    1    3    3    0  502  0.43013985131E+03 -0.10439937812E+03 -0.52730486299E+02  0.44575782239E+03  0.10100000352E+00 0. -1.
</event>
<event>
 5   0  0.5745487E-05  0.1199634E+04  0.7818609E-02  0.9113177E-01
       -1   -1    0    0    0  501  0.00000000000E+00  0.00000000000E+00  0.27348729621E+03  0.27348729626E+03  0.50400001928E-02 0. -1.
        1   -1    0    0  501    0  0.00000000000E+00  0.00000000000E+00 -0.13155293716E+04  0.13155293716E+04  0.50400001928E-02 0.  1.
    10030    2    1    2    0    0  0.00000000000E+00  0.00000000000E+00 -0.10420420754E+04  0.15890166679E+04  0.11996342292E+04 0.  0.
        3    1    3    3  502    0  0.33650345715E+02  0.23087381892E+03  0.21091876056E+03  0.31451836161E+03  0.10100000352E+00 0. -1.
       -3    1    3    3    0  502 -0.33650345715E+02 -0.23087381892E+03 -0.12529608360E+04  0.12744983063E+04  0.10100000352E+00 0.  1.
</event>
<event>
 5   0  0.1004006E-04  0.1200065E+04  0.7818609E-02  0.9112800E-01
        2   -1    0    0  501    0  0.00000000000E+00  0.00000000000E+00  0.17846133415E+04  0.17846133415E+04  0.25500000920E-02 0.  1.
       -2   -1    0    0    0  501  0.00000000000E+00  0.00000000000E+00 -0.20174621351E+03  0.20174621353E+03  0.25500000920E-02 0. -1.
    10030    2    1    2    0    0  0.00000000000E+00  0.00000000000E+00  0.15828671280E+04  0.19863595551E+04  0.12000649720E+04 0.  0.
        5    1    3    3  502    0  0.33103097647E+03 -0.34105246826E+03  0.13976079918E+04  0.14762210140E+04  0.46999998093E+01 0.  1.
       -5    1    3    3    0  502 -0.33103097647E+03  0.34105246826E+03  0.18525913621E+03  0.51013854103E+03  0.46999998093E+01 0. -1.
</event>
<event>
 5   0  0.3839750E-05  0.1199469E+04  0.7818609E-02  0.9113321E-01
       -3   -1    0    0    0  501  0.00000000000E+00  0.00000000000E+00  0.18363176924E+03  0.18363179701E+03  0.10100000352E+00 0. -1.
        3   -1    0    0  501    0  0.00000000000E+00  0.00000000000E+00 -0.19587113710E+04  0.19587113736E+04  0.10100000352E+00 0.  1.
    10030    2    1    2    0    0  0.00000000000E+00  0.00000000000E+00 -0.17750796017E+04  0.21423431706E+04  0.11994693277E+04 0.  0.
        5    1    3    3  502    0  0.32093045190E+02  0.67092005051E+02 -0.19504099141E+04  0.19518330420E+04  0.46999998093E+01 0.  1.
       -5    1    3    3    0  502 -0.32093045190E+02 -0.67092005051E+02  0.17533031234E+03  0.19051012864E+03  0.46999998093E+01 0. -1.
</event>
<event>
 5   0  0.9941209E-05  0.1200042E+04  0.7818609E-02  0.9112820E-01
       -2   -1    0    0    0  501  0.00000000000E+00  0.00000000000E+00  0.17506523830E+03  0.17506523832E+03  0.25500000920E-02 0. -1.
        2   -1    0    0  501    0  0.00000000000E+00  0.00000000000E+00 -0.20565197022E+04  0.20565197022E+04  0.25500000920E-02 0.  1.
    10030    2    1    2    0    0  0.00000000000E+00  0.00000000000E+00 -0.18814544639E+04  0.22315849406E+04  0.12000418522E+04 0.  0.
        2    1    3    3  502    0 -0.34316836549E+03  0.14088990612E+03 -0.18177175299E+04  0.18551850342E+04  0.25500000920E-02 0.  1.
       -2    1    3    3    0  502  0.34316836549E+03 -0.14088990612E+03 -0.63736934034E+02  0.37639990633E+03  0.25500000920E-02 0. -1.
</event>
<event>
 5   0  0.5745487E-05  0.1199833E+04  0.7818609E-02  0.9113003E-01
       -1   -1    0    0    0  501  0.00000000000E+00  0.00000000000E+00  0.16418953032E+03  0.16418953039E+03  0.50400001928E-02 0.  1.
        1   -1    0    0  501    0  0.00000000000E+00  0.00000000000E+00 -0.21919773162E+04  0.21919773162E+04  0.50400001928E-02 0. -1.
    10030    2    1    2    0    0  0.00000000000E+00  0.00000000000E+00 -0.20277877859E+04  0.23561668466E+04  0.11998328652E+04 0.  0.
        3    1    3    3  502    0  0.57792730841E+02  0.46560916861E+03 -0.27973700106E+03  0.54624600465E+03  0.10100000352E+00 0.  1.
       -3    1    3    3    0  502 -0.57792730841E+02 -0.46560916861E+03 -0.17480507848E+04  0.18099208420E+04  0.10100000352E+00 0. -1.
</event>
<event>
 5   0  0.1004006E-04  0.1198156E+04  0.7818609E-02  0.9114472E-01
       -2   -1    0    0    0  501  0.00000000000E+00  0.00000000000E+00  0.35179162626E+03  0.35179162627E+03  0.25500000920E-02 0. -1.
        2   -1    0    0  501    0  0.00000000000E+00  0.00000000000E+00 -0.10201912161E+04  0.10201912161E+04  0.25500000920E-02 0.  1.
    10030    2    1    2    0    0  0.00000000000E+00  0.00000000000E+00 -0.66839958981E+03  0.13719828423E+04  0.11981564622E+04 0.  0.
        5    1    3    3  502    0  0.42915324290E+03 -0.20727863325E+03 -0.74981065408E+03  0.88846780733E+03  0.46999998093E+01 0.  1.
       -5    1    3    3    0  502 -0.42915324290E+03  0.20727863325E+03  0.81411064275E+02  0.48351503501E+03  0.46999998093E+01 0. -1.
</event>
<event>
 5   0  0.5625746E-05  0.1199406E+04  0.7818609E-02  0.9113376E-01
       -1   -1    0    0    0  501  0.00000000000E+00  0.00000000000E+00  0.30647665995E+03  0.30647665999E+03  0.50400001928E-02 0. -1.
        1   -1    0    0  501    0  0.00000000000E+00  0.00000000000E+00 -0.11734791736E+04  0.11734791736E+04  0.50400001928E-02 0.  1.
    10030    2    1    2    0    0  0.00000000000E+00  0.00000000000E+00 -0.86700251363E+03  0.14799558336E+04  0.11994064827E+04 0.  0.
        5    1    3    3  502    0  0.60597983839E+02 -0.43909255270E+03 -0.93189499547E+03  0.10319519165E+04  0.46999998093E+01 0.  1.
       -5    1    3    3    0  502 -0.60597983839E+02  0.43909255270E+03  0.64892481836E+02  0.44800391704E+03  0.46999998093E+01 0. -1.
</event>
<event>
 5   0  0.1004006E-04  0.1200600E+04  0.7818609E-02  0.9112331E-01
        2   -1    0    0  501    0  0.00000000000E+00  0.00000000000E+00  0.15904214438E+04  0.15904214438E+04  0.25500000920E-02 0.  1.
       -2   -1    0    0    0  501  0.00000000000E+00  0.00000000000E+00 -0.22658165367E+03  0.22658165369E+03  0.25500000920E-02 0. -1.
    10030    2    1    2    0    0  0.00000000000E+00  0.00000000000E+00  0.13638397901E+04  0.18170030975E+04  0.12006003844E+04 0.  0.
        5    1    3    3  502    0 -0.94103669735E+02 -0.26221727361E+03  0.14866294657E+04  0.15125153413E+04  0.46999998093E+01 0.  1.
       -5    1    3    3    0  502  0.94103669735E+02  0.26221727361E+03 -0.12278967561E+03  0.30448775619E+03  0.46999998093E+01 0. -1.
</event>
<event>
 5   0  0.1012657E-04  0.1199898E+04  0.7818609E-02  0.9112946E-01
        2   -1    0    0  501    0  0.00000000000E+00  0.00000000000E+00  0.71512790022E+03  0.71512790022E+03  0.25500000920E-02 0. -1.
       -2   -1    0    0    0  501  0.00000000000E+00  0.00000000000E+00 -0.50332095483E+03  0.50332095484E+03  0.25500000920E-02 0.  1.
    10030    2    1    2    0    0  0.00000000000E+00  0.00000000000E+00  0.21180694539E+03  0.12184488551E+04  0.11998980916E+04 0.  0.
        1    1    3    3  502    0 -0.25703027688E+03  0.36602136292E+03 -0.30015706055E+03  0.53863759836E+03  0.50400001928E-02 0.  1.
       -1    1    3    3    0  502  0.25703027688E+03 -0.36602136292E+03  0.51196400593E+03  0.67981125670E+03  0.50400001928E-02 0. -1.
</event>
<event>
 5   0  0.9838215E-05  0.1199769E+04  0.7818609E-02  0.9113059E-01
       -2   -1    0    0    0  501  0.00000000000E+00  0.00000000000E+00  0.23397726171E+03  0.23397726172E+03  0.25500000920E-02 0. -1.
        2   -1    0    0  501    0  0.00000000000E+00  0.00000000000E+00 -0.15380190587E+04  0.15380190587E+04  0.25500000920E-02 0.  1.
    10030    2    1    2    0    0  0.00000000000E+00  0.00000000000E+00 -0.13040417970E+04  0.17719963204E+04  0.11997691241E+04 0.  0.
        4    1    3    3  502    0  0.24704124245E+03 -0.94609124810E+02  0.14317470612E+03  0.30080038454E+03  0.12699999809E+01 0. -1.
       -4    1    3    3    0  502 -0.24704124245E+03  0.94609124810E+02 -0.14472165031E+04  0.14711959358E+04  0.12699999809E+01 0.  1.
</event>
<event>
 5   0  0.5745487E-05  0.1200155E+04  0.7818609E-02  0.9112721E-01
        1   -1    0    0  501    0  0.00000000000E+00  0.00000000000E+00  0.13550634318E+04  0.13550634318E+04  0.50400001928E-02 0. -1.
       -1   -1    0    0    0  501  0.00000000000E+00  0.00000000000E+00 -0.26573879926E+03  0.26573879931E+03  0.50400001928E-02 0.  1.
    10030    2    1    2    0    0  0.00000000000E+00  0.00000000000E+00  0.10893246326E+04  0.16208022311E+04  0.12001548722E+04 0.  0.
        3    1    3    3  502    0  0.24282298343E+03  0.77580547248E+01 -0.19635145672E+03  0.31237332385E+03  0.10100000352E+00 0.  1.
       -3    1    3    3    0  502 -0.24282298343E+03 -0.77580547248E+01  0.12856760893E+04  0.13084289073E+04  0.10100000352E+00 0. -1.
</event>
<event>
 5   0  0.5732931E-05  0.1199364E+04  0.7818609E-02  0.9113413E-01
        1   -1    0    0  501    0  0.00000000000E+00  0.00000000000E+00  0.93153905194E+03  0.93153905196E+03  0.50400001928E-02 0.  1.
       -1   -1    0    0    0  501  0.00000000000E+00  0.00000000000E+00 -0.38604773209E+03  0.38604773212E+03  0.50400001928E-02 0. -1.
    10030    2    1    2    0    0  0.00000000000E+00  0.00000000000E+00  0.54549131986E+03  0.13175867841E+04  0.11993640621E+04 0.  0.
        4    1    3    3  502    0  0.24342299397E+03 -0.54736045765E+03  0.24248603810E+03  0.64626566996E+03  0.12699999809E+01 0. -1.
       -4    1    3    3    0  502 -0.24342299397E+03  0.54736045765E+03  0.30300528176E+03  0.67132111412E+03  0.12699999809E+01 0.  1.
</event>
<event>
 5   0  0.1012657E-04  0.1200479E+04  0.7818609E-02  0.9112438E-01
       -2   -1    0    0    0  501  0.00000000000E+00  0.00000000000E+00  0.55417506354E+03  0.55417506354E+03  0.25500000920E-02 0. -1.
        2   -1    0    0  501    0  0.00000000000E+00  0.00000000000E+00 -0.65013256685E+03  0.65013256686E+03  0.25500000920E-02 0.  1.
    10030    2    1    2    0    0  0.00000000000E+00  0.00000000000E+00 -0.95957503316E+02  0.12043076304E+04  0.12004786655E+04 0.  0.
        1    1    3    3  502    0 -0.47130744842E+03 -0.33955045936E+03 -0.19966296991E+03  0.61423979598E+03  0.50400001928E-02 0.  1.
       -1    1    3    3    0  502  0.47130744842E+03  0.33955045936E+03  0.10370546659E+03  0.59006783442E+03  0.50400001928E-02 0. -1.
</event>
<event>
 5   0  0.5732931E-05  0.1202576E+04  0.7818609E-02  0.9110605E-01
       -1   -1    0    0    0  501  0.00000000000E+00  0.00000000000E+00  0.35093120106E+03  0.35093120110E+03  0.50400001928E-02 0. -1.
        1   -1    0    0  501    0  0.00000000000E+00  0.00000000000E+00 -0.10302507412E+04  0.10302507412E+04  0.50400001928E-02 0.  1.
    10030    2    1    2    0    0  0.00000000000E+00  0.00000000000E+00 -0.67931954015E+03  0.13811819423E+04  0.12025757856E+04 0.  0.
        4    1    3    3  502    0 -0.43309803151E+03 -0.39394755134E+03 -0.18227930118E+03  0.61318507373E+03  0.12699999809E+01 0.  1.
       -4    1    3    3    0  502  0.43309803151E+03  0.39394755134E+03 -0.49704023897E+03  0.76799686859E+03  0.12699999809E+01 0. -1.
</event>
<event>
 5   0  0.9838215E-05  0.1200325E+04  0.7818609E-02  0.9112572E-01
       -2   -1    0    0    0  501  0.00000000000E+00  0.00000000000E+00  0.46892035241E+03  0.46892035241E+03  0.25500000920E-02 0.  1.
        2   -1    0    0  501    0  0.00000000000E+00  0.00000000000E+00 -0.76813676029E+03  0.76813676029E+03  0.25500000920E-02 0. -1.
    10030    2    1    2    0    0  0.00000000000E+00  0.00000000000E+00 -0.29921640788E+03  0.12370571127E+04  0.12003248899E+04 0.  0.
        4    1    3    3  502    0  0.23316581010E+03 -0.52445010128E+03 -0.33041685480E+03  0.66226211923E+03  0.12699999809E+01 0.  1.
       -4    1    3    3    0  502 -0.23316581010E+03  0.52445010128E+03  0.31200446915E+02  0.57479499347E+03  0.12699999809E+01 0. -1.
</event>
<event>
 5   0  0.1004006E-04  0.1199946E+04  0.7818609E-02  0.9112903E-01
        2   -1    0    0  501    0  0.00000000000E+00  0.00000000000E+00  0.10392377569E+04  0.10392377569E+04  0.25500000920E-02 0. -1.
       -2   -1    0    0    0  501  0.00000000000E+00  0.00000000000E+00 -0.34637677010E+03  0.34637677011E+03  0.25500000920E-02 0.  1.
    10030    2    1    2    0    0  0.00000000000E+00  0.00000000000E+00  0.69286098675E+03  0.13856145270E+04  0.11999463615E+04 0.  0.
        5    1    3    3  502    0 -0.11802409394E+03 -0.14115391799E+02  0.10254834374E+04  0.10323600638E+04  0.46999998093E+01 0. -1.
       -5    1    3    3    0  502  0.11802409394E+03  0.14115391799E+02 -0.33262245066E+03  0.35325446312E+03  0.46999998093E+01 0.  1.
</event>
<event>
 5   0  0.1004006E-04  0.1199815E+04  0.7818609E-02  0.9113019E-01
        2   -1    0    0  501    0  0.00000000000E+00  0.00000000000E+00  0.58737416769E+03  0.58737416770E+03  0.25500000920E-02 0.  1.
       -2   -1    0    0    0  501  0.00000000000E+00  0.00000000000E+00 -0.61270780574E+03  0.61270780574E+03  0.25500000920E-02 0. -1.
    10030    2    1    2    0    0  0.00000000000E+00  0.00000000000E+00 -0.25333638045E+02  0.12000819734E+04  0.11998145481E+04 0.  0.
        5    1    3    3  502    0 -0.16006581490E+03 -0.47230223011E+03  0.32083843008E+03  0.59300071659E+03  0.46999998093E+01 0.  1.
       -5    1    3    3    0  502  0.16006581490E+03  0.47230223011E+03 -0.34617206813E+03  0.60708125685E+03  0.46999998093E+01 0. -1.
</event>
<event>
 5   0  0.5732931E-05  0.1199879E+04  0.7818609E-02  0.9112963E-01
        1   -1    0    0  501    0  0.00000000000E+00  0.00000000000E+00  0.15916648583E+04  0.15916648583E+04  0.50400001928E-02 0.  1.
       -1   -1    0    0    0  501  0.00000000000E+00  0.00000000000E+00 -0.22613261466E+03  0.22613261472E+03  0.50400001928E-02 0. -1.
    10030    2    1    2    0    0  0.00000000000E+00  0.00000000000E+00  0.13655322436E+04  0.18177974730E+04  0.11998788874E+04 0.  0.
        4    1    3    3  502    0  0.23253253140E+02 -0.23656534598E+03  0.15172760486E+04  0.15357838706E+04  0.12699999809E+01 0.  1.
       -4    1    3    3    0  502 -0.23253253140E+02  0.23656534598E+03 -0.15174380496E+03  0.28201360241E+03  0.12699999809E+01 0. -1.
</event>
<event>
 5   0  0.5732931E-05  0.1200355E+04  0.7818609E-02  0.9112546E-01
        1   -1    0    0  501    0  0.00000000000E+00  0.00000000000E+00  0.10376494536E+04  0.10376494536E+04  0.50400001928E-02 0. -1.
       -1   -1    0    0    0  501  0.00000000000E+00  0.00000000000E+00 -0.34714299558E+03  0.34714299562E+03  0.50400001928E-02 0.  1.
    10030    2    1    2    0    0  0.00000000000E+00  0.00000000000E+00  0.69050645803E+03  0.13847924492E+04  0.12003545138E+04 0.  0.
        4    1    3    3  502    0 -0.57359993561E+03 -0.54076866942E+01  0.14159183789E+03  0.59084345699E+03  0.12699999809E+01 0.  1.
       -4    1    3    3    0  502  0.57359993561E+03  0.54076866942E+01  0.54891462014E+03  0.79394899226E+03  0.12699999809E+01 0. -1.
</event>
<event>
 5   0  0.3839750E-05  0.1200362E+04  0.7818609E-02  0.9112540E-01
        3   -1    0    0  501    0  0.00000000000E+00  0.00000000000E+00  0.40619586089E+03  0.40619587345E+03  0.10100000352E+00 0.  1.
       -3   -1    0    0    0  501  0.00000000000E+00  0.00000000000E+00 -0.88680601531E+03  0.88680602106E+03  0.10100000352E+00 0. -1.
    10030    2    1    2    0    0  0.00000000000E+00  0.00000000000E+00 -0.48061015442E+03  0.12930018945E+04  0.12003615200E+04 0.  0.
        3    1    3    3  502    0 -0.22602847081E+03 -0.48114438203E+03  0.59816147762E+02  0.53494557453E+03  0.10100000352E+00 0.  1.
       -3    1    3    3    0  502  0.22602847081E+03  0.48114438203E+03 -0.54042630218E+03  0.75805631998E+03  0.10100000352E+00 0. -1.
</event>
<event>
 5   0  0.5620246E-05  0.1199368E+04  0.7818609E-02  0.9113410E-01
       -1   -1    0    0    0  501  0.00000000000E+00  0.00000000000E+00  0.43072471890E+03  0.43072471893E+03  0.50400001928E-02 0.  1.
        1   -1    0    0  501    0  0.00000000000E+00  0.00000000000E+00 -0.83492101010E+03  0.83492101012E+03  0.50400001928E-02 0. -1.
    10030    2    1    2    0    0  0.00000000000E+00  0.00000000000E+00 -0.40419629120E+03  0.12656457290E+04  0.11993683628E+04 0.  0.
        1    1    3    3  502    0 -0.33965763301E+03 -0.28627534776E+03 -0.62722559142E+03  0.76859145517E+03  0.50400001928E-02 0. -1.
       -1    1    3    3    0  502  0.33965763301E+03  0.28627534776E+03  0.22302930022E+03  0.49705427388E+03  0.50400001928E-02 0.  1.
</event>
<event>
 5   0  0.1004006E-04  0.1199812E+04  0.7818609E-02  0.9113022E-01
        2   -1    0    0  501    0  0.00000000000E+00  0.00000000000E+00  0.28993568755E+03  0.28993568756E+03  0.25500000920E-02 0.  1.
       -2   -1    0    0    0  501  0.00000000000E+00  0.00000000000E+00 -0.12412646804E+04  0.12412646804E+04  0.25500000920E-02 0. -1.
    10030    2    1    2    0    0  0.00000000000E+00  0.00000000000E+00 -0.95132899282E+03  0.15312003679E+04  0.11998115328E+04 0.  0.
        5    1    3    3  502    0 -0.48402753210E+03 -0.18630655129E+03 -0.90953881995E+02  0.52658093540E+03  0.46999998093E+01 0.  1.
       -5    1    3    3    0  502  0.48402753210E+03  0.18630655129E+03 -0.86037511083E+03  0.10046194325E+04  0.46999998093E+01 0. -1.
</event>
<event>
 5   0  0.9838215E-05  0.1203778E+04  0.7818609E-02  0.9109556E-01
        2   -1    0    0  501    0  0.00000000000E+00  0.00000000000E+00  0.16415231083E+04  0.16415231083E+04  0.25500000920E-02 0.  1.
       -2   -1    0    0    0  501  0.00000000000E+00  0.00000000000E+00 -0.22069154768E+03  0.22069154769E+03  0.25500000920E-02 0. -1.
    10030    2    1    2    0    0  0.00000000000E+00  0.00000000000E+00  0.14208315606E+04  0.18622146560E+04  0.12037778455E+04 0.  0.
        4    1    3    3  502    0  0.21791875370E+03  0.16180450781E+03  0.15414733149E+04  0.15651871695E+04  0.12699999809E+01 0.  1.
       -4    1    3    3    0  502 -0.21791875370E+03 -0.16180450781E+03 -0.12064175431E+03  0.29702748652E+03  0.12699999809E+01 0. -1.
</event>
<event>
 5   0  0.1012657E-04  0.1199918E+04  0.7818609E-02  0.9112928E-01
        2   -1    0    0  501    0  0.00000000000E+00  0.00000000000E+00  0.47193463455E+03  0.47193463455E+03  0.25500000920E-02 0. -1.
       -2   -1    0    0    0  501  0.00000000000E+00  0.00000000000E+00 -0.76271331537E+03  0.76271331537E+03  0.25500000920E-02 0.  1.
    10030    2    1    2    0    0  0.00000000000E+00  0.00000000000E+00 -0.29077868083E+03  0.12346479499E+04  0.11999180468E+04 0.  0.
        1    1    3    3  502    0 -0.34884093835E+03  0.36745084806E+03 -0.47600013740E+03  0.69518792916E+03  0.50400001928E-02 0.  1.
       -1    1    3    3    0  502  0.34884093835E+03 -0.36745084806E+03  0.18522145658E+03  0.53946002077E+03  0.50400001928E-02 0. -1.
</event>
<event>
 5   0  0.1012657E-04  0.1200179E+04  0.7818609E-02  0.9112700E-01
        2   -1    0    0  501    0  0.00000000000E+00  0.00000000000E+00  0.37946079082E+03  0.37946079083E+03  0.25500000920E-02 0. -1.
       -2   -1    0    0    0  501  0.00000000000E+00  0.00000000000E+00 -0.94899739295E+03  0.94899739295E+03  0.25500000920E-02 0.  1.
    10030    2    1    2    0    0  0.00000000000E+00  0.00000000000E+00 -0.56953660213E+03  0.13284581838E+04  0.12001788220E+04 0.  0.
        1    1    3    3  502    0 -0.44738733367E+03  0.33637776305E+02  0.15634996115E+03  0.47511286733E+03  0.50400001928E-02 0. -1.
       -1    1    3    3    0  502  0.44738733367E+03 -0.33637776305E+02 -0.72588656329E+03  0.85334531645E+03  0.50400001928E-02 0.  1.
</event>
<event>
 5   0  0.5447807E-05  0.1199288E+04  0.7818609E-02  0.9113480E-01
        1   -1    0    0  501    0  0.00000000000E+00  0.00000000000E+00  0.15872499153E+04  0.15872499153E+04  0.50400001928E-02 0.  1.
       -1   -1    0    0    0  501  0.00000000000E+00  0.00000000000E+00 -0.22653815900E+03  0.22653815905E+03  0.50400001928E-02 0. -1.
    10030    2    1    2    0    0  0.00000000000E+00  0.00000000000E+00  0.13607117563E+04  0.18137880743E+04  0.11992875781E+04 0.  0.
        2    1    3    3  502    0 -0.31459596214E+03  0.41550611830E+03  0.11288923054E+04  0.12433880292E+04  0.25500000920E-02 0.  1.
       -2    1    3    3    0  502  0.31459596214E+03 -0.41550611830E+03  0.23181945080E+03  0.57040004516E+03  0.25500000920E-02 0. -1.
</event>
<event>
 5   0  0.5625746E-05  0.1203749E+04  0.7818609E-02  0.9109581E-01
        1   -1    0    0  501    0  0.00000000000E+00  0.00000000000E+00  0.66642807944E+03  0.66642807946E+03  0.50400001928E-02 0. -1.
       -1   -1    0    0    0  501  0.00000000000E+00  0.00000000000E+00 -0.54357413580E+03  0.54357413582E+03  0.50400001928E-02 0.  1.
    10030    2    1    2    0    0  0.00000000000E+00  0.00000000000E+00  0.12285394363E+03  0.12100022153E+04  0.12037492553E+04 0.  0.
        5    1    3    3  502    0  0.16951127965E+03  0.37619094910E+03 -0.37900115211E+03  0.56028355983E+03  0.46999998093E+01 0.  1.
       -5    1    3    3    0  502 -0.16951127965E+03 -0.37619094910E+03  0.50185509575E+03  0.64971865545E+03  0.46999998093E+01 0. -1.
</event>
<event>
 5   0  0.1004006E-04  0.1200652E+04  0.7818609E-02  0.9112286E-01
        2   -1    0    0  501    0  0.00000000000E+00  0.00000000000E+00  0.17390679901E+04  0.17390679901E+04  0.25500000920E-02 0.  1.
       -2   -1    0    0    0  501  0.00000000000E+00  0.00000000000E+00 -0.20723245199E+03  0.20723245201E+03  0.25500000920E-02 0. -1.
    10030    2    1    2    0    0  0.00000000000E+00  0.00000000000E+00  0.15318355381E+04  0.19463004421E+04  0.12006520292E+04 0.  0.
        5    1    3    3  502    0 -0.54928468722E+02 -0.34426293366E+03  0.15581305146E+04  0.15966611709E+04  0.46999998093E+01 0.  1.
       -5    1    3    3    0  502  0.54928468722E+02  0.34426293366E+03 -0.26294976501E+02  0.34963927119E+03  0.46999998093E+01 0. -1.
</event>
<event>
 5   0  0.5732931E-05  0.1200095E+04  0.7818609E-02  0.9112773E-01
        1   -1    0    0  501    0  0.00000000000E+00  0.00000000000E+00  0.86834316740E+03  0.86834316741E+03  0.50400001928E-02 0.  1.
       -1   -1    0    0    0  501  0.00000000000E+00  0.00000000000E+00 -0.41464855815E+03  0.41464855818E+03  0.50400001928E-02 0. -1.
    10030    2    1    2    0    0  0.00000000000E+00  0.00000000000E+00  0.45369460924E+03  0.12829917256E+04  0.12000954002E+04 0.  0.
        4    1    3    3  502    0  0.49706938912E+03 -0.15716819595E+03  0.54448273546E+03  0.75381886520E+03  0.12699999809E+01 0.  1.
       -4    1    3    3    0  502 -0.49706938912E+03  0.15716819595E+03 -0.90788126216E+02  0.52917286040E+03  0.12699999809E+01 0. -1.
</event>
<event>
 5   0  0.9941209E-05  0.1198856E+04  0.7818609E-02  0.9113859E-01
       -2   -1    0    0    0  501  0.00000000000E+00  0.00000000000E+00  0.92513298804E+03  0.92513298804E+03  0.25500000920E-02 0.  1.
        2   -1    0    0  501    0  0.00000000000E+00  0.00000000000E+00 -0.38839153642E+03  0.38839153643E+03  0.25500000920E-02 0. -1.
    10030    2    1    2    0    0  0.00000000000E+00  0.00000000000E+00  0.53674145162E+03  0.13135245245E+04  0.11988558256E+04 0.  0.
        2    1    3    3  502    0 -0.24365835083E+03  0.33234546870E+03 -0.20857112221E+03  0.46187099445E+03  0.25500000920E-02 0. -1.
       -2    1    3    3    0  502  0.24365835083E+03 -0.33234546870E+03  0.74531257382E+03  0.85165353002E+03  0.25500000920E-02 0.  1.
</event>
<event>
 5   0  0.5620246E-05  0.1200444E+04  0.7818609E-02  0.9112468E-01
        1   -1    0    0  501    0  0.00000000000E+00  0.00000000000E+00  0.49971033762E+03  0.49971033764E+03  0.50400001928E-02 0.  1.
       -1   -1    0    0    0  501  0.00000000000E+00  0.00000000000E+00 -0.72095092297E+03  0.72095092299E+03  0.50400001928E-02 0. -1.
    10030    2    1    2    0    0  0.00000000000E+00  0.00000000000E+00 -0.22124058536E+03  0.12206612606E+04  0.12004442997E+04 0.  0.
        1    1    3    3  502    0  0.37030290265E+03 -0.43668700592E+03  0.72543407002E+02  0.57713285019E+03  0.50400001928E-02 0.  1.
       -1    1    3    3    0  502 -0.37030290265E+03  0.43668700592E+03 -0.29378399236E+03  0.64352841044E+03  0.50400001928E-02 0. -1.
</event>
<event>
 5   0  0.1023063E-04  0.1201823E+04  0.7818609E-02  0.9111263E-01
        2   -1    0    0  501    0  0.00000000000E+00  0.00000000000E+00  0.11318909458E+04  0.11318909458E+04  0.25500000920E-02 0. -1.
       -2   -1    0    0    0  501  0.00000000000E+00  0.00000000000E+00 -0.31901879885E+03  0.31901879886E+03  0.25500000920E-02 0.  1.
    10030    2    1    2    0    0  0.00000000000E+00  0.00000000000E+00  0.81287214699E+03  0.14509097447E+04  0.12018227656E+04 0.  0.
        3    1    3    3  502    0  0.59680621582E+02  0.48693722737E+03 -0.12509889393E+02  0.49074040747E+03  0.10100000352E+00 0.  1.
       -3    1    3    3    0  502 -0.59680621582E+02 -0.48693722737E+03  0.82538203638E+03  0.96016933723E+03  0.10100000352E+00 0. -1.
</event>
<event>
 5   0  0.1004006E-04  0.1200399E+04  0.7818609E-02  0.9112508E-01
       -2   -1    0    0    0  501  0.00000000000E+00  0.00000000000E+00  0.54907032470E+03  0.54907032471E+03  0.25500000920E-02 0.  1.
        2   -1    0    0  501    0  0.00000000000E+00  0.00000000000E+00 -0.65608961340E+03  0.65608961340E+03  0.25500000920E-02 0. -1.
    10030    2    1    2    0    0  0.00000000000E+00  0.00000000000E+00 -0.10701928870E+03  0.12051599381E+04  0.12003988288E+04 0.  0.
        5    1    3    3  502    0 -0.66964715726E+02  0.57487908681E+03 -0.21303293323E+03  0.61674578088E+03  0.46999998093E+01 0. -1.
       -5    1    3    3    0  502  0.66964715726E+02 -0.57487908681E+03  0.10601364453E+03  0.58841415723E+03  0.46999998093E+01 0.  1.
</event>
<event>
 5   0  0.5620246E-05  0.1200209E+04  0.7818609E-02  0.9112674E-01
        1   -1    0    0  501    0  0.00000000000E+00  0.00000000000E+00  0.65136966253E+03  0.65136966255E+03  0.50400001928E-02 0. -1.
       -1   -1    0    0    0  501  0.00000000000E+00  0.00000000000E+00 -0.55287410023E+03  0.55287410026E+03  0.50400001928E-02 0.  1.
    10030    2    1    2    0    0  0.00000000000E+00  0.00000000000E+00  0.98495562295E+02  0.12042437628E+04  0.12002090087E+04 0.  0.
        1    1    3    3  502    0  0.16573155998E+03  0.57516212796E+03  0.61266534233E+01  0.59859498772E+03  0.50400001928E-02 0.  1.
       -1    1    3    3    0  502 -0.16573155998E+03 -0.57516212796E+03  0.92368908871E+02  0.60564877509E+03  0.50400001928E-02 0. -1.
</event>
<event>
 5   0  0.5732931E-05  0.1199783E+04  0.7818609E-02  0.9113046E-01
        1   -1    0    0  501    0  0.00000000000E+00  0.00000000000E+00  0.91029141930E+03  0.91029141931E+03  0.50400001928E-02 0. -1.
       -1   -1    0    0    0  501  0.00000000000E+00  0.00000000000E+00 -0.39533483088E+03  0.39533483092E+03  0.50400001928E-02 0.  1.
    10030    2    1    2    0    0  0.00000000000E+00  0.00000000000E+00  0.51495658841E+03  0.13056262502E+04  0.11997831543E+04 0.  0.
        4    1    3    3  502    0  0.82967336820E+02 -0.45894765142E+03  0.66805805989E+03  0.81475131789E+03  0.12699999809E+01 0. -1.
       -4    1    3    3    0  502 -0.82967336820E+02  0.45894765142E+03 -0.15310147147E+03  0.49087493234E+03  0.12699999809E+01 0.  1.
</event>
<event>
 5   0  0.5625746E-05  0.1199961E+04  0.7818609E-02  0.9112891E-01
       -1   -1    0    0    0  501  0.00000000000E+00  0.00000000000E+00  0.62001366894E+03  0.62001366896E+03  0.50400001928E-02 0.  1.
        1   -1    0    0  501    0  0.00000000000E+00  0.00000000000E+00 -0.58059447106E+03  0.58059447108E+03  0.50400001928E-02 0. -1.
    10030    2    1    2    0    0  0.00000000000E+00  0.00000000000E+00  0.39419197884E+02  0.12006081400E+04  0.11999608463E+04 0.  0.
        5    1    3    3  502    0  0.40036297475E+03  0.43027335121E+03 -0.10089068533E+03  0.59634443797E+03  0.46999998093E+01 0. -1.
       -5    1    3    3    0  502 -0.40036297475E+03 -0.43027335121E+03  0.14030988322E+03  0.60426370207E+03  0.46999998093E+01 0.  1.
</event>
<event>
 5   0  0.5625746E-05  0.1199616E+04  0.7818609E-02  0.9113193E-01
        1   -1    0    0  501    0  0.00000000000E+00  0.00000000000E+00  0.80925363262E+03  0.80925363264E+03  0.50400001928E-02 0.  1.
       -1   -1    0    0    0  501  0.00000000000E+00  0.00000000000E+00 -0.44456968305E+03  0.44456968308E+03  0.50400001928E-02 0. -1.
    10030    2    1    2    0    0  0.00000000000E+00  0.00000000000E+00  0.36468394958E+03  0.12538233157E+04  0.11996159902E+04 0.  0.
        5    1    3    3  502    0 -0.38502213168E+02 -0.58992629458E+03  0.28816989189E+03  0.65769250417E+03  0.46999998093E+01 0.  1.
       -5    1    3    3    0  502  0.38502213168E+02  0.58992629458E+03  0.76514057689E+02  0.59613081155E+03  0.46999998093E+01 0. -1.
</event>
<event>
 5   0  0.1004006E-04  0.1200426E+04  0.7818609E-02  0.9112483E-01
       -2   -1    0    0    0  501  0.00000000000E+00  0.00000000000E+00  0.10013035103E+04  0.10013035103E+04  0.25500000920E-02 0. -1.
        2   -1    0    0  501    0  0.00000000000E+00  0.00000000000E+00 -0.35978693099E+03  0.35978693100E+03  0.25500000920E-02 0.  1.
    10030    2    1    2    0    0  0.00000000000E+00  0.00000000000E+00  0.64151657927E+03  0.13610904413E+04  0.12004264525E+04 0.  0.
        5    1    3    3  502    0 -0.62427219940E+02 -0.51859775265E+03 -0.14430782065E+02  0.52256207699E+03  0.46999998093E+01 0.  1.
       -5    1    3    3    0  502  0.62427219940E+02  0.51859775265E+03  0.65594736133E+03  0.83852836427E+03  0.46999998093E+01 0. -1.
</event>
<event>
 5   0  0.1004006E-04  0.1200448E+04  0.7818609E-02  0.9112464E-01
       -2   -1    0    0    0  501  0.00000000000E+00  0.00000000000E+00  0.38643864397E+03  0.38643864398E+03  0.25500000920E-02 0. -1.
        2   -1    0    0  501    0  0.00000000000E+00  0.00000000000E+00 -0.93228014829E+03  0.93228014830E+03  0.25500000920E-02 0.  1.
    10030    2    1    2    0    0  0.00000000000E+00  0.00000000000E+00 -0.54584150432E+03  0.13187187923E+04  0.12004483768E+04 0.  0.
        5    1    3    3  502    0 -0.29006626328E+03 -0.51866366933E+03 -0.36546134101E+03  0.69766361575E+03  0.46999998093E+01 0. -1.
       -5    1    3    3    0  502  0.29006626328E+03  0.51866366933E+03 -0.18038016331E+03  0.62105517652E+03  0.46999998093E+01 0.  1.
</event>
<event>
 5   0  0.1023063E-04  0.1200284E+04  0.7818609E-02  0.9112608E-01
        2   -1    0    0  501    0  0.00000000000E+00  0.00000000000E+00  0.13660137780E+04  0.13660137780E+04  0.25500000920E-02 0. -1.
       -2   -1    0    0    0  501  0.00000000000E+00  0.00000000000E+00 -0.26366537496E+03  0.26366537497E+03  0.25500000920E-02 0.  1.
    10030    2    1    2    0    0  0.00000000000E+00  0.00000000000E+00  0.11023484030E+04  0.16296791530E+04  0.12002841913E+04 0.  0.
        3    1    3    3  502    0 -0.22654506145E+03  0.54994308874E+03  0.44246593021E+03  0.74130707222E+03  0.10100000352E+00 0. -1.
       -3    1    3    3    0  502  0.22654506145E+03 -0.54994308874E+03  0.65988247282E+03  0.88837208075E+03  0.10100000352E+00 0.  1.
</event>
<event>
 5   0  0.1004006E-04  0.1199836E+04  0.7818609E-02  0.9113000E-01
       -2   -1    0    0    0  501  0.00000000000E+00  0.00000000000E+00  0.26714262338E+03  0.26714262339E+03  0.25500000920E-02 0.  1.
        2   -1    0    0  501    0  0.00000000000E+00  0.00000000000E+00 -0.13472255320E+04  0.13472255320E+04  0.25500000920E-02 0. -1.
    10030    2    1    2    0    0  0.00000000000E+00  0.00000000000E+00 -0.10800829086E+04  0.16143681554E+04  0.11998355936E+04 0.  0.
        5    1    3    3  502    0  0.51868579021E+03  0.17377179643E+03 -0.20869070195E+03  0.58549593105E+03  0.46999998093E+01 0.  1.
       -5    1    3    3    0  502 -0.51868579021E+03 -0.17377179643E+03 -0.87139220666E+03  0.10288722243E+04  0.46999998093E+01 0. -1.
</event>
<event>
 5   0  0.5447807E-05  0.1200018E+04  0.7818609E-02  0.9112841E-01
        1   -1    0    0  501    0  0.00000000000E+00  0.00000000000E+00  0.60498610318E+03  0.60498610320E+03  0.50400001928E-02 0.  1.
       -1   -1    0    0    0  501  0.00000000000E+00  0.00000000000E+00 -0.59507283649E+03  0.59507283651E+03  0.50400001928E-02 0. -1.
    10030    2    1    2    0    0  0.00000000000E+00  0.00000000000E+00  0.99132666956E+01  0.12000589397E+04  0.12000179940E+04 0.  0.
        2    1    3    3  502    0  0.62381351710E+02 -0.58720364136E+03 -0.10140134200E+03  0.59915088386E+03  0.25500000920E-02 0.  1.
       -2    1    3    3    0  502 -0.62381351710E+02  0.58720364136E+03  0.11131460870E+03  0.60090805585E+03  0.25500000920E-02 0. -1.
</event>
<event>
 5   0  0.1023063E-04  0.1199838E+04  0.7818609E-02  0.9112998E-01
       -2   -1    0    0    0  501  0.00000000000E+00  0.00000000000E+00  0.52378664275E+03  0.52378664276E+03  0.25500000920E-02 0.  1.
        2   -1    0    0  501    0  0.00000000000E+00  0.00000000000E+00 -0.68711712075E+03  0.68711712075E+03  0.25500000920E-02 0. -1.
    10030    2    1    2    0    0  0.00000000000E+00  0.00000000000E+00 -0.16333047800E+03  0.12109037635E+04  0.11998379388E+04 0.  0.
        3    1    3    3  502    0 -0.16282692383E+03 -0.34993390112E+02 -0.66331877897E+03  0.68390712616E+03  0.10100000352E+00 0. -1.
       -3    1    3    3    0  502  0.16282692383E+03  0.34993390112E+02  0.49998830097E+03  0.52699663736E+03  0.10100000352E+00 0.  1.
</event>
<event>
 5   0  0.9838215E-05  0.1200295E+04  0.7818609E-02  0.9112598E-01
       -2   -1    0    0    0  501  0.00000000000E+00  0.00000000000E+00  0.13507227893E+03  0.13507227895E+03  0.25500000920E-02 0. -1.
        2   -1    0    0  501    0  0.00000000000E+00  0.00000000000E+00 -0.26665499573E+04  0.26665499573E+04  0.25500000920E-02 0.  1.
    10030    2    1    2    0    0  0.00000000000E+00  0.00000000000E+00 -0.25314776784E+04  0.28016222363E+04  0.12002949298E+04 0.  0.
        4    1    3    3  502    0 -0.23018359983E+03 -0.54601000314E+03 -0.10435202221E+04  0.12000197831E+04  0.12699999809E+01 0. -1.
       -4    1    3    3    0  502  0.23018359983E+03  0.54601000314E+03 -0.14879574564E+04  0.16016024532E+04  0.12699999809E+01 0.  1.
</event>
<event>
 5   0  0.1023063E-04  0.1200055E+04  0.7818609E-02  0.9112808E-01
       -2   -1    0    0    0  501  0.00000000000E+00  0.00000000000E+00  0.22622846831E+03  0.22622846832E+03  0.25500000920E-02 0.  1.
        2   -1    0    0  501    0  0.00000000000E+00  0.00000000000E+00 -0.15914578965E+04  0.15914578965E+04  0.25500000920E-02 0. -1.
    10030    2    1    2    0    0  0.00000000000E+00  0.00000000000E+00 -0.13652294282E+04  0.18176863649E+04  0.12000551359E+04 0.  0.
        3    1    3    3  502    0  0.30464328378E+02 -0.20460528527E+03 -0.15357401015E+04  0.15496093275E+04  0.10100000352E+00 0. -1.
       -3    1    3    3    0  502 -0.30464328378E+02  0.20460528527E+03  0.17051067332E+03  0.26807703740E+03  0.10100000352E+00 0.  1.
</event>
<event>
 5   0  0.5447807E-05  0.1198538E+04  0.7818609E-02  0.9114137E-01
       -1   -1    0    0    0  501  0.00000000000E+00  0.00000000000E+00  0.22768244531E+03  0.22768244537E+03  0.50400001928E-02 0.  1.
        1   -1    0    0  501    0  0.00000000000E+00  0.00000000000E+00 -0.15772997583E+04  0.15772997583E+04  0.50400001928E-02 0. -1.
    10030    2    1    2    0    0  0.00000000000E+00  0.00000000000E+00 -0.13496173130E+04  0.18049822036E+04  0.11985382197E+04 0.  0.
        2    1    3    3  502    0  0.37689788854E+02  0.32517118917E+03 -0.14307577700E+04  0.14677277059E+04  0.25500000920E-02 0.  1.
       -2    1    3    3    0  502 -0.37689788854E+02 -0.32517118917E+03  0.81140457017E+02  0.33725449770E+03  0.25500000920E-02 0. -1.
</event>
<event>
 5   0  0.9941209E-05  0.1200359E+04  0.7818609E-02  0.9112542E-01
        2   -1    0    0  501    0  0.00000000000E+00  0.00000000000E+00  0.11032381711E+04  0.11032381711E+04  0.25500000920E-02 0. -1.
       -2   -1    0    0    0  501  0.00000000000E+00  0.00000000000E+00 -0.32650746475E+03  0.32650746476E+03  0.25500000920E-02 0.  1.
    10030    2    1    2    0    0  0.00000000000E+00  0.00000000000E+00  0.77673070633E+03  0.14297456358E+04  0.12003591100E+04 0.  0.
        2    1    3    3  502    0 -0.31668758730E+03  0.38180962634E+03  0.79078363841E+03  0.93349257175E+03  0.25500000920E-02 0. -1.
       -2    1    3    3    0  502  0.31668758730E+03 -0.38180962634E+03 -0.14052932089E+02  0.49625306409E+03  0.25500000920E-02 0.  1.
</event>
<event>
 5   0  0.5732931E-05  0.1199345E+04  0.7818609E-02  0.9113430E-01
       -1   -1    0    0    0  501  0.00000000000E+00  0.00000000000E+00  0.38392613557E+03  0.38392613560E+03  0.50400001928E-02 0. -1.
        1   -1    0    0  501    0  0.00000000000E+00  0.00000000000E+00 -0.93665680910E+03  0.93665680911E+03  0.50400001928E-02 0.  1.
    10030    2    1    2    0    0  0.00000000000E+00  0.00000000000E+00 -0.55273067353E+03  0.13205829447E+04  0.11993448697E+04 0.  0.
        4    1    3    3  502    0  0.16614121301E+03  0.57381875677E+03 -0.33394437039E+03  0.68439120662E+03  0.12699999809E+01 0. -1.
       -4    1    3    3    0  502 -0.16614121301E+03 -0.57381875677E+03 -0.21878630314E+03  0.63619173810E+03  0.12699999809E+01 0.  1.
</event>
<event>
 5   0  0.5732931E-05  0.1200197E+04  0.7818609E-02  0.9112684E-01
       -1   -1    0    0    0  501  0.00000000000E+00  0.00000000000E+00  0.27857396467E+03  0.27857396471E+03  0.50400001928E-02 0.  1.
        1   -1    0    0  501    0  0.00000000000E+00  0.00000000000E+00 -0.12927197708E+04  0.12927197708E+04  0.50400001928E-02 0. -1.
    10030    2    1    2    0    0  0.00000000000E+00  0.00000000000E+00 -0.10141458061E+04  0.15712937355E+04  0.12001967702E+04 0.  0.
        4    1    3    3  502    0  0.32709008438E+02  0.16158307227E+03  0.24834326572E+03  0.29808548942E+03  0.12699999809E+01 0.  1.
       -4    1    3    3    0  502 -0.32709008438E+02 -0.16158307227E+03 -0.12624890719E+04  0.12732082461E+04  0.12699999809E+01 0. -1.
</event>
<event>
 5   0  0.9838215E-05  0.1199937E+04  0.7818609E-02  0.9112912E-01
        2   -1    0    0  501    0  0.00000000000E+00  0.00000000000E+00  0.17080166983E+04  0.17080166983E+04  0.25500000920E-02 0. -1.
       -2   -1    0    0    0  501  0.00000000000E+00  0.00000000000E+00 -0.21074852538E+03  0.21074852540E+03  0.25500000920E-02 0.  1.
    10030    2    1    2    0    0  0.00000000000E+00  0.00000000000E+00  0.14972681730E+04  0.19187652237E+04  0.11999366659E+04 0.  0.
        4    1    3    3  502    0  0.47420467562E+03 -0.24407319253E+03  0.11880648430E+04  0.13022831803E+04  0.12699999809E+01 0. -1.
       -4    1    3    3    0  502 -0.47420467562E+03  0.24407319253E+03  0.30920332996E+03  0.61648204341E+03  0.12699999809E+01 0.  1.
</event>
<event>
 5   0  0.5745487E-05  0.1200114E+04  0.7818609E-02  0.9112756E-01
        1   -1    0    0  501    0  0.00000000000E+00  0.00000000000E+00  0.12115673214E+04  0.12115673214E+04  0.50400001928E-02 0. -1.
       -1   -1    0    0    0  501  0.00000000000E+00  0.00000000000E+00 -0.29719243374E+03  0.29719243379E+03  0.50400001928E-02 0.  1.
    10030    2    1    2    0    0  0.00000000000E+00  0.00000000000E+00  0.91437488767E+03  0.15087597552E+04  0.12001143961E+04 0.  0.
        3    1    3    3  502    0 -0.41567786262E+03  0.28341283155E+03  0.46034411016E+02  0.50520302430E+03  0.10100000352E+00 0.  1.
       -3    1    3    3    0  502  0.41567786262E+03 -0.28341283155E+03  0.86834047665E+03  0.10035567309E+04  0.10100000352E+00 0. -1.
</event>
<event>
 5   0  0.3839750E-05  0.1199470E+04  0.7818609E-02  0.9113321E-01
        4   -1    0    0  501    0  0.00000000000E+00  0.00000000000E+00  0.87092343001E+03  0.87092435598E+03  0.12699999809E+01 0. -1.
       -4   -1    0    0    0  501  0.00000000000E+00  0.00000000000E+00 -0.41298694847E+03  0.41298890119E+03  0.12699999809E+01 0.  1.
    10030    2    1    2    0    0  0.00000000000E+00  0.00000000000E+00  0.45793648154E+03  0.12839132572E+04  0.11994696456E+04 0.  0.
        3    1    3    3  502    0  0.19710740151E+03  0.38063478951E+03  0.67795981348E+03  0.80209955094E+03  0.10100000352E+00 0. -1.
       -3    1    3    3    0  502 -0.19710740151E+03 -0.38063478951E+03 -0.22002333194E+03  0.48181370624E+03  0.10100000352E+00 0.  1.
</event>
<event>
 5   0  0.1012657E-04  0.1199928E+04  0.7818609E-02  0.9112920E-01
        2   -1    0    0  501    0  0.00000000000E+00  0.00000000000E+00  0.11267128481E+04  0.11267128481E+04  0.25500000920E-02 0. -1.
       -2   -1    0    0    0  501  0.00000000000E+00  0.00000000000E+00 -0.31947515168E+03  0.31947515169E+03  0.25500000920E-02 0.  1.
    10030    2    1    2    0    0  0.00000000000E+00  0.00000000000E+00  0.80723769639E+03  0.14461879998E+04  0.11999279279E+04 0.  0.
        1    1    3    3  502    0 -0.13397956187E+03  0.13361657532E+03  0.10898090483E+04  0.11061137709E+04  0.50400001928E-02 0. -1.
       -1    1    3    3    0  502  0.13397956187E+03 -0.13361657532E+03 -0.28257135196E+03  0.34007422891E+03  0.50400001928E-02 0.  1.
</event>
<event>
 5   0  0.1023063E-04  0.1200010E+04  0.7818609E-02  0.9112848E-01
        2   -1    0    0  501    0  0.00000000000E+00  0.00000000000E+00  0.75593205730E+03  0.75593205730E+03  0.25500000920E-02 0.  1.
       -2   -1    0    0    0  501  0.00000000000E+00  0.00000000000E+00 -0.47624122966E+03  0.47624122966E+03  0.25500000920E-02 0. -1.
    10030    2    1    2    0    0  0.00000000000E+00  0.00000000000E+00  0.27969082764E+03  0.12321732870E+04  0.12000100208E+04 0.  0.
        3    1    3    3  502    0 -0.41460396486E+03  0.67157932014E+02  0.57981484811E+03  0.71595523868E+03  0.10100000352E+00 0.  1.
       -3    1    3    3    0  502  0.41460396486E+03 -0.67157932014E+02 -0.30012402047E+03  0.51621804828E+03  0.10100000352E+00 0. -1.
</event>
<event>
 5   0  0.9838215E-05  0.1199926E+04  0.7818609E-02  0.9112921E-01
        2   -1    0    0  501    0  0.00000000000E+00  0.00000000000E+00  0.14443199296E+04  0.14443199296E+04  0.25500000920E-02 0. -1.
       -2   -1    0    0    0  501  0.00000000000E+00  0.00000000000E+00 -0.24922166842E+03  0.24922166844E+03  0.25500000920E-02 0.  1.
    10030    2    1    2    0    0  0.00000000000E+00  0.00000000000E+00  0.11950982612E+04  0.16935415981E+04  0.11999263688E+04 0.  0.
        4    1    3    3  502    0  0.98736263466E+02  0.27720938762E+03  0.13354686609E+04  0.13675057775E+04  0.12699999809E+01 0. -1.
       -4    1    3    3    0  502 -0.98736263466E+02 -0.27720938762E+03 -0.14037039968E+03  0.32603582060E+03  0.12699999809E+01 0.  1.
</event>
<event>
 5   0  0.5620246E-05  0.1206631E+04  0.7818609E-02  0.9107072E-01
       -1   -1    0    0    0  501  0.00000000000E+00  0.00000000000E+00  0.50686530324E+03  0.50686530326E+03  0.50400001928E-02 0.  1.
        1   -1    0    0  501    0  0.00000000000E+00  0.00000000000E+00 -0.71811899615E+03  0.71811899617E+03  0.50400001928E-02 0. -1.
    10030    2    1    2    0    0  0.00000000000E+00  0.00000000000E+00 -0.21125369292E+03  0.12249842994E+04  0.12066310170E+04 0.  0.
        1    1    3    3  502    0 -0.13938745586E+03  0.53185353138E+03 -0.35778466422E+03  0.65597782559E+03  0.50400001928E-02 0.  1.
       -1    1    3    3    0  502  0.13938745586E+03 -0.53185353138E+03  0.14653097130E+03  0.56900647384E+03  0.50400001928E-02 0. -1.
</event>
<event>
 5   0  0.9838215E-05  0.1198271E+04  0.7818609E-02  0.9114372E-01
        2   -1    0    0  501    0  0.00000000000E+00  0.00000000000E+00  0.14338486921E+04  0.14338486921E+04  0.25500000920E-02 0.  1.
       -2   -1    0    0    0  501  0.00000000000E+00  0.00000000000E+00 -0.25034932313E+03  0.25034932314E+03  0.25500000920E-02 0. -1.
    10030    2    1    2    0    0  0.00000000000E+00  0.00000000000E+00  0.11834993689E+04  0.16841980152E+04  0.11982705029E+04 0.  0.
        4    1    3    3  502    0 -0.31909708709E+03 -0.31927726302E+03  0.11454628649E+04  0.12311976728E+04  0.12699999809E+01 0.  1.
       -4    1    3    3    0  502  0.31909708709E+03  0.31927726302E+03  0.38036503978E+02  0.45300034239E+03  0.12699999809E+01 0. -1.
</event>
<event>
 5   0  0.5745487E-05  0.1199541E+04  0.7818609E-02  0.9113258E-01
       -1   -1    0    0    0  501  0.00000000000E+00  0.00000000000E+00  0.35212988836E+03  0.35212988839E+03  0.50400001928E-02 0.  1.
        1   -1    0    0  501    0  0.00000000000E+00  0.00000000000E+00 -0.10215680187E+04  0.10215680187E+04  0.50400001928E-02 0. -1.
    10030    2    1    2    0    0  0.00000000000E+00  0.00000000000E+00 -0.66943813036E+03  0.13736979071E+04  0.11995409662E+04 0.  0.
        3    1    3    3  502    0  0.52671001770E+03  0.28598543993E+03 -0.30876833422E+03  0.67420249853E+03  0.10100000352E+00 0.  1.
       -3    1    3    3    0  502 -0.52671001770E+03 -0.28598543993E+03 -0.36066979614E+03  0.69949540859E+03  0.10100000352E+00 0. -1.
</event>
<event>
 5   0  0.1023063E-04  0.1199664E+04  0.7818609E-02  0.9113150E-01
       -2   -1    0    0    0  501  0.00000000000E+00  0.00000000000E+00  0.20115884491E+03  0.20115884493E+03  0.25500000920E-02 0.  1.
        2   -1    0    0  501    0  0.00000000000E+00  0.00000000000E+00 -0.17886297286E+04  0.17886297286E+04  0.25500000920E-02 0. -1.
    10030    2    1    2    0    0  0.00000000000E+00  0.00000000000E+00 -0.15874708837E+04  0.19897885736E+04  0.11996644368E+04 0.  0.
        3    1    3    3  502    0 -0.23272460505E+03  0.57122645695E+02  0.11831749603E+03  0.26725040414E+03  0.10100000352E+00 0.  1.
       -3    1    3    3    0  502  0.23272460505E+03 -0.57122645695E+02 -0.17057883798E+04  0.17225381694E+04  0.10100000352E+00 0. -1.
</event>
<event>
 5   0  0.1023063E-04  0.1200040E+04  0.7818609E-02  0.9112821E-01
       -2   -1    0    0    0  501  0.00000000000E+00  0.00000000000E+00  0.12304840450E+04  0.12304840450E+04  0.25500000920E-02 0.  1.
        2   -1    0    0  501    0  0.00000000000E+00  0.00000000000E+00 -0.29258739035E+03  0.29258739036E+03  0.25500000920E-02 0. -1.
    10030    2    1    2    0    0  0.00000000000E+00  0.00000000000E+00  0.93789665463E+03  0.15230714354E+04  0.12000401920E+04 0.  0.
        3    1    3    3  502    0  0.37206490674E+03  0.25693160687E+03  0.96955717111E+03  0.10698071152E+04  0.10100000352E+00 0.  1.
       -3    1    3    3    0  502 -0.37206490674E+03 -0.25693160687E+03 -0.31660516471E+02  0.45326432018E+03  0.10100000352E+00 0. -1.
</event>
<event>
 5   0  0.5732931E-05  0.1199773E+04  0.7818609E-02  0.9113056E-01
       -1   -1    0    0    0  501  0.00000000000E+00  0.00000000000E+00  0.39142621795E+03  0.39142621798E+03  0.50400001928E-02 0. -1.
        1   -1    0    0  501    0  0.00000000000E+00  0.00000000000E+00 -0.91936509649E+03  0.91936509651E+03  0.50400001928E-02 0.  1.
    10030    2    1    2    0    0  0.00000000000E+00  0.00000000000E+00 -0.52793887855E+03  0.13107913145E+04  0.11997726496E+04 0.  0.
        4    1    3    3  502    0 -0.40317576806E+03  0.44360341295E+03 -0.28905733496E+03  0.66550014555E+03  0.12699999809E+01 0.  1.
       -4    1    3    3    0  502  0.40317576806E+03 -0.44360341295E+03 -0.23888154359E+03  0.64529116893E+03  0.12699999809E+01 0. -1.
</event>
<event>
 5   0  0.5620246E-05  0.1199023E+04  0.7818609E-02  0.9113712E-01
       -1   -1    0    0    0  501  0.00000000000E+00  0.00000000000E+00  0.79659608142E+03  0.79659608143E+03  0.50400001928E-02 0.  1.
        1   -1    0    0  501    0  0.00000000000E+00  0.00000000000E+00 -0.45118748652E+03  0.45118748655E+03  0.50400001928E-02 0. -1.
    10030    2    1    2    0    0  0.00000000000E+00  0.00000000000E+00  0.34540859490E+03  0.12477835680E+04  0.11990232421E+04 0.  0.
        1    1    3    3  502    0  0.13138804534E+03 -0.23341841198E+03  0.73086189583E+03  0.77839969445E+03  0.50400001928E-02 0.  1.
       -1    1    3    3    0  502 -0.13138804534E+03  0.23341841198E+03 -0.38545330093E+03  0.46938387353E+03  0.50400001928E-02 0. -1.
</event>
<event>
 5   0  0.1012657E-04  0.1199644E+04  0.7818609E-02  0.9113168E-01
        2   -1    0    0  501    0  0.00000000000E+00  0.00000000000E+00  0.11014770081E+04  0.11014770081E+04  0.25500000920E-02 0.  1.
       -2   -1    0    0    0  501  0.00000000000E+00  0.00000000000E+00 -0.32663987561E+03  0.32663987562E+03  0.25500000920E-02 0. -1.
    10030    2    1    2    0    0  0.00000000000E+00  0.00000000000E+00  0.77483713247E+03  0.14281168837E+04  0.11996438020E+04 0.  0.
        1    1    3    3  502    0 -0.35986446047E+02  0.20540259417E+03 -0.28209867399E+03  0.35080608872E+03  0.50400001928E-02 0. -1.
       -1    1    3    3    0  502  0.35986446047E+02 -0.20540259417E+03  0.10569358065E+04  0.10773107950E+04  0.50400001928E-02 0.  1.
</event>
<event>
 5   0  0.5732931E-05  0.1200953E+04  0.7818609E-02  0.9112022E-01
        1   -1    0    0  501    0  0.00000000000E+00  0.00000000000E+00  0.43753747248E+03  0.43753747251E+03  0.50400001928E-02 0. -1.
       -1   -1    0    0    0  501  0.00000000000E+00  0.00000000000E+00 -0.82409461476E+03  0.82409461478E+03  0.50400001928E-02 0.  1.
    10030    2    1    2    0    0  0.00000000000E+00  0.00000000000E+00 -0.38655714228E+03  0.12616320873E+04  0.12009534127E+04 0.  0.
        4    1    3    3  502    0 -0.56627297656E+03  0.18471260234E+03 -0.11336380708E+03  0.60633059885E+03  0.12699999809E+01 0. -1.
       -4    1    3    3    0  502  0.56627297656E+03 -0.18471260234E+03 -0.27319333521E+03  0.65530148843E+03  0.12699999809E+01 0.  1.
</event>
<event>
 5   0  0.1004006E-04  0.1200353E+04  0.7818609E-02  0.9112548E-01
       -2   -1    0    0    0  501  0.00000000000E+00  0.00000000000E+00  0.28071919395E+03  0.28071919396E+03  0.25500000920E-02 0.  1.
        2   -1    0    0  501    0  0.00000000000E+00  0.00000000000E+00 -0.12831751922E+04  0.12831751922E+04  0.25500000920E-02 0. -1.
    10030    2    1    2    0    0  0.00000000000E+00  0.00000000000E+00 -0.10024559982E+04  0.15638943861E+04  0.12003531241E+04 0.  0.
        5    1    3    3  502    0 -0.48552413311E+03  0.27741130648E+03 -0.21727851846E+03  0.59993563103E+03  0.46999998093E+01 0.  1.
       -5    1    3    3    0  502  0.48552413311E+03 -0.27741130648E+03 -0.78517747977E+03  0.96395875510E+03  0.46999998093E+01 0. -1.
</event>
<event>
 5   0  0.5447807E-05  0.1204692E+04  0.7818609E-02  0.9108760E-01
       -1   -1    0    0    0  501  0.00000000000E+00  0.00000000000E+00  0.30447515750E+03  0.30447515754E+03  0.50400001928E-02 0.  1.
        1   -1    0    0  501    0  0.00000000000E+00  0.00000000000E+00 -0.11916261004E+04  0.11916261004E+04  0.50400001928E-02 0. -1.
    10030    2    1    2    0    0  0.00000000000E+00  0.00000000000E+00 -0.88715094293E+03  0.14961012580E+04  0.12046917359E+04 0.  0.
        2    1    3    3  502    0  0.25331069002E+03  0.40817587958E+03 -0.89485830862E+03  0.10156501597E+04  0.25500000920E-02 0. -1.
       -2    1    3    3    0  502 -0.25331069002E+03 -0.40817587958E+03  0.77073656934E+01  0.48045109829E+03  0.25500000920E-02 0.  1.
</event>
<event>
 5   0  0.5625746E-05  0.1200166E+04  0.7818609E-02  0.9112712E-01
        1   -1    0    0  501    0  0.00000000000E+00  0.00000000000E+00  0.41723694583E+03  0.41723694586E+03  0.50400001928E-02 0.  1.
       -1   -1    0    0    0  501  0.00000000000E+00  0.00000000000E+00 -0.86305725965E+03  0.86305725967E+03  0.50400001928E-02 0. -1.
    10030    2    1    2    0    0  0.00000000000E+00  0.00000000000E+00 -0.44582031382E+03  0.12802942055E+04  0.12001656138E+04 0.  0.
        5    1    3    3  502    0  0.15549800559E+03 -0.50127825209E+03 -0.53322274016E+03  0.74820324537E+03  0.46999998093E+01 0. -1.
       -5    1    3    3    0  502 -0.15549800559E+03  0.50127825209E+03  0.87402426339E+02  0.53209096016E+03  0.46999998093E+01 0.  1.
</event>
<event>
 5   0  0.5620246E-05  0.1200196E+04  0.7818609E-02  0.9112685E-01
       -1   -1    0    0    0  501  0.00000000000E+00  0.00000000000E+00  0.42440776285E+03  0.42440776288E+03  0.50400001928E-02 0.  1.
        1   -1    0    0  501    0  0.00000000000E+00  0.00000000000E+00 -0.84851852606E+03  0.84851852607E+03  0.50400001928E-02 0. -1.
    10030    2    1    2    0    0  0.00000000000E+00  0.00000000000E+00 -0.42411076321E+03  0.12729262889E+04  0.12001963996E+04 0.  0.
        1    1    3    3  502    0 -0.92640614599E+02  0.57699045833E+03 -0.35677003687E+03  0.68467885298E+03  0.50400001928E-02 0. -1.
       -1    1    3    3    0  502  0.92640614599E+02 -0.57699045833E+03 -0.67340726335E+02  0.58824743597E+03  0.50400001928E-02 0.  1.
</event>
<event>
 5   0  0.1004006E-04  0.1199978E+04  0.7818609E-02  0.9112876E-01
        2   -1    0    0  501    0  0.00000000000E+00  0.00000000000E+00  0.95734749382E+03  0.95734749382E+03  0.25500000920E-02 0.  1.
       -2   -1    0    0    0  501  0.00000000000E+00  0.00000000000E+00 -0.37602506836E+03  0.37602506836E+03  0.25500000920E-02 0. -1.
    10030    2    1    2    0    0  0.00000000000E+00  0.00000000000E+00  0.58132242546E+03  0.13333725622E+04  0.11999777611E+04 0.  0.
        5    1    3    3  502    0  0.10653820682E+03 -0.91217673501E+02 -0.35753300410E+03  0.38408721990E+03  0.46999998093E+01 0. -1.
       -5    1    3    3    0  502 -0.10653820682E+03  0.91217673501E+02  0.93885542956E+03  0.94928534229E+03  0.46999998093E+01 0.  1.
</event>
<event>
 5   0  0.5447807E-05  0.1200071E+04  0.7818609E-02  0.9112794E-01
        1   -1    0    0  501    0  0.00000000000E+00  0.00000000000E+00  0.85173810934E+03  0.85173810935E+03  0.50400001928E-02 0. -1.
       -1   -1    0    0    0  501  0.00000000000E+00  0.00000000000E+00 -0.42271511369E+03  0.42271511372E+03  0.50400001928E-02 0.  1.
    10030    2    1    2    0    0  0.00000000000E+00  0.00000000000E+00  0.42902299565E+03  0.12744532231E+04  0.12000709508E+04 0.  0.
        2    1    3    3  502    0  0.38645355148E+03 -0.89237143085E+02  0.69267800580E+03  0.79819323154E+03  0.25500000920E-02 0. -1.
       -2    1    3    3    0  502 -0.38645355148E+03  0.89237143085E+02 -0.26365501015E+03  0.47625999154E+03  0.25500000920E-02 0.  1.
</event>
<event>
 5   0  0.5745487E-05  0.1199674E+04  0.7818609E-02  0.9113142E-01
       -1   -1    0    0    0  501  0.00000000000E+00  0.00000000000E+00  0.24707422292E+03  0.24707422298E+03  0.50400001928E-02 0.  1.
        1   -1    0    0  501    0  0.00000000000E+00  0.00000000000E+00 -0.14562611026E+04  0.14562611026E+04  0.50400001928E-02 0. -1.
    10030    2    1    2    0    0  0.00000000000E+00  0.00000000000E+00 -0.12091868797E+04  0.17033353256E+04  0.11996742564E+04 0.  0.
        3    1    3    3  502    0 -0.30987630457E+03 -0.37796562617E+03 -0.10983259062E+04  0.12021651905E+04  0.10100000352E+00 0. -1.
       -3    1    3    3    0  502  0.30987630457E+03  0.37796562617E+03 -0.11086097345E+03  0.50117013512E+03  0.10100000352E+00 0.  1.
</event>
<event>
 5   0  0.1023063E-04  0.1199086E+04  0.7818609E-02  0.9113657E-01
       -2   -1    0    0    0  501  0.00000000000E+00  0.00000000000E+00  0.30302452203E+03  0.30302452204E+03  0.25500000920E-02 0.  1.
        2   -1    0    0  501    0  0.00000000000E+00  0.00000000000E+00 -0.11862140973E+04  0.11862140973E+04  0.25500000920E-02 0. -1.
    10030    2    1    2    0    0  0.00000000000E+00  0.00000000000E+00 -0.88318957531E+03  0.14892386194E+04  0.11990862519E+04 0.  0.
        3    1    3    3  502    0 -0.30740169175E+03 -0.40224990233E+02 -0.10789341111E+04  0.11225919456E+04  0.10100000352E+00 0. -1.
       -3    1    3    3    0  502  0.30740169175E+03  0.40224990233E+02  0.19574453579E+03  0.36664667382E+03  0.10100000352E+00 0.  1.
</event>
<event>
 5   0  0.1004006E-04  0.1200887E+04  0.7818609E-02  0.9112081E-01
       -2   -1    0    0    0  501  0.00000000000E+00  0.00000000000E+00  0.55881562537E+03  0.55881562538E+03  0.25500000920E-02 0. -1.
        2   -1    0    0  501    0  0.00000000000E+00  0.00000000000E+00 -0.64517217762E+03  0.64517217762E+03  0.25500000920E-02 0.  1.
    10030    2    1    2    0    0  0.00000000000E+00  0.00000000000E+00 -0.86356552243E+02  0.12039878030E+04  0.12008868288E+04 0.  0.
        5    1    3    3  502    0  0.41343320875E+03 -0.43381942601E+03 -0.58815238230E+01  0.59931877562E+03  0.46999998093E+01 0.  1.
       -5    1    3    3    0  502 -0.41343320875E+03  0.43381942601E+03 -0.80475028420E+02  0.60466902739E+03  0.46999998093E+01 0. -1.
</event>
<event>
 5   0  0.1012657E-04  0.1200257E+04  0.7818609E-02  0.9112631E-01
        2   -1    0    0  501    0  0.00000000000E+00  0.00000000000E+00  0.81645666234E+03  0.81645666234E+03  0.25500000920E-02 0. -1.
       -2   -1    0    0    0  501  0.00000000000E+00  0.00000000000E+00 -0.44111891157E+03  0.44111891158E+03  0.25500000920E-02 0.  1.
    10030    2    1    2    0    0  0.00000000000E+00  0.00000000000E+00  0.37533775077E+03  0.12575755739E+04  0.12002574295E+04 0.  0.
        1    1    3    3  502    0  0.53615227901E+03  0.22894392422E+03  0.38460754420E+02  0.58425492414E+03  0.50400001928E-02 0.  1.
       -1    1    3    3    0  502 -0.53615227901E+03 -0.22894392422E+03  0.33687699635E+03  0.67332064978E+03  0.50400001928E-02 0. -1.
</event>
<event>
 5   0  0.5732931E-05  0.1200149E+04  0.7818609E-02  0.9112727E-01
       -1   -1    0    0    0  501  0.00000000000E+00  0.00000000000E+00  0.32930400490E+03  0.32930400494E+03  0.50400001928E-02 0.  1.
        1   -1    0    0  501    0  0.00000000000E+00  0.00000000000E+00 -0.10934854306E+04  0.10934854306E+04  0.50400001928E-02 0. -1.
    10030    2    1    2    0    0  0.00000000000E+00  0.00000000000E+00 -0.76418142568E+03  0.14227894355E+04  0.12001485435E+04 0.  0.
        4    1    3    3  502    0  0.23260504328E+03 -0.48248689811E+03 -0.70281212807E+03  0.88365446486E+03  0.12699999809E+01 0. -1.
       -4    1    3    3    0  502 -0.23260504328E+03  0.48248689811E+03 -0.61369297616E+02  0.53913497067E+03  0.12699999809E+01 0.  1.
</event>
<event>
 5   0  0.5745487E-05  0.1200648E+04  0.7818609E-02  0.9112290E-01
       -1   -1    0    0    0  501  0.00000000000E+00  0.00000000000E+00  0.55473081363E+03  0.55473081365E+03  0.50400001928E-02 0. -1.
        1   -1    0    0  501    0  0.00000000000E+00  0.00000000000E+00 -0.64966448756E+03  0.64966448758E+03  0.50400001928E-02 0.  1.
    10030    2    1    2    0    0  0.00000000000E+00  0.00000000000E+00 -0.94933673932E+02  0.12043953012E+04  0.12006480080E+04 0.  0.
        3    1    3    3  502    0 -0.41685748597E+03  0.33856473515E+03 -0.31661873464E+03  0.62341292642E+03  0.10100000352E+00 0.  1.
       -3    1    3    3    0  502  0.41685748597E+03 -0.33856473515E+03  0.22168506071E+03  0.58098237481E+03  0.10100000352E+00 0. -1.
</event>
<event>
 5   0  0.5620246E-05  0.1200716E+04  0.7818609E-02  0.9112230E-01
       -1   -1    0    0    0  501  0.00000000000E+00  0.00000000000E+00  0.64093650341E+03  0.64093650343E+03  0.50400001928E-02 0. -1.
        1   -1    0    0  501    0  0.00000000000E+00  0.00000000000E+00 -0.56234811790E+03  0.56234811792E+03  0.50400001928E-02 0.  1.
    10030    2    1    2    0    0  0.00000000000E+00  0.00000000000E+00  0.78588385509E+02  0.12032846213E+04  0.12007155140E+04 0.  0.
        1    1    3    3  502    0  0.46120546000E+03 -0.25766930975E+03  0.32508060747E+03  0.62030746481E+03  0.50400001928E-02 0. -1.
       -1    1    3    3    0  502 -0.46120546000E+03  0.25766930975E+03 -0.24649222196E+03  0.58297715653E+03  0.50400001928E-02 0.  1.
</event>
<event>
 5   0  0.9941209E-05  0.1199978E+04  0.7818609E-02  0.9112876E-01
        2   -1    0    0  501    0  0.00000000000E+00  0.00000000000E+00  0.12172524433E+04  0.12172524433E+04  0.25500000920E-02 0. -1.
       -2   -1    0    0    0  501  0.00000000000E+00  0.00000000000E+00 -0.29573732272E+03  0.29573732273E+03  0.25500000920E-02 0.  1.
    10030    2    1    2    0    0  0.00000000000E+00  0.00000000000E+00  0.92151512057E+03  0.15129897660E+04  0.11999782976E+04 0.  0.
        2    1    3    3  502    0  0.14323882552E+03 -0.57400183804E+03  0.33472634994E+03  0.67973318336E+03  0.25500000920E-02 0.  1.
       -2    1    3    3    0  502 -0.14323882552E+03  0.57400183804E+03  0.58678877063E+03  0.83325658266E+03  0.25500000920E-02 0. -1.
</event>
<event>
 5   0  0.5620246E-05  0.1200390E+04  0.7818609E-02  0.9112515E-01
       -1   -1    0    0    0  501  0.00000000000E+00  0.00000000000E+00  0.40176841817E+03  0.40176841820E+03  0.50400001928E-02 0. -1.
        1   -1    0    0  501    0  0.00000000000E+00  0.00000000000E+00 -0.89662153297E+03  0.89662153298E+03  0.50400001928E-02 0.  1.
    10030    2    1    2    0    0  0.00000000000E+00  0.00000000000E+00 -0.49485311480E+03  0.12983899512E+04  0.12003902949E+04 0.  0.
        1    1    3    3  502    0 -0.32429447032E+03 -0.98990020672E+02  0.28825089846E+03  0.44503315400E+03  0.50400001928E-02 0. -1.
       -1    1    3    3    0  502  0.32429447032E+03  0.98990020672E+02 -0.78310401327E+03  0.85335679718E+03  0.50400001928E-02 0.  1.
</event>
<event>
 5   0  0.3839750E-05  0.1199786E+04  0.7818609E-02  0.9113044E-01
       -4   -1    0    0    0  501  0.00000000000E+00  0.00000000000E+00  0.85923446109E+03  0.85923539965E+03  0.12699999809E+01 0. -1.
        4   -1    0    0  501    0  0.00000000000E+00  0.00000000000E+00 -0.41882571018E+03  0.41882763567E+03  0.12699999809E+01 0.  1.
    10030    2    1    2    0    0  0.00000000000E+00  0.00000000000E+00  0.44040875091E+03  0.12780630353E+04  0.11997855035E+04 0.  0.
        1    1    3    3  502    0 -0.38832547292E+03  0.41183477212E+03  0.85806246635E+01  0.56610792221E+03  0.50400001928E-02 0.  1.
       -1    1    3    3    0  502  0.38832547292E+03 -0.41183477212E+03  0.43182812625E+03  0.71195511311E+03  0.50400001928E-02 0. -1.
</event>
<event>
 5   0  0.5732931E-05  0.1200546E+04  0.7818609E-02  0.9112379E-01
       -1   -1    0    0    0  501  0.00000000000E+00  0.00000000000E+00  0.75402458677E+03  0.75402458679E+03  0.50400001928E-02 0.  1.
        1   -1    0    0  501    0  0.00000000000E+00  0.00000000000E+00 -0.47787274001E+03  0.47787274003E+03  0.50400001928E-02 0. -1.
    10030    2    1    2    0    0  0.00000000000E+00  0.00000000000E+00  0.27615184676E+03  0.12318973268E+04  0.12005462013E+04 0.  0.
        4    1    3    3  502    0  0.68216163389E+02 -0.49865939122E+03 -0.19759286446E+03  0.54070249342E+03  0.12699999809E+01 0. -1.
       -4    1    3    3    0  502 -0.68216163389E+02  0.49865939122E+03  0.47374471123E+03  0.69119483340E+03  0.12699999809E+01 0.  1.
</event>
<event>
 5   0  0.1012657E-04  0.1200176E+04  0.7818609E-02  0.9112702E-01
       -2   -1    0    0    0  501  0.00000000000E+00  0.00000000000E+00  0.52466244924E+03  0.52466244925E+03  0.25500000920E-02 0. -1.
        2   -1    0    0  501    0  0.00000000000E+00  0.00000000000E+00 -0.68635688515E+03  0.68635688515E+03  0.25500000920E-02 0.  1.
    10030    2    1    2    0    0  0.00000000000E+00  0.00000000000E+00 -0.16169443590E+03  0.12110193344E+04  0.12001761278E+04 0.  0.
        1    1    3    3  502    0  0.81463470094E+02 -0.58211652183E+03 -0.20281001415E+03  0.62179405257E+03  0.50400001928E-02 0. -1.
       -1    1    3    3    0  502 -0.81463470094E+02  0.58211652183E+03  0.41115578248E+02  0.58922528183E+03  0.50400001928E-02 0.  1.
</event>
<event>
 5   0  0.1023063E-04  0.1200449E+04  0.7818609E-02  0.9112463E-01
       -2   -1    0    0    0  501  0.00000000000E+00  0.00000000000E+00  0.31767079722E+03  0.31767079723E+03  0.25500000920E-02 0. -1.
        2   -1    0    0  501    0  0.00000000000E+00  0.00000000000E+00 -0.11340972860E+04  0.11340972860E+04  0.25500000920E-02 0.  1.
    10030    2    1    2    0    0  0.00000000000E+00  0.00000000000E+00 -0.81642648876E+03  0.14517680832E+04  0.12004492309E+04 0.  0.
        3    1    3    3  502    0  0.21847454832E+03 -0.19378310439E+03 -0.10423883353E+04  0.10825231968E+04  0.10100000352E+00 0.  1.
       -3    1    3    3    0  502 -0.21847454832E+03  0.19378310439E+03  0.22596184658E+03  0.36924488639E+03  0.10100000352E+00 0. -1.
</event>
<event>
 5   0  0.5447807E-05  0.1200525E+04  0.7818609E-02  0.9112398E-01
       -1   -1    0    0    0  501  0.00000000000E+00  0.00000000000E+00  0.39873055799E+03  0.39873055802E+03  0.50400001928E-02 0.  1.
        1   -1    0    0  501    0  0.00000000000E+00  0.00000000000E+00 -0.90365485120E+03  0.90365485122E+03  0.50400001928E-02 0. -1.
    10030    2    1    2    0    0  0.00000000000E+00  0.00000000000E+00 -0.50492429321E+03  0.13023854092E+04  0.12005245572E+04 0.  0.
        2    1    3    3  502    0  0.43354981772E+03  0.16312481838E+03 -0.66661183456E+03  0.81175519019E+03  0.25500000920E-02 0.  1.
       -2    1    3    3    0  502 -0.43354981772E+03 -0.16312481838E+03  0.16168754135E+03  0.49063021905E+03  0.25500000920E-02 0. -1.
</event>
<event>
 5   0  0.3839750E-05  0.1196259E+04  0.7818609E-02  0.9116138E-01
       -3   -1    0    0    0  501  0.00000000000E+00  0.00000000000E+00  0.46872833916E+03  0.46872835004E+03  0.10100000352E+00 0.  1.
        3   -1    0    0  501    0  0.00000000000E+00  0.00000000000E+00 -0.76325385410E+03  0.76325386078E+03  0.10100000352E+00 0. -1.
    10030    2    1    2    0    0  0.00000000000E+00  0.00000000000E+00 -0.29452551494E+03  0.12319822108E+04  0.11962587048E+04 0.  0.
        4    1    3    3  502    0  0.41773001666E+03 -0.11319010357E+03 -0.57244359123E+03  0.71763754390E+03  0.12699999809E+01 0. -1.
       -4    1    3    3    0  502 -0.41773001666E+03  0.11319010357E+03  0.27791807630E+03  0.51434466693E+03  0.12699999809E+01 0.  1.
</event>
<event>
 5   0  0.5625746E-05  0.1200340E+04  0.7818609E-02  0.9112559E-01
        1   -1    0    0  501    0  0.00000000000E+00  0.00000000000E+00  0.83045173769E+03  0.83045173771E+03  0.50400001928E-02 0.  1.
       -1   -1    0    0    0  501  0.00000000000E+00  0.00000000000E+00 -0.43374435219E+03  0.43374435222E+03  0.50400001928E-02 0. -1.
    10030    2    1    2    0    0  0.00000000000E+00  0.00000000000E+00  0.39670738550E+03  0.12641960899E+04  0.12003395370E+04 0.  0.
        5    1    3    3  502    0 -0.71291904574E+02 -0.40053141626E+02  0.82453758257E+03  0.82859586342E+03  0.46999998093E+01 0.  1.
       -5    1    3    3    0  502  0.71291904574E+02  0.40053141626E+02 -0.42783019707E+03  0.43560022650E+03  0.46999998093E+01 0. -1.
</event>
<event>
 5   0  0.1004006E-04  0.1199969E+04  0.7818609E-02  0.9112884E-01
        2   -1    0    0  501    0  0.00000000000E+00  0.00000000000E+00  0.10045077352E+04  0.10045077352E+04  0.25500000920E-02 0. -1.
       -2   -1    0    0    0  501  0.00000000000E+00  0.00000000000E+00 -0.35836584611E+03  0.35836584612E+03  0.25500000920E-02 0.  1.
    10030    2    1    2    0    0  0.00000000000E+00  0.00000000000E+00  0.64614188911E+03  0.13628735813E+04  0.11999687737E+04 0.  0.
        5    1    3    3  502    0  0.32767345606E+03 -0.37949639189E+03 -0.51163782829E+02  0.50401113870E+03  0.46999998093E+01 0.  1.
       -5    1    3    3    0  502 -0.32767345606E+03  0.37949639189E+03  0.69730567194E+03  0.85886244264E+03  0.46999998093E+01 0. -1.
</event>
<event>
 5   0  0.1012657E-04  0.1198491E+04  0.7818609E-02  0.9114179E-01
       -2   -1    0    0    0  501  0.00000000000E+00  0.00000000000E+00  0.78487977070E+03  0.78487977070E+03  0.25500000920E-02 0. -1.
        2   -1    0    0  501    0  0.00000000000E+00  0.00000000000E+00 -0.45751592390E+03  0.45751592390E+03  0.25500000920E-02 0.  1.
    10030    2    1    2    0    0  0.00000000000E+00  0.00000000000E+00  0.32736384680E+03  0.12423956946E+04  0.11984907066E+04 0.  0.
        1    1    3    3  502    0 -0.26573568212E+03 -0.53639930758E+03  0.13519196828E+03  0.61369091425E+03  0.50400001928E-02 0. -1.
       -1    1    3    3    0  502  0.26573568212E+03  0.53639930758E+03  0.19217187853E+03  0.62870478036E+03  0.50400001928E-02 0.  1.
</event>
<event>
 5   0  0.5625746E-05  0.1199999E+04  0.7818609E-02  0.9112858E-01
       -1   -1    0    0    0  501  0.00000000000E+00  0.00000000000E+00  0.22629415636E+03  0.22629415642E+03  0.50400001928E-02 0. -1.
        1   -1    0    0  501    0  0.00000000000E+00  0.00000000000E+00 -0.15908467707E+04  0.15908467708E+04  0.50400001928E-02 0.  1.
    10030    2    1    2    0    0  0.00000000000E+00  0.00000000000E+00 -0.13645526144E+04  0.18171409272E+04  0.11999988799E+04 0.  0.
        5    1    3    3  502    0 -0.31771057372E+03  0.14225090859E+03  0.57715081493E+02  0.35288588847E+03  0.46999998093E+01 0. -1.
       -5    1    3    3    0  502  0.31771057372E+03 -0.14225090859E+03 -0.14222676959E+04  0.14642550387E+04  0.46999998093E+01 0.  1.
</event>
<event>
 5   0  0.5732931E-05  0.1200219E+04  0.7818609E-02  0.9112665E-01
        1   -1    0    0  501    0  0.00000000000E+00  0.00000000000E+00  0.97667496635E+03  0.97667496636E+03  0.50400001928E-02 0.  1.
       -1   -1    0    0    0  501  0.00000000000E+00  0.00000000000E+00 -0.36873218330E+03  0.36873218333E+03  0.50400001928E-02 0. -1.
    10030    2    1    2    0    0  0.00000000000E+00  0.00000000000E+00  0.60794278305E+03  0.13454071497E+04  0.12002191346E+04 0.  0.
        4    1    3    3  502    0 -0.59244858601E+03  0.49100553635E+02  0.39588863142E+03  0.71423778451E+03  0.12699999809E+01 0. -1.
       -4    1    3    3    0  502  0.59244858601E+03 -0.49100553635E+02  0.21205415164E+03  0.63116936519E+03  0.12699999809E+01 0.  1.
</event>
<event>
 5   0  0.9838215E-05  0.1199861E+04  0.7818609E-02  0.9112978E-01
        2   -1    0    0  501    0  0.00000000000E+00  0.00000000000E+00  0.93832423320E+03  0.93832423320E+03  0.25500000920E-02 0.  1.
       -2   -1    0    0    0  501  0.00000000000E+00  0.00000000000E+00 -0.38357372301E+03  0.38357372302E+03  0.25500000920E-02 0. -1.
    10030    2    1    2    0    0  0.00000000000E+00  0.00000000000E+00  0.55475051018E+03  0.13218979562E+04  0.11998608578E+04 0.  0.
        4    1    3    3  502    0 -0.16606405351E+03 -0.47902573621E+03 -0.75983288601E+02  0.51265777948E+03  0.12699999809E+01 0. -1.
       -4    1    3    3    0  502  0.16606405351E+03  0.47902573621E+03  0.63073379878E+03  0.80924017674E+03  0.12699999809E+01 0.  1.
</event>
<event>
 5   0  0.1012657E-04  0.1200531E+04  0.7818609E-02  0.9112392E-01
       -2   -1    0    0    0  501  0.00000000000E+00  0.00000000000E+00  0.36496804497E+03  0.36496804498E+03  0.25500000920E-02 0. -1.
        2   -1    0    0  501    0  0.00000000000E+00  0.00000000000E+00 -0.98726105466E+03  0.98726105466E+03  0.25500000920E-02 0.  1.
    10030    2    1    2    0    0  0.00000000000E+00  0.00000000000E+00 -0.62229300969E+03  0.13522290996E+04  0.12005311108E+04 0.  0.
        1    1    3    3  502    0 -0.86350048572E+02  0.52852155016E+03 -0.57237460822E+01  0.53555963362E+03  0.50400001928E-02 0. -1.
       -1    1    3    3    0  502  0.86350048572E+02 -0.52852155016E+03 -0.61656926361E+03  0.81666946602E+03  0.50400001928E-02 0.  1.
</event>
<event>
 5   0  0.1004006E-04  0.1199784E+04  0.7818609E-02  0.9113045E-01
       -2   -1    0    0    0  501  0.00000000000E+00  0.00000000000E+00  0.34696341426E+03  0.34696341427E+03  0.25500000920E-02 0.  1.
        2   -1    0    0  501    0  0.00000000000E+00  0.00000000000E+00 -0.10372006399E+04  0.10372006399E+04  0.25500000920E-02 0. -1.
    10030    2    1    2    0    0  0.00000000000E+00  0.00000000000E+00 -0.69023722562E+03  0.13841640541E+04  0.11997844395E+04 0.  0.
        5    1    3    3  502    0 -0.16198318424E+03  0.44470459371E+03 -0.77033572977E+03  0.90412385999E+03  0.46999998093E+01 0. -1.
       -5    1    3    3    0  502  0.16198318424E+03 -0.44470459371E+03  0.80098504153E+02  0.48004019416E+03  0.46999998093E+01 0.  1.
</event>
<event>
 5   0  0.1004006E-04  0.1199826E+04  0.7818609E-02  0.9113009E-01
        2   -1    0    0  501    0  0.00000000000E+00  0.00000000000E+00  0.25031752804E+04  0.25031752804E+04  0.25500000920E-02 0. -1.
       -2   -1    0    0    0  501  0.00000000000E+00  0.00000000000E+00 -0.14377571085E+03  0.14377571087E+03  0.25500000920E-02 0.  1.
    10030    2    1    2    0    0  0.00000000000E+00  0.00000000000E+00  0.23593995695E+04  0.26469509912E+04  0.11998263297E+04 0.  0.
        5    1    3    3  502    0 -0.28110614621E+03  0.17505551535E+03  0.22832158064E+04  0.23071110956E+04  0.46999998093E+01 0. -1.
       -5    1    3    3    0  502  0.28110614621E+03 -0.17505551535E+03  0.76183763115E+02  0.33983989562E+03  0.46999998093E+01 0.  1.
</event>
<event>
 5   0  0.1004006E-04  0.1200085E+04  0.7818609E-02  0.9112782E-01
        2   -1    0    0  501    0  0.00000000000E+00  0.00000000000E+00  0.10739415017E+04  0.10739415017E+04  0.25500000920E-02 0.  1.
       -2   -1    0    0    0  501  0.00000000000E+00  0.00000000000E+00 -0.33526127587E+03  0.33526127588E+03  0.25500000920E-02 0. -1.
    10030    2    1    2    0    0  0.00000000000E+00  0.00000000000E+00  0.73868022587E+03  0.14092027776E+04  0.12000849938E+04 0.  0.
        5    1    3    3  502    0  0.42156303663E+02 -0.16810585909E+03  0.10438888068E+04  0.10581883881E+04  0.46999998093E+01 0.  1.
       -5    1    3    3    0  502 -0.42156303663E+02  0.16810585909E+03 -0.30520858090E+03  0.35101438952E+03  0.46999998093E+01 0. -1.
</event>
<event>
 5   0  0.5625746E-05  0.1199459E+04  0.7818609E-02  0.9113330E-01
       -1   -1    0    0    0  501  0.00000000000E+00  0.00000000000E+00  0.92355634412E+03  0.92355634413E+03  0.50400001928E-02 0.  1.
        1   -1    0    0  501    0  0.00000000000E+00  0.00000000000E+00 -0.38944635940E+03  0.38944635943E+03  0.50400001928E-02 0. -1.
    10030    2    1    2    0    0  0.00000000000E+00  0.00000000000E+00  0.53410998472E+03  0.13130027036E+04  0.11994593048E+04 0.  0.
        5    1    3    3  502    0 -0.25616855028E+03 -0.27292873971E+03 -0.24585134226E+03  0.44785867816E+03  0.46999998093E+01 0. -1.
       -5    1    3    3    0  502  0.25616855028E+03  0.27292873971E+03  0.77996132698E+03  0.86514402541E+03  0.46999998093E+01 0.  1.
</event>
<event>
 5   0  0.1012657E-04  0.1199729E+04  0.7818609E-02  0.9113094E-01
       -2   -1    0    0    0  501  0.00000000000E+00  0.00000000000E+00  0.83145808289E+03  0.83145808290E+03  0.25500000920E-02 0. -1.
        2   -1    0    0  501    0  0.00000000000E+00  0.00000000000E+00 -0.43277891060E+03  0.43277891061E+03  0.25500000920E-02 0.  1.
    10030    2    1    2    0    0  0.00000000000E+00  0.00000000000E+00  0.39867917229E+03  0.12642369935E+04  0.11997291750E+04 0.  0.
        1    1    3    3  502    0  0.18516348960E+02  0.32532186483E+03  0.73006705976E+03  0.79948426044E+03  0.50400001928E-02 0. -1.
       -1    1    3    3    0  502 -0.18516348960E+02 -0.32532186483E+03 -0.33138788747E+03  0.46475273307E+03  0.50400001928E-02 0.  1.
</event>
<event>
 5   0  0.5447807E-05  0.1200114E+04  0.7818609E-02  0.9112757E-01
        1   -1    0    0  501    0  0.00000000000E+00  0.00000000000E+00  0.88485313791E+03  0.88485313792E+03  0.50400001928E-02 0.  1.
       -1   -1    0    0    0  501  0.00000000000E+00  0.00000000000E+00 -0.40692432572E+03  0.40692432575E+03  0.50400001928E-02 0. -1.
    10030    2    1    2    0    0  0.00000000000E+00  0.00000000000E+00  0.47792881218E+03  0.12917774637E+04  0.12001137722E+04 0.  0.
        2    1    3    3  502    0 -0.58824486362E+02 -0.35494469760E+03 -0.27794668041E+03  0.45464317405E+03  0.25500000920E-02 0. -1.
       -2    1    3    3    0  502  0.58824486362E+02  0.35494469760E+03  0.75587549260E+03  0.83713428963E+03  0.25500000920E-02 0.  1.
</event>
<event>
 5   0  0.5447807E-05  0.1200552E+04  0.7818609E-02  0.9112373E-01
       -1   -1    0    0    0  501  0.00000000000E+00  0.00000000000E+00  0.15541741554E+03  0.15541741562E+03  0.50400001928E-02 0.  1.
        1   -1    0    0  501    0  0.00000000000E+00  0.00000000000E+00 -0.23184758816E+04  0.23184758816E+04  0.50400001928E-02 0. -1.
    10030    2    1    2    0    0  0.00000000000E+00  0.00000000000E+00 -0.21630584660E+04  0.24738932972E+04  0.12005524222E+04 0.  0.
        2    1    3    3  502    0 -0.65747999891E+02 -0.55527028461E+03 -0.63155821634E+03  0.84351269646E+03  0.25500000920E-02 0. -1.
       -2    1    3    3    0  502  0.65747999891E+02  0.55527028461E+03 -0.15315002497E+04  0.16303806007E+04  0.25500000920E-02 0.  1.
</event>
<event>
 5   0  0.5745487E-05  0.1199210E+04  0.7818609E-02  0.9113548E-01
       -1   -1    0    0    0  501  0.00000000000E+00  0.00000000000E+00  0.69660528697E+03  0.69660528699E+03  0.50400001928E-02 0.  1.
        1   -1    0    0  501    0  0.00000000000E+00  0.00000000000E+00 -0.51611181189E+03  0.51611181191E+03  0.50400001928E-02 0. -1.
    10030    2    1    2    0    0  0.00000000000E+00  0.00000000000E+00  0.18049347508E+03  0.12127170989E+04  0.11992101014E+04 0.  0.
        3    1    3    3  502    0 -0.15670391338E+03 -0.33677461659E+03  0.56624239354E+03  0.67720286273E+03  0.10100000352E+00 0.  1.
       -3    1    3    3    0  502  0.15670391338E+03  0.33677461659E+03 -0.38574891846E+03  0.53551423617E+03  0.10100000352E+00 0. -1.
</event>
<event>
 5   0  0.1012657E-04  0.1200537E+04  0.7818609E-02  0.9112387E-01
       -2   -1    0    0    0  501  0.00000000000E+00  0.00000000000E+00  0.26376384545E+03  0.26376384546E+03  0.25500000920E-02 0. -1.
        2   -1    0    0  501    0  0.00000000000E+00  0.00000000000E+00 -0.13660789077E+04  0.13660789077E+04  0.25500000920E-02 0.  1.
    10030    2    1    2    0    0  0.00000000000E+00  0.00000000000E+00 -0.11023150622E+04  0.16298427532E+04  0.12005369230E+04 0.  0.
        1    1    3    3  502    0  0.33832081543E+03 -0.18837049185E+03  0.71529970379E+02  0.39377779653E+03  0.50400001928E-02 0. -1.
       -1    1    3    3    0  502 -0.33832081543E+03  0.18837049185E+03 -0.11738450326E+04  0.12360649566E+04  0.50400001928E-02 0.  1.
</event>
<event>
 5   0  0.5732931E-05  0.1200363E+04  0.7818609E-02  0.9112539E-01
       -1   -1    0    0    0  501  0.00000000000E+00  0.00000000000E+00  0.53272288925E+03  0.53272288927E+03  0.50400001928E-02 0. -1.
        1   -1    0    0  501    0  0.00000000000E+00  0.00000000000E+00 -0.67618242219E+03  0.67618242221E+03  0.50400001928E-02 0.  1.
    10030    2    1    2    0    0  0.00000000000E+00  0.00000000000E+00 -0.14345953294E+03  0.12089053115E+04  0.12003630345E+04 0.  0.
        4    1    3    3  502    0  0.57859096442E+03  0.57555036851E+02  0.78111267151E+02  0.58667117650E+03  0.12699999809E+01 0.  1.
       -4    1    3    3    0  502 -0.57859096442E+03 -0.57555036851E+02 -0.22157080009E+03  0.62223413498E+03  0.12699999809E+01 0. -1.
</event>
<event>
 5   0  0.5732931E-05  0.1199263E+04  0.7818609E-02  0.9113502E-01
       -1   -1    0    0    0  501  0.00000000000E+00  0.00000000000E+00  0.38731190809E+03  0.38731190812E+03  0.50400001928E-02 0. -1.
        1   -1    0    0  501    0  0.00000000000E+00  0.00000000000E+00 -0.92834187193E+03  0.92834187195E+03  0.50400001928E-02 0.  1.
    10030    2    1    2    0    0  0.00000000000E+00  0.00000000000E+00 -0.54102996384E+03  0.13156537801E+04  0.11992628766E+04 0.  0.
        4    1    3    3  502    0 -0.41425420220E+03  0.40870393550E+03 -0.42915491967E+03  0.72306362715E+03  0.12699999809E+01 0.  1.
       -4    1    3    3    0  502  0.41425420220E+03 -0.40870393550E+03 -0.11187504418E+03  0.59259015292E+03  0.12699999809E+01 0. -1.
</event>
<event>
 5   0  0.5625746E-05  0.1199779E+04  0.7818609E-02  0.9113050E-01
        1   -1    0    0  501    0  0.00000000000E+00  0.00000000000E+00  0.17310067825E+04  0.17310067825E+04  0.50400001928E-02 0.  1.
       -1   -1    0    0    0  501  0.00000000000E+00  0.00000000000E+00 -0.20789481074E+03  0.20789481080E+03  0.50400001928E-02 0. -1.
    10030    2    1    2    0    0  0.00000000000E+00  0.00000000000E+00  0.15231119717E+04  0.19389015933E+04  0.11997788588E+04 0.  0.
        5    1    3    3  502    0 -0.24084865556E+02 -0.36028583311E+03  0.15356743519E+04  0.15775626033E+04  0.46999998093E+01 0.  1.
       -5    1    3    3    0  502  0.24084865556E+02  0.36028583311E+03 -0.12562380149E+02  0.36133898998E+03  0.46999998093E+01 0. -1.
</event>
<event>
 5   0  0.9941209E-05  0.1200025E+04  0.7818609E-02  0.9112835E-01
        2   -1    0    0  501    0  0.00000000000E+00  0.00000000000E+00  0.85899630179E+03  0.85899630180E+03  0.25500000920E-02 0. -1.
       -2   -1    0    0    0  501  0.00000000000E+00  0.00000000000E+00 -0.41911120289E+03  0.41911120290E+03  0.25500000920E-02 0.  1.
    10030    2    1    2    0    0  0.00000000000E+00  0.00000000000E+00  0.43988509890E+03  0.12781075047E+04  0.12000249553E+04 0.  0.
        2    1    3    3  502    0  0.14255210931E+03  0.58273835105E+03  0.23110716306E+03  0.64289626727E+03  0.25500000920E-02 0. -1.
       -2    1    3    3    0  502 -0.14255210931E+03 -0.58273835105E+03  0.20877793584E+03  0.63521123742E+03  0.25500000920E-02 0.  1.
</event>
<event>
 5   0  0.9838215E-05  0.1199947E+04  0.7818609E-02  0.9112903E-01
        2   -1    0    0  501    0  0.00000000000E+00  0.00000000000E+00  0.49505463515E+03  0.49505463516E+03  0.25500000920E-02 0. -1.
       -2   -1    0    0    0  501  0.00000000000E+00  0.00000000000E+00 -0.72712865556E+03  0.72712865556E+03  0.25500000920E-02 0.  1.
    10030    2    1    2    0    0  0.00000000000E+00  0.00000000000E+00 -0.23207402041E+03  0.12221832907E+04  0.11999473510E+04 0.  0.
        4    1    3    3  502    0 -0.36093460672E+03 -0.50809419583E+02  0.36935612315E+03  0.51892287101E+03  0.12699999809E+01 0. -1.
       -4    1    3    3    0  502  0.36093460672E+03  0.50809419583E+02 -0.60143014356E+03  0.70326041971E+03  0.12699999809E+01 0.  1.
</event>
<event>
 5   0  0.1004006E-04  0.1200272E+04  0.7818609E-02  0.9112618E-01
       -2   -1    0    0    0  501  0.00000000000E+00  0.00000000000E+00  0.14032465661E+04  0.14032465661E+04  0.25500000920E-02 0. -1.
        2   -1    0    0  501    0  0.00000000000E+00  0.00000000000E+00 -0.25666426962E+03  0.25666426963E+03  0.25500000920E-02 0.  1.
    10030    2    1    2    0    0  0.00000000000E+00  0.00000000000E+00  0.11465822965E+04  0.16599108358E+04  0.12002720608E+04 0.  0.
        5    1    3    3  502    0 -0.36013188947E+03  0.24791933500E+03  0.11417846841E+04  0.12226419464E+04  0.46999998093E+01 0. -1.
       -5    1    3    3    0  502  0.36013188947E+03 -0.24791933500E+03  0.47976124554E+01  0.43726888931E+03  0.46999998093E+01 0.  1.
</event>
<event>
 5   0  0.1023063E-04  0.1199854E+04  0.7818609E-02  0.9112985E-01
        2   -1    0    0  501    0  0.00000000000E+00  0.00000000000E+00  0.25828222751E+03  0.25828222752E+03  0.25500000920E-02 0.  1.
       -2   -1    0    0    0  501  0.00000000000E+00  0.00000000000E+00 -0.13934838405E+04  0.13934838405E+04  0.25500000920E-02 0. -1.
    10030    2    1    2    0    0  0.00000000000E+00  0.00000000000E+00 -0.11352016130E+04  0.16517660680E+04  0.11998535083E+04 0.  0.
        3    1    3    3  502    0  0.18406758378E+03  0.55985571063E+03 -0.72208413049E+03  0.93205407237E+03  0.10100000352E+00 0.  1.
       -3    1    3    3    0  502 -0.18406758378E+03 -0.55985571063E+03 -0.41311748249E+03  0.71971199564E+03  0.10100000352E+00 0. -1.
</event>
<event>
 5   0  0.1004006E-04  0.1200583E+04  0.7818609E-02  0.9112346E-01
        2   -1    0    0  501    0  0.00000000000E+00  0.00000000000E+00  0.13161640843E+04  0.13161640843E+04  0.25500000920E-02 0.  1.
       -2   -1    0    0    0  501  0.00000000000E+00  0.00000000000E+00 -0.27378799435E+03  0.27378799436E+03  0.25500000920E-02 0. -1.
    10030    2    1    2    0    0  0.00000000000E+00  0.00000000000E+00  0.10423760900E+04  0.15899520787E+04  0.12005830665E+04 0.  0.
        5    1    3    3  502    0 -0.21857993623E+03  0.49408304728E+03  0.86762427663E+03  0.10221003970E+04  0.46999998093E+01 0.  1.
       -5    1    3    3    0  502  0.21857993623E+03 -0.49408304728E+03  0.17475181332E+03  0.56785168168E+03  0.46999998093E+01 0. -1.
</event>
<event>
 5   0  0.9941209E-05  0.1201954E+04  0.7818609E-02  0.9111148E-01
       -2   -1    0    0    0  501  0.00000000000E+00  0.00000000000E+00  0.32839843815E+03  0.32839843816E+03  0.25500000920E-02 0. -1.
        2   -1    0    0  501    0  0.00000000000E+00  0.00000000000E+00 -0.10998018800E+04  0.10998018800E+04  0.25500000920E-02 0.  1.
    10030    2    1    2    0    0  0.00000000000E+00  0.00000000000E+00 -0.77140344188E+03  0.14282003182E+04  0.12019537756E+04 0.  0.
        2    1    3    3  502    0  0.41524793121E+03 -0.25797302114E+03  0.29656940812E+02  0.48975550855E+03  0.25500000920E-02 0. -1.
       -2    1    3    3    0  502 -0.41524793121E+03  0.25797302114E+03 -0.80106038269E+03  0.93844480964E+03  0.25500000920E-02 0.  1.
</event>
<event>
 5   0  0.5620246E-05  0.1200917E+04  0.7818609E-02  0.9112054E-01
       -1   -1    0    0    0  501  0.00000000000E+00  0.00000000000E+00  0.69489726178E+03  0.69489726180E+03  0.50400001928E-02 0. -1.
        1   -1    0    0  501    0  0.00000000000E+00  0.00000000000E+00 -0.51885410834E+03  0.51885410836E+03  0.50400001928E-02 0.  1.
    10030    2    1    2    0    0  0.00000000000E+00  0.00000000000E+00  0.17604315345E+03  0.12137513702E+04  0.12009168151E+04 0.  0.
        1    1    3    3  502    0  0.50817442557E+03  0.20125068596E+03  0.33928911820E+03  0.64331966484E+03  0.50400001928E-02 0. -1.
       -1    1    3    3    0  502 -0.50817442557E+03 -0.20125068596E+03 -0.16324596476E+03  0.57043170533E+03  0.50400001928E-02 0.  1.
</event>
<event>
 5   0  0.5732931E-05  0.1196847E+04  0.7818609E-02  0.9115621E-01
       -1   -1    0    0    0  501  0.00000000000E+00  0.00000000000E+00  0.48183558575E+03  0.48183558578E+03  0.50400001928E-02 0. -1.
        1   -1    0    0  501    0  0.00000000000E+00  0.00000000000E+00 -0.74322129145E+03  0.74322129147E+03  0.50400001928E-02 0.  1.
    10030    2    1    2    0    0  0.00000000000E+00  0.00000000000E+00 -0.26138570570E+03  0.12250568773E+04  0.11968466340E+04 0.  0.
        4    1    3    3  502    0  0.44386052254E+03  0.30353488184E+03  0.13810553443E+03  0.55517595365E+03  0.12699999809E+01 0. -1.
       -4    1    3    3    0  502 -0.44386052254E+03 -0.30353488184E+03 -0.39949124014E+03  0.66988092361E+03  0.12699999809E+01 0.  1.
</event>
<event>
 5   0  0.9838215E-05  0.1199959E+04  0.7818609E-02  0.9112893E-01
       -2   -1    0    0    0  501  0.00000000000E+00  0.00000000000E+00  0.34509203949E+03  0.34509203950E+03  0.25500000920E-02 0.  1.
        2   -1    0    0  501    0  0.00000000000E+00  0.00000000000E+00 -0.10431284410E+04  0.10431284410E+04  0.25500000920E-02 0. -1.
    10030    2    1    2    0    0  0.00000000000E+00  0.00000000000E+00 -0.69803640152E+03  0.13882204805E+04  0.11999588679E+04 0.  0.
        4    1    3    3  502    0  0.43797855645E+03  0.37688259928E+03 -0.16208825543E+03  0.60011659284E+03  0.12699999809E+01 0.  1.
       -4    1    3    3    0  502 -0.43797855645E+03 -0.37688259928E+03 -0.53594814609E+03  0.78810388767E+03  0.12699999809E+01 0. -1.
</event>
<event>
 5   0  0.9838215E-05  0.1199977E+04  0.7818609E-02  0.9112877E-01
        2   -1    0    0  501    0  0.00000000000E+00  0.00000000000E+00  0.13366524024E+04  0.13366524024E+04  0.25500000920E-02 0. -1.
       -2   -1    0    0    0  501  0.00000000000E+00  0.00000000000E+00 -0.26931914586E+03  0.26931914587E+03  0.25500000920E-02 0.  1.
    10030    2    1    2    0    0  0.00000000000E+00  0.00000000000E+00  0.10673332566E+04  0.16059715483E+04  0.11999768053E+04 0.  0.
        4    1    3    3  502    0 -0.24896831045E+03 -0.43765760344E+03  0.97001836285E+02  0.51277711201E+03  0.12699999809E+01 0.  1.
       -4    1    3    3    0  502  0.24896831045E+03  0.43765760344E+03  0.97033142027E+03  0.10931944363E+04  0.12699999809E+01 0. -1.
</event>
<event>
 5   0  0.5447807E-05  0.1198060E+04  0.7818609E-02  0.9114556E-01
        1   -1    0    0  501    0  0.00000000000E+00  0.00000000000E+00  0.50353602229E+03  0.50353602232E+03  0.50400001928E-02 0. -1.
       -1   -1    0    0    0  501  0.00000000000E+00  0.00000000000E+00 -0.71263454502E+03  0.71263454504E+03  0.50400001928E-02 0.  1.
    10030    2    1    2    0    0  0.00000000000E+00  0.00000000000E+00 -0.20909852273E+03  0.12161705674E+04  0.11980603727E+04 0.  0.
        2    1    3    3  502    0 -0.24760998412E+03  0.43396764725E+03  0.23089796345E+03  0.55041120321E+03  0.25500000920E-02 0. -1.
       -2    1    3    3    0  502  0.24760998412E+03 -0.43396764725E+03 -0.43999648617E+03  0.66575936414E+03  0.25500000920E-02 0.  1.
</event>
<event>
 5   0  0.5447807E-05  0.1199993E+04  0.7818609E-02  0.9112863E-01
        1   -1    0    0  501    0  0.00000000000E+00  0.00000000000E+00  0.48226216662E+03  0.48226216665E+03  0.50400001928E-02 0.  1.
       -1   -1    0    0    0  501  0.00000000000E+00  0.00000000000E+00 -0.74647302057E+03  0.74647302059E+03  0.50400001928E-02 0. -1.
    10030    2    1    2    0    0  0.00000000000E+00  0.00000000000E+00 -0.26421085395E+03  0.12287351872E+04  0.11999928271E+04 0.  0.
        2    1    3    3  502    0  0.50333513031E+03  0.20681224597E+03 -0.39090035978E+03  0.67001541009E+03  0.25500000920E-02 0. -1.
       -2    1    3    3    0  502 -0.50333513031E+03 -0.20681224597E+03  0.12668950583E+03  0.55871977715E+03  0.25500000920E-02 0.  1.
</event>
<event>
 5   0  0.9941209E-05  0.1197575E+04  0.7818609E-02  0.9114982E-01
       -2   -1    0    0    0  501  0.00000000000E+00  0.00000000000E+00  0.17734638355E+04  0.17734638355E+04  0.25500000920E-02 0.  1.
        2   -1    0    0  501    0  0.00000000000E+00  0.00000000000E+00 -0.20217308262E+03  0.20217308263E+03  0.25500000920E-02 0. -1.
    10030    2    1    2    0    0  0.00000000000E+00  0.00000000000E+00  0.15712907529E+04  0.19756369182E+04  0.11975753013E+04 0.  0.
        2    1    3    3  502    0 -0.75102213267E+02  0.36364685113E+03  0.10696113967E+02  0.37147514269E+03  0.25500000920E-02 0. -1.
       -2    1    3    3    0  502  0.75102213267E+02 -0.36364685113E+03  0.15605946389E+04  0.16041617755E+04  0.25500000920E-02 0.  1.
</event>
<event>
 5   0  0.1023063E-04  0.1199743E+04  0.7818609E-02  0.9113081E-01
        2   -1    0    0  501    0  0.00000000000E+00  0.00000000000E+00  0.35613170326E+03  0.35613170327E+03  0.25500000920E-02 0. -1.
       -2   -1    0    0    0  501  0.00000000000E+00  0.00000000000E+00 -0.10104293460E+04  0.10104293460E+04  0.25500000920E-02 0.  1.
    10030    2    1    2    0    0  0.00000000000E+00  0.00000000000E+00 -0.65429764274E+03  0.13665610493E+04  0.11997431792E+04 0.  0.
        3    1    3    3  502    0  0.22013729179E+03  0.54059499011E+03 -0.48474314365E+03  0.75873532677E+03  0.10100000352E+00 0.  1.
       -3    1    3    3    0  502 -0.22013729179E+03 -0.54059499011E+03 -0.16955449909E+03  0.60782572250E+03  0.10100000352E+00 0. -1.
</event>
<event>
 5   0  0.3839750E-05  0.1199960E+04  0.7818609E-02  0.9112892E-01
       -3   -1    0    0    0  501  0.00000000000E+00  0.00000000000E+00  0.94548747902E+03  0.94548748441E+03  0.10100000352E+00 0. -1.
        3   -1    0    0  501    0  0.00000000000E+00  0.00000000000E+00 -0.38073048455E+03  0.38073049795E+03  0.10100000352E+00 0.  1.
    10030    2    1    2    0    0  0.00000000000E+00  0.00000000000E+00  0.56475699447E+03  0.13262179824E+04  0.11999598635E+04 0.  0.
        5    1    3    3  502    0  0.54677011972E+01 -0.54635419928E+03  0.55628775459E+03  0.77975057725E+03  0.46999998093E+01 0. -1.
       -5    1    3    3    0  502 -0.54677011972E+01  0.54635419928E+03  0.84692398785E+01  0.54646740511E+03  0.46999998093E+01 0.  1.
</event>
<event>
 5   0  0.9941209E-05  0.1199936E+04  0.7818609E-02  0.9112912E-01
       -2   -1    0    0    0  501  0.00000000000E+00  0.00000000000E+00  0.25899230238E+03  0.25899230239E+03  0.25500000920E-02 0.  1.
        2   -1    0    0  501    0  0.00000000000E+00  0.00000000000E+00 -0.13898553582E+04  0.13898553582E+04  0.25500000920E-02 0. -1.
    10030    2    1    2    0    0  0.00000000000E+00  0.00000000000E+00 -0.11308630558E+04  0.16488476606E+04  0.11999363970E+04 0.  0.
        2    1    3    3  502    0 -0.13791192690E+03 -0.49207108444E+03 -0.99736690124E+03  0.11206669387E+04  0.25500000920E-02 0. -1.
       -2    1    3    3    0  502  0.13791192690E+03  0.49207108444E+03 -0.13349615459E+03  0.52818072193E+03  0.25500000920E-02 0.  1.
</event>
<event>
 5   0  0.1012657E-04  0.1200360E+04  0.7818609E-02  0.9112541E-01
        2   -1    0    0  501    0  0.00000000000E+00  0.00000000000E+00  0.75613319467E+03  0.75613319467E+03  0.25500000920E-02 0.  1.
       -2   -1    0    0    0  501  0.00000000000E+00  0.00000000000E+00 -0.47639250347E+03  0.47639250347E+03  0.25500000920E-02 0. -1.
    10030    2    1    2    0    0  0.00000000000E+00  0.00000000000E+00  0.27974069120E+03  0.12325256981E+04  0.12003602552E+04 0.  0.
        1    1    3    3  502    0 -0.83727263600E+02 -0.18060745253E+03 -0.44150585267E+03  0.48431056622E+03  0.50400001928E-02 0. -1.
       -1    1    3    3    0  502  0.83727263600E+02  0.18060745253E+03  0.72124654387E+03  0.74821513193E+03  0.50400001928E-02 0.  1.
</event>
<event>
 5   0  0.5745487E-05  0.1199392E+04  0.7818609E-02  0.9113389E-01
        1   -1    0    0  501    0  0.00000000000E+00  0.00000000000E+00  0.18626204944E+04  0.18626204944E+04  0.50400001928E-02 0. -1.
       -1   -1    0    0    0  501  0.00000000000E+00  0.00000000000E+00 -0.19308016083E+03  0.19308016090E+03  0.50400001928E-02 0.  1.
    10030    2    1    2    0    0  0.00000000000E+00  0.00000000000E+00  0.16695403336E+04  0.20557006553E+04  0.11993916203E+04 0.  0.
        3    1    3    3  502    0  0.49436370907E+03 -0.31987089380E+03  0.10296051362E+04  0.11860858368E+04  0.10100000352E+00 0.  1.
       -3    1    3    3    0  502 -0.49436370907E+03  0.31987089380E+03  0.63993519734E+03  0.86961481849E+03  0.10100000352E+00 0. -1.
</event>
<event>
 5   0  0.1004006E-04  0.1200075E+04  0.7818609E-02  0.9112791E-01
        2   -1    0    0  501    0  0.00000000000E+00  0.00000000000E+00  0.77780536229E+03  0.77780536230E+03  0.25500000920E-02 0. -1.
       -2   -1    0    0    0  501  0.00000000000E+00  0.00000000000E+00 -0.46289859119E+03  0.46289859120E+03  0.25500000920E-02 0.  1.
    10030    2    1    2    0    0  0.00000000000E+00  0.00000000000E+00  0.31490677110E+03  0.12407039535E+04  0.12000750084E+04 0.  0.
        5    1    3    3  502    0  0.77324893201E+02  0.58887377639E+03  0.24561313950E+03  0.64272806685E+03  0.46999998093E+01 0.  1.
       -5    1    3    3    0  502 -0.77324893201E+02 -0.58887377639E+03  0.69293631608E+02  0.59797588664E+03  0.46999998093E+01 0. -1.
</event>
<event>
 5   0  0.9838215E-05  0.1199890E+04  0.7818609E-02  0.9112953E-01
        2   -1    0    0  501    0  0.00000000000E+00  0.00000000000E+00  0.10248159764E+04  0.10248159764E+04  0.25500000920E-02 0.  1.
       -2   -1    0    0    0  501  0.00000000000E+00  0.00000000000E+00 -0.35121833114E+03  0.35121833115E+03  0.25500000920E-02 0. -1.
    10030    2    1    2    0    0  0.00000000000E+00  0.00000000000E+00  0.67359764523E+03  0.13760343075E+04  0.11998902566E+04 0.  0.
        4    1    3    3  502    0 -0.17500638371E+03 -0.39014703829E+03 -0.14579914397E+03  0.45177533035E+03  0.12699999809E+01 0. -1.
       -4    1    3    3    0  502  0.17500638371E+03  0.39014703829E+03  0.81939678920E+03  0.92425897717E+03  0.12699999809E+01 0.  1.
</event>
<event>
 5   0  0.9941209E-05  0.1199716E+04  0.7818609E-02  0.9113105E-01
        2   -1    0    0  501    0  0.00000000000E+00  0.00000000000E+00  0.79444059175E+03  0.79444059175E+03  0.25500000920E-02 0. -1.
       -2   -1    0    0    0  501  0.00000000000E+00  0.00000000000E+00 -0.45293495696E+03  0.45293495697E+03  0.25500000920E-02 0.  1.
    10030    2    1    2    0    0  0.00000000000E+00  0.00000000000E+00  0.34150563479E+03  0.12473755487E+04  0.11997164919E+04 0.  0.
        2    1    3    3  502    0  0.47195997250E+03  0.28062366446E+03  0.42187188737E+03  0.69243898364E+03  0.25500000920E-02 0. -1.
       -2    1    3    3    0  502 -0.47195997250E+03 -0.28062366446E+03 -0.80366252584E+02  0.55493656508E+03  0.25500000920E-02 0.  1.
</event>
<event>
 5   0  0.5745487E-05  0.1198949E+04  0.7818609E-02  0.9113777E-01
        1   -1    0    0  501    0  0.00000000000E+00  0.00000000000E+00  0.42644598652E+03  0.42644598655E+03  0.50400001928E-02 0.  1.
       -1   -1    0    0    0  501  0.00000000000E+00  0.00000000000E+00 -0.84270864180E+03  0.84270864181E+03  0.50400001928E-02 0. -1.
    10030    2    1    2    0    0  0.00000000000E+00  0.00000000000E+00 -0.41626265527E+03  0.12691546284E+04  0.11989490700E+04 0.  0.
        3    1    3    3  502    0  0.45157734114E+03 -0.34185829156E+02 -0.62391471077E+03  0.77094769113E+03  0.10100000352E+00 0. -1.
       -3    1    3    3    0  502 -0.45157734114E+03  0.34185829156E+02  0.20765205550E+03  0.49820693723E+03  0.10100000352E+00 0.  1.
</event>
<event>
 5   0  0.5625746E-05  0.1201971E+04  0.7818609E-02  0.9111133E-01
        1   -1    0    0  501    0  0.00000000000E+00  0.00000000000E+00  0.58853629788E+03  0.58853629790E+03  0.50400001928E-02 0.  1.
       -1   -1    0    0    0  501  0.00000000000E+00  0.00000000000E+00 -0.61369767194E+03  0.61369767196E+03  0.50400001928E-02 0. -1.
    10030    2    1    2    0    0  0.00000000000E+00  0.00000000000E+00 -0.25161374057E+02  0.12022339699E+04  0.12019706417E+04 0.  0.
        5    1    3    3  502    0  0.41078585312E+03  0.74182567896E+02  0.41984861629E+03  0.59206673704E+03  0.46999998093E+01 0.  1.
       -5    1    3    3    0  502 -0.41078585312E+03 -0.74182567896E+02 -0.44500999035E+03  0.61016723283E+03  0.46999998093E+01 0. -1.
</event>
<event>
 5   0  0.1012657E-04  0.1199173E+04  0.7818609E-02  0.9113581E-01
        2   -1    0    0  501    0  0.00000000000E+00  0.00000000000E+00  0.97586680705E+03  0.97586680705E+03  0.25500000920E-02 0.  1.
       -2   -1    0    0    0  501  0.00000000000E+00  0.00000000000E+00 -0.36839425958E+03  0.36839425958E+03  0.25500000920E-02 0. -1.
    10030    2    1    2    0    0  0.00000000000E+00  0.00000000000E+00  0.60747254747E+03  0.13442610666E+04  0.11991725978E+04 0.  0.
        1    1    3    3  502    0  0.58154758457E+03 -0.14578842813E+03  0.31180981168E+03  0.67577897095E+03  0.50400001928E-02 0.  1.
       -1    1    3    3    0  502 -0.58154758457E+03  0.14578842813E+03  0.29566273579E+03  0.66848209568E+03  0.50400001928E-02 0. -1.
</event>
<event>
 5   0  0.1004006E-04  0.1199978E+04  0.7818609E-02  0.9112876E-01
        2   -1    0    0  501    0  0.00000000000E+00  0.00000000000E+00  0.22327725738E+04  0.22327725738E+04  0.25500000920E-02 0.  1.
       -2   -1    0    0    0  501  0.00000000000E+00  0.00000000000E+00 -0.16122860837E+03  0.16122860839E+03  0.25500000920E-02 0. -1.
    10030    2    1    2    0    0  0.00000000000E+00  0.00000000000E+00  0.20715439654E+04  0.23940011821E+04  0.11999780246E+04 0.  0.
        5    1    3    3  502    0 -0.32371072421E+03 -0.50165023089E+03  0.11541894808E+04  0.12994679814E+04  0.46999998093E+01 0.  1.
       -5    1    3    3    0  502  0.32371072421E+03  0.50165023089E+03  0.91735448460E+03  0.10945332007E+04  0.46999998093E+01 0. -1.
</event>
<event>
 5   0  0.1004006E-04  0.1199072E+04  0.7818609E-02  0.9113669E-01
        2   -1    0    0  501    0  0.00000000000E+00  0.00000000000E+00  0.14296761284E+04  0.14296761284E+04  0.25500000920E-02 0. -1.
       -2   -1    0    0    0  501  0.00000000000E+00  0.00000000000E+00 -0.25141586246E+03  0.25141586247E+03  0.25500000920E-02 0.  1.
    10030    2    1    2    0    0  0.00000000000E+00  0.00000000000E+00  0.11782602659E+04  0.16810919908E+04  0.11990717357E+04 0.  0.
        5    1    3    3  502    0  0.27231745933E+03  0.31279772283E+02  0.13366521812E+04  0.13644765906E+04  0.46999998093E+01 0. -1.
       -5    1    3    3    0  502 -0.27231745933E+03 -0.31279772283E+02 -0.15839191532E+03  0.31661540021E+03  0.46999998093E+01 0.  1.
</event>
<event>
 5   0  0.5732931E-05  0.1199924E+04  0.7818609E-02  0.9112923E-01
       -1   -1    0    0    0  501  0.00000000000E+00  0.00000000000E+00  0.30762480605E+03  0.30762480609E+03  0.50400001928E-02 0. -1.
        1   -1    0    0  501    0  0.00000000000E+00  0.00000000000E+00 -0.11701076842E+04  0.11701076842E+04  0.50400001928E-02 0.  1.
    10030    2    1    2    0    0  0.00000000000E+00  0.00000000000E+00 -0.86248287812E+03  0.14777324903E+04  0.11999235800E+04 0.  0.
        4    1    3    3  502    0  0.40760426630E+03 -0.43675959143E+03 -0.49928075892E+03  0.77857759263E+03  0.12699999809E+01 0.  1.
       -4    1    3    3    0  502 -0.40760426630E+03  0.43675959143E+03 -0.36320211920E+03  0.69915489765E+03  0.12699999809E+01 0. -1.
</event>
<event>
 5   0  0.5732931E-05  0.1200780E+04  0.7818609E-02  0.9112174E-01
        1   -1    0    0  501    0  0.00000000000E+00  0.00000000000E+00  0.14322996661E+04  0.14322996661E+04  0.50400001928E-02 0. -1.
       -1   -1    0    0    0  501  0.00000000000E+00  0.00000000000E+00 -0.25167083212E+03  0.25167083217E+03  0.50400001928E-02 0.  1.
    10030    2    1    2    0    0  0.00000000000E+00  0.00000000000E+00  0.11806288340E+04  0.16839704983E+04  0.12007798281E+04 0.  0.
        4    1    3    3  502    0 -0.83736674446E+02 -0.56839004951E+03  0.83477990605E+03  0.10133795851E+04  0.12699999809E+01 0.  1.
       -4    1    3    3    0  502  0.83736674446E+02  0.56839004951E+03  0.34584892796E+03  0.67059091322E+03  0.12699999809E+01 0. -1.
</event>
<event>
 5   0  0.5447807E-05  0.1200233E+04  0.7818609E-02  0.9112653E-01
       -1   -1    0    0    0  501  0.00000000000E+00  0.00000000000E+00  0.90353905088E+03  0.90353905090E+03  0.50400001928E-02 0.  1.
        1   -1    0    0  501    0  0.00000000000E+00  0.00000000000E+00 -0.39858779514E+03  0.39858779517E+03  0.50400001928E-02 0. -1.
    10030    2    1    2    0    0  0.00000000000E+00  0.00000000000E+00  0.50495125574E+03  0.13021268461E+04  0.12002327077E+04 0.  0.
        2    1    3    3  502    0  0.18968671383E+03 -0.56190087978E+03  0.15288962391E+03  0.61244500586E+03  0.25500000920E-02 0. -1.
       -2    1    3    3    0  502 -0.18968671383E+03  0.56190087978E+03  0.35206163183E+03  0.68968184021E+03  0.25500000920E-02 0.  1.
</event>
<event>
 5   0  0.1012657E-04  0.1199060E+04  0.7818609E-02  0.9113680E-01
        2   -1    0    0  501    0  0.00000000000E+00  0.00000000000E+00  0.39935023513E+03  0.39935023514E+03  0.25500000920E-02 0. -1.
       -2   -1    0    0    0  501  0.00000000000E+00  0.00000000000E+00 -0.90005272101E+03  0.90005272102E+03  0.25500000920E-02 0.  1.
    10030    2    1    2    0    0  0.00000000000E+00  0.00000000000E+00 -0.50070248588E+03  0.12994029562E+04  0.11990600749E+04 0.  0.
        1    1    3    3  502    0 -0.15360294414E+03  0.83461026670E+02  0.37111770458E+03  0.41022915316E+03  0.50400001928E-02 0. -1.
       -1    1    3    3    0  502  0.15360294414E+03 -0.83461026670E+02 -0.87182019046E+03  0.88917380300E+03  0.50400001928E-02 0.  1.
</event>
<event>
 5   0  0.1004006E-04  0.1200795E+04  0.7818609E-02  0.9112161E-01
        2   -1    0    0  501    0  0.00000000000E+00  0.00000000000E+00  0.56190406252E+03  0.56190406252E+03  0.25500000920E-02 0.  1.
       -2   -1    0    0    0  501  0.00000000000E+00  0.00000000000E+00 -0.64152763873E+03  0.64152763873E+03  0.25500000920E-02 0. -1.
    10030    2    1    2    0    0  0.00000000000E+00  0.00000000000E+00 -0.79623576209E+02  0.12034317013E+04  0.12007947142E+04 0.  0.
        5    1    3    3  502    0  0.21541696589E+03  0.33015149554E+03  0.41400756122E+03  0.57168945236E+03  0.46999998093E+01 0.  1.
       -5    1    3    3    0  502 -0.21541696589E+03 -0.33015149554E+03 -0.49363113743E+03  0.63174224889E+03  0.46999998093E+01 0. -1.
</event>
<event>
 5   0  0.1023063E-04  0.1200085E+04  0.7818609E-02  0.9112782E-01
       -2   -1    0    0    0  501  0.00000000000E+00  0.00000000000E+00  0.39043848919E+03  0.39043848920E+03  0.25500000920E-02 0.  1.
        2   -1    0    0  501    0  0.00000000000E+00  0.00000000000E+00 -0.92217162930E+03  0.92217162931E+03  0.25500000920E-02 0. -1.
    10030    2    1    2    0    0  0.00000000000E+00  0.00000000000E+00 -0.53173314011E+03  0.13126101185E+04  0.12000854932E+04 0.  0.
        3    1    3    3  502    0  0.31221900364E+03 -0.21195810543E+03  0.24440016073E+03  0.44959803542E+03  0.10100000352E+00 0.  1.
       -3    1    3    3    0  502 -0.31221900364E+03  0.21195810543E+03 -0.77613330084E+03  0.86301208309E+03  0.10100000352E+00 0. -1.
</event>
<event>
 5   0  0.5732931E-05  0.1199858E+04  0.7818609E-02  0.9112981E-01
        1   -1    0    0  501    0  0.00000000000E+00  0.00000000000E+00  0.16485118751E+04  0.16485118752E+04  0.50400001928E-02 0. -1.
       -1   -1    0    0    0  501  0.00000000000E+00  0.00000000000E+00 -0.21832693367E+03  0.21832693373E+03  0.50400001928E-02 0.  1.
    10030    2    1    2    0    0  0.00000000000E+00  0.00000000000E+00  0.14301849415E+04  0.18668388089E+04  0.11998575630E+04 0.  0.
        4    1    3    3  502    0 -0.66118405488E+02 -0.35773247031E+03  0.14573138413E+04  0.15020350891E+04  0.12699999809E+01 0. -1.
       -4    1    3    3    0  502  0.66118405488E+02  0.35773247031E+03 -0.27128899859E+02  0.36480371978E+03  0.12699999809E+01 0.  1.
</event>
<event>
 5   0  0.1012657E-04  0.1199737E+04  0.7818609E-02  0.9113086E-01
       -2   -1    0    0    0  501  0.00000000000E+00  0.00000000000E+00  0.22634654404E+03  0.22634654405E+03  0.25500000920E-02 0.  1.
        2   -1    0    0  501    0  0.00000000000E+00  0.00000000000E+00 -0.15897854123E+04  0.15897854123E+04  0.25500000920E-02 0. -1.
    10030    2    1    2    0    0  0.00000000000E+00  0.00000000000E+00 -0.13634388683E+04  0.18161319564E+04  0.11997373610E+04 0.  0.
        1    1    3    3  502    0 -0.55213759886E+03  0.27143375869E+02 -0.32913749743E+03  0.64336939869E+03  0.50400001928E-02 0.  1.
       -1    1    3    3    0  502  0.55213759886E+03 -0.27143375869E+02 -0.10343013708E+04  0.11727625577E+04  0.50400001928E-02 0. -1.
</event>
<event>
 5   0  0.5732931E-05  0.1199729E+04  0.7818609E-02  0.9113094E-01
       -1   -1    0    0    0  501  0.00000000000E+00  0.00000000000E+00  0.45131236322E+03  0.45131236325E+03  0.50400001928E-02 0. -1.
        1   -1    0    0  501    0  0.00000000000E+00  0.00000000000E+00 -0.79731321622E+03  0.79731321623E+03  0.50400001928E-02 0.  1.
    10030    2    1    2    0    0  0.00000000000E+00  0.00000000000E+00 -0.34600085299E+03  0.12486255795E+04  0.11997288225E+04 0.  0.
        4    1    3    3  502    0 -0.40870786675E+03 -0.22364064383E+03 -0.56626104056E+03  0.73328741764E+03  0.12699999809E+01 0.  1.
       -4    1    3    3    0  502  0.40870786675E+03  0.22364064383E+03  0.22026018757E+03  0.51533816184E+03  0.12699999809E+01 0. -1.
</event>
<event>
 5   0  0.1023063E-04  0.1200088E+04  0.7818609E-02  0.9112780E-01
        2   -1    0    0  501    0  0.00000000000E+00  0.00000000000E+00  0.13543904729E+04  0.13543904730E+04  0.25500000920E-02 0.  1.
       -2   -1    0    0    0  501  0.00000000000E+00  0.00000000000E+00 -0.26584100164E+03  0.26584100166E+03  0.25500000920E-02 0. -1.
    10030    2    1    2    0    0  0.00000000000E+00  0.00000000000E+00  0.10885494713E+04  0.16202314746E+04  0.12000875301E+04 0.  0.
        3    1    3    3  502    0  0.38626831340E+03 -0.17481018711E+03  0.11175336302E+04  0.11952586483E+04  0.10100000352E+00 0.  1.
       -3    1    3    3    0  502 -0.38626831340E+03  0.17481018711E+03 -0.28984158897E+02  0.42497282633E+03  0.10100000352E+00 0. -1.
</event>
<event>
 5   0  0.9838215E-05  0.1200855E+04  0.7818609E-02  0.9112108E-01
        2   -1    0    0  501    0  0.00000000000E+00  0.00000000000E+00  0.18240317078E+04  0.18240317078E+04  0.25500000920E-02 0.  1.
       -2   -1    0    0    0  501  0.00000000000E+00  0.00000000000E+00 -0.19764642139E+03  0.19764642141E+03  0.25500000920E-02 0. -1.
    10030    2    1    2    0    0  0.00000000000E+00  0.00000000000E+00  0.16263852864E+04  0.20216781293E+04  0.12008552612E+04 0.  0.
        4    1    3    3  502    0  0.12355701748E+03  0.58733298004E+03  0.78475337553E+03  0.98796044420E+03  0.12699999809E+01 0. -1.
       -4    1    3    3    0  502 -0.12355701748E+03 -0.58733298004E+03  0.84163191092E+03  0.10337176851E+04  0.12699999809E+01 0.  1.
</event>
<event>
 5   0  0.5620246E-05  0.1199743E+04  0.7818609E-02  0.9113081E-01
        1   -1    0    0  501    0  0.00000000000E+00  0.00000000000E+00  0.58387465302E+03  0.58387465304E+03  0.50400001928E-02 0. -1.
       -1   -1    0    0    0  501  0.00000000000E+00  0.00000000000E+00 -0.61630700006E+03  0.61630700008E+03  0.50400001928E-02 0.  1.
    10030    2    1    2    0    0  0.00000000000E+00  0.00000000000E+00 -0.32432347043E+02  0.12001816531E+04  0.11997433656E+04 0.  0.
        1    1    3    3  502    0  0.29601869539E+03  0.28823405588E+03  0.41884510322E+03  0.58833422432E+03  0.50400001928E-02 0. -1.
       -1    1    3    3    0  502 -0.29601869539E+03 -0.28823405588E+03 -0.45127745026E+03  0.61184742880E+03  0.50400001928E-02 0.  1.
</event>
<event>
 5   0  0.1012657E-04  0.1200366E+04  0.7818609E-02  0.9112536E-01
        2   -1    0    0  501    0  0.00000000000E+00  0.00000000000E+00  0.97315681174E+03  0.97315681175E+03  0.25500000920E-02 0. -1.
       -2   -1    0    0    0  501  0.00000000000E+00  0.00000000000E+00 -0.37015599098E+03  0.37015599099E+03  0.25500000920E-02 0.  1.
    10030    2    1    2    0    0  0.00000000000E+00  0.00000000000E+00  0.60300082077E+03  0.13433128027E+04  0.12003663175E+04 0.  0.
        1    1    3    3  502    0  0.46023922255E+02  0.55733104982E+03  0.54535769695E+03  0.78112170509E+03  0.50400001928E-02 0. -1.
       -1    1    3    3    0  502 -0.46023922255E+02 -0.55733104982E+03  0.57643123817E+02  0.56219109764E+03  0.50400001928E-02 0.  1.
</event>
<event>
 5   0  0.5625746E-05  0.1199493E+04  0.7818609E-02  0.9113301E-01
       -1   -1    0    0    0  501  0.00000000000E+00  0.00000000000E+00  0.20034904799E+04  0.20034904799E+04  0.50400001928E-02 0.  1.
        1   -1    0    0  501    0  0.00000000000E+00  0.00000000000E+00 -0.17953448633E+03  0.17953448640E+03  0.50400001928E-02 0. -1.
    10030    2    1    2    0    0  0.00000000000E+00  0.00000000000E+00  0.18239559935E+04  0.21830249663E+04  0.11994926165E+04 0.  0.
        5    1    3    3  502    0 -0.69591315958E+02  0.26482869488E+03  0.18830514400E+04  0.19028615306E+04  0.46999998093E+01 0.  1.
       -5    1    3    3    0  502  0.69591315958E+02 -0.26482869488E+03 -0.59095446491E+02  0.28016343566E+03  0.46999998093E+01 0. -1.
</event>
<event>
 5   0  0.5625746E-05  0.1206994E+04  0.7818609E-02  0.9106757E-01
       -1   -1    0    0    0  501  0.00000000000E+00  0.00000000000E+00  0.43810004543E+03  0.43810004546E+03  0.50400001928E-02 0.  1.
        1   -1    0    0  501    0  0.00000000000E+00  0.00000000000E+00 -0.83133606647E+03  0.83133606649E+03  0.50400001928E-02 0. -1.
    10030    2    1    2    0    0  0.00000000000E+00  0.00000000000E+00 -0.39323602104E+03  0.12694361119E+04  0.12069935684E+04 0.  0.
        5    1    3    3  502    0  0.19665034531E+03 -0.24953582669E+03  0.34300124192E+03  0.46755901133E+03  0.46999998093E+01 0.  1.
       -5    1    3    3    0  502 -0.19665034531E+03  0.24953582669E+03 -0.73623726297E+03  0.80187710062E+03  0.46999998093E+01 0. -1.
</event>
<event>
 5   0  0.5732931E-05  0.1199639E+04  0.7818609E-02  0.9113173E-01
        1   -1    0    0  501    0  0.00000000000E+00  0.00000000000E+00  0.78203840518E+03  0.78203840520E+03  0.50400001928E-02 0. -1.
       -1   -1    0    0    0  501  0.00000000000E+00  0.00000000000E+00 -0.46005825152E+03  0.46005825155E+03  0.50400001928E-02 0.  1.
    10030    2    1    2    0    0  0.00000000000E+00  0.00000000000E+00  0.32198015366E+03  0.12420966567E+04  0.11996386478E+04 0.  0.
        4    1    3    3  502    0 -0.23095091572E+03  0.48112686254E+03 -0.12248859233E+03  0.54756410719E+03  0.12699999809E+01 0.  1.
       -4    1    3    3    0  502  0.23095091572E+03 -0.48112686254E+03  0.44446874599E+03  0.69453254956E+03  0.12699999809E+01 0. -1.
</event>
<event>
 5   0  0.5745487E-05  0.1201198E+04  0.7818609E-02  0.9111809E-01
        1   -1    0    0  501    0  0.00000000000E+00  0.00000000000E+00  0.15152831518E+04  0.15152831519E+04  0.50400001928E-02 0.  1.
       -1   -1    0    0    0  501  0.00000000000E+00  0.00000000000E+00 -0.23805378569E+03  0.23805378574E+03  0.50400001928E-02 0. -1.
    10030    2    1    2    0    0  0.00000000000E+00  0.00000000000E+00  0.12772293662E+04  0.17533369376E+04  0.12011975537E+04 0.  0.
        3    1    3    3  502    0 -0.78257734547E+01 -0.59987349100E+03  0.59708665669E+03  0.84641711569E+03  0.10100000352E+00 0. -1.
       -3    1    3    3    0  502  0.78257734547E+01  0.59987349100E+03  0.68014270946E+03  0.90691982191E+03  0.10100000352E+00 0.  1.
</event>
<event>
 5   0  0.5745487E-05  0.1199692E+04  0.7818609E-02  0.9113126E-01
        1   -1    0    0  501    0  0.00000000000E+00  0.00000000000E+00  0.47217380221E+03  0.47217380224E+03  0.50400001928E-02 0.  1.
       -1   -1    0    0    0  501  0.00000000000E+00  0.00000000000E+00 -0.76203989295E+03  0.76203989297E+03  0.50400001928E-02 0. -1.
    10030    2    1    2    0    0  0.00000000000E+00  0.00000000000E+00 -0.28986609074E+03  0.12342136952E+04  0.11996920834E+04 0.  0.
        3    1    3    3  502    0 -0.68356845859E+01 -0.22462844345E+03 -0.71709367330E+03  0.75148387253E+03  0.10100000352E+00 0. -1.
       -3    1    3    3    0  502  0.68356845859E+01  0.22462844345E+03  0.42722758256E+03  0.48272982267E+03  0.10100000352E+00 0.  1.
</event>
<event>
 5   0  0.5732931E-05  0.1200915E+04  0.7818609E-02  0.9112056E-01
       -1   -1    0    0    0  501  0.00000000000E+00  0.00000000000E+00  0.71355976340E+03  0.71355976342E+03  0.50400001928E-02 0. -1.
        1   -1    0    0  501    0  0.00000000000E+00  0.00000000000E+00 -0.50528230730E+03  0.50528230733E+03  0.50400001928E-02 0.  1.
    10030    2    1    2    0    0  0.00000000000E+00  0.00000000000E+00  0.20827745610E+03  0.12188420707E+04  0.12009148574E+04 0.  0.
        4    1    3    3  502    0  0.34851688098E+03 -0.41156481379E+03  0.37208335975E+03  0.65520779283E+03  0.12699999809E+01 0. -1.
       -4    1    3    3    0  502 -0.34851688098E+03  0.41156481379E+03 -0.16380590365E+03  0.56363427792E+03  0.12699999809E+01 0.  1.
</event>
<event>
 5   0  0.5745487E-05  0.1199966E+04  0.7818609E-02  0.9112887E-01
        1   -1    0    0  501    0  0.00000000000E+00  0.00000000000E+00  0.70506641926E+03  0.70506641928E+03  0.50400001928E-02 0. -1.
       -1   -1    0    0    0  501  0.00000000000E+00  0.00000000000E+00 -0.51056097685E+03  0.51056097688E+03  0.50400001928E-02 0.  1.
    10030    2    1    2    0    0  0.00000000000E+00  0.00000000000E+00  0.19450544241E+03  0.12156273962E+04  0.11999656658E+04 0.  0.
        3    1    3    3  502    0  0.56056870384E+03 -0.21365604868E+03  0.10703330132E+03  0.60937863160E+03  0.10100000352E+00 0.  1.
       -3    1    3    3    0  502 -0.56056870384E+03  0.21365604868E+03  0.87472141090E+02  0.60624876456E+03  0.10100000352E+00 0. -1.
</event>
<event>
 5   0  0.5620246E-05  0.1200220E+04  0.7818609E-02  0.9112664E-01
       -1   -1    0    0    0  501  0.00000000000E+00  0.00000000000E+00  0.70218964532E+03  0.70218964533E+03  0.50400001928E-02 0.  1.
        1   -1    0    0  501    0  0.00000000000E+00  0.00000000000E+00 -0.51287026565E+03  0.51287026568E+03  0.50400001928E-02 0. -1.
    10030    2    1    2    0    0  0.00000000000E+00  0.00000000000E+00  0.18931937966E+03  0.12150599110E+04  0.12002202964E+04 0.  0.
        1    1    3    3  502    0  0.37986583421E+03 -0.15722780390E+03  0.53723019965E+03  0.67648719261E+03  0.50400001928E-02 0.  1.
       -1    1    3    3    0  502 -0.37986583421E+03  0.15722780390E+03 -0.34791081999E+03  0.53857271840E+03  0.50400001928E-02 0. -1.
</event>
<event>
 5   0  0.5625746E-05  0.1200002E+04  0.7818609E-02  0.9112855E-01
        1   -1    0    0  501    0  0.00000000000E+00  0.00000000000E+00  0.79944374463E+03  0.79944374465E+03  0.50400001928E-02 0. -1.
       -1   -1    0    0    0  501  0.00000000000E+00  0.00000000000E+00 -0.45031473332E+03  0.45031473335E+03  0.50400001928E-02 0.  1.
    10030    2    1    2    0    0  0.00000000000E+00  0.00000000000E+00  0.34912901131E+03  0.12497584780E+04  0.12000021612E+04 0.  0.
        5    1    3    3  502    0  0.93339523614E+02 -0.39722884838E+03 -0.28353288466E+03  0.49690644123E+03  0.46999998093E+01 0.  1.
       -5    1    3    3    0  502 -0.93339523614E+02  0.39722884838E+03  0.63266189597E+03  0.75285203677E+03  0.46999998093E+01 0. -1.
</event>
<event>
 5   0  0.1023063E-04  0.1200048E+04  0.7818609E-02  0.9112815E-01
        2   -1    0    0  501    0  0.00000000000E+00  0.00000000000E+00  0.14803837627E+04  0.14803837627E+04  0.25500000920E-02 0.  1.
       -2   -1    0    0    0  501  0.00000000000E+00  0.00000000000E+00 -0.24319959673E+03  0.24319959674E+03  0.25500000920E-02 0. -1.
    10030    2    1    2    0    0  0.00000000000E+00  0.00000000000E+00  0.12371841660E+04  0.17235833595E+04  0.12000478892E+04 0.  0.
        3    1    3    3  502    0  0.49281229973E+03 -0.49923645088E+02  0.13222614877E+03  0.51267933226E+03  0.10100000352E+00 0. -1.
       -3    1    3    3    0  502 -0.49281229973E+03  0.49923645088E+02  0.11049580172E+04  0.12109040272E+04  0.10100000352E+00 0.  1.
</event>
<event>
 5   0  0.9941209E-05  0.1199770E+04  0.7818609E-02  0.9113057E-01
        2   -1    0    0  501    0  0.00000000000E+00  0.00000000000E+00  0.17838355446E+04  0.17838355446E+04  0.25500000920E-02 0.  1.
       -2   -1    0    0    0  501  0.00000000000E+00  0.00000000000E+00 -0.20173511747E+03  0.20173511749E+03  0.25500000920E-02 0. -1.
    10030    2    1    2    0    0  0.00000000000E+00  0.00000000000E+00  0.15821004272E+04  0.19855706621E+04  0.11997704333E+04 0.  0.
        2    1    3    3  502    0 -0.42574988940E+02  0.49019744186E+03  0.22314099278E+03  0.54027591502E+03  0.25500000920E-02 0. -1.
       -2    1    3    3    0  502  0.42574988940E+02 -0.49019744186E+03  0.13589594344E+04  0.14452947471E+04  0.25500000920E-02 0.  1.
</event>
<event>
 5   0  0.5625746E-05  0.1199588E+04  0.7818609E-02  0.9113217E-01
        1   -1    0    0  501    0  0.00000000000E+00  0.00000000000E+00  0.51871081396E+03  0.51871081399E+03  0.50400001928E-02 0. -1.
       -1   -1    0    0    0  501  0.00000000000E+00  0.00000000000E+00 -0.69355162161E+03  0.69355162163E+03  0.50400001928E-02 0.  1.
    10030    2    1    2    0    0  0.00000000000E+00  0.00000000000E+00 -0.17484080765E+03  0.12122624356E+04  0.11995878062E+04 0.  0.
        5    1    3    3  502    0 -0.23508319118E+03  0.39335831428E+03  0.30362517465E+03  0.54973194092E+03  0.46999998093E+01 0. -1.
       -5    1    3    3    0  502  0.23508319118E+03 -0.39335831428E+03 -0.47846598230E+03  0.66253049470E+03  0.46999998093E+01 0.  1.
</event>
<event>
 5   0  0.1023063E-04  0.1199818E+04  0.7818609E-02  0.9113016E-01
       -2   -1    0    0    0  501  0.00000000000E+00  0.00000000000E+00  0.28641017885E+03  0.28641017887E+03  0.25500000920E-02 0. -1.
        2   -1    0    0  501    0  0.00000000000E+00  0.00000000000E+00 -0.12565571807E+04  0.12565571807E+04  0.25500000920E-02 0.  1.
    10030    2    1    2    0    0  0.00000000000E+00  0.00000000000E+00 -0.97014700186E+03  0.15429673596E+04  0.11998179310E+04 0.  0.
        3    1    3    3  502    0 -0.58881262955E+03 -0.97971419901E+02 -0.56214827602E+03  0.81994475806E+03  0.10100000352E+00 0.  1.
       -3    1    3    3    0  502  0.58881262955E+03  0.97971419901E+02 -0.40799872584E+03  0.72302260153E+03  0.10100000352E+00 0. -1.
</event>
<event>
 5   0  0.1012657E-04  0.1199784E+04  0.7818609E-02  0.9113045E-01
        2   -1    0    0  501    0  0.00000000000E+00  0.00000000000E+00  0.10827743531E+04  0.10827743531E+04  0.25500000920E-02 0. -1.
       -2   -1    0    0    0  501  0.00000000000E+00  0.00000000000E+00 -0.33235969055E+03  0.33235969056E+03  0.25500000920E-02 0.  1.
    10030    2    1    2    0    0  0.00000000000E+00  0.00000000000E+00  0.75041466256E+03  0.14151340437E+04  0.11997842288E+04 0.  0.
        1    1    3    3  502    0 -0.53512452444E+03  0.28049676598E+02  0.57126270184E+02  0.53889558523E+03  0.50400001928E-02 0. -1.
       -1    1    3    3    0  502  0.53512452444E+03 -0.28049676598E+02  0.69328839238E+03  0.87623845844E+03  0.50400001928E-02 0.  1.
</event>
<event>
 5   0  0.9838215E-05  0.1199938E+04  0.7818609E-02  0.9112911E-01
        2   -1    0    0  501    0  0.00000000000E+00  0.00000000000E+00  0.37782822759E+03  0.37782822760E+03  0.25500000920E-02 0.  1.
       -2   -1    0    0    0  501  0.00000000000E+00  0.00000000000E+00 -0.95271470589E+03  0.95271470589E+03  0.25500000920E-02 0. -1.
    10030    2    1    2    0    0  0.00000000000E+00  0.00000000000E+00 -0.57488647830E+03  0.13305429335E+04  0.11999375129E+04 0.  0.
        4    1    3    3  502    0  0.42855658025E+03 -0.30871922295E+03 -0.60301121085E+03  0.80161863402E+03  0.12699999809E+01 0. -1.
       -4    1    3    3    0  502 -0.42855658025E+03  0.30871922295E+03  0.28124732554E+02  0.52892429948E+03  0.12699999809E+01 0.  1.
</event>
<event>
 5   0  0.9941209E-05  0.1199438E+04  0.7818609E-02  0.9113348E-01
        2   -1    0    0  501    0  0.00000000000E+00  0.00000000000E+00  0.11747965773E+04  0.11747965773E+04  0.25500000920E-02 0.  1.
       -2   -1    0    0    0  501  0.00000000000E+00  0.00000000000E+00 -0.30614923779E+03  0.30614923780E+03  0.25500000920E-02 0. -1.
    10030    2    1    2    0    0  0.00000000000E+00  0.00000000000E+00  0.86864733948E+03  0.14809458151E+04  0.11994383297E+04 0.  0.
        2    1    3    3  502    0  0.47633387012E+03  0.34860647870E+03  0.30340684224E+03  0.66368376863E+03  0.25500000920E-02 0.  1.
       -2    1    3    3    0  502 -0.47633387012E+03 -0.34860647870E+03  0.56524049724E+03  0.81726204644E+03  0.25500000920E-02 0. -1.
</event>
<event>
 5   0  0.5625746E-05  0.1199913E+04  0.7818609E-02  0.9112933E-01
       -1   -1    0    0    0  501  0.00000000000E+00  0.00000000000E+00  0.83576191053E+03  0.83576191054E+03  0.50400001928E-02 0. -1.
        1   -1    0    0  501    0  0.00000000000E+00  0.00000000000E+00 -0.43068216689E+03  0.43068216692E+03  0.50400001928E-02 0.  1.
    10030    2    1    2    0    0  0.00000000000E+00  0.00000000000E+00  0.40507974364E+03  0.12664440775E+04  0.11999129146E+04 0.  0.
        5    1    3    3  502    0  0.52891171026E+02 -0.43237657058E+03 -0.23286057720E+03  0.49395659037E+03  0.46999998093E+01 0.  1.
       -5    1    3    3    0  502 -0.52891171026E+02  0.43237657058E+03  0.63794032084E+03  0.77248748709E+03  0.46999998093E+01 0. -1.
</event>
<event>
 5   0  0.9941209E-05  0.1199147E+04  0.7818609E-02  0.9113603E-01
        2   -1    0    0  501    0  0.00000000000E+00  0.00000000000E+00  0.49779853335E+03  0.49779853336E+03  0.25500000920E-02 0. -1.
       -2   -1    0    0    0  501  0.00000000000E+00  0.00000000000E+00 -0.72215649254E+03  0.72215649254E+03  0.25500000920E-02 0.  1.
    10030    2    1    2    0    0  0.00000000000E+00  0.00000000000E+00 -0.22435795919E+03  0.12199550259E+04  0.11991471016E+04 0.  0.
        2    1    3    3  502    0  0.42411483825E+03  0.42380697635E+03 -0.11384867947E+03  0.61028458202E+03  0.25500000920E-02 0.  1.
       -2    1    3    3    0  502 -0.42411483825E+03 -0.42380697635E+03 -0.11050927972E+03  0.60967044388E+03  0.25500000920E-02 0. -1.
</event>
<event>
 5   0  0.5625746E-05  0.1200015E+04  0.7818609E-02  0.9112843E-01
        1   -1    0    0  501    0  0.00000000000E+00  0.00000000000E+00  0.12671587032E+04  0.12671587033E+04  0.50400001928E-02 0. -1.
       -1   -1    0    0    0  501  0.00000000000E+00  0.00000000000E+00 -0.28410750061E+03  0.28410750065E+03  0.50400001928E-02 0.  1.
    10030    2    1    2    0    0  0.00000000000E+00  0.00000000000E+00  0.98305120264E+03  0.15512662039E+04  0.12000154867E+04 0.  0.
        5    1    3    3  502    0  0.30373017085E+02 -0.65322668972E+02 -0.27847282173E+03  0.28767824681E+03  0.46999998093E+01 0.  1.
       -5    1    3    3    0  502 -0.30373017085E+02  0.65322668972E+02  0.12615240244E+04  0.12635879571E+04  0.46999998093E+01 0. -1.
</event>
<event>
 5   0  0.5447807E-05  0.1199833E+04  0.7818609E-02  0.9113003E-01
       -1   -1    0    0    0  501  0.00000000000E+00  0.00000000000E+00  0.23805821518E+03  0.23805821524E+03  0.50400001928E-02 0.  1.
        1   -1    0    0  501    0  0.00000000000E+00  0.00000000000E+00 -0.15118145360E+04  0.15118145360E+04  0.50400001928E-02 0. -1.
    10030    2    1    2    0    0  0.00000000000E+00  0.00000000000E+00 -0.12737563208E+04  0.17498727513E+04  0.11998331054E+04 0.  0.
        2    1    3    3  502    0  0.18413011542E+03 -0.21898958840E+03 -0.14059004033E+04  0.14347181895E+04  0.25500000920E-02 0. -1.
       -2    1    3    3    0  502 -0.18413011542E+03  0.21898958840E+03  0.13214408251E+03  0.31515456173E+03  0.25500000920E-02 0.  1.
</event>
<event>
 5   0  0.5447807E-05  0.1200182E+04  0.7818609E-02  0.9112697E-01
       -1   -1    0    0    0  501  0.00000000000E+00  0.00000000000E+00  0.31037357470E+03  0.31037357474E+03  0.50400001928E-02 0. -1.
        1   -1    0    0  501    0  0.00000000000E+00  0.00000000000E+00 -0.11602444479E+04  0.11602444479E+04  0.50400001928E-02 0.  1.
    10030    2    1    2    0    0  0.00000000000E+00  0.00000000000E+00 -0.84987087321E+03  0.14706180227E+04  0.12001820143E+04 0.  0.
        2    1    3    3  502    0  0.39916497543E+02  0.28896182768E+01 -0.11586073893E+04  0.11592983910E+04  0.25500000920E-02 0.  1.
       -2    1    3    3    0  502 -0.39916497543E+02 -0.28896182768E+01  0.30873651614E+03  0.31131963168E+03  0.25500000920E-02 0. -1.
</event>
<event>
 5   0  0.5447807E-05  0.1199857E+04  0.7818609E-02  0.9112981E-01
        1   -1    0    0  501    0  0.00000000000E+00  0.00000000000E+00  0.11858749779E+04  0.11858749779E+04  0.50400001928E-02 0.  1.
       -1   -1    0    0    0  501  0.00000000000E+00  0.00000000000E+00 -0.30350112585E+03  0.30350112589E+03  0.50400001928E-02 0. -1.
    10030    2    1    2    0    0  0.00000000000E+00  0.00000000000E+00  0.88237385205E+03  0.14893761038E+04  0.11998573098E+04 0.  0.
        2    1    3    3  502    0 -0.43974172713E+03  0.40124283717E+03  0.34874765987E+03  0.68992284440E+03  0.25500000920E-02 0. -1.
       -2    1    3    3    0  502  0.43974172713E+03 -0.40124283717E+03  0.53362619218E+03  0.79945325939E+03  0.25500000920E-02 0.  1.
</event>
<event>
 5   0  0.1012657E-04  0.1201051E+04  0.7818609E-02  0.9111937E-01
        2   -1    0    0  501    0  0.00000000000E+00  0.00000000000E+00  0.86514202603E+03  0.86514202603E+03  0.25500000920E-02 0.  1.
       -2   -1    0    0    0  501  0.00000000000E+00  0.00000000000E+00 -0.41684619273E+03  0.41684619274E+03  0.25500000920E-02 0. -1.
    10030    2    1    2    0    0  0.00000000000E+00  0.00000000000E+00  0.44829583330E+03  0.12819882188E+04  0.12010514722E+04 0.  0.
        1    1    3    3  502    0  0.55147033650E+02  0.53274836292E+03  0.51405564483E+03  0.74237134880E+03  0.50400001928E-02 0.  1.
       -1    1    3    3    0  502 -0.55147033650E+02 -0.53274836292E+03 -0.65759811530E+02  0.53961686997E+03  0.50400001928E-02 0. -1.
</event>
<event>
 5   0  0.9838215E-05  0.1199482E+04  0.7818609E-02  0.9113310E-01
        2   -1    0    0  501    0  0.00000000000E+00  0.00000000000E+00  0.85758705761E+03  0.85758705761E+03  0.25500000920E-02 0.  1.
       -2   -1    0    0    0  501  0.00000000000E+00  0.00000000000E+00 -0.41942003761E+03  0.41942003761E+03  0.25500000920E-02 0. -1.
    10030    2    1    2    0    0  0.00000000000E+00  0.00000000000E+00  0.43816702000E+03  0.12770070952E+04  0.11994818814E+04 0.  0.
        4    1    3    3  502    0 -0.38515564495E+03 -0.44727187998E+03  0.10595874291E+03  0.59968814692E+03  0.12699999809E+01 0. -1.
       -4    1    3    3    0  502  0.38515564495E+03  0.44727187998E+03  0.33220827709E+03  0.67731894830E+03  0.12699999809E+01 0.  1.
</event>
<event>
 5   0  0.5745487E-05  0.1198791E+04  0.7818609E-02  0.9113916E-01
       -1   -1    0    0    0  501  0.00000000000E+00  0.00000000000E+00  0.64802475683E+03  0.64802475685E+03  0.50400001928E-02 0. -1.
        1   -1    0    0  501    0  0.00000000000E+00  0.00000000000E+00 -0.55441520146E+03  0.55441520148E+03  0.50400001928E-02 0.  1.
    10030    2    1    2    0    0  0.00000000000E+00  0.00000000000E+00  0.93609555375E+02  0.12024399583E+04  0.11987906842E+04 0.  0.
        3    1    3    3  502    0  0.58765642913E+03  0.44313892701E+02  0.15654975216E+03  0.60976358934E+03  0.10100000352E+00 0.  1.
       -3    1    3    3    0  502 -0.58765642913E+03 -0.44313892701E+02 -0.62940196787E+02  0.59267636899E+03  0.10100000352E+00 0. -1.
</event>
<event>
 5   0  0.1023063E-04  0.1200877E+04  0.7818609E-02  0.9112089E-01
       -2   -1    0    0    0  501  0.00000000000E+00  0.00000000000E+00  0.59383691650E+03  0.59383691650E+03  0.25500000920E-02 0.  1.
        2   -1    0    0  501    0  0.00000000000E+00  0.00000000000E+00 -0.60711385154E+03  0.60711385154E+03  0.25500000920E-02 0. -1.
    10030    2    1    2    0    0  0.00000000000E+00  0.00000000000E+00 -0.13276935037E+02  0.12009507680E+04  0.12008773752E+04 0.  0.
        3    1    3    3  502    0  0.30816023194E+03  0.50892873952E+02  0.50620257901E+03  0.59480574507E+03  0.10100000352E+00 0.  1.
       -3    1    3    3    0  502 -0.30816023194E+03 -0.50892873952E+02 -0.51947951405E+03  0.60614502298E+03  0.10100000352E+00 0. -1.
</event>
<event>
 5   0  0.5745487E-05  0.1200348E+04  0.7818609E-02  0.9112552E-01
        1   -1    0    0  501    0  0.00000000000E+00  0.00000000000E+00  0.66022413670E+03  0.66022413672E+03  0.50400001928E-02 0. -1.
       -1   -1    0    0    0  501  0.00000000000E+00  0.00000000000E+00 -0.54558606370E+03  0.54558606372E+03  0.50400001928E-02 0.  1.
    10030    2    1    2    0    0  0.00000000000E+00  0.00000000000E+00  0.11463807300E+03  0.12058102004E+04  0.12003484293E+04 0.  0.
        3    1    3    3  502    0  0.21410404385E+03  0.44100041933E+03 -0.29050370391E+03  0.56983710271E+03  0.10100000352E+00 0.  1.
       -3    1    3    3    0  502 -0.21410404385E+03 -0.44100041933E+03  0.40514177692E+03  0.63597309774E+03  0.10100000352E+00 0. -1.
</event>
<event>
 5   0  0.5447807E-05  0.1199684E+04  0.7818609E-02  0.9113133E-01
       -1   -1    0    0    0  501  0.00000000000E+00  0.00000000000E+00  0.41464219811E+03  0.41464219814E+03  0.50400001928E-02 0.  1.
        1   -1    0    0  501    0  0.00000000000E+00  0.00000000000E+00 -0.86776134031E+03  0.86776134033E+03  0.50400001928E-02 0. -1.
    10030    2    1    2    0    0  0.00000000000E+00  0.00000000000E+00 -0.45311914221E+03  0.12824035385E+04  0.11996840744E+04 0.  0.
        2    1    3    3  502    0  0.20704444062E+03  0.28482734307E+03  0.29253306274E+03  0.45778773308E+03  0.25500000920E-02 0.  1.
       -2    1    3    3    0  502 -0.20704444062E+03 -0.28482734307E+03 -0.74565220495E+03  0.82461580539E+03  0.25500000920E-02 0. -1.
</event>
<event>
 5   0  0.9941209E-05  0.1200049E+04  0.7818609E-02  0.9112814E-01
       -2   -1    0    0    0  501  0.00000000000E+00  0.00000000000E+00  0.27584068554E+03  0.27584068555E+03  0.25500000920E-02 0. -1.
        2   -1    0    0  501    0  0.00000000000E+00  0.00000000000E+00 -0.13052076834E+04  0.13052076834E+04  0.25500000920E-02 0.  1.
    10030    2    1    2    0    0  0.00000000000E+00  0.00000000000E+00 -0.10293669979E+04  0.15810483690E+04  0.12000489693E+04 0.  0.
        2    1    3    3  502    0 -0.14162869611E+03  0.52909120740E+03 -0.19187727865E+03  0.58035599711E+03  0.25500000920E-02 0.  1.
       -2    1    3    3    0  502  0.14162869611E+03 -0.52909120740E+03 -0.83748971923E+03  0.10006923719E+04  0.25500000920E-02 0. -1.
</event>
<event>
 5   0  0.5625746E-05  0.1200736E+04  0.7818609E-02  0.9112213E-01
        1   -1    0    0  501    0  0.00000000000E+00  0.00000000000E+00  0.76006635061E+03  0.76006635063E+03  0.50400001928E-02 0.  1.
       -1   -1    0    0    0  501  0.00000000000E+00  0.00000000000E+00 -0.47422401290E+03  0.47422401292E+03  0.50400001928E-02 0. -1.
    10030    2    1    2    0    0  0.00000000000E+00  0.00000000000E+00  0.28584233771E+03  0.12342903636E+04  0.12007359658E+04 0.  0.
        5    1    3    3  502    0  0.54923270486E+03 -0.29100998612E+02 -0.10446181365E+03  0.55985515334E+03  0.46999998093E+01 0. -1.
       -5    1    3    3    0  502 -0.54923270486E+03  0.29100998612E+02  0.39030415136E+03  0.67443521021E+03  0.46999998093E+01 0.  1.
</event>
<event>
 5   0  0.5620246E-05  0.1200116E+04  0.7818609E-02  0.9112755E-01
        1   -1    0    0  501    0  0.00000000000E+00  0.00000000000E+00  0.68982745757E+03  0.68982745759E+03  0.50400001928E-02 0.  1.
       -1   -1    0    0    0  501  0.00000000000E+00  0.00000000000E+00 -0.52197095730E+03  0.52197095733E+03  0.50400001928E-02 0. -1.
    10030    2    1    2    0    0  0.00000000000E+00  0.00000000000E+00  0.16785650027E+03  0.12117984149E+04  0.12001164917E+04 0.  0.
        1    1    3    3  502    0 -0.17033155804E+03  0.57061417873E+03  0.15851552902E+03  0.61623092554E+03  0.50400001928E-02 0. -1.
       -1    1    3    3    0  502  0.17033155804E+03 -0.57061417873E+03  0.93409712505E+01  0.59556748937E+03  0.50400001928E-02 0.  1.
</event>
<event>
 5   0  0.9838215E-05  0.1199110E+04  0.7818609E-02  0.9113636E-01
        2   -1    0    0  501    0  0.00000000000E+00  0.00000000000E+00  0.12173986847E+04  0.12173986847E+04  0.25500000920E-02 0.  1.
       -2   -1    0    0    0  501  0.00000000000E+00  0.00000000000E+00 -0.29527397727E+03  0.29527397728E+03  0.25500000920E-02 0. -1.
    10030    2    1    2    0    0  0.00000000000E+00  0.00000000000E+00  0.92212470739E+03  0.15126726620E+04  0.11991099225E+04 0.  0.
        4    1    3    3  502    0  0.30187797993E+03  0.51684514697E+03  0.50485858818E+03  0.78303449967E+03  0.12699999809E+01 0. -1.
       -4    1    3    3    0  502 -0.30187797993E+03 -0.51684514697E+03  0.41726611921E+03  0.72963816228E+03  0.12699999809E+01 0.  1.
</event>
<event>
 5   0  0.5620246E-05  0.1200091E+04  0.7818609E-02  0.9112777E-01
       -1   -1    0    0    0  501  0.00000000000E+00  0.00000000000E+00  0.49064642444E+03  0.49064642447E+03  0.50400001928E-02 0.  1.
        1   -1    0    0  501    0  0.00000000000E+00  0.00000000000E+00 -0.73383685279E+03  0.73383685280E+03  0.50400001928E-02 0. -1.
    10030    2    1    2    0    0  0.00000000000E+00  0.00000000000E+00 -0.24319042834E+03  0.12244832773E+04  0.12000907099E+04 0.  0.
        1    1    3    3  502    0 -0.33166700164E+03  0.36628375682E+03  0.22574681664E+03  0.54325722797E+03  0.50400001928E-02 0.  1.
       -1    1    3    3    0  502  0.33166700164E+03 -0.36628375682E+03 -0.46893724498E+03  0.68122604930E+03  0.50400001928E-02 0. -1.
</event>
<event>
 5   0  0.9838215E-05  0.1200176E+04  0.7818609E-02  0.9112702E-01
        2   -1    0    0  501    0  0.00000000000E+00  0.00000000000E+00  0.17222522246E+04  0.17222522246E+04  0.25500000920E-02 0. -1.
       -2   -1    0    0    0  501  0.00000000000E+00  0.00000000000E+00 -0.20908995413E+03  0.20908995415E+03  0.25500000920E-02 0.  1.
    10030    2    1    2    0    0  0.00000000000E+00  0.00000000000E+00  0.15131622705E+04  0.19313421787E+04  0.12001760515E+04 0.  0.
        4    1    3    3  502    0  0.57829636252E+03 -0.14302045958E+03  0.87287401323E+03  0.10567838902E+04  0.12699999809E+01 0. -1.
       -4    1    3    3    0  502 -0.57829636252E+03  0.14302045958E+03  0.64028825723E+03  0.87455828852E+03  0.12699999809E+01 0.  1.
</event>
<event>
 5   0  0.1004006E-04  0.1200123E+04  0.7818609E-02  0.9112749E-01
        2   -1    0    0  501    0  0.00000000000E+00  0.00000000000E+00  0.10299365341E+04  0.10299365341E+04  0.25500000920E-02 0. -1.
       -2   -1    0    0    0  501  0.00000000000E+00  0.00000000000E+00 -0.34960747199E+03  0.34960747200E+03  0.25500000920E-02 0.  1.
    10030    2    1    2    0    0  0.00000000000E+00  0.00000000000E+00  0.68032906208E+03  0.13795440061E+04  0.12001225071E+04 0.  0.
        5    1    3    3  502    0  0.58751500416E+03  0.12022829679E+03  0.31653128949E+03  0.67811715115E+03  0.46999998093E+01 0. -1.
       -5    1    3    3    0  502 -0.58751500416E+03 -0.12022829679E+03  0.36379777259E+03  0.70142685492E+03  0.46999998093E+01 0.  1.
</event>
<event>
 5   0  0.5732931E-05  0.1200144E+04  0.7818609E-02  0.9112730E-01
        1   -1    0    0  501    0  0.00000000000E+00  0.00000000000E+00  0.78231758387E+03  0.78231758389E+03  0.50400001928E-02 0.  1.
       -1   -1    0    0    0  501  0.00000000000E+00  0.00000000000E+00 -0.46028163325E+03  0.46028163327E+03  0.50400001928E-02 0. -1.
    10030    2    1    2    0    0  0.00000000000E+00  0.00000000000E+00  0.32203595062E+03  0.12425992172E+04  0.12001440168E+04 0.  0.
        4    1    3    3  502    0 -0.66274035626E+02  0.43245182553E+03 -0.26421496387E+03  0.51109489260E+03  0.12699999809E+01 0. -1.
       -4    1    3    3    0  502  0.66274035626E+02 -0.43245182553E+03  0.58625091450E+03  0.73150432456E+03  0.12699999809E+01 0.  1.
</event>
<event>
 5   0  0.1004006E-04  0.1200738E+04  0.7818609E-02  0.9112211E-01
        2   -1    0    0  501    0  0.00000000000E+00  0.00000000000E+00  0.94392606433E+03  0.94392606434E+03  0.25500000920E-02 0.  1.
       -2   -1    0    0    0  501  0.00000000000E+00  0.00000000000E+00 -0.38185491299E+03  0.38185491300E+03  0.25500000920E-02 0. -1.
    10030    2    1    2    0    0  0.00000000000E+00  0.00000000000E+00  0.56207115134E+03  0.13257809773E+04  0.12007377818E+04 0.  0.
        5    1    3    3  502    0 -0.19313693279E+03  0.56658809511E+03  0.23047650387E+03  0.64145572970E+03  0.46999998093E+01 0.  1.
       -5    1    3    3    0  502  0.19313693279E+03 -0.56658809511E+03  0.33159464747E+03  0.68432524764E+03  0.46999998093E+01 0. -1.
</event>
<event>
 5   0  0.3839750E-05  0.1198314E+04  0.7818609E-02  0.9114333E-01
       -4   -1    0    0    0  501  0.00000000000E+00  0.00000000000E+00  0.29491229069E+03  0.29491502522E+03  0.12699999809E+01 0.  1.
        4   -1    0    0  501    0  0.00000000000E+00  0.00000000000E+00 -0.12172661741E+04  0.12172668366E+04  0.12699999809E+01 0. -1.
    10030    2    1    2    0    0  0.00000000000E+00  0.00000000000E+00 -0.92235388345E+03  0.15121818619E+04  0.11983143565E+04 0.  0.
        5    1    3    3  502    0  0.33114490352E+03  0.45120924779E+03 -0.73100602411E+03  0.92067292221E+03  0.46999998093E+01 0. -1.
       -5    1    3    3    0  502 -0.33114490352E+03 -0.45120924779E+03 -0.19134785934E+03  0.59150893965E+03  0.46999998093E+01 0.  1.
</event>
<event>
 5   0  0.9941209E-05  0.1199977E+04  0.7818609E-02  0.9112877E-01
        2   -1    0    0  501    0  0.00000000000E+00  0.00000000000E+00  0.16727250624E+04  0.16727250624E+04  0.25500000920E-02 0.  1.
       -2   -1    0    0    0  501  0.00000000000E+00  0.00000000000E+00 -0.21520946591E+03  0.21520946593E+03  0.25500000920E-02 0. -1.
    10030    2    1    2    0    0  0.00000000000E+00  0.00000000000E+00  0.14575155965E+04  0.18879345284E+04  0.11999771120E+04 0.  0.
        2    1    3    3  502    0 -0.26212518491E+03 -0.21481068491E+03  0.15077172989E+04  0.15453364346E+04  0.25500000920E-02 0.  1.
       -2    1    3    3    0  502  0.26212518491E+03  0.21481068491E+03 -0.50201702323E+02  0.34259809375E+03  0.25500000920E-02 0. -1.
</event>
<event>
 5   0  0.5745487E-05  0.1200406E+04  0.7818609E-02  0.9112501E-01
        1   -1    0    0  501    0  0.00000000000E+00  0.00000000000E+00  0.58302466217E+03  0.58302466219E+03  0.50400001928E-02 0. -1.
       -1   -1    0    0    0  501  0.00000000000E+00  0.00000000000E+00 -0.61788780474E+03  0.61788780476E+03  0.50400001928E-02 0.  1.
    10030    2    1    2    0    0  0.00000000000E+00  0.00000000000E+00 -0.34863142574E+02  0.12009124669E+04  0.12004063123E+04 0.  0.
        3    1    3    3  502    0 -0.19799952936E+03 -0.27500104686E+03 -0.51303366170E+03  0.61484383192E+03  0.10100000352E+00 0.  1.
       -3    1    3    3    0  502  0.19799952936E+03  0.27500104686E+03  0.47817051913E+03  0.58606863503E+03  0.10100000352E+00 0. -1.
</event>
</LesHouchesEvents>
