<LesHouchesEvents version="3.0">
<header>
<!--
#*********************************************************************
#                                                                    *
#                        MadGraph5_aMC@NLO                           *
#                                                                    *
#                           Going Beyond                             *
#                                                                    *
#                   http://madgraph.hep.uiuc.edu                     *
#                   http://madgraph.phys.ucl.ac.be                   *
#                   http://amcatnlo.cern.ch                          *
#                                                                    *
#                     The MadGraph5_aMC@NLO team                     *
#                                                                    *
#....................................................................*
#                                                                    *
# This file contains all the information necessary to reproduce      *
# the events generated:                                              *
#                                                                    *
# 1. software version                                                *
# 2. proc_card          : code generation info including model       *
# 3. param_card         : model primary parameters in the LH format  *
# 4. run_card           : running parameters (collider and cuts)     *
# 5. pythia_card        : present only if pythia has been run        *
# 6. pgs_card           : present only if pgs has been run           *
# 7. delphes_cards      : present only if delphes has been run       *
#                                                                    *
#                                                                    *
#*********************************************************************
-->
<MGVersion>
#5.2.2.3
</MGVersion>
<MG5ProcCard>
#************************************************************
#*                     MadGraph5_aMC@NLO                    *
#*                                                          *
#*                *                       *                 *
#*                  *        * *        *                   *
#*                    * * * * 5 * * * *                     *
#*                  *        * *        *                   *
#*                *                       *                 *
#*                                                          *
#*                                                          *
#*         VERSION 2.2.3                 2015-02-10         *
#*                                                          *
#*    The MadGraph5_aMC@NLO Development Team - Find us at   *
#*    https://server06.fynu.ucl.ac.be/projects/madgraph     *
#*                                                          *
#************************************************************
#*                                                          *
#*               Command File for MadGraph5_aMC@NLO         *
#*                                                          *
#*     run as ./bin/mg5_aMC  filename                       *
#*                                                          *
#************************************************************
set group_subprocesses Auto
set ignore_six_quark_processes False
set loop_optimized_output True
set gauge unitary
set complex_mass_scheme False
import model sm
define p = g u c d s u~ c~ d~ s~
define j = g u c d s u~ c~ d~ s~
define l+ = e+ mu+
define l- = e- mu-
define vl = ve vm vt
define vl~ = ve~ vm~ vt~
import model Zprime_UFO
generate p p > zph, zph > j j
add process p p > zph, zph > b b~
output Dijet_signal
</MG5ProcCard>
<MGProcCard>
#*********************************************************************
#                        MadGraph/MadEvent                           *
#                   http://madgraph.hep.uiuc.edu                     *
#                                                                    *
#                          proc_card.dat                             *
#*********************************************************************
#                                                                    *
#            This Files is generated by MADGRAPH 5                   *
#                                                                    *
# WARNING: This Files is generated for MADEVENT (compatibility issue)*
#          This files is NOT a valid MG4 proc_card.dat               *
#          Running this in MG4 will NEVER reproduce the result of MG5*
#                                                                    *
#*********************************************************************
#*********************************************************************
# Process(es) requested : mg2 input                                  *
#*********************************************************************
# Begin PROCESS # This is TAG. Do not modify this line
p p > zph , zph > j j           #Process
# Be carefull the coupling are here in MG5 convention
          
end_coup           # End the couplings input

done               # this tells MG there are no more procs
# End PROCESS  # This is TAG. Do not modify this line
#*********************************************************************
# Model information                                                  *
#*********************************************************************
# Begin MODEL  # This is TAG. Do not modify this line
Zprime_UFO
# End   MODEL  # This is TAG. Do not modify this line
#*********************************************************************
# Start multiparticle definitions                                    *
#*********************************************************************
# Begin MULTIPARTICLES # This is TAG. Do not modify this line

# End  MULTIPARTICLES # This is TAG. Do not modify this line
</MGProcCard>
<MGRunCard>
#*********************************************************************
#                       MadGraph5_aMC@NLO                            *
#                                                                    *
#                     run_card.dat MadEvent                          *
#                                                                    *
#  This file is used to set the parameters of the run.               *
#                                                                    *
#  Some notation/conventions:                                        *
#                                                                    *
#   Lines starting with a '# ' are info or comments                  *
#                                                                    *
#   mind the format:   value    = variable     ! comment             *
#*********************************************************************
#
#*******************                                                 
# Running parameters
#*******************                                                 
#                                                                    
#*********************************************************************
# Tag name for the run (one word)                                    *
#*********************************************************************
  tag_1     = run_tag ! name of the run 
#*********************************************************************
# Run to generate the grid pack                                      *
#*********************************************************************
  .false.     = gridpack  !True = setting up the grid pack
#*********************************************************************
# Number of events and rnd seed                                      *
# Warning: Do not generate more than 1M events in a single run       *
# If you want to run Pythia, avoid more than 50k events in a run.    *
#*********************************************************************
  2000 = nevents ! Number of unweighted events requested 
 1722 = iseed   ! rnd seed (0=assigned automatically=default))
#*********************************************************************
# Collider type and energy                                           *
# lpp: 0=No PDF, 1=proton, -1=antiproton, 2=photon from proton,      *
#                                         3=photon from electron     *
#*********************************************************************
        1     = lpp1    ! beam 1 type 
        1     = lpp2    ! beam 2 type
     4000     = ebeam1  ! beam 1 total energy in GeV
     4000     = ebeam2  ! beam 2 total energy in GeV
#*********************************************************************
# Beam polarization from -100 (left-handed) to 100 (right-handed)    *
#*********************************************************************
        0     = polbeam1 ! beam polarization for beam 1
        0     = polbeam2 ! beam polarization for beam 2
#*********************************************************************
# PDF CHOICE: this automatically fixes also alpha_s and its evol.    *
#*********************************************************************
 'nn23lo1'    = pdlabel     ! PDF set                                     
 230000    = lhaid     ! if pdlabel=lhapdf, this is the lhapdf number
#*********************************************************************
# Renormalization and factorization scales                           *
#*********************************************************************
 F        = fixed_ren_scale  ! if .true. use fixed ren scale
 F        = fixed_fac_scale  ! if .true. use fixed fac scale
 91.1880  = scale            ! fixed ren scale
 91.1880  = dsqrt_q2fact1    ! fixed fact scale for pdf1
 91.1880  = dsqrt_q2fact2    ! fixed fact scale for pdf2
 1        = scalefact        ! scale factor for event-by-event scales
#*********************************************************************
# Matching - Warning! ickkw > 1 is still beta
#*********************************************************************
 0        = ickkw            ! 0 no matching, 1 MLM, 2 CKKW matching
 1        = highestmult      ! for ickkw=2, highest mult group
 1        = ktscheme         ! for ickkw=1, 1 Durham kT, 2 Pythia pTE
 1        = alpsfact         ! scale factor for QCD emission vx
 F        = chcluster        ! cluster only according to channel diag
 T        = pdfwgt           ! for ickkw=1, perform pdf reweighting
 5        = asrwgtflavor     ! highest quark flavor for a_s reweight
 T        = clusinfo         ! include clustering tag in output
 3.0      = lhe_version       ! Change the way clustering information pass to shower.        
#*********************************************************************
#**********************************************************
#
#**********************************************************
# Automatic ptj and mjj cuts if xqcut > 0
# (turn off for VBF and single top processes)
#**********************************************************
   T  = auto_ptj_mjj  ! Automatic setting of ptj and mjj
#**********************************************************
#                                                                    
#**********************************
# BW cutoff (M+/-bwcutoff*Gamma)
#**********************************
  15  = bwcutoff      ! (M+/-bwcutoff*Gamma)
#**********************************************************
# Apply pt/E/eta/dr/mij cuts on decay products or not
# (note that etmiss/ptll/ptheavy/ht/sorted cuts always apply)
#**********************************************************
   T  = cut_decays    ! Cut decay products 
#*************************************************************
# Number of helicities to sum per event (0 = all helicities)
# 0 gives more stable result, but longer run time (needed for
# long decay chains e.g.).
# Use >=2 if most helicities contribute, e.g. pure QCD.
#*************************************************************
   0  = nhel          ! Number of helicities used per event
#*******************                                                 
# Standard Cuts
#*******************                                                 
#                                                                    
#*********************************************************************
# Minimum and maximum pt's (for max, -1 means no cut)                *
#*********************************************************************
 20  = ptj       ! minimum pt for the jets 
  0  = ptb       ! minimum pt for the b 
 10  = pta       ! minimum pt for the photons 
 10  = ptl       ! minimum pt for the charged leptons 
  0  = misset    ! minimum missing Et (sum of neutrino's momenta)
  0  = ptheavy   ! minimum pt for one heavy final state
 1.0 = ptonium   ! minimum pt for the quarkonium states
 -1  = ptjmax    ! maximum pt for the jets
 -1  = ptbmax    ! maximum pt for the b
 -1  = ptamax    ! maximum pt for the photons
 -1  = ptlmax    ! maximum pt for the charged leptons
 -1  = missetmax ! maximum missing Et (sum of neutrino's momenta)
#*********************************************************************
# Minimum and maximum E's (in the center of mass frame)              *
#*********************************************************************
  0  = ej     ! minimum E for the jets 
  0  = eb     ! minimum E for the b 
  0  = ea     ! minimum E for the photons 
  0  = el     ! minimum E for the charged leptons 
 -1   = ejmax ! maximum E for the jets
 -1   = ebmax ! maximum E for the b
 -1   = eamax ! maximum E for the photons
 -1   = elmax ! maximum E for the charged leptons
#*********************************************************************
# Maximum and minimum absolute rapidity (for max, -1 means no cut)   *
#*********************************************************************
   5  = etaj    ! max rap for the jets 
  -1  = etab    ! max rap for the b
 2.5  = etaa    ! max rap for the photons 
 2.5  = etal    ! max rap for the charged leptons 
 0.6  = etaonium ! max rap for the quarkonium states
   0  = etajmin ! min rap for the jets
   0  = etabmin ! min rap for the b
   0  = etaamin ! min rap for the photons
   0  = etalmin ! main rap for the charged leptons
#*********************************************************************
# Minimum and maximum DeltaR distance                                *
#*********************************************************************
 0.4 = drjj    ! min distance between jets 
 0   = drbb    ! min distance between b's 
 0.4 = drll    ! min distance between leptons 
 0.4 = draa    ! min distance between gammas 
 0   = drbj    ! min distance between b and jet 
 0.4 = draj    ! min distance between gamma and jet 
 0.4 = drjl    ! min distance between jet and lepton 
 0   = drab    ! min distance between gamma and b 
 0   = drbl    ! min distance between b and lepton 
 0.4 = dral    ! min distance between gamma and lepton 
 -1  = drjjmax ! max distance between jets
 -1  = drbbmax ! max distance between b's
 -1  = drllmax ! max distance between leptons
 -1  = draamax ! max distance between gammas
 -1  = drbjmax ! max distance between b and jet
 -1  = drajmax ! max distance between gamma and jet
 -1  = drjlmax ! max distance between jet and lepton
 -1  = drabmax ! max distance between gamma and b
 -1  = drblmax ! max distance between b and lepton
 -1  = dralmax ! maxdistance between gamma and lepton
#*********************************************************************
# Minimum and maximum invariant mass for pairs                       *
# WARNING: for four lepton final state mmll cut require to have      *
#          different lepton masses for each flavor!                  *           
#*********************************************************************
 0   = mmjj    ! min invariant mass of a jet pair 
 0   = mmbb    ! min invariant mass of a b pair 
 0   = mmaa    ! min invariant mass of gamma gamma pair
 0   = mmll    ! min invariant mass of l+l- (same flavour) lepton pair
 -1  = mmjjmax ! max invariant mass of a jet pair
 -1  = mmbbmax ! max invariant mass of a b pair
 -1  = mmaamax ! max invariant mass of gamma gamma pair
 -1  = mmllmax ! max invariant mass of l+l- (same flavour) lepton pair
#*********************************************************************
# Minimum and maximum invariant mass for all letpons                 *
#*********************************************************************
 0   = mmnl    ! min invariant mass for all letpons (l+- and vl) 
 -1  = mmnlmax ! max invariant mass for all letpons (l+- and vl) 
#*********************************************************************
# Minimum and maximum pt for 4-momenta sum of leptons                *
#*********************************************************************
 0   = ptllmin  ! Minimum pt for 4-momenta sum of leptons(l and vl)
 -1  = ptllmax  ! Maximum pt for 4-momenta sum of leptons(l and vl)
#*********************************************************************
# Inclusive cuts                                                     *
#*********************************************************************
 0  = xptj ! minimum pt for at least one jet  
 0  = xptb ! minimum pt for at least one b 
 0  = xpta ! minimum pt for at least one photon 
 0  = xptl ! minimum pt for at least one charged lepton 
#*********************************************************************
# Control the pt's of the jets sorted by pt                          *
#*********************************************************************
 0   = ptj1min ! minimum pt for the leading jet in pt
 0   = ptj2min ! minimum pt for the second jet in pt
 0   = ptj3min ! minimum pt for the third jet in pt
 0   = ptj4min ! minimum pt for the fourth jet in pt
 -1  = ptj1max ! maximum pt for the leading jet in pt 
 -1  = ptj2max ! maximum pt for the second jet in pt
 -1  = ptj3max ! maximum pt for the third jet in pt
 -1  = ptj4max ! maximum pt for the fourth jet in pt
 0   = cutuse  ! reject event if fails any (0) / all (1) jet pt cuts
#*********************************************************************
# Control the pt's of leptons sorted by pt                           *
#*********************************************************************
 0   = ptl1min ! minimum pt for the leading lepton in pt
 0   = ptl2min ! minimum pt for the second lepton in pt
 0   = ptl3min ! minimum pt for the third lepton in pt
 0   = ptl4min ! minimum pt for the fourth lepton in pt
 -1  = ptl1max ! maximum pt for the leading lepton in pt 
 -1  = ptl2max ! maximum pt for the second lepton in pt
 -1  = ptl3max ! maximum pt for the third lepton in pt
 -1  = ptl4max ! maximum pt for the fourth lepton in pt
#*********************************************************************
# Control the Ht(k)=Sum of k leading jets                            *
#*********************************************************************
 0   = htjmin ! minimum jet HT=Sum(jet pt)
 -1  = htjmax ! maximum jet HT=Sum(jet pt)
 0   = ihtmin  !inclusive Ht for all partons (including b)
 -1  = ihtmax  !inclusive Ht for all partons (including b)
 0   = ht2min ! minimum Ht for the two leading jets
 0   = ht3min ! minimum Ht for the three leading jets
 0   = ht4min ! minimum Ht for the four leading jets
 -1  = ht2max ! maximum Ht for the two leading jets
 -1  = ht3max ! maximum Ht for the three leading jets
 -1  = ht4max ! maximum Ht for the four leading jets
#***********************************************************************
# Photon-isolation cuts, according to hep-ph/9801442                   *
# When ptgmin=0, all the other parameters are ignored                  *
# When ptgmin>0, pta and draj are not going to be used                 *
#***********************************************************************
   0 = ptgmin ! Min photon transverse momentum
 0.4 = R0gamma ! Radius of isolation code
 1.0 = xn ! n parameter of eq.(3.4) in hep-ph/9801442
 1.0 = epsgamma ! epsilon_gamma parameter of eq.(3.4) in hep-ph/9801442
 .true. = isoEM ! isolate photons from EM energy (photons and leptons)
#*********************************************************************
# WBF cuts                                                           *
#*********************************************************************
 0   = xetamin ! minimum rapidity for two jets in the WBF case  
 0   = deltaeta ! minimum rapidity for two jets in the WBF case 
#*********************************************************************
# KT DURHAM CUT                                                      *
#*********************************************************************
 -1    =  ktdurham        
 0.4  =  dparameter 
#*********************************************************************
# maximal pdg code for quark to be considered as a light jet         *
# (otherwise b cuts are applied)                                     *
#*********************************************************************
 4 = maxjetflavor    ! Maximum jet pdg code
#*********************************************************************
# Jet measure cuts                                                   *
#*********************************************************************
 0   = xqcut   ! minimum kt jet measure between partons
#*********************************************************************
#
#*********************************************************************
# Store info for systematics studies                                 *
# WARNING: If use_syst is T, matched Pythia output is                *
#          meaningful ONLY if plotted taking matchscale              *
#          reweighting into account!                                 *
#*********************************************************************
   F  = use_syst      ! Enable systematics studies
#
#**************************************
# Parameter of the systematics study
#  will be used by SysCalc (if installed)
#**************************************                                  
#
0.5 1 2 = sys_scalefact  # factorization/renormalization scale factor
0.5 1 2 = sys_alpsfact  # \alpha_s emission scale factors
30 50 = sys_matchscale # variation of merging scale
# PDF sets and number of members (0 or none for all members).
CT10nlo.LHgrid = sys_pdf # matching scales
# MSTW2008nlo68cl.LHgrid 1  = sys_pdf
</MGRunCard>
<slha>
######################################################################
## PARAM_CARD AUTOMATICALY GENERATED BY MG5 FOLLOWING UFO MODEL   ####
######################################################################
##                                                                  ##
##  Width set on Auto will be computed following the information    ##
##        present in the decay.py files of the model.               ##
##        See  arXiv:1402.1178 for more details.                    ##
##                                                                  ##
######################################################################

###################################
## INFORMATION FOR CKMBLOCK
###################################
Block ckmblock 
    1 2.277360e-01 # cabi 

###################################
## INFORMATION FOR FRBLOCK
###################################
Block frblock 
    1 8.000000e-01 # gz 

###################################
## INFORMATION FOR MASS
###################################
Block mass 
    1 5.040000e-03 # MD 
    2 2.550000e-03 # MU 
    3 1.010000e-01 # MS 
    4 1.270000e+00 # MC 
    5 4.700000e+00 # MB 
    6 1.720000e+02 # MT 
   11 5.110000e-04 # Me 
   13 1.056600e-01 # MM 
   15 1.777000e+00 # MTA 
   23 9.118760e+01 # MZ 
   25 1.200000e+02 # MH 
  10030 3.300000e+03 # MZph 
  10031 3.000000e+02 # MZpl 
## Dependent parameters, given by model restrictions.
## Those values should be edited following the 
## analytical expression. MG5 ignores those values 
## but they are important for interfacing the output of MG5
## to external program such as Pythia.
  12 0.000000 # ve : 0.0 
  14 0.000000 # vm : 0.0 
  16 0.000000 # vt : 0.0 
  21 0.000000 # g : 0.0 
  22 0.000000 # a : 0.0 
  24 79.824360 # w+ : cmath.sqrt(MZ__exp__2/2. + cmath.sqrt(MZ__exp__4/4. - (aEW*cmath.pi*MZ__exp__2)/(Gf*sqrt__2))) 

###################################
## INFORMATION FOR SMINPUTS
###################################
Block sminputs 
    1 1.279000e+02 # aEWM1 
    2 1.166370e-05 # Gf 
    3 1.184000e-01 # aS 

###################################
## INFORMATION FOR YUKAWA
###################################
Block yukawa 
    1 5.040000e-03 # ymdo 
    2 2.550000e-03 # ymup 
    3 1.010000e-01 # yms 
    4 1.270000e+00 # ymc 
    5 4.700000e+00 # ymb 
    6 1.720000e+02 # ymt 
   11 5.110000e-04 # yme 
   13 1.056600e-01 # ymm 
   15 1.777000e+00 # ymtau 

###################################
## INFORMATION FOR DECAY
###################################
DECAY   6 1.508336e+00 # WT 
DECAY  23 2.495200e+00 # WZ 
DECAY  24 2.085000e+00 # WW 
DECAY  25 5.753088e-03 # WH 
## Dependent parameters, given by model restrictions.
## Those values should be edited following the 
## analytical expression. MG5 ignores those values 
## but they are important for interfacing the output of MG5
## to external program such as Pythia.
DECAY  1 0.000000 # d : 0.0 
DECAY  2 0.000000 # u : 0.0 
DECAY  3 0.000000 # s : 0.0 
DECAY  4 0.000000 # c : 0.0 
DECAY  5 0.000000 # b : 0.0 
DECAY  11 0.000000 # e- : 0.0 
DECAY  12 0.000000 # ve : 0.0 
DECAY  13 0.000000 # mu- : 0.0 
DECAY  14 0.000000 # vm : 0.0 
DECAY  15 0.000000 # ta- : 0.0 
DECAY  16 0.000000 # vt : 0.0 
DECAY  21 0.000000 # g : 0.0 
DECAY  22 0.000000 # a : 0.0 
DECAY  10030 0.308725 # zph : (gz__exp__2*MZph*(5 + cmath.sqrt(1 - (4*MT__exp__2)/MZph__exp__2)))/(144.*cmath.pi) 
DECAY  10031 0.132629 # zpl : (5*gz__exp__2*MZpl)/(144.*cmath.pi) 
#===========================================================
# QUANTUM NUMBERS OF NEW STATE(S) (NON SM PDG CODE)
#===========================================================

Block QNUMBERS 10030  # zph 
        1 0  # 3 times electric charge
        2 3  # number of spin states (2S+1)
        3 1  # colour rep (1: singlet, 3: triplet, 8: octet)
        4 0  # Particle/Antiparticle distinction (0=own anti)
Block QNUMBERS 10031  # zpl 
        1 0  # 3 times electric charge
        2 3  # number of spin states (2S+1)
        3 1  # colour rep (1: singlet, 3: triplet, 8: octet)
        4 0  # Particle/Antiparticle distinction (0=own anti)
</slha>
## END BANNER##
<MGGenerationInfo>
#  Number of Events        :         3874
#  Integrated weight (pb)  :  0.28587E-03
#  Max wgt                 :  0.11468E-06
#  Average wgt             :  0.73792E-07
</MGGenerationInfo>
</header>
<init>
     2212     2212  0.40000000000E+04  0.40000000000E+04 0 0  247000  247000 2   1
  0.28602924746E-03  0.58945818224E-06  0.11467990000E-06   0
</init>
<event>
 5   0  0.1116462E-06  0.3357953E+04  0.7818609E-02  0.8148304E-01
       -2   -1    0    0    0  501  0.00000000000E+00  0.00000000000E+00  0.23532009503E+04  0.23532009503E+04  0.25500000920E-02 0.  1.
        2   -1    0    0  501    0  0.00000000000E+00  0.00000000000E+00 -0.11979269746E+04  0.11979269746E+04  0.25500000920E-02 0. -1.
    10030    2    1    2    0    0  0.00000000000E+00  0.00000000000E+00  0.11552739757E+04  0.35511279250E+04  0.33579534810E+04 0.  0.
        1    1    3    3  502    0  0.91852797534E+03  0.11993974767E+04 -0.19711640537E+03  0.15235165985E+04  0.50400001928E-02 0. -1.
       -1    1    3    3    0  502 -0.91852797534E+03 -0.11993974767E+04  0.13523903811E+04  0.20276113265E+04  0.50400001928E-02 0.  1.
</event>
<event>
 5   0  0.1116462E-06  0.3291966E+04  0.7818609E-02  0.8164943E-01
        2   -1    0    0  501    0  0.00000000000E+00  0.00000000000E+00  0.19794343487E+04  0.19794343487E+04  0.25500000920E-02 0.  1.
       -2   -1    0    0    0  501  0.00000000000E+00  0.00000000000E+00 -0.13687037711E+04  0.13687037711E+04  0.25500000920E-02 0. -1.
    10030    2    1    2    0    0  0.00000000000E+00  0.00000000000E+00  0.61073057765E+03  0.33481381198E+04  0.32919655270E+04 0.  0.
        1    1    3    3  502    0 -0.16451638946E+03 -0.56188757377E+03  0.18699501951E+04  0.19594634521E+04  0.50400001928E-02 0.  1.
       -1    1    3    3    0  502  0.16451638946E+03  0.56188757377E+03 -0.12592196174E+04  0.13886746678E+04  0.50400001928E-02 0. -1.
</event>
<event>
 5   0  0.1129434E-06  0.3263382E+04  0.7818609E-02  0.8172276E-01
       -2   -1    0    0    0  501  0.00000000000E+00  0.00000000000E+00  0.15427802756E+04  0.15427802756E+04  0.25500000920E-02 0.  1.
        2   -1    0    0  501    0  0.00000000000E+00  0.00000000000E+00 -0.17257252285E+04  0.17257252286E+04  0.25500000920E-02 0. -1.
    10030    2    1    2    0    0  0.00000000000E+00  0.00000000000E+00 -0.18294495292E+03  0.32685055042E+04  0.32633815859E+04 0.  0.
        3    1    3    3  502    0  0.15879261751E+04  0.13600930513E+03  0.25894363969E+03  0.16146392438E+04  0.10100000352E+00 0.  1.
       -3    1    3    3    0  502 -0.15879261751E+04 -0.13600930513E+03 -0.44188859262E+03  0.16538662604E+04  0.10100000352E+00 0. -1.
</event>
<event>
 5   0  0.1116462E-06  0.3290365E+04  0.7818609E-02  0.8165351E-01
       -2   -1    0    0    0  501  0.00000000000E+00  0.00000000000E+00  0.18183907778E+04  0.18183907778E+04  0.25500000920E-02 0. -1.
        2   -1    0    0  501    0  0.00000000000E+00  0.00000000000E+00 -0.14884733736E+04  0.14884733736E+04  0.25500000920E-02 0.  1.
    10030    2    1    2    0    0  0.00000000000E+00  0.00000000000E+00  0.32991740426E+03  0.33068641514E+04  0.32903654846E+04 0.  0.
        1    1    3    3  502    0 -0.77496221698E+03 -0.32091106226E+03  0.15873559948E+04  0.17953410266E+04  0.50400001928E-02 0. -1.
       -1    1    3    3    0  502  0.77496221698E+03  0.32091106226E+03 -0.12574385906E+04  0.15115231248E+04  0.50400001928E-02 0.  1.
</event>
<event>
 5   0  0.1129434E-06  0.3307014E+04  0.7818609E-02  0.8161113E-01
       -2   -1    0    0    0  501  0.00000000000E+00  0.00000000000E+00  0.11932289719E+04  0.11932289719E+04  0.25500000920E-02 0. -1.
        2   -1    0    0  501    0  0.00000000000E+00  0.00000000000E+00 -0.22913334491E+04  0.22913334491E+04  0.25500000920E-02 0.  1.
    10030    2    1    2    0    0  0.00000000000E+00  0.00000000000E+00 -0.10981044772E+04  0.34845624210E+04  0.33070140343E+04 0.  0.
        3    1    3    3  502    0 -0.15138830444E+04  0.38358042402E+02  0.15049867024E+03  0.15218288575E+04  0.10100000352E+00 0.  1.
       -3    1    3    3    0  502  0.15138830444E+04 -0.38358042402E+02 -0.12486031474E+04  0.19627335635E+04  0.10100000352E+00 0. -1.
</event>
<event>
 5   0  0.3757406E-07  0.3213763E+04  0.7818609E-02  0.8185192E-01
        1   -1    0    0  501    0  0.00000000000E+00  0.00000000000E+00  0.25976974239E+04  0.25976974239E+04  0.50400001928E-02 0.  1.
       -1   -1    0    0    0  501  0.00000000000E+00  0.00000000000E+00 -0.99398371187E+03  0.99398371188E+03  0.50400001928E-02 0. -1.
    10030    2    1    2    0    0  0.00000000000E+00  0.00000000000E+00  0.16037137120E+04  0.35916811358E+04  0.32137634809E+04 0.  0.
        1    1    3    3  502    0 -0.12684457580E+04  0.90088906722E+03  0.35271054194E+03  0.15952932266E+04  0.50400001928E-02 0.  1.
       -1    1    3    3    0  502  0.12684457580E+04 -0.90088906722E+03  0.12510031701E+04  0.19963879092E+04  0.50400001928E-02 0. -1.
</event>
<event>
 5   0  0.3749685E-07  0.3292567E+04  0.7818609E-02  0.8164789E-01
       -1   -1    0    0    0  501  0.00000000000E+00  0.00000000000E+00  0.19543300413E+04  0.19543300413E+04  0.50400001928E-02 0.  1.
        1   -1    0    0  501    0  0.00000000000E+00  0.00000000000E+00 -0.13867919945E+04  0.13867919945E+04  0.50400001928E-02 0. -1.
    10030    2    1    2    0    0  0.00000000000E+00  0.00000000000E+00  0.56753804679E+03  0.33411220358E+04  0.32925669353E+04 0.  0.
        3    1    3    3  502    0  0.38847968047E+03 -0.73382672499E+03 -0.11587539449E+04  0.14255275653E+04  0.10100000352E+00 0. -1.
       -3    1    3    3    0  502 -0.38847968047E+03  0.73382672499E+03  0.17262919917E+04  0.19155944705E+04  0.10100000352E+00 0.  1.
</event>
<event>
 5   0  0.1116462E-06  0.3267213E+04  0.7818609E-02  0.8171288E-01
        2   -1    0    0  501    0  0.00000000000E+00  0.00000000000E+00  0.19138985997E+04  0.19138985997E+04  0.25500000920E-02 0. -1.
       -2   -1    0    0    0  501  0.00000000000E+00  0.00000000000E+00 -0.13943637775E+04  0.13943637775E+04  0.25500000920E-02 0.  1.
    10030    2    1    2    0    0  0.00000000000E+00  0.00000000000E+00  0.51953482217E+03  0.33082623771E+04  0.32672134189E+04 0.  0.
        1    1    3    3  502    0  0.68579480203E+03  0.11411448621E+04  0.12183102571E+04  0.18046622923E+04  0.50400001928E-02 0. -1.
       -1    1    3    3    0  502 -0.68579480203E+03 -0.11411448621E+04 -0.69877543491E+03  0.15036000849E+04  0.50400001928E-02 0.  1.
</event>
<event>
 5   0  0.3674967E-07  0.3272509E+04  0.7818609E-02  0.8169926E-01
        1   -1    0    0  501    0  0.00000000000E+00  0.00000000000E+00  0.17732928773E+04  0.17732928773E+04  0.50400001928E-02 0.  1.
       -1   -1    0    0    0  501  0.00000000000E+00  0.00000000000E+00 -0.15098062229E+04  0.15098062229E+04  0.50400001928E-02 0. -1.
    10030    2    1    2    0    0  0.00000000000E+00  0.00000000000E+00  0.26348665437E+03  0.32830991002E+04  0.32725088976E+04 0.  0.
        2    1    3    3  502    0  0.13881944740E+04 -0.53617341675E+03  0.81421145158E+03  0.16963213488E+04  0.25500000920E-02 0.  1.
       -2    1    3    3    0  502 -0.13881944740E+04  0.53617341675E+03 -0.55072479721E+03  0.15867777515E+04  0.25500000920E-02 0. -1.
</event>
<event>
 5   0  0.1116462E-06  0.3288424E+04  0.7818609E-02  0.8165847E-01
        2   -1    0    0  501    0  0.00000000000E+00  0.00000000000E+00  0.11852419031E+04  0.11852419031E+04  0.25500000920E-02 0.  1.
       -2   -1    0    0    0  501  0.00000000000E+00  0.00000000000E+00 -0.22809128481E+04  0.22809128481E+04  0.25500000920E-02 0. -1.
    10030    2    1    2    0    0  0.00000000000E+00  0.00000000000E+00 -0.10956709450E+04  0.34661547512E+04  0.32884242335E+04 0.  0.
        1    1    3    3  502    0 -0.10487981484E+04 -0.45267099130E+03  0.69868184317E+03  0.13390462652E+04  0.50400001928E-02 0.  1.
       -1    1    3    3    0  502  0.10487981484E+04  0.45267099130E+03 -0.17943527882E+04  0.21271084859E+04  0.50400001928E-02 0. -1.
</event>
<event>
 5   0  0.3674967E-07  0.3324179E+04  0.7818609E-02  0.8156770E-01
        1   -1    0    0  501    0  0.00000000000E+00  0.00000000000E+00  0.20701693312E+04  0.20701693312E+04  0.50400001928E-02 0.  1.
       -1   -1    0    0    0  501  0.00000000000E+00  0.00000000000E+00 -0.13344519213E+04  0.13344519213E+04  0.50400001928E-02 0. -1.
    10030    2    1    2    0    0  0.00000000000E+00  0.00000000000E+00  0.73571740990E+03  0.34046212525E+04  0.33241789612E+04 0.  0.
        2    1    3    3  502    0 -0.33630517461E+03 -0.36821844569E+03 -0.12560236389E+04  0.13513997838E+04  0.25500000920E-02 0. -1.
       -2    1    3    3    0  502  0.33630517461E+03  0.36821844569E+03  0.19917410488E+04  0.20532214687E+04  0.25500000920E-02 0.  1.
</event>
<event>
 5   0  0.1146799E-06  0.3529099E+04  0.7818609E-02  0.8106928E-01
        2   -1    0    0  501    0  0.00000000000E+00  0.00000000000E+00  0.19931602015E+04  0.19931602015E+04  0.25500000920E-02 0. -1.
       -2   -1    0    0    0  501  0.00000000000E+00  0.00000000000E+00 -0.15621596904E+04  0.15621596904E+04  0.25500000920E-02 0.  1.
    10030    2    1    2    0    0  0.00000000000E+00  0.00000000000E+00  0.43100051110E+03  0.35553198918E+04  0.35290987649E+04 0.  0.
        5    1    3    3  502    0 -0.15591176399E+04  0.82628911263E+03  0.21882944024E+03  0.17780635327E+04  0.46999998093E+01 0.  1.
       -5    1    3    3    0  502  0.15591176399E+04 -0.82628911263E+03  0.21217107086E+03  0.17772563591E+04  0.46999998093E+01 0. -1.
</event>
<event>
 5   0  0.3796529E-07  0.3347691E+04  0.7818609E-02  0.8150865E-01
        1   -1    0    0  501    0  0.00000000000E+00  0.00000000000E+00  0.11226445187E+04  0.11226445187E+04  0.50400001928E-02 0.  1.
       -1   -1    0    0    0  501  0.00000000000E+00  0.00000000000E+00 -0.24956781986E+04  0.24956781986E+04  0.50400001928E-02 0. -1.
    10030    2    1    2    0    0  0.00000000000E+00  0.00000000000E+00 -0.13730336799E+04  0.36183227174E+04  0.33476914136E+04 0.  0.
        5    1    3    3  502    0 -0.59519376383E+03 -0.92776130537E+03  0.67497443270E+03  0.12925204954E+04  0.46999998093E+01 0.  1.
       -5    1    3    3    0  502  0.59519376383E+03  0.92776130537E+03 -0.20480081126E+04  0.23258022220E+04  0.46999998093E+01 0. -1.
</event>
<event>
 5   0  0.3757406E-07  0.3309555E+04  0.7818609E-02  0.8160468E-01
        1   -1    0    0  501    0  0.00000000000E+00  0.00000000000E+00  0.19339338365E+04  0.19339338365E+04  0.50400001928E-02 0. -1.
       -1   -1    0    0    0  501  0.00000000000E+00  0.00000000000E+00 -0.14159163250E+04  0.14159163250E+04  0.50400001928E-02 0.  1.
    10030    2    1    2    0    0  0.00000000000E+00  0.00000000000E+00  0.51801751151E+03  0.33498501616E+04  0.33095549494E+04 0.  0.
        1    1    3    3  502    0  0.11297000083E+03  0.42913361899E+03 -0.13545685855E+04  0.14254030787E+04  0.50400001928E-02 0.  1.
       -1    1    3    3    0  502 -0.11297000083E+03 -0.42913361899E+03  0.18725860970E+04  0.19244470829E+04  0.50400001928E-02 0. -1.
</event>
<event>
 5   0  0.3749685E-07  0.3295011E+04  0.7818609E-02  0.8164166E-01
       -1   -1    0    0    0  501  0.00000000000E+00  0.00000000000E+00  0.22725632796E+04  0.22725632796E+04  0.50400001928E-02 0.  1.
        1   -1    0    0  501    0  0.00000000000E+00  0.00000000000E+00 -0.11943667194E+04  0.11943667194E+04  0.50400001928E-02 0. -1.
    10030    2    1    2    0    0  0.00000000000E+00  0.00000000000E+00  0.10781965602E+04  0.34669299991E+04  0.32950107429E+04 0.  0.
        3    1    3    3  502    0  0.89024488964E+03 -0.10340258448E+04  0.15105980413E+04  0.20355961937E+04  0.10100000352E+00 0.  1.
       -3    1    3    3    0  502 -0.89024488964E+03  0.10340258448E+04 -0.43240148105E+03  0.14313338053E+04  0.10100000352E+00 0. -1.
</event>
<event>
 5   0  0.3749685E-07  0.3296914E+04  0.7818609E-02  0.8163681E-01
       -1   -1    0    0    0  501  0.00000000000E+00  0.00000000000E+00  0.11703570604E+04  0.11703570605E+04  0.50400001928E-02 0. -1.
        1   -1    0    0  501    0  0.00000000000E+00  0.00000000000E+00 -0.23218650376E+04  0.23218650376E+04  0.50400001928E-02 0.  1.
    10030    2    1    2    0    0  0.00000000000E+00  0.00000000000E+00 -0.11515079771E+04  0.34922220980E+04  0.32969143999E+04 0.  0.
        3    1    3    3  502    0  0.10664431017E+04  0.10611846744E+04  0.13795445204E+03  0.15107763711E+04  0.10100000352E+00 0. -1.
       -3    1    3    3    0  502 -0.10664431017E+04 -0.10611846744E+04 -0.12894624292E+04  0.19814457269E+04  0.10100000352E+00 0.  1.
</event>
<event>
 5   0  0.1116462E-06  0.3326411E+04  0.7818609E-02  0.8156208E-01
       -2   -1    0    0    0  501  0.00000000000E+00  0.00000000000E+00  0.16761361418E+04  0.16761361418E+04  0.25500000920E-02 0. -1.
        2   -1    0    0  501    0  0.00000000000E+00  0.00000000000E+00 -0.16503743498E+04  0.16503743498E+04  0.25500000920E-02 0.  1.
    10030    2    1    2    0    0  0.00000000000E+00  0.00000000000E+00  0.25761791954E+02  0.33265104916E+04  0.33264107354E+04 0.  0.
        1    1    3    3  502    0  0.68035238784E+03  0.85561050517E+03 -0.12406731046E+04  0.16535472357E+04  0.50400001928E-02 0.  1.
       -1    1    3    3    0  502 -0.68035238784E+03 -0.85561050517E+03  0.12664348966E+04  0.16729632559E+04  0.50400001928E-02 0. -1.
</event>
<event>
 5   0  0.3709747E-07  0.3256929E+04  0.7818609E-02  0.8173942E-01
        1   -1    0    0  501    0  0.00000000000E+00  0.00000000000E+00  0.17971611872E+04  0.17971611872E+04  0.50400001928E-02 0. -1.
       -1   -1    0    0    0  501  0.00000000000E+00  0.00000000000E+00 -0.14756032693E+04  0.14756032693E+04  0.50400001928E-02 0.  1.
    10030    2    1    2    0    0  0.00000000000E+00  0.00000000000E+00  0.32155791790E+03  0.32727644565E+04  0.32569291815E+04 0.  0.
        4    1    3    3  502    0 -0.79403724251E+03 -0.12002835620E+04 -0.60497571045E+03  0.15611447706E+04  0.12699999809E+01 0.  1.
       -4    1    3    3    0  502  0.79403724251E+03  0.12002835620E+04  0.92653362835E+03  0.17116196859E+04  0.12699999809E+01 0. -1.
</event>
<event>
 5   0  0.3757406E-07  0.3288650E+04  0.7818609E-02  0.8165789E-01
       -1   -1    0    0    0  501  0.00000000000E+00  0.00000000000E+00  0.14208216076E+04  0.14208216076E+04  0.50400001928E-02 0.  1.
        1   -1    0    0  501    0  0.00000000000E+00  0.00000000000E+00 -0.19029869374E+04  0.19029869374E+04  0.50400001928E-02 0. -1.
    10030    2    1    2    0    0  0.00000000000E+00  0.00000000000E+00 -0.48216532980E+03  0.33238085450E+04  0.32886501544E+04 0.  0.
        1    1    3    3  502    0 -0.10878947839E+04 -0.17580303806E+03 -0.14745326617E+04  0.18408335990E+04  0.50400001928E-02 0. -1.
       -1    1    3    3    0  502  0.10878947839E+04  0.17580303806E+03  0.99236733186E+03  0.14829749460E+04  0.50400001928E-02 0.  1.
</event>
<event>
 5   0  0.1126221E-06  0.3290735E+04  0.7818609E-02  0.8165257E-01
       -2   -1    0    0    0  501  0.00000000000E+00  0.00000000000E+00  0.11622605071E+04  0.11622605071E+04  0.25500000920E-02 0.  1.
        2   -1    0    0  501    0  0.00000000000E+00  0.00000000000E+00 -0.23292833768E+04  0.23292833768E+04  0.25500000920E-02 0. -1.
    10030    2    1    2    0    0  0.00000000000E+00  0.00000000000E+00 -0.11670228697E+04  0.34915438838E+04  0.32907349201E+04 0.  0.
        2    1    3    3  502    0  0.17347688478E+03 -0.11169552375E+04  0.68508769330E+03  0.13217520114E+04  0.25500000920E-02 0. -1.
       -2    1    3    3    0  502 -0.17347688478E+03  0.11169552375E+04 -0.18521105630E+04  0.21697918724E+04  0.25500000920E-02 0.  1.
</event>
<event>
 5   0  0.3749685E-07  0.3288808E+04  0.7818609E-02  0.8165749E-01
       -1   -1    0    0    0  501  0.00000000000E+00  0.00000000000E+00  0.12228676225E+04  0.12228676225E+04  0.50400001928E-02 0. -1.
        1   -1    0    0  501    0  0.00000000000E+00  0.00000000000E+00 -0.22112484030E+04  0.22112484030E+04  0.50400001928E-02 0.  1.
    10030    2    1    2    0    0  0.00000000000E+00  0.00000000000E+00 -0.98838078051E+03  0.34341160256E+04  0.32888077338E+04 0.  0.
        3    1    3    3  502    0 -0.42358724773E+03  0.12196115228E+04  0.56922937402E+03  0.14109927404E+04  0.10100000352E+00 0. -1.
       -3    1    3    3    0  502  0.42358724773E+03 -0.12196115228E+04 -0.15576101545E+04  0.20231232851E+04  0.10100000352E+00 0.  1.
</event>
<event>
 5   0  0.1129434E-06  0.3289344E+04  0.7818609E-02  0.8165612E-01
       -2   -1    0    0    0  501  0.00000000000E+00  0.00000000000E+00  0.15965305739E+04  0.15965305739E+04  0.25500000920E-02 0.  1.
        2   -1    0    0  501    0  0.00000000000E+00  0.00000000000E+00 -0.16942652878E+04  0.16942652878E+04  0.25500000920E-02 0. -1.
    10030    2    1    2    0    0  0.00000000000E+00  0.00000000000E+00 -0.97734713916E+02  0.32907958617E+04  0.32893442096E+04 0.  0.
        3    1    3    3  502    0  0.15618798576E+04 -0.43226579153E+03 -0.32939067130E+03  0.16537293094E+04  0.10100000352E+00 0.  1.
       -3    1    3    3    0  502 -0.15618798576E+04  0.43226579153E+03  0.23165595739E+03  0.16370665524E+04  0.10100000352E+00 0. -1.
</event>
<event>
 5   0  0.3757406E-07  0.3322021E+04  0.7818609E-02  0.8157315E-01
       -1   -1    0    0    0  501  0.00000000000E+00  0.00000000000E+00  0.14500000462E+04  0.14500000463E+04  0.50400001928E-02 0. -1.
        1   -1    0    0  501    0  0.00000000000E+00  0.00000000000E+00 -0.19027279280E+04  0.19027279280E+04  0.50400001928E-02 0.  1.
    10030    2    1    2    0    0  0.00000000000E+00  0.00000000000E+00 -0.45272788171E+03  0.33527279742E+04  0.33220208209E+04 0.  0.
        1    1    3    3  502    0  0.92337011078E+03  0.71898726191E+03 -0.14159878924E+04  0.18370021110E+04  0.50400001928E-02 0.  1.
       -1    1    3    3    0  502 -0.92337011078E+03 -0.71898726191E+03  0.96326001070E+03  0.15157258632E+04  0.50400001928E-02 0. -1.
</event>
<event>
 5   0  0.1126221E-06  0.3271052E+04  0.7818609E-02  0.8170300E-01
       -2   -1    0    0    0  501  0.00000000000E+00  0.00000000000E+00  0.17113305006E+04  0.17113305006E+04  0.25500000920E-02 0.  1.
        2   -1    0    0  501    0  0.00000000000E+00  0.00000000000E+00 -0.15630794415E+04  0.15630794415E+04  0.25500000920E-02 0. -1.
    10030    2    1    2    0    0  0.00000000000E+00  0.00000000000E+00  0.14825105901E+03  0.32744099421E+04  0.32710521384E+04 0.  0.
        2    1    3    3  502    0  0.71053517598E+03 -0.71816809876E+03 -0.12133984509E+04  0.15789114779E+04  0.25500000920E-02 0. -1.
       -2    1    3    3    0  502 -0.71053517598E+03  0.71816809876E+03  0.13616495099E+04  0.16954984642E+04  0.25500000920E-02 0.  1.
</event>
<event>
 5   0  0.3674967E-07  0.3122181E+04  0.7818609E-02  0.8209677E-01
        1   -1    0    0  501    0  0.00000000000E+00  0.00000000000E+00  0.17832356859E+04  0.17832356859E+04  0.50400001928E-02 0.  1.
       -1   -1    0    0    0  501  0.00000000000E+00  0.00000000000E+00 -0.13666188139E+04  0.13666188139E+04  0.50400001928E-02 0. -1.
    10030    2    1    2    0    0  0.00000000000E+00  0.00000000000E+00  0.41661687202E+03  0.31498544998E+04  0.31221809288E+04 0.  0.
        2    1    3    3  502    0  0.25178705683E+03  0.84717049454E+03 -0.10899185801E+04  0.14032166904E+04  0.25500000920E-02 0. -1.
       -2    1    3    3    0  502 -0.25178705683E+03 -0.84717049454E+03  0.15065354522E+04  0.17466378095E+04  0.25500000920E-02 0.  1.
</event>
<event>
 5   0  0.1129434E-06  0.3296754E+04  0.7818609E-02  0.8163722E-01
        2   -1    0    0  501    0  0.00000000000E+00  0.00000000000E+00  0.16555805526E+04  0.16555805526E+04  0.25500000920E-02 0. -1.
       -2   -1    0    0    0  501  0.00000000000E+00  0.00000000000E+00 -0.16412047165E+04  0.16412047165E+04  0.25500000920E-02 0.  1.
    10030    2    1    2    0    0  0.00000000000E+00  0.00000000000E+00  0.14375836088E+02  0.32967852690E+04  0.32967539255E+04 0.  0.
        3    1    3    3  502    0 -0.14781299038E+04 -0.50000182798E+03 -0.52411437643E+03  0.16460758580E+04  0.10100000352E+00 0.  1.
       -3    1    3    3    0  502  0.14781299038E+04  0.50000182798E+03  0.53849021252E+03  0.16507094110E+04  0.10100000352E+00 0. -1.
</event>
<event>
 5   0  0.1146799E-06  0.3291315E+04  0.7818609E-02  0.8165109E-01
        2   -1    0    0  501    0  0.00000000000E+00  0.00000000000E+00  0.16937149680E+04  0.16937149680E+04  0.25500000920E-02 0. -1.
       -2   -1    0    0    0  501  0.00000000000E+00  0.00000000000E+00 -0.15989638303E+04  0.15989638303E+04  0.25500000920E-02 0.  1.
    10030    2    1    2    0    0  0.00000000000E+00  0.00000000000E+00  0.94751137715E+02  0.32926787983E+04  0.32913152220E+04 0.  0.
        5    1    3    3  502    0  0.11048865455E+04  0.26797989634E+03  0.12376497213E+04  0.16805910942E+04  0.46999998093E+01 0. -1.
       -5    1    3    3    0  502 -0.11048865455E+04 -0.26797989634E+03 -0.11428985835E+04  0.16120877041E+04  0.46999998093E+01 0.  1.
</event>
<event>
 5   0  0.3674967E-07  0.3201260E+04  0.7818609E-02  0.8188485E-01
        1   -1    0    0  501    0  0.00000000000E+00  0.00000000000E+00  0.21516573036E+04  0.21516573037E+04  0.50400001928E-02 0.  1.
       -1   -1    0    0    0  501  0.00000000000E+00  0.00000000000E+00 -0.11907173407E+04  0.11907173407E+04  0.50400001928E-02 0. -1.
    10030    2    1    2    0    0  0.00000000000E+00  0.00000000000E+00  0.96093996292E+03  0.33423746444E+04  0.32012595414E+04 0.  0.
        2    1    3    3  502    0 -0.12523581309E+03  0.15146448109E+04  0.10047845571E+04  0.18219289004E+04  0.25500000920E-02 0. -1.
       -2    1    3    3    0  502  0.12523581309E+03 -0.15146448109E+04 -0.43844594209E+02  0.15204457440E+04  0.25500000920E-02 0.  1.
</event>
<event>
 5   0  0.1129434E-06  0.3306008E+04  0.7818609E-02  0.8161368E-01
        2   -1    0    0  501    0  0.00000000000E+00  0.00000000000E+00  0.17772729926E+04  0.17772729926E+04  0.25500000920E-02 0.  1.
       -2   -1    0    0    0  501  0.00000000000E+00  0.00000000000E+00 -0.15374244919E+04  0.15374244919E+04  0.25500000920E-02 0. -1.
    10030    2    1    2    0    0  0.00000000000E+00  0.00000000000E+00  0.23984850079E+03  0.33146974845E+04  0.33060084861E+04 0.  0.
        3    1    3    3  502    0 -0.95616407661E+02  0.45549519657E+02  0.17738675826E+04  0.17770265803E+04  0.10100000352E+00 0.  1.
       -3    1    3    3    0  502  0.95616407661E+02 -0.45549519657E+02 -0.15340190818E+04  0.15376709042E+04  0.10100000352E+00 0. -1.
</event>
<event>
 5   0  0.1116462E-06  0.3307435E+04  0.7818609E-02  0.8161006E-01
        2   -1    0    0  501    0  0.00000000000E+00  0.00000000000E+00  0.15742978462E+04  0.15742978462E+04  0.25500000920E-02 0.  1.
       -2   -1    0    0    0  501  0.00000000000E+00  0.00000000000E+00 -0.17371432237E+04  0.17371432237E+04  0.25500000920E-02 0. -1.
    10030    2    1    2    0    0  0.00000000000E+00  0.00000000000E+00 -0.16284537750E+03  0.33114410699E+04  0.33074345560E+04 0.  0.
        1    1    3    3  502    0  0.54492421078E+03  0.12195295073E+04  0.89473848204E+03  0.16077162579E+04  0.50400001928E-02 0.  1.
       -1    1    3    3    0  502 -0.54492421078E+03 -0.12195295073E+04 -0.10575838595E+04  0.17037248119E+04  0.50400001928E-02 0. -1.
</event>
<event>
 5   0  0.3796529E-07  0.3278443E+04  0.7818609E-02  0.8168402E-01
       -1   -1    0    0    0  501  0.00000000000E+00  0.00000000000E+00  0.14911202579E+04  0.14911202579E+04  0.50400001928E-02 0. -1.
        1   -1    0    0  501    0  0.00000000000E+00  0.00000000000E+00 -0.18020329433E+04  0.18020329433E+04  0.50400001928E-02 0.  1.
    10030    2    1    2    0    0  0.00000000000E+00  0.00000000000E+00 -0.31091268544E+03  0.32931532012E+04  0.32784434277E+04 0.  0.
        5    1    3    3  502    0 -0.43788971643E+03  0.85918799803E+03  0.11760379417E+04  0.15208677622E+04  0.46999998093E+01 0. -1.
       -5    1    3    3    0  502  0.43788971643E+03 -0.85918799803E+03 -0.14869506271E+04  0.17722854390E+04  0.46999998093E+01 0.  1.
</event>
<event>
 5   0  0.1129434E-06  0.3332608E+04  0.7818609E-02  0.8154648E-01
        2   -1    0    0  501    0  0.00000000000E+00  0.00000000000E+00  0.31822753472E+04  0.31822753472E+04  0.25500000920E-02 0.  1.
       -2   -1    0    0    0  501  0.00000000000E+00  0.00000000000E+00 -0.87251050678E+03  0.87251050678E+03  0.25500000920E-02 0. -1.
    10030    2    1    2    0    0  0.00000000000E+00  0.00000000000E+00  0.23097648404E+04  0.40547858539E+04  0.33326077932E+04 0.  0.
        3    1    3    3  502    0 -0.10958162326E+04  0.81842833565E+03 -0.31778436006E+01  0.13677164418E+04  0.10100000352E+00 0. -1.
       -3    1    3    3    0  502  0.10958162326E+04 -0.81842833565E+03  0.23129426840E+04  0.26870694122E+04  0.10100000352E+00 0.  1.
</event>
<event>
 5   0  0.3709747E-07  0.3287168E+04  0.7818609E-02  0.8166168E-01
       -1   -1    0    0    0  501  0.00000000000E+00  0.00000000000E+00  0.24693328899E+04  0.24693328899E+04  0.50400001928E-02 0. -1.
        1   -1    0    0  501    0  0.00000000000E+00  0.00000000000E+00 -0.10939669099E+04  0.10939669099E+04  0.50400001928E-02 0.  1.
    10030    2    1    2    0    0  0.00000000000E+00  0.00000000000E+00  0.13753659800E+04  0.35632997999E+04  0.32871680645E+04 0.  0.
        4    1    3    3  502    0 -0.15510665836E+04 -0.53056192875E+03  0.55913216490E+03  0.17320317253E+04  0.12699999809E+01 0.  1.
       -4    1    3    3    0  502  0.15510665836E+04  0.53056192875E+03  0.81623381514E+03  0.18312680745E+04  0.12699999809E+01 0. -1.
</event>
<event>
 5   0  0.3757406E-07  0.3290918E+04  0.7818609E-02  0.8165210E-01
        1   -1    0    0  501    0  0.00000000000E+00  0.00000000000E+00  0.12956615557E+04  0.12956615557E+04  0.50400001928E-02 0.  1.
       -1   -1    0    0    0  501  0.00000000000E+00  0.00000000000E+00 -0.20896932526E+04  0.20896932526E+04  0.50400001928E-02 0. -1.
    10030    2    1    2    0    0  0.00000000000E+00  0.00000000000E+00 -0.79403169689E+03  0.33853548082E+04  0.32909179330E+04 0.  0.
        1    1    3    3  502    0 -0.80370565104E+03  0.93204216855E+03 -0.15205526665E+04  0.19562018784E+04  0.50400001928E-02 0. -1.
       -1    1    3    3    0  502  0.80370565104E+03 -0.93204216855E+03  0.72652096963E+03  0.14291529298E+04  0.50400001928E-02 0.  1.
</event>
<event>
 5   0  0.3749685E-07  0.2985262E+04  0.7818609E-02  0.8247952E-01
       -1   -1    0    0    0  501  0.00000000000E+00  0.00000000000E+00  0.11512105570E+04  0.11512105570E+04  0.50400001928E-02 0. -1.
        1   -1    0    0  501    0  0.00000000000E+00  0.00000000000E+00 -0.19353077997E+04  0.19353077997E+04  0.50400001928E-02 0.  1.
    10030    2    1    2    0    0  0.00000000000E+00  0.00000000000E+00 -0.78409724268E+03  0.30865183567E+04  0.29852616435E+04 0.  0.
        3    1    3    3  502    0 -0.37554384758E+03 -0.31163778699E+03  0.10663984812E+04  0.11727561651E+04  0.10100000352E+00 0. -1.
       -3    1    3    3    0  502  0.37554384758E+03  0.31163778699E+03 -0.18504957239E+04  0.19137621916E+04  0.10100000352E+00 0.  1.
</event>
<event>
 5   0  0.1120545E-06  0.3298051E+04  0.7818609E-02  0.8163391E-01
        2   -1    0    0  501    0  0.00000000000E+00  0.00000000000E+00  0.11679590502E+04  0.11679590502E+04  0.25500000920E-02 0.  1.
       -2   -1    0    0    0  501  0.00000000000E+00  0.00000000000E+00 -0.23282367027E+04  0.23282367027E+04  0.25500000920E-02 0. -1.
    10030    2    1    2    0    0  0.00000000000E+00  0.00000000000E+00 -0.11602776525E+04  0.34961957529E+04  0.32980510172E+04 0.  0.
        4    1    3    3  502    0  0.79476970740E+03 -0.13460479145E+04 -0.23441069855E+02  0.15633473615E+04  0.12699999809E+01 0.  1.
       -4    1    3    3    0  502 -0.79476970740E+03  0.13460479145E+04 -0.11368365826E+04  0.19328483915E+04  0.12699999809E+01 0. -1.
</event>
<event>
 5   0  0.1120545E-06  0.3213514E+04  0.7818609E-02  0.8185257E-01
        2   -1    0    0  501    0  0.00000000000E+00  0.00000000000E+00  0.16292537981E+04  0.16292537981E+04  0.25500000920E-02 0. -1.
       -2   -1    0    0    0  501  0.00000000000E+00  0.00000000000E+00 -0.15845710506E+04  0.15845710506E+04  0.25500000920E-02 0.  1.
    10030    2    1    2    0    0  0.00000000000E+00  0.00000000000E+00  0.44682747581E+02  0.32138248487E+04  0.32135142150E+04 0.  0.
        4    1    3    3  502    0  0.23415739350E+03  0.24702624434E+03  0.15927845843E+04  0.16287467560E+04  0.12699999809E+01 0. -1.
       -4    1    3    3    0  502 -0.23415739350E+03 -0.24702624434E+03 -0.15481018367E+04  0.15850780927E+04  0.12699999809E+01 0.  1.
</event>
<event>
 5   0  0.3674967E-07  0.3211688E+04  0.7818609E-02  0.8185737E-01
       -1   -1    0    0    0  501  0.00000000000E+00  0.00000000000E+00  0.10867749050E+04  0.10867749050E+04  0.50400001928E-02 0. -1.
        1   -1    0    0  501    0  0.00000000000E+00  0.00000000000E+00 -0.23728326177E+04  0.23728326177E+04  0.50400001928E-02 0.  1.
    10030    2    1    2    0    0  0.00000000000E+00  0.00000000000E+00 -0.12860577127E+04  0.34596075228E+04  0.32116879941E+04 0.  0.
        2    1    3    3  502    0 -0.23130920185E+03  0.84673295446E+03 -0.20915526704E+04  0.22682709750E+04  0.25500000920E-02 0.  1.
       -2    1    3    3    0  502  0.23130920185E+03 -0.84673295446E+03  0.80549495772E+03  0.11913365477E+04  0.25500000920E-02 0. -1.
</event>
<event>
 5   0  0.3796529E-07  0.3232809E+04  0.7818609E-02  0.8180206E-01
        1   -1    0    0  501    0  0.00000000000E+00  0.00000000000E+00  0.17020181575E+04  0.17020181575E+04  0.50400001928E-02 0. -1.
       -1   -1    0    0    0  501  0.00000000000E+00  0.00000000000E+00 -0.15350974899E+04  0.15350974899E+04  0.50400001928E-02 0.  1.
    10030    2    1    2    0    0  0.00000000000E+00  0.00000000000E+00  0.16692066761E+03  0.32371156473E+04  0.32328091816E+04 0.  0.
        5    1    3    3  502    0  0.69734050860E+03 -0.48405058854E+03 -0.12939275684E+04  0.15475333274E+04  0.46999998093E+01 0.  1.
       -5    1    3    3    0  502 -0.69734050860E+03  0.48405058854E+03  0.14608482360E+04  0.16895823199E+04  0.46999998093E+01 0. -1.
</event>
<event>
 5   0  0.3796529E-07  0.3324848E+04  0.7818609E-02  0.8156601E-01
        1   -1    0    0  501    0  0.00000000000E+00  0.00000000000E+00  0.11842491866E+04  0.11842491866E+04  0.50400001928E-02 0. -1.
       -1   -1    0    0    0  501  0.00000000000E+00  0.00000000000E+00 -0.23336764070E+04  0.23336764070E+04  0.50400001928E-02 0.  1.
    10030    2    1    2    0    0  0.00000000000E+00  0.00000000000E+00 -0.11494272204E+04  0.35179255936E+04  0.33248484999E+04 0.  0.
        5    1    3    3  502    0 -0.64007545159E+03 -0.15180610257E+04 -0.33948267602E+03  0.16821047645E+04  0.46999998093E+01 0. -1.
       -5    1    3    3    0  502  0.64007545159E+03  0.15180610257E+04 -0.80994454436E+03  0.18358208291E+04  0.46999998093E+01 0.  1.
</event>
<event>
 5   0  0.1126221E-06  0.3311413E+04  0.7818609E-02  0.8159997E-01
       -2   -1    0    0    0  501  0.00000000000E+00  0.00000000000E+00  0.16758056858E+04  0.16758056858E+04  0.25500000920E-02 0. -1.
        2   -1    0    0  501    0  0.00000000000E+00  0.00000000000E+00 -0.16358484993E+04  0.16358484993E+04  0.25500000920E-02 0.  1.
    10030    2    1    2    0    0  0.00000000000E+00  0.00000000000E+00  0.39957186543E+02  0.33116541851E+04  0.33114131221E+04 0.  0.
        2    1    3    3  502    0 -0.54062818934E+03  0.92292916088E+03 -0.12439516687E+04  0.16405769806E+04  0.25500000920E-02 0.  1.
       -2    1    3    3    0  502  0.54062818934E+03 -0.92292916088E+03  0.12839088552E+04  0.16710772046E+04  0.25500000920E-02 0. -1.
</event>
<event>
 5   0  0.1129434E-06  0.3292104E+04  0.7818609E-02  0.8164907E-01
        2   -1    0    0  501    0  0.00000000000E+00  0.00000000000E+00  0.17571328448E+04  0.17571328448E+04  0.25500000920E-02 0.  1.
       -2   -1    0    0    0  501  0.00000000000E+00  0.00000000000E+00 -0.15419933089E+04  0.15419933090E+04  0.25500000920E-02 0. -1.
    10030    2    1    2    0    0  0.00000000000E+00  0.00000000000E+00  0.21513953582E+03  0.32991261537E+04  0.32921039410E+04 0.  0.
        3    1    3    3  502    0 -0.11774630018E+04  0.11502439439E+04  0.11018846705E+03  0.16497338450E+04  0.10100000352E+00 0.  1.
       -3    1    3    3    0  502  0.11774630018E+04 -0.11502439439E+04  0.10495106876E+03  0.16493923087E+04  0.10100000352E+00 0. -1.
</event>
<event>
 5   0  0.1116462E-06  0.3317426E+04  0.7818609E-02  0.8158475E-01
       -2   -1    0    0    0  501  0.00000000000E+00  0.00000000000E+00  0.14824736739E+04  0.14824736739E+04  0.25500000920E-02 0. -1.
        2   -1    0    0  501    0  0.00000000000E+00  0.00000000000E+00 -0.18559040647E+04  0.18559040647E+04  0.25500000920E-02 0.  1.
    10030    2    1    2    0    0  0.00000000000E+00  0.00000000000E+00 -0.37343039084E+03  0.33383777386E+04  0.33174260608E+04 0.  0.
        1    1    3    3  502    0 -0.12764394321E+04 -0.10507417468E+04 -0.32162559143E+03  0.16842799243E+04  0.50400001928E-02 0. -1.
       -1    1    3    3    0  502  0.12764394321E+04  0.10507417468E+04 -0.51804799412E+02  0.16540978144E+04  0.50400001928E-02 0.  1.
</event>
<event>
 5   0  0.1126221E-06  0.3333075E+04  0.7818609E-02  0.8154530E-01
        2   -1    0    0  501    0  0.00000000000E+00  0.00000000000E+00  0.25738798430E+04  0.25738798430E+04  0.25500000920E-02 0. -1.
       -2   -1    0    0    0  501  0.00000000000E+00  0.00000000000E+00 -0.10790511694E+04  0.10790511694E+04  0.25500000920E-02 0.  1.
    10030    2    1    2    0    0  0.00000000000E+00  0.00000000000E+00  0.14948286737E+04  0.36529310124E+04  0.33330754893E+04 0.  0.
        2    1    3    3  502    0 -0.83631289306E+03 -0.11868865615E+04  0.16439833515E+04  0.21933536479E+04  0.25500000920E-02 0. -1.
       -2    1    3    3    0  502  0.83631289306E+03  0.11868865615E+04 -0.14915467780E+03  0.14595773645E+04  0.25500000920E-02 0.  1.
</event>
<event>
 5   0  0.1129434E-06  0.3269286E+04  0.7818609E-02  0.8170755E-01
       -2   -1    0    0    0  501  0.00000000000E+00  0.00000000000E+00  0.24347127553E+04  0.24347127553E+04  0.25500000920E-02 0.  1.
        2   -1    0    0  501    0  0.00000000000E+00  0.00000000000E+00 -0.10974840127E+04  0.10974840127E+04  0.25500000920E-02 0. -1.
    10030    2    1    2    0    0  0.00000000000E+00  0.00000000000E+00  0.13372287426E+04  0.35321967680E+04  0.32692863591E+04 0.  0.
        3    1    3    3  502    0  0.13435561551E+04  0.70585018098E+03  0.13246433359E+04  0.20144596292E+04  0.10100000352E+00 0.  1.
       -3    1    3    3    0  502 -0.13435561551E+04 -0.70585018098E+03  0.12585406627E+02  0.15177371388E+04  0.10100000352E+00 0. -1.
</event>
<event>
 5   0  0.3796529E-07  0.3291619E+04  0.7818609E-02  0.8165031E-01
       -1   -1    0    0    0  501  0.00000000000E+00  0.00000000000E+00  0.13188340677E+04  0.13188340677E+04  0.50400001928E-02 0.  1.
        1   -1    0    0  501    0  0.00000000000E+00  0.00000000000E+00 -0.20538516749E+04  0.20538516749E+04  0.50400001928E-02 0. -1.
    10030    2    1    2    0    0  0.00000000000E+00  0.00000000000E+00 -0.73501760714E+03  0.33726857426E+04  0.32916193941E+04 0.  0.
        5    1    3    3  502    0 -0.75323801439E+03 -0.10244637152E+04  0.70310453466E+03  0.14530215025E+04  0.46999998093E+01 0.  1.
       -5    1    3    3    0  502  0.75323801439E+03  0.10244637152E+04 -0.14381221418E+04  0.19196642401E+04  0.46999998093E+01 0. -1.
</event>
<event>
 5   0  0.1146799E-06  0.3306370E+04  0.7818609E-02  0.8161277E-01
        2   -1    0    0  501    0  0.00000000000E+00  0.00000000000E+00  0.14211813164E+04  0.14211813164E+04  0.25500000920E-02 0. -1.
       -2   -1    0    0    0  501  0.00000000000E+00  0.00000000000E+00 -0.19230621349E+04  0.19230621349E+04  0.25500000920E-02 0.  1.
    10030    2    1    2    0    0  0.00000000000E+00  0.00000000000E+00 -0.50188081845E+03  0.33442434513E+04  0.33063695960E+04 0.  0.
        5    1    3    3  502    0  0.11687862676E+04  0.98440590015E+03 -0.88894440477E+03  0.17678689319E+04  0.46999998093E+01 0.  1.
       -5    1    3    3    0  502 -0.11687862676E+04 -0.98440590015E+03  0.38706358632E+03  0.15763745194E+04  0.46999998093E+01 0. -1.
</event>
<event>
 5   0  0.3796529E-07  0.3315359E+04  0.7818609E-02  0.8158998E-01
        1   -1    0    0  501    0  0.00000000000E+00  0.00000000000E+00  0.24870931395E+04  0.24870931395E+04  0.50400001928E-02 0.  1.
       -1   -1    0    0    0  501  0.00000000000E+00  0.00000000000E+00 -0.11048648678E+04  0.11048648678E+04  0.50400001928E-02 0. -1.
    10030    2    1    2    0    0  0.00000000000E+00  0.00000000000E+00  0.13822282717E+04  0.35919580073E+04  0.33153593065E+04 0.  0.
        5    1    3    3  502    0 -0.11441026960E+03 -0.11620802161E+04 -0.58363611851E+03  0.13054399057E+04  0.46999998093E+01 0. -1.
       -5    1    3    3    0  502  0.11441026960E+03  0.11620802161E+04  0.19658643902E+04  0.22865181017E+04  0.46999998093E+01 0.  1.
</event>
<event>
 5   0  0.3749685E-07  0.3291513E+04  0.7818609E-02  0.8165058E-01
        1   -1    0    0  501    0  0.00000000000E+00  0.00000000000E+00  0.17688561599E+04  0.17688561599E+04  0.50400001928E-02 0.  1.
       -1   -1    0    0    0  501  0.00000000000E+00  0.00000000000E+00 -0.15312241029E+04  0.15312241029E+04  0.50400001928E-02 0. -1.
    10030    2    1    2    0    0  0.00000000000E+00  0.00000000000E+00  0.23763205697E+03  0.33000802628E+04  0.32915134432E+04 0.  0.
        3    1    3    3  502    0  0.14193807323E+04  0.81460358941E+03 -0.55690147344E+02  0.16374742972E+04  0.10100000352E+00 0. -1.
       -3    1    3    3    0  502 -0.14193807323E+04 -0.81460358941E+03  0.29332220432E+03  0.16626059656E+04  0.10100000352E+00 0.  1.
</event>
<event>
 5   0  0.1129434E-06  0.3272509E+04  0.7818609E-02  0.8169926E-01
        2   -1    0    0  501    0  0.00000000000E+00  0.00000000000E+00  0.13052061112E+04  0.13052061112E+04  0.25500000920E-02 0. -1.
       -2   -1    0    0    0  501  0.00000000000E+00  0.00000000000E+00 -0.20512695513E+04  0.20512695513E+04  0.25500000920E-02 0.  1.
    10030    2    1    2    0    0  0.00000000000E+00  0.00000000000E+00 -0.74606344008E+03  0.33564756625E+04  0.32725094677E+04 0.  0.
        3    1    3    3  502    0 -0.40428400344E+03 -0.98586123090E+03  0.90058682195E+03  0.13951432027E+04  0.10100000352E+00 0. -1.
       -3    1    3    3    0  502  0.40428400344E+03  0.98586123090E+03 -0.16466502620E+04  0.19613324598E+04  0.10100000352E+00 0.  1.
</event>
<event>
 5   0  0.3757406E-07  0.3304391E+04  0.7818609E-02  0.8161779E-01
        1   -1    0    0  501    0  0.00000000000E+00  0.00000000000E+00  0.19010987372E+04  0.19010987372E+04  0.50400001928E-02 0.  1.
       -1   -1    0    0    0  501  0.00000000000E+00  0.00000000000E+00 -0.14358800777E+04  0.14358800777E+04  0.50400001928E-02 0. -1.
    10030    2    1    2    0    0  0.00000000000E+00  0.00000000000E+00  0.46521865953E+03  0.33369788150E+04  0.33043908985E+04 0.  0.
        1    1    3    3  502    0 -0.85875132308E+03  0.59977153488E+02 -0.11915104817E+04  0.14699484078E+04  0.50400001928E-02 0. -1.
       -1    1    3    3    0  502  0.85875132308E+03 -0.59977153488E+02  0.16567291412E+04  0.18670304071E+04  0.50400001928E-02 0.  1.
</event>
<event>
 5   0  0.3749685E-07  0.3291276E+04  0.7818609E-02  0.8165119E-01
       -1   -1    0    0    0  501  0.00000000000E+00  0.00000000000E+00  0.17059111565E+04  0.17059111565E+04  0.50400001928E-02 0.  1.
        1   -1    0    0  501    0  0.00000000000E+00  0.00000000000E+00 -0.15874947041E+04  0.15874947041E+04  0.50400001928E-02 0. -1.
    10030    2    1    2    0    0  0.00000000000E+00  0.00000000000E+00  0.11841645243E+03  0.32934058606E+04  0.32912763035E+04 0.  0.
        3    1    3    3  502    0 -0.15828530606E+04 -0.45011633512E+03  0.49384042243E+02  0.16463496956E+04  0.10100000352E+00 0. -1.
       -3    1    3    3    0  502  0.15828530606E+04  0.45011633512E+03  0.69032410190E+02  0.16470561649E+04  0.10100000352E+00 0.  1.
</event>
<event>
 5   0  0.3709747E-07  0.3308961E+04  0.7818609E-02  0.8160619E-01
        1   -1    0    0  501    0  0.00000000000E+00  0.00000000000E+00  0.17735371608E+04  0.17735371608E+04  0.50400001928E-02 0.  1.
       -1   -1    0    0    0  501  0.00000000000E+00  0.00000000000E+00 -0.15434157669E+04  0.15434157669E+04  0.50400001928E-02 0. -1.
    10030    2    1    2    0    0  0.00000000000E+00  0.00000000000E+00  0.23012139394E+03  0.33169529277E+04  0.33089606931E+04 0.  0.
        4    1    3    3  502    0  0.96701877017E+03  0.11704935505E+04 -0.54388779276E+03  0.16127603659E+04  0.12699999809E+01 0. -1.
       -4    1    3    3    0  502 -0.96701877017E+03 -0.11704935505E+04  0.77400918670E+03  0.17041925618E+04  0.12699999809E+01 0.  1.
</event>
<event>
 5   0  0.3796529E-07  0.3200624E+04  0.7818609E-02  0.8188652E-01
        1   -1    0    0  501    0  0.00000000000E+00  0.00000000000E+00  0.27668390962E+04  0.27668390962E+04  0.50400001928E-02 0. -1.
       -1   -1    0    0    0  501  0.00000000000E+00  0.00000000000E+00 -0.92560439621E+03  0.92560439622E+03  0.50400001928E-02 0.  1.
    10030    2    1    2    0    0  0.00000000000E+00  0.00000000000E+00  0.18412347000E+04  0.36924434924E+04  0.32006239586E+04 0.  0.
        5    1    3    3  502    0 -0.53690534710E+03 -0.99108852777E+03 -0.38992246871E+03  0.11927218633E+04  0.46999998093E+01 0.  1.
       -5    1    3    3    0  502  0.53690534710E+03  0.99108852777E+03  0.22311571687E+04  0.24997216291E+04  0.46999998093E+01 0. -1.
</event>
<event>
 5   0  0.1120545E-06  0.3329602E+04  0.7818609E-02  0.8155404E-01
       -2   -1    0    0    0  501  0.00000000000E+00  0.00000000000E+00  0.22009243412E+04  0.22009243412E+04  0.25500000920E-02 0.  1.
        2   -1    0    0  501    0  0.00000000000E+00  0.00000000000E+00 -0.12592718667E+04  0.12592718667E+04  0.25500000920E-02 0. -1.
    10030    2    1    2    0    0  0.00000000000E+00  0.00000000000E+00  0.94165247452E+03  0.34601962079E+04  0.33296018402E+04 0.  0.
        4    1    3    3  502    0 -0.50034898105E+03 -0.11606947232E+04 -0.65518393441E+03  0.14236674275E+04  0.12699999809E+01 0. -1.
       -4    1    3    3    0  502  0.50034898105E+03  0.11606947232E+04  0.15968364089E+04  0.20365287803E+04  0.12699999809E+01 0.  1.
</event>
<event>
 5   0  0.1116462E-06  0.3290675E+04  0.7818609E-02  0.8165272E-01
       -2   -1    0    0    0  501  0.00000000000E+00  0.00000000000E+00  0.12375450420E+04  0.12375450420E+04  0.25500000920E-02 0.  1.
        2   -1    0    0  501    0  0.00000000000E+00  0.00000000000E+00 -0.21875044450E+04  0.21875044450E+04  0.25500000920E-02 0. -1.
    10030    2    1    2    0    0  0.00000000000E+00  0.00000000000E+00 -0.94995940298E+03  0.34250494870E+04  0.32906748732E+04 0.  0.
        1    1    3    3  502    0  0.39461932889E+03 -0.92200749418E+03  0.88262705882E+03  0.13359838169E+04  0.50400001928E-02 0.  1.
       -1    1    3    3    0  502 -0.39461932889E+03  0.92200749418E+03 -0.18325864618E+04  0.20890656701E+04  0.50400001928E-02 0. -1.
</event>
<event>
 5   0  0.3709747E-07  0.3193007E+04  0.7818609E-02  0.8190667E-01
        1   -1    0    0  501    0  0.00000000000E+00  0.00000000000E+00  0.20606059294E+04  0.20606059294E+04  0.50400001928E-02 0. -1.
       -1   -1    0    0    0  501  0.00000000000E+00  0.00000000000E+00 -0.12369289051E+04  0.12369289051E+04  0.50400001928E-02 0.  1.
    10030    2    1    2    0    0  0.00000000000E+00  0.00000000000E+00  0.82367702424E+03  0.32975348345E+04  0.31930067561E+04 0.  0.
        4    1    3    3  502    0 -0.57359852466E+03  0.11576214148E+04 -0.55679947105E+03  0.14068155072E+04  0.12699999809E+01 0.  1.
       -4    1    3    3    0  502  0.57359852466E+03 -0.11576214148E+04  0.13804764953E+04  0.18907193273E+04  0.12699999809E+01 0. -1.
</event>
<event>
 5   0  0.1126221E-06  0.3180561E+04  0.7818609E-02  0.8193970E-01
       -2   -1    0    0    0  501  0.00000000000E+00  0.00000000000E+00  0.14873945672E+04  0.14873945672E+04  0.25500000920E-02 0. -1.
        2   -1    0    0  501    0  0.00000000000E+00  0.00000000000E+00 -0.17002827280E+04  0.17002827280E+04  0.25500000920E-02 0.  1.
    10030    2    1    2    0    0  0.00000000000E+00  0.00000000000E+00 -0.21288816075E+03  0.31876772952E+04  0.31805605118E+04 0.  0.
        2    1    3    3  502    0 -0.13676013000E+04 -0.14597544043E+03 -0.90657193759E+03  0.16472749688E+04  0.25500000920E-02 0.  1.
       -2    1    3    3    0  502  0.13676013000E+04  0.14597544043E+03  0.69368377684E+03  0.15404023264E+04  0.25500000920E-02 0. -1.
</event>
<event>
 5   0  0.3796529E-07  0.3281772E+04  0.7818609E-02  0.8167549E-01
        1   -1    0    0  501    0  0.00000000000E+00  0.00000000000E+00  0.20603284669E+04  0.20603284669E+04  0.50400001928E-02 0.  1.
       -1   -1    0    0    0  501  0.00000000000E+00  0.00000000000E+00 -0.13068341598E+04  0.13068341598E+04  0.50400001928E-02 0. -1.
    10030    2    1    2    0    0  0.00000000000E+00  0.00000000000E+00  0.75349430713E+03  0.33671626267E+04  0.32817724607E+04 0.  0.
        5    1    3    3  502    0 -0.93913030080E+03 -0.12519916116E+04 -0.12906779192E+03  0.15703914487E+04  0.46999998093E+01 0. -1.
       -5    1    3    3    0  502  0.93913030080E+03  0.12519916116E+04  0.88256209905E+03  0.17967711780E+04  0.46999998093E+01 0.  1.
</event>
<event>
 5   0  0.1126221E-06  0.3279013E+04  0.7818609E-02  0.8168256E-01
        2   -1    0    0  501    0  0.00000000000E+00  0.00000000000E+00  0.19984910515E+04  0.19984910515E+04  0.25500000920E-02 0. -1.
       -2   -1    0    0    0  501  0.00000000000E+00  0.00000000000E+00 -0.13450059637E+04  0.13450059637E+04  0.25500000920E-02 0.  1.
    10030    2    1    2    0    0  0.00000000000E+00  0.00000000000E+00  0.65348508782E+03  0.33434970153E+04  0.32790134997E+04 0.  0.
        2    1    3    3  502    0  0.70138167292E+02  0.16339113831E+04  0.44476244109E+03  0.16948154470E+04  0.25500000920E-02 0. -1.
       -2    1    3    3    0  502 -0.70138167292E+02 -0.16339113831E+04  0.20872264673E+03  0.16486815683E+04  0.25500000920E-02 0.  1.
</event>
<event>
 5   0  0.3709747E-07  0.3316520E+04  0.7818609E-02  0.8158705E-01
        1   -1    0    0  501    0  0.00000000000E+00  0.00000000000E+00  0.15070100186E+04  0.15070100186E+04  0.50400001928E-02 0.  1.
       -1   -1    0    0    0  501  0.00000000000E+00  0.00000000000E+00 -0.18246902210E+04  0.18246902210E+04  0.50400001928E-02 0. -1.
    10030    2    1    2    0    0  0.00000000000E+00  0.00000000000E+00 -0.31768020239E+03  0.33317002395E+04  0.33165201304E+04 0.  0.
        4    1    3    3  502    0 -0.78125037709E+03 -0.28790412630E+03 -0.15994835128E+04  0.18032165866E+04  0.12699999809E+01 0. -1.
       -4    1    3    3    0  502  0.78125037709E+03  0.28790412630E+03  0.12818033104E+04  0.15284836529E+04  0.12699999809E+01 0.  1.
</event>
<event>
 5   0  0.3709747E-07  0.3323310E+04  0.7818609E-02  0.8156989E-01
        1   -1    0    0  501    0  0.00000000000E+00  0.00000000000E+00  0.23608384879E+04  0.23608384880E+04  0.50400001928E-02 0. -1.
       -1   -1    0    0    0  501  0.00000000000E+00  0.00000000000E+00 -0.11695410559E+04  0.11695410559E+04  0.50400001928E-02 0.  1.
    10030    2    1    2    0    0  0.00000000000E+00  0.00000000000E+00  0.11912974321E+04  0.35303795438E+04  0.33233101197E+04 0.  0.
        4    1    3    3  502    0 -0.71371243045E+03 -0.72653273679E+03  0.19904155416E+04  0.22358423227E+04  0.12699999809E+01 0. -1.
       -4    1    3    3    0  502  0.71371243045E+03  0.72653273679E+03 -0.79911810951E+03  0.12945372211E+04  0.12699999809E+01 0.  1.
</event>
<event>
 5   0  0.3709747E-07  0.3304158E+04  0.7818609E-02  0.8161838E-01
        1   -1    0    0  501    0  0.00000000000E+00  0.00000000000E+00  0.21367037273E+04  0.21367037273E+04  0.50400001928E-02 0. -1.
       -1   -1    0    0    0  501  0.00000000000E+00  0.00000000000E+00 -0.12773718301E+04  0.12773718301E+04  0.50400001928E-02 0.  1.
    10030    2    1    2    0    0  0.00000000000E+00  0.00000000000E+00  0.85933189718E+03  0.34140755575E+04  0.33041580777E+04 0.  0.
        4    1    3    3  502    0  0.49719728696E+03  0.58583067305E+03 -0.10815054534E+04  0.13266719181E+04  0.12699999809E+01 0.  1.
       -4    1    3    3    0  502 -0.49719728696E+03 -0.58583067305E+03  0.19408373505E+04  0.20874036394E+04  0.12699999809E+01 0. -1.
</event>
<event>
 5   0  0.1120545E-06  0.3351272E+04  0.7818609E-02  0.8149970E-01
        2   -1    0    0  501    0  0.00000000000E+00  0.00000000000E+00  0.22304789519E+04  0.22304789519E+04  0.25500000920E-02 0.  1.
       -2   -1    0    0    0  501  0.00000000000E+00  0.00000000000E+00 -0.12588132982E+04  0.12588132982E+04  0.25500000920E-02 0. -1.
    10030    2    1    2    0    0  0.00000000000E+00  0.00000000000E+00  0.97166565375E+03  0.34892922501E+04  0.33512723351E+04 0.  0.
        4    1    3    3  502    0  0.53366467267E+03 -0.57331854914E+03  0.20281437904E+04  0.21741345379E+04  0.12699999809E+01 0.  1.
       -4    1    3    3    0  502 -0.53366467267E+03  0.57331854914E+03 -0.10564781366E+04  0.13151577121E+04  0.12699999809E+01 0. -1.
</event>
<event>
 5   0  0.3573375E-07  0.3292148E+04  0.7818609E-02  0.8164896E-01
        3   -1    0    0  501    0  0.00000000000E+00  0.00000000000E+00  0.11860928993E+04  0.11860929036E+04  0.10100000352E+00 0. -1.
       -3   -1    0    0    0  501  0.00000000000E+00  0.00000000000E+00 -0.22844413007E+04  0.22844413030E+04  0.10100000352E+00 0.  1.
    10030    2    1    2    0    0  0.00000000000E+00  0.00000000000E+00 -0.10983484015E+04  0.34705342066E+04  0.32921480021E+04 0.  0.
        5    1    3    3  502    0  0.13983497603E+04  0.70479803530E+03 -0.10840267569E+04  0.19045362749E+04  0.46999998093E+01 0.  1.
       -5    1    3    3    0  502 -0.13983497603E+04 -0.70479803530E+03 -0.14321644597E+02  0.15659979317E+04  0.46999998093E+01 0. -1.
</event>
<event>
 5   0  0.1146799E-06  0.3331813E+04  0.7818609E-02  0.8154847E-01
        2   -1    0    0  501    0  0.00000000000E+00  0.00000000000E+00  0.22075243035E+04  0.22075243035E+04  0.25500000920E-02 0.  1.
       -2   -1    0    0    0  501  0.00000000000E+00  0.00000000000E+00 -0.12571750445E+04  0.12571750445E+04  0.25500000920E-02 0. -1.
    10030    2    1    2    0    0  0.00000000000E+00  0.00000000000E+00  0.95034925904E+03  0.34646993480E+04  0.33318129987E+04 0.  0.
        5    1    3    3  502    0 -0.24837405377E+03 -0.16345135650E+04  0.68802879383E+03  0.17907344794E+04  0.46999998093E+01 0. -1.
       -5    1    3    3    0  502  0.24837405377E+03  0.16345135650E+04  0.26232046521E+03  0.16739648686E+04  0.46999998093E+01 0.  1.
</event>
<event>
 5   0  0.1146799E-06  0.3308630E+04  0.7818609E-02  0.8160703E-01
       -2   -1    0    0    0  501  0.00000000000E+00  0.00000000000E+00  0.17225147763E+04  0.17225147763E+04  0.25500000920E-02 0. -1.
        2   -1    0    0  501    0  0.00000000000E+00  0.00000000000E+00 -0.15888154678E+04  0.15888154678E+04  0.25500000920E-02 0.  1.
    10030    2    1    2    0    0  0.00000000000E+00  0.00000000000E+00  0.13369930843E+03  0.33113302441E+04  0.33086300006E+04 0.  0.
        5    1    3    3  502    0 -0.63613323484E+03 -0.11186247269E+04 -0.97358968712E+03  0.16136560169E+04  0.46999998093E+01 0.  1.
       -5    1    3    3    0  502  0.63613323484E+03  0.11186247269E+04  0.11072889956E+04  0.16976742272E+04  0.46999998093E+01 0. -1.
</event>
<event>
 5   0  0.1120545E-06  0.3186807E+04  0.7818609E-02  0.8192310E-01
       -2   -1    0    0    0  501  0.00000000000E+00  0.00000000000E+00  0.17129394245E+04  0.17129394245E+04  0.25500000920E-02 0.  1.
        2   -1    0    0  501    0  0.00000000000E+00  0.00000000000E+00 -0.14822095545E+04  0.14822095545E+04  0.25500000920E-02 0. -1.
    10030    2    1    2    0    0  0.00000000000E+00  0.00000000000E+00  0.23072986997E+03  0.31951489790E+04  0.31868072934E+04 0.  0.
        4    1    3    3  502    0 -0.11468804182E+04  0.32801689130E+03 -0.94381109975E+03  0.15210886823E+04  0.12699999809E+01 0. -1.
       -4    1    3    3    0  502  0.11468804182E+04 -0.32801689130E+03  0.11745409697E+04  0.16740602967E+04  0.12699999809E+01 0.  1.
</event>
<event>
 5   0  0.3709747E-07  0.3322111E+04  0.7818609E-02  0.8157292E-01
        1   -1    0    0  501    0  0.00000000000E+00  0.00000000000E+00  0.11628338099E+04  0.11628338099E+04  0.50400001928E-02 0. -1.
       -1   -1    0    0    0  501  0.00000000000E+00  0.00000000000E+00 -0.23727430745E+04  0.23727430745E+04  0.50400001928E-02 0.  1.
    10030    2    1    2    0    0  0.00000000000E+00  0.00000000000E+00 -0.12099092646E+04  0.35355768844E+04  0.33221112981E+04 0.  0.
        4    1    3    3  502    0  0.10323155112E+04  0.50013650600E+02 -0.19888670654E+04  0.22413769198E+04  0.12699999809E+01 0.  1.
       -4    1    3    3    0  502 -0.10323155112E+04 -0.50013650600E+02  0.77895780083E+03  0.12941999646E+04  0.12699999809E+01 0. -1.
</event>
<event>
 5   0  0.3674967E-07  0.3363236E+04  0.7818609E-02  0.8146989E-01
        1   -1    0    0  501    0  0.00000000000E+00  0.00000000000E+00  0.25973551566E+04  0.25973551566E+04  0.50400001928E-02 0. -1.
       -1   -1    0    0    0  501  0.00000000000E+00  0.00000000000E+00 -0.10887376536E+04  0.10887376536E+04  0.50400001928E-02 0.  1.
    10030    2    1    2    0    0  0.00000000000E+00  0.00000000000E+00  0.15086175030E+04  0.36860928102E+04  0.33632355605E+04 0.  0.
        2    1    3    3  502    0  0.88916938024E+03  0.24594546134E+03  0.22952366814E+04  0.24737062842E+04  0.25500000920E-02 0. -1.
       -2    1    3    3    0  502 -0.88916938024E+03 -0.24594546134E+03 -0.78661917839E+03  0.12123865260E+04  0.25500000920E-02 0.  1.
</event>
<event>
 5   0  0.1126221E-06  0.3291883E+04  0.7818609E-02  0.8164964E-01
       -2   -1    0    0    0  501  0.00000000000E+00  0.00000000000E+00  0.14062807662E+04  0.14062807662E+04  0.25500000920E-02 0.  1.
        2   -1    0    0  501    0  0.00000000000E+00  0.00000000000E+00 -0.19264456116E+04  0.19264456116E+04  0.25500000920E-02 0. -1.
    10030    2    1    2    0    0  0.00000000000E+00  0.00000000000E+00 -0.52016484542E+03  0.33327263778E+04  0.32918829935E+04 0.  0.
        2    1    3    3  502    0  0.10842723410E+03  0.14566434402E+04  0.50798505458E+03  0.15464848505E+04  0.25500000920E-02 0.  1.
       -2    1    3    3    0  502 -0.10842723410E+03 -0.14566434402E+04 -0.10281499000E+04  0.17862415273E+04  0.25500000920E-02 0. -1.
</event>
<event>
 5   0  0.3674967E-07  0.3287809E+04  0.7818609E-02  0.8166004E-01
        1   -1    0    0  501    0  0.00000000000E+00  0.00000000000E+00  0.16862140770E+04  0.16862140770E+04  0.50400001928E-02 0. -1.
       -1   -1    0    0    0  501  0.00000000000E+00  0.00000000000E+00 -0.16026564509E+04  0.16026564509E+04  0.50400001928E-02 0.  1.
    10030    2    1    2    0    0  0.00000000000E+00  0.00000000000E+00  0.83557626054E+02  0.32888705279E+04  0.32878089166E+04 0.  0.
        2    1    3    3  502    0  0.90313500878E+03 -0.58733553911E+03  0.12838745528E+04  0.16759921679E+04  0.25500000920E-02 0. -1.
       -2    1    3    3    0  502 -0.90313500878E+03  0.58733553911E+03 -0.12003169267E+04  0.16128783600E+04  0.25500000920E-02 0.  1.
</event>
<event>
 5   0  0.1129434E-06  0.3262925E+04  0.7818609E-02  0.8172394E-01
       -2   -1    0    0    0  501  0.00000000000E+00  0.00000000000E+00  0.26236085870E+04  0.26236085870E+04  0.25500000920E-02 0.  1.
        2   -1    0    0  501    0  0.00000000000E+00  0.00000000000E+00 -0.10145070893E+04  0.10145070893E+04  0.25500000920E-02 0. -1.
    10030    2    1    2    0    0  0.00000000000E+00  0.00000000000E+00  0.16091014977E+04  0.36381156763E+04  0.32629247685E+04 0.  0.
        3    1    3    3  502    0 -0.16010020349E+04  0.29999184721E+03  0.90714689930E+03  0.18644350702E+04  0.10100000352E+00 0.  1.
       -3    1    3    3    0  502  0.16010020349E+04 -0.29999184721E+03  0.70195459839E+03  0.17736806061E+04  0.10100000352E+00 0. -1.
</event>
<event>
 5   0  0.1146799E-06  0.3269906E+04  0.7818609E-02  0.8170595E-01
       -2   -1    0    0    0  501  0.00000000000E+00  0.00000000000E+00  0.14004934324E+04  0.14004934324E+04  0.25500000920E-02 0. -1.
        2   -1    0    0  501    0  0.00000000000E+00  0.00000000000E+00 -0.19086634966E+04  0.19086634966E+04  0.25500000920E-02 0.  1.
    10030    2    1    2    0    0  0.00000000000E+00  0.00000000000E+00 -0.50817006414E+03  0.33091569290E+04  0.32699056205E+04 0.  0.
        5    1    3    3  502    0 -0.54347418135E+03 -0.20635297948E+03 -0.18005324348E+04  0.18920583703E+04  0.46999998093E+01 0.  1.
       -5    1    3    3    0  502  0.54347418135E+03  0.20635297948E+03  0.12923623707E+04  0.14170985587E+04  0.46999998093E+01 0. -1.
</event>
<event>
 5   0  0.3796529E-07  0.3268187E+04  0.7818609E-02  0.8171038E-01
       -1   -1    0    0    0  501  0.00000000000E+00  0.00000000000E+00  0.20272777699E+04  0.20272777700E+04  0.50400001928E-02 0. -1.
        1   -1    0    0  501    0  0.00000000000E+00  0.00000000000E+00 -0.13171659857E+04  0.13171659857E+04  0.50400001928E-02 0.  1.
    10030    2    1    2    0    0  0.00000000000E+00  0.00000000000E+00  0.71011178421E+03  0.33444437557E+04  0.32681868504E+04 0.  0.
        5    1    3    3  502    0 -0.14858372650E+04  0.22383041798E+03 -0.30213336679E+03  0.15326836254E+04  0.46999998093E+01 0.  1.
       -5    1    3    3    0  502  0.14858372650E+04 -0.22383041798E+03  0.10122451510E+04  0.18117601303E+04  0.46999998093E+01 0. -1.
</event>
<event>
 5   0  0.3749685E-07  0.3245151E+04  0.7818609E-02  0.8176994E-01
        1   -1    0    0  501    0  0.00000000000E+00  0.00000000000E+00  0.20429924275E+04  0.20429924275E+04  0.50400001928E-02 0. -1.
       -1   -1    0    0    0  501  0.00000000000E+00  0.00000000000E+00 -0.12886743133E+04  0.12886743133E+04  0.50400001928E-02 0.  1.
    10030    2    1    2    0    0  0.00000000000E+00  0.00000000000E+00  0.75431811424E+03  0.33316667409E+04  0.32451513762E+04 0.  0.
        3    1    3    3  502    0  0.49726974761E+03 -0.36338036921E+03 -0.11640039196E+04  0.13169007668E+04  0.10100000352E+00 0.  1.
       -3    1    3    3    0  502 -0.49726974761E+03  0.36338036921E+03  0.19183220338E+04  0.20147659741E+04  0.10100000352E+00 0. -1.
</event>
<event>
 5   0  0.1129434E-06  0.3298910E+04  0.7818609E-02  0.8163173E-01
       -2   -1    0    0    0  501  0.00000000000E+00  0.00000000000E+00  0.22956649247E+04  0.22956649247E+04  0.25500000920E-02 0.  1.
        2   -1    0    0  501    0  0.00000000000E+00  0.00000000000E+00 -0.11851475943E+04  0.11851475943E+04  0.25500000920E-02 0. -1.
    10030    2    1    2    0    0  0.00000000000E+00  0.00000000000E+00  0.11105173304E+04  0.34808125189E+04  0.32989099792E+04 0.  0.
        3    1    3    3  502    0  0.70845989769E+03  0.95379881166E+03  0.17624857596E+04  0.21255596117E+04  0.10100000352E+00 0.  1.
       -3    1    3    3    0  502 -0.70845989769E+03 -0.95379881166E+03 -0.65196842924E+03  0.13552529073E+04  0.10100000352E+00 0. -1.
</event>
<event>
 5   0  0.1116462E-06  0.3290282E+04  0.7818609E-02  0.8165373E-01
       -2   -1    0    0    0  501  0.00000000000E+00  0.00000000000E+00  0.17747814699E+04  0.17747814699E+04  0.25500000920E-02 0.  1.
        2   -1    0    0  501    0  0.00000000000E+00  0.00000000000E+00 -0.15249697696E+04  0.15249697696E+04  0.25500000920E-02 0. -1.
    10030    2    1    2    0    0  0.00000000000E+00  0.00000000000E+00  0.24981170024E+03  0.32997512395E+04  0.32902815012E+04 0.  0.
        1    1    3    3  502    0 -0.20475425217E+03  0.37645387396E+03  0.17178242848E+04  0.17704694566E+04  0.50400001928E-02 0.  1.
       -1    1    3    3    0  502  0.20475425217E+03 -0.37645387396E+03 -0.14680125846E+04  0.15292817829E+04  0.50400001928E-02 0. -1.
</event>
<event>
 5   0  0.1116462E-06  0.3288661E+04  0.7818609E-02  0.8165787E-01
       -2   -1    0    0    0  501  0.00000000000E+00  0.00000000000E+00  0.13870507147E+04  0.13870507147E+04  0.25500000920E-02 0. -1.
        2   -1    0    0  501    0  0.00000000000E+00  0.00000000000E+00 -0.19493322974E+04  0.19493322974E+04  0.25500000920E-02 0.  1.
    10030    2    1    2    0    0  0.00000000000E+00  0.00000000000E+00 -0.56228158265E+03  0.33363830121E+04  0.32886609776E+04 0.  0.
        1    1    3    3  502    0 -0.12209171814E+04  0.68399949205E+03 -0.11569927687E+04  0.18157990901E+04  0.50400001928E-02 0.  1.
       -1    1    3    3    0  502  0.12209171814E+04 -0.68399949205E+03  0.59471118602E+03  0.15205839220E+04  0.50400001928E-02 0. -1.
</event>
<event>
 5   0  0.1126221E-06  0.3317080E+04  0.7818609E-02  0.8158563E-01
        2   -1    0    0  501    0  0.00000000000E+00  0.00000000000E+00  0.19888555127E+04  0.19888555127E+04  0.25500000920E-02 0. -1.
       -2   -1    0    0    0  501  0.00000000000E+00  0.00000000000E+00 -0.13830842486E+04  0.13830842486E+04  0.25500000920E-02 0.  1.
    10030    2    1    2    0    0  0.00000000000E+00  0.00000000000E+00  0.60577126404E+03  0.33719397613E+04  0.33170798799E+04 0.  0.
        2    1    3    3  502    0  0.16334753276E+03 -0.13340276976E+04 -0.68501126114E+03  0.15084935341E+04  0.25500000920E-02 0.  1.
       -2    1    3    3    0  502 -0.16334753276E+03  0.13340276976E+04  0.12907825252E+04  0.18634462272E+04  0.25500000920E-02 0. -1.
</event>
<event>
 5   0  0.3757406E-07  0.3300483E+04  0.7818609E-02  0.8162772E-01
       -1   -1    0    0    0  501  0.00000000000E+00  0.00000000000E+00  0.29204333687E+04  0.29204333687E+04  0.50400001928E-02 0.  1.
        1   -1    0    0  501    0  0.00000000000E+00  0.00000000000E+00 -0.93249758562E+03  0.93249758563E+03  0.50400001928E-02 0. -1.
    10030    2    1    2    0    0  0.00000000000E+00  0.00000000000E+00  0.19879357831E+04  0.38529309543E+04  0.33004830345E+04 0.  0.
        1    1    3    3  502    0  0.10014379367E+04  0.80962499242E+03  0.21986529892E+04  0.25480277738E+04  0.50400001928E-02 0.  1.
       -1    1    3    3    0  502 -0.10014379367E+04 -0.80962499242E+03 -0.21071720608E+03  0.13049031805E+04  0.50400001928E-02 0. -1.
</event>
<event>
 5   0  0.1116462E-06  0.3315710E+04  0.7818609E-02  0.8158909E-01
        2   -1    0    0  501    0  0.00000000000E+00  0.00000000000E+00  0.15414931440E+04  0.15414931440E+04  0.25500000920E-02 0.  1.
       -2   -1    0    0    0  501  0.00000000000E+00  0.00000000000E+00 -0.17830005679E+04  0.17830005679E+04  0.25500000920E-02 0. -1.
    10030    2    1    2    0    0  0.00000000000E+00  0.00000000000E+00 -0.24150742390E+03  0.33244937120E+04  0.33157099700E+04 0.  0.
        1    1    3    3  502    0  0.11617244108E+04  0.10565812844E+04 -0.65368368544E+03  0.17009614863E+04  0.50400001928E-02 0. -1.
       -1    1    3    3    0  502 -0.11617244108E+04 -0.10565812844E+04  0.41217626154E+03  0.16235322257E+04  0.50400001928E-02 0.  1.
</event>
<event>
 5   0  0.1120545E-06  0.3155816E+04  0.7818609E-02  0.8200584E-01
       -2   -1    0    0    0  501  0.00000000000E+00  0.00000000000E+00  0.15804848710E+04  0.15804848710E+04  0.25500000920E-02 0.  1.
        2   -1    0    0  501    0  0.00000000000E+00  0.00000000000E+00 -0.15753353199E+04  0.15753353199E+04  0.25500000920E-02 0. -1.
    10030    2    1    2    0    0  0.00000000000E+00  0.00000000000E+00  0.51495510540E+01  0.31558201909E+04  0.31558159895E+04 0.  0.
        4    1    3    3  502    0  0.28959279419E+03 -0.32673046917E+03 -0.15137303926E+04  0.15754358446E+04  0.12699999809E+01 0. -1.
       -4    1    3    3    0  502 -0.28959279419E+03  0.32673046917E+03  0.15188799437E+04  0.15803843463E+04  0.12699999809E+01 0.  1.
</event>
<event>
 5   0  0.1129434E-06  0.3296635E+04  0.7818609E-02  0.8163752E-01
        2   -1    0    0  501    0  0.00000000000E+00  0.00000000000E+00  0.16884442265E+04  0.16884442265E+04  0.25500000920E-02 0. -1.
       -2   -1    0    0    0  501  0.00000000000E+00  0.00000000000E+00 -0.16091447541E+04  0.16091447541E+04  0.25500000920E-02 0.  1.
    10030    2    1    2    0    0  0.00000000000E+00  0.00000000000E+00  0.79299472449E+02  0.32975889806E+04  0.32966353572E+04 0.  0.
        3    1    3    3  502    0  0.13059328617E+04  0.30297917527E+03  0.99893400031E+03  0.16718630827E+04  0.10100000352E+00 0. -1.
       -3    1    3    3    0  502 -0.13059328617E+04 -0.30297917527E+03 -0.91963452786E+03  0.16257258979E+04  0.10100000352E+00 0.  1.
</event>
<event>
 5   0  0.3796529E-07  0.3306910E+04  0.7818609E-02  0.8161139E-01
        1   -1    0    0  501    0  0.00000000000E+00  0.00000000000E+00  0.14789707662E+04  0.14789707662E+04  0.50400001928E-02 0.  1.
       -1   -1    0    0    0  501  0.00000000000E+00  0.00000000000E+00 -0.18485238445E+04  0.18485238445E+04  0.50400001928E-02 0. -1.
    10030    2    1    2    0    0  0.00000000000E+00  0.00000000000E+00 -0.36955307832E+03  0.33274946107E+04  0.33069095704E+04 0.  0.
        5    1    3    3  502    0 -0.10190536125E+04  0.12344748769E+04 -0.60147045950E+03  0.17100255233E+04  0.46999998093E+01 0. -1.
       -5    1    3    3    0  502  0.10190536125E+04 -0.12344748769E+04  0.23191738118E+03  0.16174690874E+04  0.46999998093E+01 0.  1.
</event>
<event>
 5   0  0.3674967E-07  0.3284240E+04  0.7818609E-02  0.8166917E-01
       -1   -1    0    0    0  501  0.00000000000E+00  0.00000000000E+00  0.11517343266E+04  0.11517343266E+04  0.50400001928E-02 0. -1.
        1   -1    0    0  501    0  0.00000000000E+00  0.00000000000E+00 -0.23413020342E+04  0.23413020342E+04  0.50400001928E-02 0.  1.
    10030    2    1    2    0    0  0.00000000000E+00  0.00000000000E+00 -0.11895677076E+04  0.34930363608E+04  0.32842398949E+04 0.  0.
        2    1    3    3  502    0  0.59359525200E+03  0.30336295960E+03  0.10013494429E+04  0.12029485090E+04  0.25500000920E-02 0. -1.
       -2    1    3    3    0  502 -0.59359525200E+03 -0.30336295960E+03 -0.21909171505E+04  0.22900878518E+04  0.25500000920E-02 0.  1.
</event>
<event>
 5   0  0.1116462E-06  0.3310736E+04  0.7818609E-02  0.8160169E-01
       -2   -1    0    0    0  501  0.00000000000E+00  0.00000000000E+00  0.12737715811E+04  0.12737715811E+04  0.25500000920E-02 0.  1.
        2   -1    0    0  501    0  0.00000000000E+00  0.00000000000E+00 -0.21512824368E+04  0.21512824368E+04  0.25500000920E-02 0. -1.
    10030    2    1    2    0    0  0.00000000000E+00  0.00000000000E+00 -0.87751085574E+03  0.34250540179E+04  0.33107355261E+04 0.  0.
        1    1    3    3  502    0  0.24303916206E+03 -0.15510618827E+03  0.12475965707E+04  0.12804777106E+04  0.50400001928E-02 0.  1.
       -1    1    3    3    0  502 -0.24303916206E+03  0.15510618827E+03 -0.21251074265E+04  0.21445763073E+04  0.50400001928E-02 0. -1.
</event>
<event>
 5   0  0.1120545E-06  0.3295763E+04  0.7818609E-02  0.8163974E-01
        2   -1    0    0  501    0  0.00000000000E+00  0.00000000000E+00  0.17624383735E+04  0.17624383735E+04  0.25500000920E-02 0. -1.
       -2   -1    0    0    0  501  0.00000000000E+00  0.00000000000E+00 -0.15407709956E+04  0.15407709956E+04  0.25500000920E-02 0.  1.
    10030    2    1    2    0    0  0.00000000000E+00  0.00000000000E+00  0.22166737788E+03  0.33032093692E+04  0.32957632970E+04 0.  0.
        4    1    3    3  502    0  0.32164752097E+03 -0.76132520412E+03  0.15396910008E+04  0.17474905393E+04  0.12699999809E+01 0. -1.
       -4    1    3    3    0  502 -0.32164752097E+03  0.76132520412E+03 -0.13180236229E+04  0.15557188299E+04  0.12699999809E+01 0.  1.
</event>
<event>
 5   0  0.1129434E-06  0.3297263E+04  0.7818609E-02  0.8163592E-01
       -2   -1    0    0    0  501  0.00000000000E+00  0.00000000000E+00  0.14001360624E+04  0.14001360624E+04  0.25500000920E-02 0. -1.
        2   -1    0    0  501    0  0.00000000000E+00  0.00000000000E+00 -0.19412299264E+04  0.19412299264E+04  0.25500000920E-02 0.  1.
    10030    2    1    2    0    0  0.00000000000E+00  0.00000000000E+00 -0.54109386405E+03  0.33413659888E+04  0.32972631228E+04 0.  0.
        3    1    3    3  502    0 -0.19052027387E+03  0.10174296917E+04  0.10297860816E+04  0.14601097686E+04  0.10100000352E+00 0. -1.
       -3    1    3    3    0  502  0.19052027387E+03 -0.10174296917E+04 -0.15708799456E+04  0.18812562202E+04  0.10100000352E+00 0.  1.
</event>
<event>
 5   0  0.3749685E-07  0.3348500E+04  0.7818609E-02  0.8150663E-01
        1   -1    0    0  501    0  0.00000000000E+00  0.00000000000E+00  0.16322849786E+04  0.16322849786E+04  0.50400001928E-02 0. -1.
       -1   -1    0    0    0  501  0.00000000000E+00  0.00000000000E+00 -0.17172937256E+04  0.17172937256E+04  0.50400001928E-02 0.  1.
    10030    2    1    2    0    0  0.00000000000E+00  0.00000000000E+00 -0.85008746987E+02  0.33495787042E+04  0.33484998146E+04 0.  0.
        3    1    3    3  502    0  0.12096558300E+04 -0.10471230078E+04  0.45098907178E+03  0.16622650130E+04  0.10100000352E+00 0. -1.
       -3    1    3    3    0  502 -0.12096558300E+04  0.10471230078E+04 -0.53599781876E+03  0.16873136912E+04  0.10100000352E+00 0.  1.
</event>
<event>
 5   0  0.1126221E-06  0.3308871E+04  0.7818609E-02  0.8160642E-01
       -2   -1    0    0    0  501  0.00000000000E+00  0.00000000000E+00  0.15149170015E+04  0.15149170015E+04  0.25500000920E-02 0. -1.
        2   -1    0    0  501    0  0.00000000000E+00  0.00000000000E+00 -0.18068030107E+04  0.18068030107E+04  0.25500000920E-02 0.  1.
    10030    2    1    2    0    0  0.00000000000E+00  0.00000000000E+00 -0.29188600925E+03  0.33217200122E+04  0.33088708644E+04 0.  0.
        2    1    3    3  502    0  0.10410691317E+04  0.73325496016E+03  0.91441093372E+03  0.15676846396E+04  0.25500000920E-02 0. -1.
       -2    1    3    3    0  502 -0.10410691317E+04 -0.73325496016E+03 -0.12062969430E+04  0.17540353726E+04  0.25500000920E-02 0.  1.
</event>
<event>
 5   0  0.3757406E-07  0.3295186E+04  0.7818609E-02  0.8164121E-01
       -1   -1    0    0    0  501  0.00000000000E+00  0.00000000000E+00  0.16402685014E+04  0.16402685014E+04  0.50400001928E-02 0.  1.
        1   -1    0    0  501    0  0.00000000000E+00  0.00000000000E+00 -0.16549503448E+04  0.16549503448E+04  0.50400001928E-02 0. -1.
    10030    2    1    2    0    0  0.00000000000E+00  0.00000000000E+00 -0.14681843384E+02  0.32952188462E+04  0.32951861386E+04 0.  0.
        1    1    3    3  502    0  0.19881647953E+02  0.11739903090E+04  0.11484881820E+04  0.16424596280E+04  0.50400001928E-02 0.  1.
       -1    1    3    3    0  502 -0.19881647953E+02 -0.11739903090E+04 -0.11631700254E+04  0.16527592182E+04  0.50400001928E-02 0. -1.
</event>
<event>
 5   0  0.3674967E-07  0.3289128E+04  0.7818609E-02  0.8165667E-01
        1   -1    0    0  501    0  0.00000000000E+00  0.00000000000E+00  0.22894805111E+04  0.22894805111E+04  0.50400001928E-02 0. -1.
       -1   -1    0    0    0  501  0.00000000000E+00  0.00000000000E+00 -0.11813117624E+04  0.11813117624E+04  0.50400001928E-02 0.  1.
    10030    2    1    2    0    0  0.00000000000E+00  0.00000000000E+00  0.11081687487E+04  0.34707922735E+04  0.32891277005E+04 0.  0.
        2    1    3    3  502    0  0.92798632768E+03 -0.13070656015E+04  0.94181731544E+03  0.18591930956E+04  0.25500000920E-02 0. -1.
       -2    1    3    3    0  502 -0.92798632768E+03  0.13070656015E+04  0.16635143326E+03  0.16115991779E+04  0.25500000920E-02 0.  1.
</event>
<event>
 5   0  0.1146799E-06  0.3267578E+04  0.7818609E-02  0.8171195E-01
       -2   -1    0    0    0  501  0.00000000000E+00  0.00000000000E+00  0.11871827404E+04  0.11871827404E+04  0.25500000920E-02 0. -1.
        2   -1    0    0  501    0  0.00000000000E+00  0.00000000000E+00 -0.22484034973E+04  0.22484034973E+04  0.25500000920E-02 0.  1.
    10030    2    1    2    0    0  0.00000000000E+00  0.00000000000E+00 -0.10612207569E+04  0.34355862377E+04  0.32675775893E+04 0.  0.
        5    1    3    3  502    0  0.10463353060E+04 -0.92507411688E+02 -0.18462974138E+04  0.21241966538E+04  0.46999998093E+01 0.  1.
       -5    1    3    3    0  502 -0.10463353060E+04  0.92507411688E+02  0.78507665692E+03  0.13113895840E+04  0.46999998093E+01 0. -1.
</event>
<event>
 5   0  0.3757406E-07  0.3303696E+04  0.7818609E-02  0.8161956E-01
        1   -1    0    0  501    0  0.00000000000E+00  0.00000000000E+00  0.28760827872E+04  0.28760827872E+04  0.50400001928E-02 0.  1.
       -1   -1    0    0    0  501  0.00000000000E+00  0.00000000000E+00 -0.94872149562E+03  0.94872149563E+03  0.50400001928E-02 0. -1.
    10030    2    1    2    0    0  0.00000000000E+00  0.00000000000E+00  0.19273612916E+04  0.38248042828E+04  0.33036958476E+04 0.  0.
        1    1    3    3  502    0 -0.55543945983E+03 -0.13787615792E+03  0.27576390137E+04  0.28163976563E+04  0.50400001928E-02 0.  1.
       -1    1    3    3    0  502  0.55543945983E+03  0.13787615792E+03 -0.83027772215E+03  0.10084066265E+04  0.50400001928E-02 0. -1.
</event>
<event>
 5   0  0.1120545E-06  0.3313867E+04  0.7818609E-02  0.8159376E-01
       -2   -1    0    0    0  501  0.00000000000E+00  0.00000000000E+00  0.12032352260E+04  0.12032352260E+04  0.25500000920E-02 0. -1.
        2   -1    0    0  501    0  0.00000000000E+00  0.00000000000E+00 -0.22817056739E+04  0.22817056739E+04  0.25500000920E-02 0.  1.
    10030    2    1    2    0    0  0.00000000000E+00  0.00000000000E+00 -0.10784704479E+04  0.34849408998E+04  0.33138670113E+04 0.  0.
        4    1    3    3  502    0  0.16476373218E+04 -0.14008898006E+03 -0.42847292840E+03  0.17081932940E+04  0.12699999809E+01 0.  1.
       -4    1    3    3    0  502 -0.16476373218E+04  0.14008898006E+03 -0.64999751949E+03  0.17767476058E+04  0.12699999809E+01 0. -1.
</event>
<event>
 5   0  0.3573375E-07  0.3278046E+04  0.7818609E-02  0.8168504E-01
        3   -1    0    0  501    0  0.00000000000E+00  0.00000000000E+00  0.13158935244E+04  0.13158935283E+04  0.10100000352E+00 0.  1.
       -3   -1    0    0    0  501  0.00000000000E+00  0.00000000000E+00 -0.20415000468E+04  0.20415000493E+04  0.10100000352E+00 0. -1.
    10030    2    1    2    0    0  0.00000000000E+00  0.00000000000E+00 -0.72560652243E+03  0.33573935776E+04  0.32780461878E+04 0.  0.
        5    1    3    3  502    0 -0.47423622878E+03  0.15634188858E+04 -0.22849556677E+03  0.16496699450E+04  0.46999998093E+01 0.  1.
       -5    1    3    3    0  502  0.47423622878E+03 -0.15634188858E+04 -0.49711095565E+03  0.17077236326E+04  0.46999998093E+01 0. -1.
</event>
<event>
 5   0  0.1129434E-06  0.3182798E+04  0.7818609E-02  0.8193375E-01
       -2   -1    0    0    0  501  0.00000000000E+00  0.00000000000E+00  0.10257052069E+04  0.10257052069E+04  0.25500000920E-02 0. -1.
        2   -1    0    0  501    0  0.00000000000E+00  0.00000000000E+00 -0.24690832248E+04  0.24690832248E+04  0.25500000920E-02 0.  1.
    10030    2    1    2    0    0  0.00000000000E+00  0.00000000000E+00 -0.14433780179E+04  0.34947884316E+04  0.31827984666E+04 0.  0.
        3    1    3    3  502    0  0.14471164697E+04  0.28263861686E+03 -0.13791484329E+04  0.20189306761E+04  0.10100000352E+00 0.  1.
       -3    1    3    3    0  502 -0.14471164697E+04 -0.28263861686E+03 -0.64229585018E+02  0.14758577555E+04  0.10100000352E+00 0. -1.
</event>
<event>
 5   0  0.1146799E-06  0.3237785E+04  0.7818609E-02  0.8178909E-01
        2   -1    0    0  501    0  0.00000000000E+00  0.00000000000E+00  0.18942313555E+04  0.18942313555E+04  0.25500000920E-02 0. -1.
       -2   -1    0    0    0  501  0.00000000000E+00  0.00000000000E+00 -0.13835763046E+04  0.13835763046E+04  0.25500000920E-02 0.  1.
    10030    2    1    2    0    0  0.00000000000E+00  0.00000000000E+00  0.51065505092E+03  0.32778076600E+04  0.32377854276E+04 0.  0.
        5    1    3    3  502    0 -0.82471260283E+03 -0.50287284106E+03 -0.10598691116E+04  0.14340071810E+04  0.46999998093E+01 0.  1.
       -5    1    3    3    0  502  0.82471260283E+03  0.50287284106E+03  0.15705241625E+04  0.18438004790E+04  0.46999998093E+01 0. -1.
</event>
<event>
 5   0  0.3749685E-07  0.3326899E+04  0.7818609E-02  0.8156084E-01
        1   -1    0    0  501    0  0.00000000000E+00  0.00000000000E+00  0.24541876071E+04  0.24541876071E+04  0.50400001928E-02 0. -1.
       -1   -1    0    0    0  501  0.00000000000E+00  0.00000000000E+00 -0.11274871464E+04  0.11274871464E+04  0.50400001928E-02 0.  1.
    10030    2    1    2    0    0  0.00000000000E+00  0.00000000000E+00  0.13267004607E+04  0.35816747535E+04  0.33268994465E+04 0.  0.
        3    1    3    3  502    0  0.47933220494E+03 -0.12303999154E+04 -0.42576485221E+03  0.13874145142E+04  0.10100000352E+00 0.  1.
       -3    1    3    3    0  502 -0.47933220494E+03  0.12303999154E+04  0.17524653129E+04  0.21942602393E+04  0.10100000352E+00 0. -1.
</event>
<event>
 5   0  0.1126221E-06  0.3313124E+04  0.7818609E-02  0.8159564E-01
        2   -1    0    0  501    0  0.00000000000E+00  0.00000000000E+00  0.13868105477E+04  0.13868105477E+04  0.25500000920E-02 0.  1.
       -2   -1    0    0    0  501  0.00000000000E+00  0.00000000000E+00 -0.19787833644E+04  0.19787833644E+04  0.25500000920E-02 0. -1.
    10030    2    1    2    0    0  0.00000000000E+00  0.00000000000E+00 -0.59197281673E+03  0.33655939122E+04  0.33131239889E+04 0.  0.
        2    1    3    3  502    0 -0.74310146580E+02  0.48331913406E+03  0.13118233983E+04  0.14000000041E+04  0.25500000920E-02 0.  1.
       -2    1    3    3    0  502  0.74310146580E+02 -0.48331913406E+03 -0.19037962150E+04  0.19655939081E+04  0.25500000920E-02 0. -1.
</event>
<event>
 5   0  0.1120545E-06  0.3342074E+04  0.7818609E-02  0.8152271E-01
        2   -1    0    0  501    0  0.00000000000E+00  0.00000000000E+00  0.21968802912E+04  0.21968802912E+04  0.25500000920E-02 0. -1.
       -2   -1    0    0    0  501  0.00000000000E+00  0.00000000000E+00 -0.12710593420E+04  0.12710593420E+04  0.25500000920E-02 0.  1.
    10030    2    1    2    0    0  0.00000000000E+00  0.00000000000E+00  0.92582094924E+03  0.34679396332E+04  0.33420743363E+04 0.  0.
        4    1    3    3  502    0 -0.14057003567E+04 -0.89624263203E+03  0.58176344182E+03  0.17656994828E+04  0.12699999809E+01 0. -1.
       -4    1    3    3    0  502  0.14057003567E+04  0.89624263203E+03  0.34405750742E+03  0.17022401504E+04  0.12699999809E+01 0.  1.
</event>
<event>
 5   0  0.1120545E-06  0.3286883E+04  0.7818609E-02  0.8166241E-01
        2   -1    0    0  501    0  0.00000000000E+00  0.00000000000E+00  0.12286221919E+04  0.12286221919E+04  0.25500000920E-02 0.  1.
       -2   -1    0    0    0  501  0.00000000000E+00  0.00000000000E+00 -0.21983155517E+04  0.21983155517E+04  0.25500000920E-02 0. -1.
    10030    2    1    2    0    0  0.00000000000E+00  0.00000000000E+00 -0.96969335976E+03  0.34269377436E+04  0.32868825787E+04 0.  0.
        4    1    3    3  502    0  0.33244201259E+03 -0.58040505679E+03  0.10802881781E+04  0.12705950898E+04  0.12699999809E+01 0.  1.
       -4    1    3    3    0  502 -0.33244201259E+03  0.58040505679E+03 -0.20499815379E+04  0.21563426537E+04  0.12699999809E+01 0. -1.
</event>
<event>
 5   0  0.3709747E-07  0.3295326E+04  0.7818609E-02  0.8164086E-01
       -1   -1    0    0    0  501  0.00000000000E+00  0.00000000000E+00  0.11917600164E+04  0.11917600164E+04  0.50400001928E-02 0. -1.
        1   -1    0    0  501    0  0.00000000000E+00  0.00000000000E+00 -0.22779704351E+04  0.22779704352E+04  0.50400001928E-02 0.  1.
    10030    2    1    2    0    0  0.00000000000E+00  0.00000000000E+00 -0.10862104188E+04  0.34697304515E+04  0.32953264379E+04 0.  0.
        4    1    3    3  502    0 -0.69102473676E+03  0.27487062236E+03  0.10049889041E+04  0.12502293214E+04  0.12699999809E+01 0. -1.
       -4    1    3    3    0  502  0.69102473676E+03 -0.27487062236E+03 -0.20911993229E+04  0.22195011301E+04  0.12699999809E+01 0.  1.
</event>
<event>
 5   0  0.3796529E-07  0.3260902E+04  0.7818609E-02  0.8172916E-01
       -1   -1    0    0    0  501  0.00000000000E+00  0.00000000000E+00  0.92034485445E+03  0.92034485446E+03  0.50400001928E-02 0.  1.
        1   -1    0    0  501    0  0.00000000000E+00  0.00000000000E+00 -0.28884500647E+04  0.28884500647E+04  0.50400001928E-02 0. -1.
    10030    2    1    2    0    0  0.00000000000E+00  0.00000000000E+00 -0.19681052102E+04  0.38087949191E+04  0.32609018105E+04 0.  0.
        5    1    3    3  502    0 -0.26236011461E+03 -0.95532710104E+03  0.52845986698E+03  0.11228422065E+04  0.46999998093E+01 0.  1.
       -5    1    3    3    0  502  0.26236011461E+03  0.95532710104E+03 -0.24965650772E+04  0.26859527126E+04  0.46999998093E+01 0. -1.
</event>
<event>
 5   0  0.3757406E-07  0.3289469E+04  0.7818609E-02  0.8165580E-01
       -1   -1    0    0    0  501  0.00000000000E+00  0.00000000000E+00  0.14114596123E+04  0.14114596124E+04  0.50400001928E-02 0.  1.
        1   -1    0    0  501    0  0.00000000000E+00  0.00000000000E+00 -0.19165627225E+04  0.19165627225E+04  0.50400001928E-02 0. -1.
    10030    2    1    2    0    0  0.00000000000E+00  0.00000000000E+00 -0.50510311017E+03  0.33280223349E+04  0.32894685756E+04 0.  0.
        1    1    3    3  502    0 -0.59194986397E+03 -0.58114513516E+03  0.11843109866E+04  0.14459345845E+04  0.50400001928E-02 0.  1.
       -1    1    3    3    0  502  0.59194986397E+03  0.58114513516E+03 -0.16894140968E+04  0.18820877504E+04  0.50400001928E-02 0. -1.
</event>
<event>
 5   0  0.3709747E-07  0.3276755E+04  0.7818609E-02  0.8168835E-01
       -1   -1    0    0    0  501  0.00000000000E+00  0.00000000000E+00  0.13268958466E+04  0.13268958466E+04  0.50400001928E-02 0. -1.
        1   -1    0    0  501    0  0.00000000000E+00  0.00000000000E+00 -0.20229775651E+04  0.20229775651E+04  0.50400001928E-02 0.  1.
    10030    2    1    2    0    0  0.00000000000E+00  0.00000000000E+00 -0.69608171851E+03  0.33498734117E+04  0.32767548147E+04 0.  0.
        4    1    3    3  502    0 -0.11632544813E+04 -0.93200184514E+03  0.34720090390E+03  0.15304700285E+04  0.12699999809E+01 0. -1.
       -4    1    3    3    0  502  0.11632544813E+04  0.93200184514E+03 -0.10432826224E+04  0.18194033832E+04  0.12699999809E+01 0.  1.
</event>
<event>
 5   0  0.3757406E-07  0.3307221E+04  0.7818609E-02  0.8161060E-01
       -1   -1    0    0    0  501  0.00000000000E+00  0.00000000000E+00  0.23129646674E+04  0.23129646674E+04  0.50400001928E-02 0.  1.
        1   -1    0    0  501    0  0.00000000000E+00  0.00000000000E+00 -0.11822176352E+04  0.11822176352E+04  0.50400001928E-02 0. -1.
    10030    2    1    2    0    0  0.00000000000E+00  0.00000000000E+00  0.11307470322E+04  0.34951823026E+04  0.33072209599E+04 0.  0.
        1    1    3    3  502    0  0.71333889556E+03  0.58291332632E+03 -0.88591237622E+03  0.12780770964E+04  0.50400001928E-02 0. -1.
       -1    1    3    3    0  502 -0.71333889556E+03 -0.58291332632E+03  0.20166594084E+04  0.22171052062E+04  0.50400001928E-02 0.  1.
</event>
<event>
 5   0  0.1126221E-06  0.3170400E+04  0.7818609E-02  0.8196679E-01
       -2   -1    0    0    0  501  0.00000000000E+00  0.00000000000E+00  0.12696363915E+04  0.12696363915E+04  0.25500000920E-02 0.  1.
        2   -1    0    0  501    0  0.00000000000E+00  0.00000000000E+00 -0.19791954059E+04  0.19791954059E+04  0.25500000920E-02 0. -1.
    10030    2    1    2    0    0  0.00000000000E+00  0.00000000000E+00 -0.70955901439E+03  0.32488317974E+04  0.31703996677E+04 0.  0.
        2    1    3    3  502    0  0.42654393995E+03  0.79066245060E+03 -0.16931417064E+04  0.19167200321E+04  0.25500000920E-02 0. -1.
       -2    1    3    3    0  502 -0.42654393995E+03 -0.79066245060E+03  0.98358269197E+03  0.13321117654E+04  0.25500000920E-02 0.  1.
</event>
<event>
 5   0  0.3709747E-07  0.3650598E+04  0.7818609E-02  0.8078999E-01
        1   -1    0    0  501    0  0.00000000000E+00  0.00000000000E+00  0.21061240151E+04  0.21061240151E+04  0.50400001928E-02 0.  1.
       -1   -1    0    0    0  501  0.00000000000E+00  0.00000000000E+00 -0.15819181435E+04  0.15819181436E+04  0.50400001928E-02 0. -1.
    10030    2    1    2    0    0  0.00000000000E+00  0.00000000000E+00  0.52420587158E+03  0.36880421587E+04  0.36505976454E+04 0.  0.
        4    1    3    3  502    0  0.36366332272E+03 -0.17714253775E+04  0.51266970719E+03  0.18796357950E+04  0.12699999809E+01 0.  1.
       -4    1    3    3    0  502 -0.36366332272E+03  0.17714253775E+04  0.11536164393E+02  0.18084063637E+04  0.12699999809E+01 0. -1.
</event>
<event>
 5   0  0.1120545E-06  0.3297166E+04  0.7818609E-02  0.8163617E-01
       -2   -1    0    0    0  501  0.00000000000E+00  0.00000000000E+00  0.19840622198E+04  0.19840622198E+04  0.25500000920E-02 0. -1.
        2   -1    0    0  501    0  0.00000000000E+00  0.00000000000E+00 -0.13698291833E+04  0.13698291833E+04  0.25500000920E-02 0.  1.
    10030    2    1    2    0    0  0.00000000000E+00  0.00000000000E+00  0.61423303650E+03  0.33538914030E+04  0.32971662561E+04 0.  0.
        4    1    3    3  502    0  0.66356439057E+03 -0.10017940486E+04  0.14552132877E+04  0.18872086111E+04  0.12699999809E+01 0. -1.
       -4    1    3    3    0  502 -0.66356439057E+03  0.10017940486E+04 -0.84098025122E+03  0.14666827919E+04  0.12699999809E+01 0.  1.
</event>
<event>
 5   0  0.3757406E-07  0.3291688E+04  0.7818609E-02  0.8165013E-01
       -1   -1    0    0    0  501  0.00000000000E+00  0.00000000000E+00  0.13922501607E+04  0.13922501607E+04  0.50400001928E-02 0.  1.
        1   -1    0    0  501    0  0.00000000000E+00  0.00000000000E+00 -0.19456297081E+04  0.19456297081E+04  0.50400001928E-02 0. -1.
    10030    2    1    2    0    0  0.00000000000E+00  0.00000000000E+00 -0.55337954745E+03  0.33378798688E+04  0.32916884869E+04 0.  0.
        1    1    3    3  502    0  0.24846541792E+02 -0.89432737760E+03  0.11241311958E+04  0.14367009969E+04  0.50400001928E-02 0.  1.
       -1    1    3    3    0  502 -0.24846541792E+02  0.89432737760E+03 -0.16775107433E+04  0.19011788719E+04  0.50400001928E-02 0. -1.
</event>
<event>
 5   0  0.3749685E-07  0.3302738E+04  0.7818609E-02  0.8162199E-01
       -1   -1    0    0    0  501  0.00000000000E+00  0.00000000000E+00  0.18123565223E+04  0.18123565223E+04  0.50400001928E-02 0.  1.
        1   -1    0    0  501    0  0.00000000000E+00  0.00000000000E+00 -0.15046812903E+04  0.15046812903E+04  0.50400001928E-02 0. -1.
    10030    2    1    2    0    0  0.00000000000E+00  0.00000000000E+00  0.30767523196E+03  0.33170378127E+04  0.33027376224E+04 0.  0.
        3    1    3    3  502    0 -0.73059583185E+03  0.13324827692E+04  0.80296288760E+03  0.17187291842E+04  0.10100000352E+00 0.  1.
       -3    1    3    3    0  502  0.73059583185E+03 -0.13324827692E+04 -0.49528765565E+03  0.15983086284E+04  0.10100000352E+00 0. -1.
</event>
<event>
 5   0  0.1126221E-06  0.3307946E+04  0.7818609E-02  0.8160876E-01
       -2   -1    0    0    0  501  0.00000000000E+00  0.00000000000E+00  0.12012540408E+04  0.12012540408E+04  0.25500000920E-02 0. -1.
        2   -1    0    0  501    0  0.00000000000E+00  0.00000000000E+00 -0.22773094683E+04  0.22773094683E+04  0.25500000920E-02 0.  1.
    10030    2    1    2    0    0  0.00000000000E+00  0.00000000000E+00 -0.10760554276E+04  0.34785635091E+04  0.33079463121E+04 0.  0.
        2    1    3    3  502    0 -0.13221884284E+04  0.35726557387E+03 -0.15131111709E+04  0.20409131158E+04  0.25500000920E-02 0.  1.
       -2    1    3    3    0  502  0.13221884284E+04 -0.35726557387E+03  0.43705574337E+03  0.14376503933E+04  0.25500000920E-02 0. -1.
</event>
<event>
 5   0  0.1129434E-06  0.2970338E+04  0.7818609E-02  0.8252252E-01
        2   -1    0    0  501    0  0.00000000000E+00  0.00000000000E+00  0.20024761613E+04  0.20024761613E+04  0.25500000920E-02 0. -1.
       -2   -1    0    0    0  501  0.00000000000E+00  0.00000000000E+00 -0.11014999336E+04  0.11014999336E+04  0.25500000920E-02 0.  1.
    10030    2    1    2    0    0  0.00000000000E+00  0.00000000000E+00  0.90097622767E+03  0.31039760949E+04  0.29703382694E+04 0.  0.
        3    1    3    3  502    0 -0.98638083083E+03  0.76790944095E+03  0.12884998938E+04  0.17952337005E+04  0.10100000352E+00 0. -1.
       -3    1    3    3    0  502  0.98638083083E+03 -0.76790944095E+03 -0.38752366609E+03  0.13087423944E+04  0.10100000352E+00 0.  1.
</event>
<event>
 5   0  0.1146799E-06  0.3285134E+04  0.7818609E-02  0.8166688E-01
       -2   -1    0    0    0  501  0.00000000000E+00  0.00000000000E+00  0.16033394916E+04  0.16033394916E+04  0.25500000920E-02 0.  1.
        2   -1    0    0  501    0  0.00000000000E+00  0.00000000000E+00 -0.16827547373E+04  0.16827547373E+04  0.25500000920E-02 0. -1.
    10030    2    1    2    0    0  0.00000000000E+00  0.00000000000E+00 -0.79415245644E+02  0.32860942289E+04  0.32851344722E+04 0.  0.
        5    1    3    3  502    0 -0.10691861571E+04  0.52307684909E+03 -0.11719555401E+04  0.16704102210E+04  0.46999998093E+01 0. -1.
       -5    1    3    3    0  502  0.10691861571E+04 -0.52307684909E+03  0.10925402944E+04  0.16156840079E+04  0.46999998093E+01 0.  1.
</event>
<event>
 5   0  0.3709747E-07  0.3271008E+04  0.7818609E-02  0.8170312E-01
       -1   -1    0    0    0  501  0.00000000000E+00  0.00000000000E+00  0.14068452178E+04  0.14068452178E+04  0.50400001928E-02 0.  1.
        1   -1    0    0  501    0  0.00000000000E+00  0.00000000000E+00 -0.19013272792E+04  0.19013272792E+04  0.50400001928E-02 0. -1.
    10030    2    1    2    0    0  0.00000000000E+00  0.00000000000E+00 -0.49448206141E+03  0.33081724970E+04  0.32710079120E+04 0.  0.
        4    1    3    3  502    0  0.15120393149E+04 -0.43757798117E+03 -0.69628362367E+03  0.17212059368E+04  0.12699999809E+01 0. -1.
       -4    1    3    3    0  502 -0.15120393149E+04  0.43757798117E+03  0.20180156226E+03  0.15869665601E+04  0.12699999809E+01 0.  1.
</event>
<event>
 5   0  0.3757406E-07  0.3370103E+04  0.7818609E-02  0.8145283E-01
        1   -1    0    0  501    0  0.00000000000E+00  0.00000000000E+00  0.26257704664E+04  0.26257704664E+04  0.50400001928E-02 0.  1.
       -1   -1    0    0    0  501  0.00000000000E+00  0.00000000000E+00 -0.10813582357E+04  0.10813582357E+04  0.50400001928E-02 0. -1.
    10030    2    1    2    0    0  0.00000000000E+00  0.00000000000E+00  0.15444122306E+04  0.37071287021E+04  0.33701029770E+04 0.  0.
        1    1    3    3  502    0  0.52941033527E+03  0.15829218704E+04  0.10265940786E+04  0.19595439146E+04  0.50400001928E-02 0. -1.
       -1    1    3    3    0  502 -0.52941033527E+03 -0.15829218704E+04  0.51781815207E+03  0.17475847875E+04  0.50400001928E-02 0.  1.
</event>
<event>
 5   0  0.3796529E-07  0.3208176E+04  0.7818609E-02  0.8186661E-01
        1   -1    0    0  501    0  0.00000000000E+00  0.00000000000E+00  0.13988932670E+04  0.13988932670E+04  0.50400001928E-02 0. -1.
       -1   -1    0    0    0  501  0.00000000000E+00  0.00000000000E+00 -0.18393819322E+04  0.18393819322E+04  0.50400001928E-02 0.  1.
    10030    2    1    2    0    0  0.00000000000E+00  0.00000000000E+00 -0.44048866513E+03  0.32382751992E+04  0.32081764293E+04 0.  0.
        5    1    3    3  502    0  0.10404601780E+04  0.11813254463E+04 -0.53133989030E+03  0.16614545920E+04  0.46999998093E+01 0.  1.
       -5    1    3    3    0  502 -0.10404601780E+04 -0.11813254463E+04  0.90851225174E+02  0.15768206072E+04  0.46999998093E+01 0. -1.
</event>
<event>
 5   0  0.1129434E-06  0.3460108E+04  0.7818609E-02  0.8123310E-01
        2   -1    0    0  501    0  0.00000000000E+00  0.00000000000E+00  0.21782343564E+04  0.21782343564E+04  0.25500000920E-02 0.  1.
       -2   -1    0    0    0  501  0.00000000000E+00  0.00000000000E+00 -0.13740882394E+04  0.13740882394E+04  0.25500000920E-02 0. -1.
    10030    2    1    2    0    0  0.00000000000E+00  0.00000000000E+00  0.80414611695E+03  0.35523225958E+04  0.34601076352E+04 0.  0.
        3    1    3    3  502    0 -0.14645441528E+04  0.70011627949E+03 -0.21223302546E+03  0.16370996450E+04  0.10100000352E+00 0. -1.
       -3    1    3    3    0  502  0.14645441528E+04 -0.70011627949E+03  0.10163791424E+04  0.19152229509E+04  0.10100000352E+00 0.  1.
</event>
<event>
 5   0  0.1126221E-06  0.3289750E+04  0.7818609E-02  0.8165508E-01
        2   -1    0    0  501    0  0.00000000000E+00  0.00000000000E+00  0.23515293364E+04  0.23515293364E+04  0.25500000920E-02 0. -1.
       -2   -1    0    0    0  501  0.00000000000E+00  0.00000000000E+00 -0.11505764911E+04  0.11505764911E+04  0.25500000920E-02 0.  1.
    10030    2    1    2    0    0  0.00000000000E+00  0.00000000000E+00  0.12009528453E+04  0.35021058276E+04  0.32897503691E+04 0.  0.
        2    1    3    3  502    0  0.10103230871E+04  0.38473766385E+03  0.19201923129E+04  0.22036139246E+04  0.25500000920E-02 0. -1.
       -2    1    3    3    0  502 -0.10103230871E+04 -0.38473766385E+03 -0.71923946754E+03  0.12984919030E+04  0.25500000920E-02 0.  1.
</event>
<event>
 5   0  0.3674967E-07  0.3344384E+04  0.7818609E-02  0.8151693E-01
       -1   -1    0    0    0  501  0.00000000000E+00  0.00000000000E+00  0.19979955622E+04  0.19979955622E+04  0.50400001928E-02 0. -1.
        1   -1    0    0  501    0  0.00000000000E+00  0.00000000000E+00 -0.13995154109E+04  0.13995154109E+04  0.50400001928E-02 0.  1.
    10030    2    1    2    0    0  0.00000000000E+00  0.00000000000E+00  0.59848015127E+03  0.33975109732E+04  0.33443836983E+04 0.  0.
        2    1    3    3  502    0  0.88870184027E+03  0.14133944766E+04  0.39427111792E+03  0.17154954450E+04  0.25500000920E-02 0. -1.
       -2    1    3    3    0  502 -0.88870184027E+03 -0.14133944766E+04  0.20420903335E+03  0.16820155281E+04  0.25500000920E-02 0.  1.
</event>
<event>
 5   0  0.3674967E-07  0.3295894E+04  0.7818609E-02  0.8163941E-01
       -1   -1    0    0    0  501  0.00000000000E+00  0.00000000000E+00  0.16489474060E+04  0.16489474060E+04  0.50400001928E-02 0. -1.
        1   -1    0    0  501    0  0.00000000000E+00  0.00000000000E+00 -0.16469472587E+04  0.16469472587E+04  0.50400001928E-02 0.  1.
    10030    2    1    2    0    0  0.00000000000E+00  0.00000000000E+00  0.20001473039E+01  0.32958946646E+04  0.32958940577E+04 0.  0.
        2    1    3    3  502    0 -0.90212282361E+03  0.12322485089E+04 -0.61824751387E+03  0.16475715356E+04  0.25500000920E-02 0.  1.
       -2    1    3    3    0  502  0.90212282361E+03 -0.12322485089E+04  0.62024766117E+03  0.16483231290E+04  0.25500000920E-02 0. -1.
</event>
<event>
 5   0  0.1116462E-06  0.3275342E+04  0.7818609E-02  0.8169198E-01
       -2   -1    0    0    0  501  0.00000000000E+00  0.00000000000E+00  0.12182254399E+04  0.12182254399E+04  0.25500000920E-02 0. -1.
        2   -1    0    0  501    0  0.00000000000E+00  0.00000000000E+00 -0.22015353999E+04  0.22015353999E+04  0.25500000920E-02 0.  1.
    10030    2    1    2    0    0  0.00000000000E+00  0.00000000000E+00 -0.98330995994E+03  0.34197608398E+04  0.32753420774E+04 0.  0.
        1    1    3    3  502    0 -0.26060745470E+02  0.10976775399E+04  0.77698912884E+03  0.13450974874E+04  0.50400001928E-02 0. -1.
       -1    1    3    3    0  502  0.26060745470E+02 -0.10976775399E+04 -0.17602990888E+04  0.20746633525E+04  0.50400001928E-02 0.  1.
</event>
<event>
 5   0  0.3749685E-07  0.3296776E+04  0.7818609E-02  0.8163716E-01
       -1   -1    0    0    0  501  0.00000000000E+00  0.00000000000E+00  0.17420256122E+04  0.17420256122E+04  0.50400001928E-02 0. -1.
        1   -1    0    0  501    0  0.00000000000E+00  0.00000000000E+00 -0.15597838937E+04  0.15597838937E+04  0.50400001928E-02 0.  1.
    10030    2    1    2    0    0  0.00000000000E+00  0.00000000000E+00  0.18224171849E+03  0.33018095059E+04  0.32967762995E+04 0.  0.
        3    1    3    3  502    0  0.10211489424E+04 -0.12599058346E+04 -0.20441541273E+03  0.16345927767E+04  0.10100000352E+00 0. -1.
       -3    1    3    3    0  502 -0.10211489424E+04  0.12599058346E+04  0.38665713123E+03  0.16672167291E+04  0.10100000352E+00 0.  1.
</event>
<event>
 5   0  0.1116462E-06  0.3285715E+04  0.7818609E-02  0.8166540E-01
       -2   -1    0    0    0  501  0.00000000000E+00  0.00000000000E+00  0.20084975285E+04  0.20084975285E+04  0.25500000920E-02 0. -1.
        2   -1    0    0  501    0  0.00000000000E+00  0.00000000000E+00 -0.13437811267E+04  0.13437811267E+04  0.25500000920E-02 0.  1.
    10030    2    1    2    0    0  0.00000000000E+00  0.00000000000E+00  0.66471640185E+03  0.33522786552E+04  0.32857151866E+04 0.  0.
        1    1    3    3  502    0 -0.12483994362E+04 -0.81673871676E+03  0.10343507179E+04  0.18153359720E+04  0.50400001928E-02 0. -1.
       -1    1    3    3    0  502  0.12483994362E+04  0.81673871676E+03 -0.36963431602E+03  0.15369426832E+04  0.50400001928E-02 0.  1.
</event>
<event>
 5   0  0.3674967E-07  0.3313883E+04  0.7818609E-02  0.8159372E-01
       -1   -1    0    0    0  501  0.00000000000E+00  0.00000000000E+00  0.12795067588E+04  0.12795067588E+04  0.50400001928E-02 0. -1.
        1   -1    0    0  501    0  0.00000000000E+00  0.00000000000E+00 -0.21457135968E+04  0.21457135968E+04  0.50400001928E-02 0.  1.
    10030    2    1    2    0    0  0.00000000000E+00  0.00000000000E+00 -0.86620683805E+03  0.34252203556E+04  0.33138829488E+04 0.  0.
        2    1    3    3  502    0 -0.70818905624E+03 -0.17550372205E+03 -0.19707410725E+04  0.21014646490E+04  0.25500000920E-02 0.  1.
       -2    1    3    3    0  502  0.70818905624E+03  0.17550372205E+03  0.11045342345E+04  0.13237557067E+04  0.25500000920E-02 0. -1.
</event>
<event>
 5   0  0.3709747E-07  0.3300654E+04  0.7818609E-02  0.8162729E-01
        1   -1    0    0  501    0  0.00000000000E+00  0.00000000000E+00  0.13208695219E+04  0.13208695219E+04  0.50400001928E-02 0. -1.
       -1   -1    0    0    0  501  0.00000000000E+00  0.00000000000E+00 -0.20619590325E+04  0.20619590325E+04  0.50400001928E-02 0.  1.
    10030    2    1    2    0    0  0.00000000000E+00  0.00000000000E+00 -0.74108951055E+03  0.33828285544E+04  0.33006537785E+04 0.  0.
        4    1    3    3  502    0  0.13383527462E+03  0.13081748641E+04 -0.13925386874E+04  0.19153064936E+04  0.12699999809E+01 0.  1.
       -4    1    3    3    0  502 -0.13383527462E+03 -0.13081748641E+04  0.65144917682E+03  0.14675220607E+04  0.12699999809E+01 0. -1.
</event>
<event>
 5   0  0.1120545E-06  0.3373390E+04  0.7818609E-02  0.8144468E-01
       -2   -1    0    0    0  501  0.00000000000E+00  0.00000000000E+00  0.11904439186E+04  0.11904439186E+04  0.25500000920E-02 0.  1.
        2   -1    0    0  501    0  0.00000000000E+00  0.00000000000E+00 -0.23898146667E+04  0.23898146667E+04  0.25500000920E-02 0. -1.
    10030    2    1    2    0    0  0.00000000000E+00  0.00000000000E+00 -0.11993707481E+04  0.35802585853E+04  0.33733901858E+04 0.  0.
        4    1    3    3  502    0  0.39289681892E+03  0.14382166894E+04  0.23741813744E+03  0.15097033287E+04  0.12699999809E+01 0.  1.
       -4    1    3    3    0  502 -0.39289681892E+03 -0.14382166894E+04 -0.14367888856E+04  0.20705552565E+04  0.12699999809E+01 0. -1.
</event>
<event>
 5   0  0.1126221E-06  0.3288517E+04  0.7818609E-02  0.8165823E-01
       -2   -1    0    0    0  501  0.00000000000E+00  0.00000000000E+00  0.18589534759E+04  0.18589534759E+04  0.25500000920E-02 0. -1.
        2   -1    0    0  501    0  0.00000000000E+00  0.00000000000E+00 -0.14543588254E+04  0.14543588254E+04  0.25500000920E-02 0.  1.
    10030    2    1    2    0    0  0.00000000000E+00  0.00000000000E+00  0.40459465050E+03  0.33133123013E+04  0.32885166222E+04 0.  0.
        2    1    3    3  502    0 -0.14147638339E+04  0.17950818226E+03  0.10268847101E+04  0.17573480307E+04  0.25500000920E-02 0. -1.
       -2    1    3    3    0  502  0.14147638339E+04 -0.17950818226E+03 -0.62229005960E+03  0.15559642706E+04  0.25500000920E-02 0.  1.
</event>
<event>
 5   0  0.3796529E-07  0.3291136E+04  0.7818609E-02  0.8165154E-01
        1   -1    0    0  501    0  0.00000000000E+00  0.00000000000E+00  0.18770786367E+04  0.18770786367E+04  0.50400001928E-02 0. -1.
       -1   -1    0    0    0  501  0.00000000000E+00  0.00000000000E+00 -0.14426109986E+04  0.14426109986E+04  0.50400001928E-02 0.  1.
    10030    2    1    2    0    0  0.00000000000E+00  0.00000000000E+00  0.43446763811E+03  0.33196896353E+04  0.32911361482E+04 0.  0.
        5    1    3    3  502    0  0.69283223547E+02  0.11277099561E+04 -0.98953306777E+03  0.15019080173E+04  0.46999998093E+01 0.  1.
       -5    1    3    3    0  502 -0.69283223547E+02 -0.11277099561E+04  0.14240007059E+04  0.18177816180E+04  0.46999998093E+01 0. -1.
</event>
<event>
 5   0  0.1146799E-06  0.3339360E+04  0.7818609E-02  0.8152952E-01
       -2   -1    0    0    0  501  0.00000000000E+00  0.00000000000E+00  0.11478298348E+04  0.11478298348E+04  0.25500000920E-02 0.  1.
        2   -1    0    0  501    0  0.00000000000E+00  0.00000000000E+00 -0.24287848616E+04  0.24287848616E+04  0.25500000920E-02 0. -1.
    10030    2    1    2    0    0  0.00000000000E+00  0.00000000000E+00 -0.12809550268E+04  0.35766146963E+04  0.33393602539E+04 0.  0.
        5    1    3    3  502    0  0.41255466463E+03  0.40367558136E+03 -0.23185242496E+04  0.23892953171E+04  0.46999998093E+01 0. -1.
       -5    1    3    3    0  502 -0.41255466463E+03 -0.40367558136E+03  0.10375692228E+04  0.11873193793E+04  0.46999998093E+01 0.  1.
</event>
<event>
 5   0  0.1126221E-06  0.3295056E+04  0.7818609E-02  0.8164155E-01
       -2   -1    0    0    0  501  0.00000000000E+00  0.00000000000E+00  0.11428967159E+04  0.11428967159E+04  0.25500000920E-02 0. -1.
        2   -1    0    0  501    0  0.00000000000E+00  0.00000000000E+00 -0.23749726675E+04  0.23749726675E+04  0.25500000920E-02 0.  1.
    10030    2    1    2    0    0  0.00000000000E+00  0.00000000000E+00 -0.12320759516E+04  0.35178693834E+04  0.32950559704E+04 0.  0.
        2    1    3    3  502    0 -0.11453575052E+04  0.11309246791E+04 -0.99124852347E+03  0.18903460212E+04  0.25500000920E-02 0.  1.
       -2    1    3    3    0  502  0.11453575052E+04 -0.11309246791E+04 -0.24082742817E+03  0.16275233622E+04  0.25500000920E-02 0. -1.
</event>
<event>
 5   0  0.3674967E-07  0.3359514E+04  0.7818609E-02  0.8147915E-01
       -1   -1    0    0    0  501  0.00000000000E+00  0.00000000000E+00  0.13007136056E+04  0.13007136056E+04  0.50400001928E-02 0. -1.
        1   -1    0    0  501    0  0.00000000000E+00  0.00000000000E+00 -0.21692584212E+04  0.21692584213E+04  0.50400001928E-02 0.  1.
    10030    2    1    2    0    0  0.00000000000E+00  0.00000000000E+00 -0.86854481569E+03  0.34699720268E+04  0.33595142164E+04 0.  0.
        2    1    3    3  502    0  0.52446166277E+03 -0.10498015931E+04  0.80709209448E+03  0.14242686086E+04  0.25500000920E-02 0. -1.
       -2    1    3    3    0  502 -0.52446166277E+03  0.10498015931E+04 -0.16756369102E+04  0.20457034182E+04  0.25500000920E-02 0.  1.
</event>
<event>
 5   0  0.3749685E-07  0.3334386E+04  0.7818609E-02  0.8154201E-01
        1   -1    0    0  501    0  0.00000000000E+00  0.00000000000E+00  0.23916862520E+04  0.23916862520E+04  0.50400001928E-02 0. -1.
       -1   -1    0    0    0  501  0.00000000000E+00  0.00000000000E+00 -0.11621641218E+04  0.11621641218E+04  0.50400001928E-02 0.  1.
    10030    2    1    2    0    0  0.00000000000E+00  0.00000000000E+00  0.12295221302E+04  0.35538503738E+04  0.33343856722E+04 0.  0.
        3    1    3    3  502    0 -0.15266223625E+04 -0.55698604356E+03  0.21779169369E+03  0.16395860826E+04  0.10100000352E+00 0.  1.
       -3    1    3    3    0  502  0.15266223625E+04  0.55698604356E+03  0.10117304365E+04  0.19142642912E+04  0.10100000352E+00 0. -1.
</event>
<event>
 5   0  0.1116462E-06  0.3087936E+04  0.7818609E-02  0.8219057E-01
        2   -1    0    0  501    0  0.00000000000E+00  0.00000000000E+00  0.16560230014E+04  0.16560230014E+04  0.25500000920E-02 0.  1.
       -2   -1    0    0    0  501  0.00000000000E+00  0.00000000000E+00 -0.14394952214E+04  0.14394952214E+04  0.25500000920E-02 0. -1.
    10030    2    1    2    0    0  0.00000000000E+00  0.00000000000E+00  0.21652777997E+03  0.30955182228E+04  0.30879360078E+04 0.  0.
        1    1    3    3  502    0 -0.93057290630E+03  0.64877380409E+03  0.11581960148E+04  0.16212006019E+04  0.50400001928E-02 0.  1.
       -1    1    3    3    0  502  0.93057290630E+03 -0.64877380409E+03 -0.94166823483E+03  0.14743176209E+04  0.50400001928E-02 0. -1.
</event>
<event>
 5   0  0.3749685E-07  0.3444353E+04  0.7818609E-02  0.8127106E-01
       -1   -1    0    0    0  501  0.00000000000E+00  0.00000000000E+00  0.12991479952E+04  0.12991479952E+04  0.50400001928E-02 0.  1.
        1   -1    0    0  501    0  0.00000000000E+00  0.00000000000E+00 -0.22829515935E+04  0.22829515935E+04  0.50400001928E-02 0. -1.
    10030    2    1    2    0    0  0.00000000000E+00  0.00000000000E+00 -0.98380359837E+03  0.35820995887E+04  0.34443530515E+04 0.  0.
        3    1    3    3  502    0 -0.10162193129E+04 -0.13846355388E+04 -0.36045607481E+03  0.17549489620E+04  0.10100000352E+00 0.  1.
       -3    1    3    3    0  502  0.10162193129E+04  0.13846355388E+04 -0.62334752356E+03  0.18271506267E+04  0.10100000352E+00 0. -1.
</event>
<event>
 5   0  0.1126221E-06  0.3281102E+04  0.7818609E-02  0.8167721E-01
        2   -1    0    0  501    0  0.00000000000E+00  0.00000000000E+00  0.15859474310E+04  0.15859474310E+04  0.25500000920E-02 0. -1.
       -2   -1    0    0    0  501  0.00000000000E+00  0.00000000000E+00 -0.16970349587E+04  0.16970349587E+04  0.25500000920E-02 0.  1.
    10030    2    1    2    0    0  0.00000000000E+00  0.00000000000E+00 -0.11108752773E+03  0.32829823897E+04  0.32811023959E+04 0.  0.
        2    1    3    3  502    0  0.13282784987E+04 -0.72826912591E+03 -0.68575268383E+03  0.16628158146E+04  0.25500000920E-02 0.  1.
       -2    1    3    3    0  502 -0.13282784987E+04  0.72826912591E+03  0.57466515610E+03  0.16201665752E+04  0.25500000920E-02 0. -1.
</event>
<event>
 5   0  0.1129434E-06  0.3311652E+04  0.7818609E-02  0.8159937E-01
        2   -1    0    0  501    0  0.00000000000E+00  0.00000000000E+00  0.13617665336E+04  0.13617665336E+04  0.25500000920E-02 0. -1.
       -2   -1    0    0    0  501  0.00000000000E+00  0.00000000000E+00 -0.20133846529E+04  0.20133846529E+04  0.25500000920E-02 0.  1.
    10030    2    1    2    0    0  0.00000000000E+00  0.00000000000E+00 -0.65161811930E+03  0.33751511864E+04  0.33116520587E+04 0.  0.
        3    1    3    3  502    0  0.13609681666E+03  0.56545481048E+03 -0.19058576541E+04  0.19926251263E+04  0.10100000352E+00 0.  1.
       -3    1    3    3    0  502 -0.13609681666E+03 -0.56545481048E+03  0.12542395348E+04  0.13825260601E+04  0.10100000352E+00 0. -1.
</event>
<event>
 5   0  0.1116462E-06  0.3292762E+04  0.7818609E-02  0.8164740E-01
        2   -1    0    0  501    0  0.00000000000E+00  0.00000000000E+00  0.25534781939E+04  0.25534781939E+04  0.25500000920E-02 0. -1.
       -2   -1    0    0    0  501  0.00000000000E+00  0.00000000000E+00 -0.10615207494E+04  0.10615207494E+04  0.25500000920E-02 0.  1.
    10030    2    1    2    0    0  0.00000000000E+00  0.00000000000E+00  0.14919574445E+04  0.36149989434E+04  0.32927618110E+04 0.  0.
        1    1    3    3  502    0 -0.52964925744E+03 -0.10748012528E+04 -0.49360648113E+03  0.12959064114E+04  0.50400001928E-02 0.  1.
       -1    1    3    3    0  502  0.52964925744E+03  0.10748012528E+04  0.19855639257E+04  0.23190925320E+04  0.50400001928E-02 0. -1.
</event>
<event>
 5   0  0.1146799E-06  0.3161900E+04  0.7818609E-02  0.8198952E-01
        2   -1    0    0  501    0  0.00000000000E+00  0.00000000000E+00  0.22768036021E+04  0.22768036021E+04  0.25500000920E-02 0.  1.
       -2   -1    0    0    0  501  0.00000000000E+00  0.00000000000E+00 -0.10977686369E+04  0.10977686369E+04  0.25500000920E-02 0. -1.
    10030    2    1    2    0    0  0.00000000000E+00  0.00000000000E+00  0.11790349652E+04  0.33745722390E+04  0.31619004328E+04 0.  0.
        5    1    3    3  502    0  0.25631030433E+03 -0.21180404939E+03  0.22390571317E+04  0.22636154392E+04  0.46999998093E+01 0.  1.
       -5    1    3    3    0  502 -0.25631030433E+03  0.21180404939E+03 -0.10600221666E+04  0.11109567998E+04  0.46999998093E+01 0. -1.
</event>
<event>
 5   0  0.3709747E-07  0.3270739E+04  0.7818609E-02  0.8170381E-01
        1   -1    0    0  501    0  0.00000000000E+00  0.00000000000E+00  0.14586400904E+04  0.14586400904E+04  0.50400001928E-02 0.  1.
       -1   -1    0    0    0  501  0.00000000000E+00  0.00000000000E+00 -0.18335119749E+04  0.18335119749E+04  0.50400001928E-02 0. -1.
    10030    2    1    2    0    0  0.00000000000E+00  0.00000000000E+00 -0.37487188448E+03  0.32921520653E+04  0.32707394105E+04 0.  0.
        4    1    3    3  502    0 -0.13320367940E+04 -0.21966364702E+03  0.74156815271E+03  0.15402918803E+04  0.12699999809E+01 0.  1.
       -4    1    3    3    0  502  0.13320367940E+04  0.21966364702E+03 -0.11164400372E+04  0.17518601851E+04  0.12699999809E+01 0. -1.
</event>
<event>
 5   0  0.3796529E-07  0.3304407E+04  0.7818609E-02  0.8161775E-01
       -1   -1    0    0    0  501  0.00000000000E+00  0.00000000000E+00  0.19622104070E+04  0.19622104070E+04  0.50400001928E-02 0.  1.
        1   -1    0    0  501    0  0.00000000000E+00  0.00000000000E+00 -0.13911739401E+04  0.13911739401E+04  0.50400001928E-02 0. -1.
    10030    2    1    2    0    0  0.00000000000E+00  0.00000000000E+00  0.57103646686E+03  0.33533843471E+04  0.33044067445E+04 0.  0.
        5    1    3    3  502    0  0.14705097460E+04 -0.69281166520E+03 -0.14441864490E+02  0.16256129841E+04  0.46999998093E+01 0. -1.
       -5    1    3    3    0  502 -0.14705097460E+04  0.69281166520E+03  0.58547833135E+03  0.17277713631E+04  0.46999998093E+01 0.  1.
</event>
<event>
 5   0  0.1120545E-06  0.3290613E+04  0.7818609E-02  0.8165288E-01
        2   -1    0    0  501    0  0.00000000000E+00  0.00000000000E+00  0.19120532181E+04  0.19120532181E+04  0.25500000920E-02 0. -1.
       -2   -1    0    0    0  501  0.00000000000E+00  0.00000000000E+00 -0.14157729177E+04  0.14157729177E+04  0.25500000920E-02 0.  1.
    10030    2    1    2    0    0  0.00000000000E+00  0.00000000000E+00  0.49628030036E+03  0.33278261359E+04  0.32906128083E+04 0.  0.
        4    1    3    3  502    0  0.12827299320E+04  0.10390445108E+03 -0.78855724037E+03  0.15093098911E+04  0.12699999809E+01 0.  1.
       -4    1    3    3    0  502 -0.12827299320E+04 -0.10390445108E+03  0.12848375407E+04  0.18185162447E+04  0.12699999809E+01 0. -1.
</event>
<event>
 5   0  0.3709747E-07  0.3298453E+04  0.7818609E-02  0.8163289E-01
       -1   -1    0    0    0  501  0.00000000000E+00  0.00000000000E+00  0.21035422085E+04  0.21035422085E+04  0.50400001928E-02 0.  1.
        1   -1    0    0  501    0  0.00000000000E+00  0.00000000000E+00 -0.12930325528E+04  0.12930325528E+04  0.50400001928E-02 0. -1.
    10030    2    1    2    0    0  0.00000000000E+00  0.00000000000E+00  0.81050965570E+03  0.33965747613E+04  0.32984533053E+04 0.  0.
        4    1    3    3  502    0  0.19578955553E+03 -0.11769771277E+04 -0.76718348614E+03  0.14185135965E+04  0.12699999809E+01 0. -1.
       -4    1    3    3    0  502 -0.19578955553E+03  0.11769771277E+04  0.15776931418E+04  0.19780611648E+04  0.12699999809E+01 0.  1.
</event>
<event>
 5   0  0.3749685E-07  0.3286612E+04  0.7818609E-02  0.8166310E-01
       -1   -1    0    0    0  501  0.00000000000E+00  0.00000000000E+00  0.17661842272E+04  0.17661842272E+04  0.50400001928E-02 0. -1.
        1   -1    0    0  501    0  0.00000000000E+00  0.00000000000E+00 -0.15289763305E+04  0.15289763305E+04  0.50400001928E-02 0.  1.
    10030    2    1    2    0    0  0.00000000000E+00  0.00000000000E+00  0.23720789673E+03  0.32951605577E+04  0.32866115552E+04 0.  0.
        3    1    3    3  502    0 -0.10185208790E+04  0.12814893611E+04  0.26338908401E+03  0.16580028901E+04  0.10100000352E+00 0.  1.
       -3    1    3    3    0  502  0.10185208790E+04 -0.12814893611E+04 -0.26181187278E+02  0.16371576676E+04  0.10100000352E+00 0. -1.
</event>
<event>
 5   0  0.1116462E-06  0.3304239E+04  0.7818609E-02  0.8161818E-01
       -2   -1    0    0    0  501  0.00000000000E+00  0.00000000000E+00  0.15207669733E+04  0.15207669733E+04  0.25500000920E-02 0. -1.
        2   -1    0    0  501    0  0.00000000000E+00  0.00000000000E+00 -0.17948167459E+04  0.17948167459E+04  0.25500000920E-02 0.  1.
    10030    2    1    2    0    0  0.00000000000E+00  0.00000000000E+00 -0.27404977263E+03  0.33155837192E+04  0.33042385086E+04 0.  0.
        1    1    3    3  502    0  0.12558883913E+03  0.25519915129E+03  0.14960146701E+04  0.15228128764E+04  0.50400001928E-02 0. -1.
       -1    1    3    3    0  502 -0.12558883913E+03 -0.25519915129E+03 -0.17700644428E+04  0.17927708428E+04  0.50400001928E-02 0.  1.
</event>
<event>
 5   0  0.3796529E-07  0.3420387E+04  0.7818609E-02  0.8132921E-01
       -1   -1    0    0    0  501  0.00000000000E+00  0.00000000000E+00  0.18931564028E+04  0.18931564028E+04  0.50400001928E-02 0. -1.
        1   -1    0    0  501    0  0.00000000000E+00  0.00000000000E+00 -0.15449127260E+04  0.15449127260E+04  0.50400001928E-02 0.  1.
    10030    2    1    2    0    0  0.00000000000E+00  0.00000000000E+00  0.34824367681E+03  0.34380691289E+04  0.34203867730E+04 0.  0.
        5    1    3    3  502    0  0.81725304030E+02  0.77841819510E+03 -0.13543064970E+04  0.15642193227E+04  0.46999998093E+01 0.  1.
       -5    1    3    3    0  502 -0.81725304030E+02 -0.77841819510E+03  0.17025501738E+04  0.18738498062E+04  0.46999998093E+01 0. -1.
</event>
<event>
 5   0  0.1120545E-06  0.3263986E+04  0.7818609E-02  0.8172120E-01
        2   -1    0    0  501    0  0.00000000000E+00  0.00000000000E+00  0.15556590315E+04  0.15556590315E+04  0.25500000920E-02 0. -1.
       -2   -1    0    0    0  501  0.00000000000E+00  0.00000000000E+00 -0.17120728600E+04  0.17120728600E+04  0.25500000920E-02 0.  1.
    10030    2    1    2    0    0  0.00000000000E+00  0.00000000000E+00 -0.15641382855E+03  0.32677318915E+04  0.32639862789E+04 0.  0.
        4    1    3    3  502    0  0.93927982717E+03 -0.18823626645E+03  0.12445664743E+04  0.15705498424E+04  0.12699999809E+01 0. -1.
       -4    1    3    3    0  502 -0.93927982717E+03  0.18823626645E+03 -0.14009803028E+04  0.16971820490E+04  0.12699999809E+01 0.  1.
</event>
<event>
 5   0  0.1116462E-06  0.3361891E+04  0.7818609E-02  0.8147323E-01
       -2   -1    0    0    0  501  0.00000000000E+00  0.00000000000E+00  0.10886124129E+04  0.10886124129E+04  0.25500000920E-02 0. -1.
        2   -1    0    0  501    0  0.00000000000E+00  0.00000000000E+00 -0.25955767263E+04  0.25955767263E+04  0.25500000920E-02 0.  1.
    10030    2    1    2    0    0  0.00000000000E+00  0.00000000000E+00 -0.15069643135E+04  0.36841891392E+04  0.33618905650E+04 0.  0.
        1    1    3    3  502    0 -0.22639117377E+03  0.27029197696E+02  0.10715887880E+04  0.10955756805E+04  0.50400001928E-02 0. -1.
       -1    1    3    3    0  502  0.22639117377E+03 -0.27029197696E+02 -0.25785531015E+04  0.25886134587E+04  0.50400001928E-02 0.  1.
</event>
<event>
 5   0  0.1129434E-06  0.3290740E+04  0.7818609E-02  0.8165256E-01
        2   -1    0    0  501    0  0.00000000000E+00  0.00000000000E+00  0.15249739618E+04  0.15249739618E+04  0.25500000920E-02 0. -1.
       -2   -1    0    0    0  501  0.00000000000E+00  0.00000000000E+00 -0.17752708454E+04  0.17752708454E+04  0.25500000920E-02 0.  1.
    10030    2    1    2    0    0  0.00000000000E+00  0.00000000000E+00 -0.25029688361E+03  0.33002448073E+04  0.32907396217E+04 0.  0.
        3    1    3    3  502    0  0.81332041062E+03 -0.14120022523E+04 -0.35384517446E+03  0.16674672016E+04  0.10100000352E+00 0. -1.
       -3    1    3    3    0  502 -0.81332041062E+03  0.14120022523E+04  0.10354829085E+03  0.16327776057E+04  0.10100000352E+00 0.  1.
</event>
<event>
 5   0  0.1126221E-06  0.3324340E+04  0.7818609E-02  0.8156729E-01
       -2   -1    0    0    0  501  0.00000000000E+00  0.00000000000E+00  0.11993687615E+04  0.11993687616E+04  0.25500000920E-02 0. -1.
        2   -1    0    0  501    0  0.00000000000E+00  0.00000000000E+00 -0.23035529636E+04  0.23035529636E+04  0.25500000920E-02 0.  1.
    10030    2    1    2    0    0  0.00000000000E+00  0.00000000000E+00 -0.11041842021E+04  0.35029217252E+04  0.33243402143E+04 0.  0.
        2    1    3    3  502    0  0.79093151070E+03  0.14440124615E+04 -0.31165739243E+03  0.16756714994E+04  0.25500000920E-02 0. -1.
       -2    1    3    3    0  502 -0.79093151070E+03 -0.14440124615E+04 -0.79252680963E+03  0.18272502258E+04  0.25500000920E-02 0.  1.
</event>
<event>
 5   0  0.1116462E-06  0.3214069E+04  0.7818609E-02  0.8185112E-01
        2   -1    0    0  501    0  0.00000000000E+00  0.00000000000E+00  0.10589602976E+04  0.10589602976E+04  0.25500000920E-02 0.  1.
       -2   -1    0    0    0  501  0.00000000000E+00  0.00000000000E+00 -0.24387690026E+04  0.24387690026E+04  0.25500000920E-02 0. -1.
    10030    2    1    2    0    0  0.00000000000E+00  0.00000000000E+00 -0.13798087050E+04  0.34977293003E+04  0.32140687914E+04 0.  0.
        1    1    3    3  502    0  0.14674971796E+04 -0.60658202690E+03 -0.42097119440E+03  0.16427740180E+04  0.50400001928E-02 0. -1.
       -1    1    3    3    0  502 -0.14674971796E+04  0.60658202690E+03 -0.95883751061E+03  0.18549552823E+04  0.50400001928E-02 0.  1.
</event>
<event>
 5   0  0.1146799E-06  0.3324926E+04  0.7818609E-02  0.8156582E-01
        2   -1    0    0  501    0  0.00000000000E+00  0.00000000000E+00  0.11916816504E+04  0.11916816504E+04  0.25500000920E-02 0.  1.
       -2   -1    0    0    0  501  0.00000000000E+00  0.00000000000E+00 -0.23192288287E+04  0.23192288287E+04  0.25500000920E-02 0. -1.
    10030    2    1    2    0    0  0.00000000000E+00  0.00000000000E+00 -0.11275471783E+04  0.35109104791E+04  0.33249255260E+04 0.  0.
        5    1    3    3  502    0  0.11880239768E+04 -0.75984271974E+02  0.66156142625E+03  0.13619325202E+04  0.46999998093E+01 0.  1.
       -5    1    3    3    0  502 -0.11880239768E+04  0.75984271974E+02 -0.17891086045E+04  0.21489779589E+04  0.46999998093E+01 0. -1.
</event>
<event>
 5   0  0.1126221E-06  0.3277023E+04  0.7818609E-02  0.8168767E-01
       -2   -1    0    0    0  501  0.00000000000E+00  0.00000000000E+00  0.16118269038E+04  0.16118269038E+04  0.25500000920E-02 0.  1.
        2   -1    0    0  501    0  0.00000000000E+00  0.00000000000E+00 -0.16656378464E+04  0.16656378464E+04  0.25500000920E-02 0. -1.
    10030    2    1    2    0    0  0.00000000000E+00  0.00000000000E+00 -0.53810942587E+02  0.32774647502E+04  0.32770229739E+04 0.  0.
        2    1    3    3  502    0 -0.52200236245E+03  0.14818907997E+04 -0.49197685171E+03  0.16463681336E+04  0.25500000920E-02 0. -1.
       -2    1    3    3    0  502  0.52200236245E+03 -0.14818907997E+04  0.43816590912E+03  0.16310966166E+04  0.25500000920E-02 0.  1.
</event>
<event>
 5   0  0.3749685E-07  0.3320006E+04  0.7818609E-02  0.8157823E-01
       -1   -1    0    0    0  501  0.00000000000E+00  0.00000000000E+00  0.13334649732E+04  0.13334649732E+04  0.50400001928E-02 0. -1.
        1   -1    0    0  501    0  0.00000000000E+00  0.00000000000E+00 -0.20665038028E+04  0.20665038028E+04  0.50400001928E-02 0.  1.
    10030    2    1    2    0    0  0.00000000000E+00  0.00000000000E+00 -0.73303882959E+03  0.33999687761E+04  0.33200062880E+04 0.  0.
        3    1    3    3  502    0 -0.14159423889E+04 -0.86452512009E+03 -0.30756647647E+03  0.16872740381E+04  0.10100000352E+00 0.  1.
       -3    1    3    3    0  502  0.14159423889E+04  0.86452512009E+03 -0.42547235312E+03  0.17126947380E+04  0.10100000352E+00 0. -1.
</event>
<event>
 5   0  0.3757406E-07  0.3307259E+04  0.7818609E-02  0.8161051E-01
       -1   -1    0    0    0  501  0.00000000000E+00  0.00000000000E+00  0.18396242166E+04  0.18396242166E+04  0.50400001928E-02 0.  1.
        1   -1    0    0  501    0  0.00000000000E+00  0.00000000000E+00 -0.14864397781E+04  0.14864397781E+04  0.50400001928E-02 0. -1.
    10030    2    1    2    0    0  0.00000000000E+00  0.00000000000E+00  0.35318443852E+03  0.33260639947E+04  0.33072590539E+04 0.  0.
        1    1    3    3  502    0  0.11065037898E+04  0.60301324431E+03 -0.90025045508E+03  0.15486854076E+04  0.50400001928E-02 0. -1.
       -1    1    3    3    0  502 -0.11065037898E+04 -0.60301324431E+03  0.12534348936E+04  0.17773785872E+04  0.50400001928E-02 0.  1.
</event>
<event>
 5   0  0.1126221E-06  0.3295741E+04  0.7818609E-02  0.8163980E-01
       -2   -1    0    0    0  501  0.00000000000E+00  0.00000000000E+00  0.13565177641E+04  0.13565177641E+04  0.25500000920E-02 0.  1.
        2   -1    0    0  501    0  0.00000000000E+00  0.00000000000E+00 -0.20018000584E+04  0.20018000584E+04  0.25500000920E-02 0. -1.
    10030    2    1    2    0    0  0.00000000000E+00  0.00000000000E+00 -0.64528229430E+03  0.33583178226E+04  0.32957410939E+04 0.  0.
        2    1    3    3  502    0 -0.92578232556E+03 -0.82625675517E+02  0.10639219755E+04  0.14127384353E+04  0.25500000920E-02 0.  1.
       -2    1    3    3    0  502  0.92578232556E+03  0.82625675517E+02 -0.17092042698E+04  0.19455793873E+04  0.25500000920E-02 0. -1.
</event>
<event>
 5   0  0.1146799E-06  0.3308891E+04  0.7818609E-02  0.8160637E-01
        2   -1    0    0  501    0  0.00000000000E+00  0.00000000000E+00  0.28882184348E+04  0.28882184348E+04  0.25500000920E-02 0.  1.
       -2   -1    0    0    0  501  0.00000000000E+00  0.00000000000E+00 -0.94770854821E+03  0.94770854821E+03  0.25500000920E-02 0. -1.
    10030    2    1    2    0    0  0.00000000000E+00  0.00000000000E+00  0.19405098865E+04  0.38359269830E+04  0.33088906296E+04 0.  0.
        5    1    3    3  502    0  0.73520278687E+03  0.13612716925E+04  0.29073213564E+03  0.15742080623E+04  0.46999998093E+01 0. -1.
       -5    1    3    3    0  502 -0.73520278687E+03 -0.13612716925E+04  0.16497777509E+04  0.22617189207E+04  0.46999998093E+01 0.  1.
</event>
<event>
 5   0  0.1146799E-06  0.3152170E+04  0.7818609E-02  0.8201564E-01
       -2   -1    0    0    0  501  0.00000000000E+00  0.00000000000E+00  0.25401768869E+04  0.25401768869E+04  0.25500000920E-02 0.  1.
        2   -1    0    0  501    0  0.00000000000E+00  0.00000000000E+00 -0.97790214140E+03  0.97790214140E+03  0.25500000920E-02 0. -1.
    10030    2    1    2    0    0  0.00000000000E+00  0.00000000000E+00  0.15622747455E+04  0.35180790283E+04  0.31521703109E+04 0.  0.
        5    1    3    3  502    0  0.14465476063E+03  0.15674529467E+04  0.69333794627E+03  0.17200503881E+04  0.46999998093E+01 0. -1.
       -5    1    3    3    0  502 -0.14465476063E+03 -0.15674529467E+04  0.86893679920E+03  0.17980286402E+04  0.46999998093E+01 0.  1.
</event>
<event>
 5   0  0.3709747E-07  0.3287782E+04  0.7818609E-02  0.8166011E-01
        1   -1    0    0  501    0  0.00000000000E+00  0.00000000000E+00  0.25080747979E+04  0.25080747979E+04  0.50400001928E-02 0.  1.
       -1   -1    0    0    0  501  0.00000000000E+00  0.00000000000E+00 -0.10774711496E+04  0.10774711496E+04  0.50400001928E-02 0. -1.
    10030    2    1    2    0    0  0.00000000000E+00  0.00000000000E+00  0.14306036484E+04  0.35855459475E+04  0.32877823746E+04 0.  0.
        4    1    3    3  502    0 -0.16367967196E+04 -0.15131816227E+03  0.69415677379E+03  0.17843362707E+04  0.12699999809E+01 0. -1.
       -4    1    3    3    0  502  0.16367967196E+04  0.15131816227E+03  0.73644687456E+03  0.18012096767E+04  0.12699999809E+01 0.  1.
</event>
<event>
 5   0  0.3573375E-07  0.3334809E+04  0.7818609E-02  0.8154094E-01
       -3   -1    0    0    0  501  0.00000000000E+00  0.00000000000E+00  0.22013931225E+04  0.22013931248E+04  0.10100000352E+00 0.  1.
        3   -1    0    0  501    0  0.00000000000E+00  0.00000000000E+00 -0.12629446882E+04  0.12629446922E+04  0.10100000352E+00 0. -1.
    10030    2    1    2    0    0  0.00000000000E+00  0.00000000000E+00  0.93844843432E+03  0.34643378170E+04  0.33348089970E+04 0.  0.
        2    1    3    3  502    0  0.11457693570E+03  0.13890783051E+04  0.14199607379E+04  0.19897122679E+04  0.25500000920E-02 0.  1.
       -2    1    3    3    0  502 -0.11457693570E+03 -0.13890783051E+04 -0.48151230357E+03  0.14746255492E+04  0.25500000920E-02 0. -1.
</event>
<event>
 5   0  0.1116462E-06  0.3325856E+04  0.7818609E-02  0.8156347E-01
       -2   -1    0    0    0  501  0.00000000000E+00  0.00000000000E+00  0.17258127214E+04  0.17258127214E+04  0.25500000920E-02 0.  1.
        2   -1    0    0  501    0  0.00000000000E+00  0.00000000000E+00 -0.16023343454E+04  0.16023343454E+04  0.25500000920E-02 0. -1.
    10030    2    1    2    0    0  0.00000000000E+00  0.00000000000E+00  0.12347837609E+03  0.33281470668E+04  0.33258556777E+04 0.  0.
        1    1    3    3  502    0  0.13529829894E+04  0.80609245030E+03 -0.47246471200E+03  0.16442539074E+04  0.50400001928E-02 0. -1.
       -1    1    3    3    0  502 -0.13529829894E+04 -0.80609245030E+03  0.59594308809E+03  0.16838931594E+04  0.50400001928E-02 0.  1.
</event>
<event>
 5   0  0.1120545E-06  0.3292431E+04  0.7818609E-02  0.8164824E-01
        2   -1    0    0  501    0  0.00000000000E+00  0.00000000000E+00  0.15554050646E+04  0.15554050646E+04  0.25500000920E-02 0.  1.
       -2   -1    0    0    0  501  0.00000000000E+00  0.00000000000E+00 -0.17423278840E+04  0.17423278840E+04  0.25500000920E-02 0. -1.
    10030    2    1    2    0    0  0.00000000000E+00  0.00000000000E+00 -0.18692281941E+03  0.32977329485E+04  0.32924310865E+04 0.  0.
        4    1    3    3  502    0 -0.85658974799E+03 -0.14653374277E+03 -0.14938565883E+04  0.17282439797E+04  0.12699999809E+01 0. -1.
       -4    1    3    3    0  502  0.85658974799E+03  0.14653374277E+03  0.13069337689E+04  0.15694889688E+04  0.12699999809E+01 0.  1.
</event>
<event>
 5   0  0.1126221E-06  0.3448583E+04  0.7818609E-02  0.8126084E-01
       -2   -1    0    0    0  501  0.00000000000E+00  0.00000000000E+00  0.11577089786E+04  0.11577089786E+04  0.25500000920E-02 0.  1.
        2   -1    0    0  501    0  0.00000000000E+00  0.00000000000E+00 -0.25681596408E+04  0.25681596408E+04  0.25500000920E-02 0. -1.
    10030    2    1    2    0    0  0.00000000000E+00  0.00000000000E+00 -0.14104506622E+04  0.37258686194E+04  0.34485831726E+04 0.  0.
        2    1    3    3  502    0  0.53367355798E+03  0.63042132054E+03  0.93006161854E+03  0.12438862979E+04  0.25500000920E-02 0.  1.
       -2    1    3    3    0  502 -0.53367355798E+03 -0.63042132054E+03 -0.23405122807E+04  0.24819823215E+04  0.25500000920E-02 0. -1.
</event>
<event>
 5   0  0.1126221E-06  0.3298323E+04  0.7818609E-02  0.8163322E-01
        2   -1    0    0  501    0  0.00000000000E+00  0.00000000000E+00  0.75303515521E+03  0.75303515521E+03  0.25500000920E-02 0.  1.
       -2   -1    0    0    0  501  0.00000000000E+00  0.00000000000E+00 -0.36116949354E+04  0.36116949354E+04  0.25500000920E-02 0. -1.
    10030    2    1    2    0    0  0.00000000000E+00  0.00000000000E+00 -0.28586597802E+04  0.43647300906E+04  0.32983227594E+04 0.  0.
        2    1    3    3  502    0  0.36522849960E+02 -0.11081892593E+04 -0.30448166725E+04  0.32404206397E+04  0.25500000920E-02 0. -1.
       -2    1    3    3    0  502 -0.36522849960E+02  0.11081892593E+04  0.18615689229E+03  0.11243094509E+04  0.25500000920E-02 0.  1.
</event>
<event>
 5   0  0.3674967E-07  0.3282390E+04  0.7818609E-02  0.8167391E-01
       -1   -1    0    0    0  501  0.00000000000E+00  0.00000000000E+00  0.28690846981E+04  0.28690846981E+04  0.50400001928E-02 0.  1.
        1   -1    0    0  501    0  0.00000000000E+00  0.00000000000E+00 -0.93880819116E+03  0.93880819118E+03  0.50400001928E-02 0. -1.
    10030    2    1    2    0    0  0.00000000000E+00  0.00000000000E+00  0.19302765070E+04  0.38078928893E+04  0.32823895051E+04 0.  0.
        2    1    3    3  502    0 -0.15685271511E+04 -0.47937908876E+03  0.10331647251E+04  0.19384300564E+04  0.25500000920E-02 0.  1.
       -2    1    3    3    0  502  0.15685271511E+04  0.47937908876E+03  0.89711178183E+03  0.18694628329E+04  0.25500000920E-02 0. -1.
</event>
<event>
 5   0  0.3749685E-07  0.3291048E+04  0.7818609E-02  0.8165177E-01
        1   -1    0    0  501    0  0.00000000000E+00  0.00000000000E+00  0.16698541244E+04  0.16698541245E+04  0.50400001928E-02 0. -1.
       -1   -1    0    0    0  501  0.00000000000E+00  0.00000000000E+00 -0.16215480647E+04  0.16215480647E+04  0.50400001928E-02 0.  1.
    10030    2    1    2    0    0  0.00000000000E+00  0.00000000000E+00  0.48306059709E+02  0.32914021892E+04  0.32910476897E+04 0.  0.
        3    1    3    3  502    0  0.27137721245E+03  0.16222193328E+04 -0.25927893441E+02  0.16449660850E+04  0.10100000352E+00 0.  1.
       -3    1    3    3    0  502 -0.27137721245E+03 -0.16222193328E+04  0.74233953151E+02  0.16464361042E+04  0.10100000352E+00 0. -1.
</event>
<event>
 5   0  0.1146799E-06  0.3270851E+04  0.7818609E-02  0.8170352E-01
        2   -1    0    0  501    0  0.00000000000E+00  0.00000000000E+00  0.17146512683E+04  0.17146512683E+04  0.25500000920E-02 0.  1.
       -2   -1    0    0    0  501  0.00000000000E+00  0.00000000000E+00 -0.15598600046E+04  0.15598600046E+04  0.25500000920E-02 0. -1.
    10030    2    1    2    0    0  0.00000000000E+00  0.00000000000E+00  0.15479126376E+03  0.32745112729E+04  0.32708506143E+04 0.  0.
        5    1    3    3  502    0  0.14422211304E+04  0.77417082100E+02 -0.69066483466E+03  0.16009482182E+04  0.46999998093E+01 0. -1.
       -5    1    3    3    0  502 -0.14422211304E+04 -0.77417082100E+02  0.84545609842E+03  0.16735630547E+04  0.46999998093E+01 0.  1.
</event>
<event>
 5   0  0.1116462E-06  0.3313470E+04  0.7818609E-02  0.8159476E-01
       -2   -1    0    0    0  501  0.00000000000E+00  0.00000000000E+00  0.13012821539E+04  0.13012821539E+04  0.25500000920E-02 0.  1.
        2   -1    0    0  501    0  0.00000000000E+00  0.00000000000E+00 -0.21092814230E+04  0.21092814230E+04  0.25500000920E-02 0. -1.
    10030    2    1    2    0    0  0.00000000000E+00  0.00000000000E+00 -0.80799926908E+03  0.34105635769E+04  0.33134696457E+04 0.  0.
        1    1    3    3  502    0 -0.15204218451E+04  0.20852420415E+03 -0.10464737054E+04  0.18574908202E+04  0.50400001928E-02 0. -1.
       -1    1    3    3    0  502  0.15204218451E+04 -0.20852420415E+03  0.23847443634E+03  0.15530727567E+04  0.50400001928E-02 0.  1.
</event>
<event>
 5   0  0.3709747E-07  0.3276942E+04  0.7818609E-02  0.8168787E-01
       -1   -1    0    0    0  501  0.00000000000E+00  0.00000000000E+00  0.10861160626E+04  0.10861160626E+04  0.50400001928E-02 0.  1.
        1   -1    0    0  501    0  0.00000000000E+00  0.00000000000E+00 -0.24717310649E+04  0.24717310649E+04  0.50400001928E-02 0. -1.
    10030    2    1    2    0    0  0.00000000000E+00  0.00000000000E+00 -0.13856150023E+04  0.35578471275E+04  0.32769417523E+04 0.  0.
        4    1    3    3  502    0  0.61947328997E+03  0.12769687497E+04 -0.15816343445E+04  0.21250800354E+04  0.12699999809E+01 0. -1.
       -4    1    3    3    0  502 -0.61947328997E+03 -0.12769687497E+04  0.19601934219E+03  0.14327670920E+04  0.12699999809E+01 0.  1.
</event>
<event>
 5   0  0.3749685E-07  0.3294485E+04  0.7818609E-02  0.8164300E-01
        1   -1    0    0  501    0  0.00000000000E+00  0.00000000000E+00  0.17349585912E+04  0.17349585912E+04  0.50400001928E-02 0.  1.
       -1   -1    0    0    0  501  0.00000000000E+00  0.00000000000E+00 -0.15639609348E+04  0.15639609348E+04  0.50400001928E-02 0. -1.
    10030    2    1    2    0    0  0.00000000000E+00  0.00000000000E+00  0.17099765637E+03  0.32989195260E+04  0.32944847611E+04 0.  0.
        3    1    3    3  502    0  0.78256253352E+03 -0.35684040595E+03 -0.13212653356E+04  0.15765409261E+04  0.10100000352E+00 0. -1.
       -3    1    3    3    0  502 -0.78256253352E+03  0.35684040595E+03  0.14922629920E+04  0.17223786000E+04  0.10100000352E+00 0.  1.
</event>
<event>
 5   0  0.1146799E-06  0.3312080E+04  0.7818609E-02  0.8159828E-01
        2   -1    0    0  501    0  0.00000000000E+00  0.00000000000E+00  0.86081530271E+03  0.86081530271E+03  0.25500000920E-02 0.  1.
       -2   -1    0    0    0  501  0.00000000000E+00  0.00000000000E+00 -0.31858967359E+04  0.31858967359E+04  0.25500000920E-02 0. -1.
    10030    2    1    2    0    0  0.00000000000E+00  0.00000000000E+00 -0.23250814331E+04  0.40467120386E+04  0.33120801096E+04 0.  0.
        5    1    3    3  502    0 -0.11004452692E+04  0.48698375585E+03 -0.25525612854E+04  0.28220071181E+04  0.46999998093E+01 0. -1.
       -5    1    3    3    0  502  0.11004452692E+04 -0.48698375585E+03  0.22747985224E+03  0.12247049205E+04  0.46999998093E+01 0.  1.
</event>
<event>
 5   0  0.3674967E-07  0.3297346E+04  0.7818609E-02  0.8163571E-01
        1   -1    0    0  501    0  0.00000000000E+00  0.00000000000E+00  0.23407800924E+04  0.23407800924E+04  0.50400001928E-02 0.  1.
       -1   -1    0    0    0  501  0.00000000000E+00  0.00000000000E+00 -0.11612034273E+04  0.11612034273E+04  0.50400001928E-02 0. -1.
    10030    2    1    2    0    0  0.00000000000E+00  0.00000000000E+00  0.11795766651E+04  0.35019835197E+04  0.32973455177E+04 0.  0.
        2    1    3    3  502    0  0.22520377624E+03 -0.60898759261E+03 -0.10196953392E+04  0.12088677403E+04  0.25500000920E-02 0. -1.
       -2    1    3    3    0  502 -0.22520377624E+03  0.60898759261E+03  0.21992720043E+04  0.22931157794E+04  0.25500000920E-02 0.  1.
</event>
<event>
 5   0  0.1126221E-06  0.3306095E+04  0.7818609E-02  0.8161346E-01
       -2   -1    0    0    0  501  0.00000000000E+00  0.00000000000E+00  0.10886905660E+04  0.10886905660E+04  0.25500000920E-02 0.  1.
        2   -1    0    0  501    0  0.00000000000E+00  0.00000000000E+00 -0.25099572293E+04  0.25099572293E+04  0.25500000920E-02 0. -1.
    10030    2    1    2    0    0  0.00000000000E+00  0.00000000000E+00 -0.14212666633E+04  0.35986477953E+04  0.33060954351E+04 0.  0.
        2    1    3    3  502    0 -0.98149078326E+03  0.77628068678E+03  0.46505090229E+03  0.13349937094E+04  0.25500000920E-02 0.  1.
       -2    1    3    3    0  502  0.98149078326E+03 -0.77628068678E+03 -0.18863175656E+04  0.22636540859E+04  0.25500000920E-02 0. -1.
</event>
<event>
 5   0  0.1120545E-06  0.3301477E+04  0.7818609E-02  0.8162520E-01
       -2   -1    0    0    0  501  0.00000000000E+00  0.00000000000E+00  0.20086675722E+04  0.20086675722E+04  0.25500000920E-02 0.  1.
        2   -1    0    0  501    0  0.00000000000E+00  0.00000000000E+00 -0.13565896635E+04  0.13565896635E+04  0.25500000920E-02 0. -1.
    10030    2    1    2    0    0  0.00000000000E+00  0.00000000000E+00  0.65207790871E+03  0.33652572357E+04  0.33014770427E+04 0.  0.
        4    1    3    3  502    0 -0.11526465811E+04  0.11606367225E+04  0.55228249507E+03  0.17264672918E+04  0.12699999809E+01 0.  1.
       -4    1    3    3    0  502  0.11526465811E+04 -0.11606367225E+04  0.99795413638E+02  0.16387899438E+04  0.12699999809E+01 0. -1.
</event>
<event>
 5   0  0.3757406E-07  0.3321067E+04  0.7818609E-02  0.8157556E-01
        1   -1    0    0  501    0  0.00000000000E+00  0.00000000000E+00  0.26227130510E+04  0.26227130510E+04  0.50400001928E-02 0. -1.
       -1   -1    0    0    0  501  0.00000000000E+00  0.00000000000E+00 -0.10513429127E+04  0.10513429127E+04  0.50400001928E-02 0.  1.
    10030    2    1    2    0    0  0.00000000000E+00  0.00000000000E+00  0.15713701383E+04  0.36740559637E+04  0.33210665625E+04 0.  0.
        1    1    3    3  502    0  0.15367092035E+04  0.43689239800E+03  0.28476668170E+03  0.16227884048E+04  0.50400001928E-02 0.  1.
       -1    1    3    3    0  502 -0.15367092035E+04 -0.43689239800E+03  0.12866034566E+04  0.20512675589E+04  0.50400001928E-02 0. -1.
</event>
<event>
 5   0  0.3757406E-07  0.3284923E+04  0.7818609E-02  0.8166742E-01
        1   -1    0    0  501    0  0.00000000000E+00  0.00000000000E+00  0.18668746974E+04  0.18668746974E+04  0.50400001928E-02 0.  1.
       -1   -1    0    0    0  501  0.00000000000E+00  0.00000000000E+00 -0.14450243999E+04  0.14450243999E+04  0.50400001928E-02 0. -1.
    10030    2    1    2    0    0  0.00000000000E+00  0.00000000000E+00  0.42185029752E+03  0.33118990974E+04  0.32849228237E+04 0.  0.
        1    1    3    3  502    0  0.22166650555E+03 -0.68881507975E+03 -0.12756587015E+04  0.14665972100E+04  0.50400001928E-02 0. -1.
       -1    1    3    3    0  502 -0.22166650555E+03  0.68881507975E+03  0.16975089990E+04  0.18453018873E+04  0.50400001928E-02 0.  1.
</event>
<event>
 5   0  0.3796529E-07  0.3289243E+04  0.7818609E-02  0.8165638E-01
       -1   -1    0    0    0  501  0.00000000000E+00  0.00000000000E+00  0.12249109751E+04  0.12249109751E+04  0.50400001928E-02 0.  1.
        1   -1    0    0  501    0  0.00000000000E+00  0.00000000000E+00 -0.22081434030E+04  0.22081434030E+04  0.50400001928E-02 0. -1.
    10030    2    1    2    0    0  0.00000000000E+00  0.00000000000E+00 -0.98323242791E+03  0.34330543781E+04  0.32892425201E+04 0.  0.
        5    1    3    3  502    0  0.31876177391E+03 -0.63505182361E+03  0.10564232332E+04  0.12731661419E+04  0.46999998093E+01 0.  1.
       -5    1    3    3    0  502 -0.31876177391E+03  0.63505182361E+03 -0.20396556611E+04  0.21598882363E+04  0.46999998093E+01 0. -1.
</event>
<event>
 5   0  0.1116462E-06  0.3298970E+04  0.7818609E-02  0.8163157E-01
        2   -1    0    0  501    0  0.00000000000E+00  0.00000000000E+00  0.20909232829E+04  0.20909232829E+04  0.25500000920E-02 0. -1.
       -2   -1    0    0    0  501  0.00000000000E+00  0.00000000000E+00 -0.13012439364E+04  0.13012439364E+04  0.25500000920E-02 0.  1.
    10030    2    1    2    0    0  0.00000000000E+00  0.00000000000E+00  0.78967934650E+03  0.33921672192E+04  0.32989702898E+04 0.  0.
        1    1    3    3  502    0  0.40836000940E+03  0.10077566917E+04  0.16702306376E+04  0.19929881659E+04  0.50400001928E-02 0. -1.
       -1    1    3    3    0  502 -0.40836000940E+03 -0.10077566917E+04 -0.88055129106E+03  0.13991790533E+04  0.50400001928E-02 0.  1.
</event>
<event>
 5   0  0.1120545E-06  0.3305258E+04  0.7818609E-02  0.8161559E-01
        2   -1    0    0  501    0  0.00000000000E+00  0.00000000000E+00  0.23996261434E+04  0.23996261434E+04  0.25500000920E-02 0. -1.
       -2   -1    0    0    0  501  0.00000000000E+00  0.00000000000E+00 -0.11381703899E+04  0.11381703899E+04  0.25500000920E-02 0.  1.
    10030    2    1    2    0    0  0.00000000000E+00  0.00000000000E+00  0.12614557535E+04  0.35377965334E+04  0.33052584912E+04 0.  0.
        4    1    3    3  502    0 -0.52801920482E+02  0.14264684005E+04  0.15221352582E+04  0.20867432754E+04  0.12699999809E+01 0. -1.
       -4    1    3    3    0  502  0.52801920482E+02 -0.14264684005E+04 -0.26067950470E+03  0.14510532580E+04  0.12699999809E+01 0.  1.
</event>
<event>
 5   0  0.3709747E-07  0.3284784E+04  0.7818609E-02  0.8166778E-01
        1   -1    0    0  501    0  0.00000000000E+00  0.00000000000E+00  0.87603023988E+03  0.87603023990E+03  0.50400001928E-02 0. -1.
       -1   -1    0    0    0  501  0.00000000000E+00  0.00000000000E+00 -0.30791758889E+04  0.30791758889E+04  0.50400001928E-02 0.  1.
    10030    2    1    2    0    0  0.00000000000E+00  0.00000000000E+00 -0.22031456490E+04  0.39552061288E+04  0.32847838240E+04 0.  0.
        4    1    3    3  502    0  0.10552542704E+04 -0.12532941526E+04 -0.12396078451E+04  0.20544919155E+04  0.12699999809E+01 0. -1.
       -4    1    3    3    0  502 -0.10552542704E+04  0.12532941526E+04 -0.96353780385E+03  0.19007142133E+04  0.12699999809E+01 0.  1.
</event>
<event>
 5   0  0.3796529E-07  0.3314529E+04  0.7818609E-02  0.8159208E-01
       -1   -1    0    0    0  501  0.00000000000E+00  0.00000000000E+00  0.16919887878E+04  0.16919887878E+04  0.50400001928E-02 0.  1.
        1   -1    0    0  501    0  0.00000000000E+00  0.00000000000E+00 -0.16232530531E+04  0.16232530531E+04  0.50400001928E-02 0. -1.
    10030    2    1    2    0    0  0.00000000000E+00  0.00000000000E+00  0.68735734705E+02  0.33152418408E+04  0.33145292067E+04 0.  0.
        5    1    3    3  502    0 -0.10920062198E+02 -0.16570940489E+04  0.54962115840E+02  0.16580479061E+04  0.46999998093E+01 0. -1.
       -5    1    3    3    0  502  0.10920062198E+02  0.16570940489E+04  0.13773618865E+02  0.16571939347E+04  0.46999998093E+01 0.  1.
</event>
<event>
 5   0  0.1116462E-06  0.3290902E+04  0.7818609E-02  0.8165214E-01
        2   -1    0    0  501    0  0.00000000000E+00  0.00000000000E+00  0.14674775638E+04  0.14674775638E+04  0.25500000920E-02 0.  1.
       -2   -1    0    0    0  501  0.00000000000E+00  0.00000000000E+00 -0.18450084792E+04  0.18450084792E+04  0.25500000920E-02 0. -1.
    10030    2    1    2    0    0  0.00000000000E+00  0.00000000000E+00 -0.37753091544E+03  0.33124860430E+04  0.32909017294E+04 0.  0.
        1    1    3    3  502    0  0.12459920204E+03  0.13441359355E+04  0.75830001299E+03  0.15483040024E+04  0.50400001928E-02 0. -1.
       -1    1    3    3    0  502 -0.12459920204E+03 -0.13441359355E+04 -0.11358309284E+04  0.17641820405E+04  0.50400001928E-02 0.  1.
</event>
<event>
 5   0  0.3749685E-07  0.3162397E+04  0.7818609E-02  0.8198819E-01
       -1   -1    0    0    0  501  0.00000000000E+00  0.00000000000E+00  0.13152667674E+04  0.13152667674E+04  0.50400001928E-02 0.  1.
        1   -1    0    0  501    0  0.00000000000E+00  0.00000000000E+00 -0.19008991168E+04  0.19008991168E+04  0.50400001928E-02 0. -1.
    10030    2    1    2    0    0  0.00000000000E+00  0.00000000000E+00 -0.58563234940E+03  0.32161658842E+04  0.31623974681E+04 0.  0.
        3    1    3    3  502    0 -0.12951368300E+04  0.59427458984E+03  0.40414422189E+03  0.14811732710E+04  0.10100000352E+00 0.  1.
       -3    1    3    3    0  502  0.12951368300E+04 -0.59427458984E+03 -0.98977657129E+03  0.17349926132E+04  0.10100000352E+00 0. -1.
</event>
<event>
 5   0  0.1126221E-06  0.3292750E+04  0.7818609E-02  0.8164743E-01
        2   -1    0    0  501    0  0.00000000000E+00  0.00000000000E+00  0.20474727758E+04  0.20474727758E+04  0.25500000920E-02 0. -1.
       -2   -1    0    0    0  501  0.00000000000E+00  0.00000000000E+00 -0.13238515011E+04  0.13238515011E+04  0.25500000920E-02 0.  1.
    10030    2    1    2    0    0  0.00000000000E+00  0.00000000000E+00  0.72362127467E+03  0.33713242769E+04  0.32927495548E+04 0.  0.
        2    1    3    3  502    0  0.70967562218E+03 -0.11313234837E+04  0.13476038341E+04  0.18972528580E+04  0.25500000920E-02 0. -1.
       -2    1    3    3    0  502 -0.70967562218E+03  0.11313234837E+04 -0.62398255940E+03  0.14740714189E+04  0.25500000920E-02 0.  1.
</event>
<event>
 5   0  0.1126221E-06  0.3307268E+04  0.7818609E-02  0.8161048E-01
       -2   -1    0    0    0  501  0.00000000000E+00  0.00000000000E+00  0.22812986028E+04  0.22812986028E+04  0.25500000920E-02 0.  1.
        2   -1    0    0  501    0  0.00000000000E+00  0.00000000000E+00 -0.11986618403E+04  0.11986618403E+04  0.25500000920E-02 0. -1.
    10030    2    1    2    0    0  0.00000000000E+00  0.00000000000E+00  0.10826367626E+04  0.34799604431E+04  0.33072681061E+04 0.  0.
        2    1    3    3  502    0 -0.23507233997E+03  0.44306065562E+03 -0.11166962252E+04  0.12241618394E+04  0.25500000920E-02 0. -1.
       -2    1    3    3    0  502  0.23507233997E+03 -0.44306065562E+03  0.21993329878E+04  0.22557986037E+04  0.25500000920E-02 0.  1.
</event>
<event>
 5   0  0.1120545E-06  0.3271494E+04  0.7818609E-02  0.8170187E-01
        2   -1    0    0  501    0  0.00000000000E+00  0.00000000000E+00  0.11963712128E+04  0.11963712128E+04  0.25500000920E-02 0. -1.
       -2   -1    0    0    0  501  0.00000000000E+00  0.00000000000E+00 -0.22364860915E+04  0.22364860915E+04  0.25500000920E-02 0.  1.
    10030    2    1    2    0    0  0.00000000000E+00  0.00000000000E+00 -0.10401148787E+04  0.34328573042E+04  0.32714935901E+04 0.  0.
        4    1    3    3  502    0 -0.12354914217E+04 -0.81256261215E+03 -0.12538111355E+04  0.19387472832E+04  0.12699999809E+01 0.  1.
       -4    1    3    3    0  502  0.12354914217E+04  0.81256261215E+03  0.21369625680E+03  0.14941100210E+04  0.12699999809E+01 0. -1.
</event>
<event>
 5   0  0.1146799E-06  0.3327893E+04  0.7818609E-02  0.8155834E-01
       -2   -1    0    0    0  501  0.00000000000E+00  0.00000000000E+00  0.14396481972E+04  0.14396481972E+04  0.25500000920E-02 0.  1.
        2   -1    0    0  501    0  0.00000000000E+00  0.00000000000E+00 -0.19231901083E+04  0.19231901083E+04  0.25500000920E-02 0. -1.
    10030    2    1    2    0    0  0.00000000000E+00  0.00000000000E+00 -0.48354191108E+03  0.33628383055E+04  0.33278925297E+04 0.  0.
        5    1    3    3  502    0 -0.18112119123E+03 -0.48140829459E+03 -0.18408343092E+04  0.19113481828E+04  0.46999998093E+01 0. -1.
       -5    1    3    3    0  502  0.18112119123E+03  0.48140829459E+03  0.13572923982E+04  0.14514901226E+04  0.46999998093E+01 0.  1.
</event>
<event>
 5   0  0.1116462E-06  0.3292288E+04  0.7818609E-02  0.8164860E-01
        2   -1    0    0  501    0  0.00000000000E+00  0.00000000000E+00  0.14888066742E+04  0.14888066742E+04  0.25500000920E-02 0.  1.
       -2   -1    0    0    0  501  0.00000000000E+00  0.00000000000E+00 -0.18201087077E+04  0.18201087077E+04  0.25500000920E-02 0. -1.
    10030    2    1    2    0    0  0.00000000000E+00  0.00000000000E+00 -0.33130203351E+03  0.33089153820E+04  0.32922879534E+04 0.  0.
        1    1    3    3  502    0 -0.16130011209E+04 -0.15957809817E+03 -0.45442109558E+03  0.16833705229E+04  0.50400001928E-02 0. -1.
       -1    1    3    3    0  502  0.16130011209E+04  0.15957809817E+03  0.12311906208E+03  0.16255448591E+04  0.50400001928E-02 0.  1.
</event>
<event>
 5   0  0.1146799E-06  0.3253217E+04  0.7818609E-02  0.8174902E-01
        2   -1    0    0  501    0  0.00000000000E+00  0.00000000000E+00  0.24744724137E+04  0.24744724137E+04  0.25500000920E-02 0.  1.
       -2   -1    0    0    0  501  0.00000000000E+00  0.00000000000E+00 -0.10692601225E+04  0.10692601225E+04  0.25500000920E-02 0. -1.
    10030    2    1    2    0    0  0.00000000000E+00  0.00000000000E+00  0.14052122912E+04  0.35437325362E+04  0.32532166705E+04 0.  0.
        5    1    3    3  502    0 -0.79616980654E+03 -0.11498672824E+04  0.16072846275E+04  0.21306025185E+04  0.46999998093E+01 0.  1.
       -5    1    3    3    0  502  0.79616980654E+03  0.11498672824E+04 -0.20207233626E+03  0.14131300178E+04  0.46999998093E+01 0. -1.
</event>
<event>
 5   0  0.3709747E-07  0.3297832E+04  0.7818609E-02  0.8163447E-01
        1   -1    0    0  501    0  0.00000000000E+00  0.00000000000E+00  0.21379534148E+04  0.21379534148E+04  0.50400001928E-02 0.  1.
       -1   -1    0    0    0  501  0.00000000000E+00  0.00000000000E+00 -0.12717418010E+04  0.12717418010E+04  0.50400001928E-02 0. -1.
    10030    2    1    2    0    0  0.00000000000E+00  0.00000000000E+00  0.86621161381E+03  0.34096952159E+04  0.32978324556E+04 0.  0.
        4    1    3    3  502    0 -0.27803486176E+03  0.13044730814E+04  0.14355123704E+04  0.19595026877E+04  0.12699999809E+01 0. -1.
       -4    1    3    3    0  502  0.27803486176E+03 -0.13044730814E+04 -0.56930075658E+03  0.14501925282E+04  0.12699999809E+01 0.  1.
</event>
<event>
 5   0  0.3796529E-07  0.3298668E+04  0.7818609E-02  0.8163234E-01
       -1   -1    0    0    0  501  0.00000000000E+00  0.00000000000E+00  0.14018861309E+04  0.14018861309E+04  0.50400001928E-02 0. -1.
        1   -1    0    0  501    0  0.00000000000E+00  0.00000000000E+00 -0.19404593318E+04  0.19404593318E+04  0.50400001928E-02 0.  1.
    10030    2    1    2    0    0  0.00000000000E+00  0.00000000000E+00 -0.53857320086E+03  0.33423454627E+04  0.32986682312E+04 0.  0.
        5    1    3    3  502    0  0.74981793637E+03  0.13003651161E+04 -0.96178656072E+03  0.17827596168E+04  0.46999998093E+01 0.  1.
       -5    1    3    3    0  502 -0.74981793637E+03 -0.13003651161E+04  0.42321335986E+03  0.15595858459E+04  0.46999998093E+01 0. -1.
</event>
<event>
 5   0  0.1120545E-06  0.3301097E+04  0.7818609E-02  0.8162616E-01
       -2   -1    0    0    0  501  0.00000000000E+00  0.00000000000E+00  0.11105180787E+04  0.11105180787E+04  0.25500000920E-02 0. -1.
        2   -1    0    0  501    0  0.00000000000E+00  0.00000000000E+00 -0.24531882231E+04  0.24531882231E+04  0.25500000920E-02 0.  1.
    10030    2    1    2    0    0  0.00000000000E+00  0.00000000000E+00 -0.13426701443E+04  0.35637063018E+04  0.33010967100E+04 0.  0.
        4    1    3    3  502    0 -0.68390372794E+03  0.10490519546E+04  0.48940897286E+03  0.13445285673E+04  0.12699999809E+01 0. -1.
       -4    1    3    3    0  502  0.68390372794E+03 -0.10490519546E+04 -0.18320791172E+04  0.22191777345E+04  0.12699999809E+01 0.  1.
</event>
<event>
 5   0  0.1126221E-06  0.3263281E+04  0.7818609E-02  0.8172302E-01
        2   -1    0    0  501    0  0.00000000000E+00  0.00000000000E+00  0.27030709806E+04  0.27030709806E+04  0.25500000920E-02 0.  1.
       -2   -1    0    0    0  501  0.00000000000E+00  0.00000000000E+00 -0.98489867834E+03  0.98489867834E+03  0.25500000920E-02 0. -1.
    10030    2    1    2    0    0  0.00000000000E+00  0.00000000000E+00  0.17181723022E+04  0.36879696589E+04  0.32632811930E+04 0.  0.
        2    1    3    3  502    0  0.61576824866E+03  0.18959063170E+03 -0.83504687828E+03  0.10547124881E+04  0.25500000920E-02 0. -1.
       -2    1    3    3    0  502 -0.61576824866E+03 -0.18959063170E+03  0.25532191805E+04  0.26332571708E+04  0.25500000920E-02 0.  1.
</event>
<event>
 5   0  0.3796529E-07  0.3299702E+04  0.7818609E-02  0.8162971E-01
        1   -1    0    0  501    0  0.00000000000E+00  0.00000000000E+00  0.26663125318E+04  0.26663125318E+04  0.50400001928E-02 0. -1.
       -1   -1    0    0    0  501  0.00000000000E+00  0.00000000000E+00 -0.10208886752E+04  0.10208886752E+04  0.50400001928E-02 0.  1.
    10030    2    1    2    0    0  0.00000000000E+00  0.00000000000E+00  0.16454238566E+04  0.36872012070E+04  0.32997019673E+04 0.  0.
        5    1    3    3  502    0 -0.58349550480E+03 -0.14697636419E+04  0.13483981282E+04  0.20781895413E+04  0.46999998093E+01 0. -1.
       -5    1    3    3    0  502  0.58349550480E+03  0.14697636419E+04  0.29702572839E+03  0.16090116658E+04  0.46999998093E+01 0.  1.
</event>
<event>
 5   0  0.3709747E-07  0.3318947E+04  0.7818609E-02  0.8158091E-01
        1   -1    0    0  501    0  0.00000000000E+00  0.00000000000E+00  0.21543992679E+04  0.21543992679E+04  0.50400001928E-02 0.  1.
       -1   -1    0    0    0  501  0.00000000000E+00  0.00000000000E+00 -0.12782459182E+04  0.12782459182E+04  0.50400001928E-02 0. -1.
    10030    2    1    2    0    0  0.00000000000E+00  0.00000000000E+00  0.87615334971E+03  0.34326451862E+04  0.33189468634E+04 0.  0.
        4    1    3    3  502    0 -0.13167360692E+04 -0.99600005752E+03  0.61126604656E+03  0.17605277002E+04  0.12699999809E+01 0.  1.
       -4    1    3    3    0  502  0.13167360692E+04  0.99600005752E+03  0.26488730315E+03  0.16721174860E+04  0.12699999809E+01 0. -1.
</event>
<event>
 5   0  0.1146799E-06  0.3290175E+04  0.7818609E-02  0.8165400E-01
        2   -1    0    0  501    0  0.00000000000E+00  0.00000000000E+00  0.14601761347E+04  0.14601761347E+04  0.25500000920E-02 0.  1.
       -2   -1    0    0    0  501  0.00000000000E+00  0.00000000000E+00 -0.18534150893E+04  0.18534150893E+04  0.25500000920E-02 0. -1.
    10030    2    1    2    0    0  0.00000000000E+00  0.00000000000E+00 -0.39323895463E+03  0.33135912240E+04  0.32901747558E+04 0.  0.
        5    1    3    3  502    0 -0.16084966451E+04 -0.27248145983E+03  0.16506078299E+02  0.16315030321E+04  0.46999998093E+01 0.  1.
       -5    1    3    3    0  502  0.16084966451E+04  0.27248145983E+03 -0.40974503293E+03  0.16820881918E+04  0.46999998093E+01 0. -1.
</event>
<event>
 5   0  0.3674967E-07  0.3308725E+04  0.7818609E-02  0.8160679E-01
       -1   -1    0    0    0  501  0.00000000000E+00  0.00000000000E+00  0.21398397535E+04  0.21398397535E+04  0.50400001928E-02 0. -1.
        1   -1    0    0  501    0  0.00000000000E+00  0.00000000000E+00 -0.12790281597E+04  0.12790281597E+04  0.50400001928E-02 0.  1.
    10030    2    1    2    0    0  0.00000000000E+00  0.00000000000E+00  0.86081159375E+03  0.34188679132E+04  0.33087250125E+04 0.  0.
        2    1    3    3  502    0  0.79920830136E+03  0.12482290274E+04  0.11897890641E+04  0.19006334815E+04  0.25500000920E-02 0. -1.
       -2    1    3    3    0  502 -0.79920830136E+03 -0.12482290274E+04 -0.32897747033E+03  0.15182344318E+04  0.25500000920E-02 0.  1.
</event>
<event>
 5   0  0.3749685E-07  0.3295756E+04  0.7818609E-02  0.8163976E-01
       -1   -1    0    0    0  501  0.00000000000E+00  0.00000000000E+00  0.12009043504E+04  0.12009043504E+04  0.50400001928E-02 0.  1.
        1   -1    0    0  501    0  0.00000000000E+00  0.00000000000E+00 -0.22612139897E+04  0.22612139898E+04  0.50400001928E-02 0. -1.
    10030    2    1    2    0    0  0.00000000000E+00  0.00000000000E+00 -0.10603096393E+04  0.34621183402E+04  0.32957558875E+04 0.  0.
        3    1    3    3  502    0 -0.47167429960E+03 -0.46550388841E+03  0.10547551482E+04  0.12456640590E+04  0.10100000352E+00 0.  1.
       -3    1    3    3    0  502  0.47167429960E+03  0.46550388841E+03 -0.21150647875E+04  0.22164542812E+04  0.10100000352E+00 0. -1.
</event>
<event>
 5   0  0.3757406E-07  0.3278932E+04  0.7818609E-02  0.8168277E-01
        1   -1    0    0  501    0  0.00000000000E+00  0.00000000000E+00  0.30129333588E+04  0.30129333588E+04  0.50400001928E-02 0. -1.
       -1   -1    0    0    0  501  0.00000000000E+00  0.00000000000E+00 -0.89210343409E+03  0.89210343411E+03  0.50400001928E-02 0.  1.
    10030    2    1    2    0    0  0.00000000000E+00  0.00000000000E+00  0.21208299247E+04  0.39050367929E+04  0.32789316529E+04 0.  0.
        1    1    3    3  502    0  0.87220865136E+03  0.13150310765E+04  0.53075297073E+03  0.16648583662E+04  0.50400001928E-02 0.  1.
       -1    1    3    3    0  502 -0.87220865136E+03 -0.13150310765E+04  0.15900769540E+04  0.22401784267E+04  0.50400001928E-02 0. -1.
</event>
<event>
 5   0  0.1116462E-06  0.3308556E+04  0.7818609E-02  0.8160722E-01
        2   -1    0    0  501    0  0.00000000000E+00  0.00000000000E+00  0.12941601392E+04  0.12941601392E+04  0.25500000920E-02 0. -1.
       -2   -1    0    0    0  501  0.00000000000E+00  0.00000000000E+00 -0.21146030444E+04  0.21146030444E+04  0.25500000920E-02 0.  1.
    10030    2    1    2    0    0  0.00000000000E+00  0.00000000000E+00 -0.82044290522E+03  0.34087631835E+04  0.33085555581E+04 0.  0.
        1    1    3    3  502    0 -0.30709282209E+03 -0.15783498411E+04 -0.81076448575E+03  0.18007868485E+04  0.50400001928E-02 0.  1.
       -1    1    3    3    0  502  0.30709282209E+03  0.15783498411E+04 -0.96784194682E+01  0.16079763351E+04  0.50400001928E-02 0. -1.
</event>
<event>
 5   0  0.1129434E-06  0.3296670E+04  0.7818609E-02  0.8163743E-01
        2   -1    0    0  501    0  0.00000000000E+00  0.00000000000E+00  0.15258868309E+04  0.15258868309E+04  0.25500000920E-02 0.  1.
       -2   -1    0    0    0  501  0.00000000000E+00  0.00000000000E+00 -0.17806092981E+04  0.17806092981E+04  0.25500000920E-02 0. -1.
    10030    2    1    2    0    0  0.00000000000E+00  0.00000000000E+00 -0.25472246717E+03  0.33064961290E+04  0.32966700041E+04 0.  0.
        3    1    3    3  502    0 -0.11909555334E+04 -0.10718161226E+04 -0.51561111383E+03  0.16831576617E+04  0.10100000352E+00 0. -1.
       -3    1    3    3    0  502  0.11909555334E+04  0.10718161226E+04  0.26088864666E+03  0.16233384673E+04  0.10100000352E+00 0.  1.
</event>
<event>
 5   0  0.1146799E-06  0.3301707E+04  0.7818609E-02  0.8162461E-01
       -2   -1    0    0    0  501  0.00000000000E+00  0.00000000000E+00  0.15965153770E+04  0.15965153771E+04  0.25500000920E-02 0. -1.
        2   -1    0    0  501    0  0.00000000000E+00  0.00000000000E+00 -0.17070411160E+04  0.17070411160E+04  0.25500000920E-02 0.  1.
    10030    2    1    2    0    0  0.00000000000E+00  0.00000000000E+00 -0.11052573897E+03  0.33035564931E+04  0.33017070682E+04 0.  0.
        5    1    3    3  502    0  0.14892355896E+04  0.13159812233E+03  0.64523970729E+03  0.16283418182E+04  0.46999998093E+01 0. -1.
       -5    1    3    3    0  502 -0.14892355896E+04 -0.13159812233E+03 -0.75576544626E+03  0.16752146749E+04  0.46999998093E+01 0.  1.
</event>
<event>
 5   0  0.1120545E-06  0.3462033E+04  0.7818609E-02  0.8122847E-01
        2   -1    0    0  501    0  0.00000000000E+00  0.00000000000E+00  0.24200835185E+04  0.24200835185E+04  0.25500000920E-02 0.  1.
       -2   -1    0    0    0  501  0.00000000000E+00  0.00000000000E+00 -0.12381463260E+04  0.12381463260E+04  0.25500000920E-02 0. -1.
    10030    2    1    2    0    0  0.00000000000E+00  0.00000000000E+00  0.11819371925E+04  0.36582298445E+04  0.34620326498E+04 0.  0.
        4    1    3    3  502    0 -0.45576388257E+03 -0.12025539875E+04  0.18153212717E+04  0.22246909317E+04  0.12699999809E+01 0.  1.
       -4    1    3    3    0  502  0.45576388257E+03  0.12025539875E+04 -0.63338407920E+03  0.14335389127E+04  0.12699999809E+01 0. -1.
</event>
<event>
 5   0  0.1116462E-06  0.3325619E+04  0.7818609E-02  0.8156407E-01
       -2   -1    0    0    0  501  0.00000000000E+00  0.00000000000E+00  0.13559406067E+04  0.13559406067E+04  0.25500000920E-02 0.  1.
        2   -1    0    0  501    0  0.00000000000E+00  0.00000000000E+00 -0.20391275167E+04  0.20391275167E+04  0.25500000920E-02 0. -1.
    10030    2    1    2    0    0  0.00000000000E+00  0.00000000000E+00 -0.68318691004E+03  0.33950681234E+04  0.33256192218E+04 0.  0.
        1    1    3    3  502    0  0.30478674743E+03 -0.89525869064E+03  0.10546493478E+04  0.14165692117E+04  0.50400001928E-02 0.  1.
       -1    1    3    3    0  502 -0.30478674743E+03  0.89525869064E+03 -0.17378362579E+04  0.19784989117E+04  0.50400001928E-02 0. -1.
</event>
<event>
 5   0  0.3674967E-07  0.3302806E+04  0.7818609E-02  0.8162182E-01
        1   -1    0    0  501    0  0.00000000000E+00  0.00000000000E+00  0.19077380559E+04  0.19077380559E+04  0.50400001928E-02 0.  1.
       -1   -1    0    0    0  501  0.00000000000E+00  0.00000000000E+00 -0.14295105869E+04  0.14295105869E+04  0.50400001928E-02 0. -1.
    10030    2    1    2    0    0  0.00000000000E+00  0.00000000000E+00  0.47822746899E+03  0.33372486428E+04  0.33028059270E+04 0.  0.
        2    1    3    3  502    0  0.90963345680E+03  0.13767462919E+04  0.17309966069E+03  0.16591645098E+04  0.25500000920E-02 0.  1.
       -2    1    3    3    0  502 -0.90963345680E+03 -0.13767462919E+04  0.30512780830E+03  0.16780841330E+04  0.25500000920E-02 0. -1.
</event>
<event>
 5   0  0.3749685E-07  0.3357511E+04  0.7818609E-02  0.8148414E-01
        1   -1    0    0  501    0  0.00000000000E+00  0.00000000000E+00  0.18732768327E+04  0.18732768327E+04  0.50400001928E-02 0. -1.
       -1   -1    0    0    0  501  0.00000000000E+00  0.00000000000E+00 -0.15044333504E+04  0.15044333504E+04  0.50400001928E-02 0.  1.
    10030    2    1    2    0    0  0.00000000000E+00  0.00000000000E+00  0.36884348233E+03  0.33777101831E+04  0.33575110672E+04 0.  0.
        3    1    3    3  502    0 -0.38356825789E+03  0.53703344172E+03  0.17373048159E+04  0.18584287879E+04  0.10100000352E+00 0. -1.
       -3    1    3    3    0  502  0.38356825789E+03 -0.53703344172E+03 -0.13684613336E+04  0.15192813952E+04  0.10100000352E+00 0.  1.
</event>
<event>
 5   0  0.1129434E-06  0.3295202E+04  0.7818609E-02  0.8164117E-01
        2   -1    0    0  501    0  0.00000000000E+00  0.00000000000E+00  0.81450737687E+03  0.81450737688E+03  0.25500000920E-02 0.  1.
       -2   -1    0    0    0  501  0.00000000000E+00  0.00000000000E+00 -0.33327979920E+04  0.33327979920E+04  0.25500000920E-02 0. -1.
    10030    2    1    2    0    0  0.00000000000E+00  0.00000000000E+00 -0.25182906151E+04  0.41473053689E+04  0.32952016934E+04 0.  0.
        3    1    3    3  502    0  0.24318567282E+03  0.12937837214E+04 -0.25060845786E+04  0.28308082794E+04  0.10100000352E+00 0. -1.
       -3    1    3    3    0  502 -0.24318567282E+03 -0.12937837214E+04 -0.12206036528E+02  0.13164970895E+04  0.10100000352E+00 0.  1.
</event>
<event>
 5   0  0.1129434E-06  0.3288011E+04  0.7818609E-02  0.8165953E-01
       -2   -1    0    0    0  501  0.00000000000E+00  0.00000000000E+00  0.11408994842E+04  0.11408994842E+04  0.25500000920E-02 0.  1.
        2   -1    0    0  501    0  0.00000000000E+00  0.00000000000E+00 -0.23689671509E+04  0.23689671509E+04  0.25500000920E-02 0. -1.
    10030    2    1    2    0    0  0.00000000000E+00  0.00000000000E+00 -0.12280676668E+04  0.35098666351E+04  0.32880105842E+04 0.  0.
        3    1    3    3  502    0  0.16403392736E+04 -0.16412926980E+02 -0.72984900290E+03  0.17954559014E+04  0.10100000352E+00 0.  1.
       -3    1    3    3    0  502 -0.16403392736E+04  0.16412926980E+02 -0.49821866386E+03  0.17144107337E+04  0.10100000352E+00 0. -1.
</event>
<event>
 5   0  0.3709747E-07  0.3283135E+04  0.7818609E-02  0.8167200E-01
       -1   -1    0    0    0  501  0.00000000000E+00  0.00000000000E+00  0.18016534055E+04  0.18016534055E+04  0.50400001928E-02 0. -1.
        1   -1    0    0  501    0  0.00000000000E+00  0.00000000000E+00 -0.14957056200E+04  0.14957056200E+04  0.50400001928E-02 0.  1.
    10030    2    1    2    0    0  0.00000000000E+00  0.00000000000E+00  0.30594778551E+03  0.32973590254E+04  0.32831345533E+04 0.  0.
        4    1    3    3  502    0  0.10213527300E+03  0.15840637938E+04 -0.26723074179E+03  0.16096905290E+04  0.12699999809E+01 0.  1.
       -4    1    3    3    0  502 -0.10213527300E+03 -0.15840637938E+04  0.57317852730E+03  0.16876684965E+04  0.12699999809E+01 0. -1.
</event>
<event>
 5   0  0.3757406E-07  0.3305217E+04  0.7818609E-02  0.8161569E-01
       -1   -1    0    0    0  501  0.00000000000E+00  0.00000000000E+00  0.14454015983E+04  0.14454015983E+04  0.50400001928E-02 0.  1.
        1   -1    0    0  501    0  0.00000000000E+00  0.00000000000E+00 -0.18895195031E+04  0.18895195031E+04  0.50400001928E-02 0. -1.
    10030    2    1    2    0    0  0.00000000000E+00  0.00000000000E+00 -0.44411790481E+03  0.33349211014E+04  0.33052167915E+04 0.  0.
        1    1    3    3  502    0  0.38830151903E+03 -0.15655639373E+04  0.14082027811E+03  0.16191352204E+04  0.50400001928E-02 0. -1.
       -1    1    3    3    0  502 -0.38830151903E+03  0.15655639373E+04 -0.58493818292E+03  0.17157858809E+04  0.50400001928E-02 0.  1.
</event>
<event>
 5   0  0.1146799E-06  0.3306002E+04  0.7818609E-02  0.8161370E-01
       -2   -1    0    0    0  501  0.00000000000E+00  0.00000000000E+00  0.11442911932E+04  0.11442911932E+04  0.25500000920E-02 0. -1.
        2   -1    0    0  501    0  0.00000000000E+00  0.00000000000E+00 -0.23878641687E+04  0.23878641687E+04  0.25500000920E-02 0.  1.
    10030    2    1    2    0    0  0.00000000000E+00  0.00000000000E+00 -0.12435729755E+04  0.35321553620E+04  0.33060017779E+04 0.  0.
        5    1    3    3  502    0 -0.94931434082E+03  0.16641469246E+03  0.81302412848E+03  0.12609210487E+04  0.46999998093E+01 0. -1.
       -5    1    3    3    0  502  0.94931434082E+03 -0.16641469246E+03 -0.20565971040E+04  0.22712343133E+04  0.46999998093E+01 0.  1.
</event>
<event>
 5   0  0.3757406E-07  0.3292481E+04  0.7818609E-02  0.8164811E-01
        1   -1    0    0  501    0  0.00000000000E+00  0.00000000000E+00  0.17291601276E+04  0.17291601276E+04  0.50400001928E-02 0. -1.
       -1   -1    0    0    0  501  0.00000000000E+00  0.00000000000E+00 -0.15672971483E+04  0.15672971484E+04  0.50400001928E-02 0.  1.
    10030    2    1    2    0    0  0.00000000000E+00  0.00000000000E+00  0.16186297926E+03  0.32964572760E+04  0.32924809716E+04 0.  0.
        1    1    3    3  502    0  0.25992973845E+03 -0.95227285955E+03 -0.12381271270E+04  0.15834600881E+04  0.50400001928E-02 0.  1.
       -1    1    3    3    0  502 -0.25992973845E+03  0.95227285955E+03  0.13999901063E+04  0.17129971879E+04  0.50400001928E-02 0. -1.
</event>
<event>
 5   0  0.3757406E-07  0.3295701E+04  0.7818609E-02  0.8163990E-01
       -1   -1    0    0    0  501  0.00000000000E+00  0.00000000000E+00  0.12054169544E+04  0.12054169544E+04  0.50400001928E-02 0. -1.
        1   -1    0    0  501    0  0.00000000000E+00  0.00000000000E+00 -0.22526732336E+04  0.22526732337E+04  0.50400001928E-02 0.  1.
    10030    2    1    2    0    0  0.00000000000E+00  0.00000000000E+00 -0.10472562792E+04  0.34580901881E+04  0.32957005377E+04 0.  0.
        1    1    3    3  502    0 -0.13642620008E+04  0.57796552778E+03  0.23312667256E+03  0.14998676620E+04  0.50400001928E-02 0. -1.
       -1    1    3    3    0  502  0.13642620008E+04 -0.57796552778E+03 -0.12803829518E+04  0.19582225260E+04  0.50400001928E-02 0.  1.
</event>
<event>
 5   0  0.1120545E-06  0.3289207E+04  0.7818609E-02  0.8165647E-01
        2   -1    0    0  501    0  0.00000000000E+00  0.00000000000E+00  0.16955106112E+04  0.16955106112E+04  0.25500000920E-02 0. -1.
       -2   -1    0    0    0  501  0.00000000000E+00  0.00000000000E+00 -0.15952250478E+04  0.15952250478E+04  0.25500000920E-02 0.  1.
    10030    2    1    2    0    0  0.00000000000E+00  0.00000000000E+00  0.10028556333E+03  0.32907356590E+04  0.32892071968E+04 0.  0.
        4    1    3    3  502    0  0.89795599346E+03  0.13636066948E+04 -0.14736019558E+03  0.16393489026E+04  0.12699999809E+01 0.  1.
       -4    1    3    3    0  502 -0.89795599346E+03 -0.13636066948E+04  0.24764575891E+03  0.16513867564E+04  0.12699999809E+01 0. -1.
</event>
<event>
 5   0  0.3749685E-07  0.3287468E+04  0.7818609E-02  0.8166092E-01
       -1   -1    0    0    0  501  0.00000000000E+00  0.00000000000E+00  0.20522515358E+04  0.20522515358E+04  0.50400001928E-02 0.  1.
        1   -1    0    0  501    0  0.00000000000E+00  0.00000000000E+00 -0.13165350228E+04  0.13165350228E+04  0.50400001928E-02 0. -1.
    10030    2    1    2    0    0  0.00000000000E+00  0.00000000000E+00  0.73571651295E+03  0.33687865586E+04  0.32874677321E+04 0.  0.
        3    1    3    3  502    0 -0.28429231560E+03  0.11160307217E+04  0.15696924467E+04  0.19468644226E+04  0.10100000352E+00 0.  1.
       -3    1    3    3    0  502  0.28429231560E+03 -0.11160307217E+04 -0.83397593376E+03  0.14219221360E+04  0.10100000352E+00 0. -1.
</event>
<event>
 5   0  0.3749685E-07  0.3315081E+04  0.7818609E-02  0.8159069E-01
       -1   -1    0    0    0  501  0.00000000000E+00  0.00000000000E+00  0.14959682293E+04  0.14959682293E+04  0.50400001928E-02 0. -1.
        1   -1    0    0  501    0  0.00000000000E+00  0.00000000000E+00 -0.18365636592E+04  0.18365636592E+04  0.50400001928E-02 0.  1.
    10030    2    1    2    0    0  0.00000000000E+00  0.00000000000E+00 -0.34059542993E+03  0.33325318885E+04  0.33150812270E+04 0.  0.
        3    1    3    3  502    0 -0.23786768071E+03 -0.10111302457E+04 -0.14687920297E+04  0.17989762211E+04  0.10100000352E+00 0. -1.
       -3    1    3    3    0  502  0.23786768071E+03  0.10111302457E+04  0.11281965997E+04  0.15335556675E+04  0.10100000352E+00 0.  1.
</event>
<event>
 5   0  0.3757406E-07  0.3293299E+04  0.7818609E-02  0.8164603E-01
       -1   -1    0    0    0  501  0.00000000000E+00  0.00000000000E+00  0.16701535220E+04  0.16701535220E+04  0.50400001928E-02 0. -1.
        1   -1    0    0  501    0  0.00000000000E+00  0.00000000000E+00 -0.16234761507E+04  0.16234761507E+04  0.50400001928E-02 0.  1.
    10030    2    1    2    0    0  0.00000000000E+00  0.00000000000E+00  0.46677371347E+02  0.32936296727E+04  0.32932988999E+04 0.  0.
        1    1    3    3  502    0 -0.28491560071E+03  0.15307218168E+04  0.55927330795E+03  0.16544101102E+04  0.50400001928E-02 0. -1.
       -1    1    3    3    0  502  0.28491560071E+03 -0.15307218168E+04 -0.51259593660E+03  0.16392195625E+04  0.50400001928E-02 0.  1.
</event>
<event>
 5   0  0.3796529E-07  0.3471210E+04  0.7818609E-02  0.8120647E-01
       -1   -1    0    0    0  501  0.00000000000E+00  0.00000000000E+00  0.20547303416E+04  0.20547303416E+04  0.50400001928E-02 0.  1.
        1   -1    0    0  501    0  0.00000000000E+00  0.00000000000E+00 -0.14660441345E+04  0.14660441345E+04  0.50400001928E-02 0. -1.
    10030    2    1    2    0    0  0.00000000000E+00  0.00000000000E+00  0.58868620715E+03  0.35207744761E+04  0.34712103741E+04 0.  0.
        5    1    3    3  502    0 -0.12785932581E+04 -0.11250949085E+04 -0.44589905552E+02  0.17037164149E+04  0.46999998093E+01 0.  1.
       -5    1    3    3    0  502  0.12785932581E+04  0.11250949085E+04  0.63327611270E+03  0.18170580612E+04  0.46999998093E+01 0. -1.
</event>
<event>
 5   0  0.3796529E-07  0.3038338E+04  0.7818609E-02  0.8232867E-01
       -1   -1    0    0    0  501  0.00000000000E+00  0.00000000000E+00  0.10045977096E+04  0.10045977097E+04  0.50400001928E-02 0. -1.
        1   -1    0    0  501    0  0.00000000000E+00  0.00000000000E+00 -0.22973122676E+04  0.22973122676E+04  0.50400001928E-02 0.  1.
    10030    2    1    2    0    0  0.00000000000E+00  0.00000000000E+00 -0.12927145580E+04  0.33019099773E+04  0.30383381263E+04 0.  0.
        5    1    3    3  502    0  0.80153718695E+03  0.91572264376E+03  0.34183300904E+03  0.12640734624E+04  0.46999998093E+01 0. -1.
       -5    1    3    3    0  502 -0.80153718695E+03 -0.91572264376E+03 -0.16345475670E+04  0.20378365148E+04  0.46999998093E+01 0.  1.
</event>
<event>
 5   0  0.3674967E-07  0.3339038E+04  0.7818609E-02  0.8153033E-01
        1   -1    0    0  501    0  0.00000000000E+00  0.00000000000E+00  0.20856803721E+04  0.20856803721E+04  0.50400001928E-02 0. -1.
       -1   -1    0    0    0  501  0.00000000000E+00  0.00000000000E+00 -0.13363957065E+04  0.13363957065E+04  0.50400001928E-02 0.  1.
    10030    2    1    2    0    0  0.00000000000E+00  0.00000000000E+00  0.74928466562E+03  0.34220760786E+04  0.33390383612E+04 0.  0.
        2    1    3    3  502    0  0.64510737300E+03 -0.58505571555E+03  0.18344384812E+04  0.20306694104E+04  0.25500000920E-02 0. -1.
       -2    1    3    3    0  502 -0.64510737300E+03  0.58505571555E+03 -0.10851538155E+04  0.13914066682E+04  0.25500000920E-02 0.  1.
</event>
<event>
 5   0  0.3674967E-07  0.3303078E+04  0.7818609E-02  0.8162113E-01
        1   -1    0    0  501    0  0.00000000000E+00  0.00000000000E+00  0.17878909193E+04  0.17878909193E+04  0.50400001928E-02 0.  1.
       -1   -1    0    0    0  501  0.00000000000E+00  0.00000000000E+00 -0.15255858586E+04  0.15255858586E+04  0.50400001928E-02 0. -1.
    10030    2    1    2    0    0  0.00000000000E+00  0.00000000000E+00  0.26230506069E+03  0.33134767779E+04  0.33030780210E+04 0.  0.
        2    1    3    3  502    0  0.14613353206E+04 -0.39485680227E+03  0.79366208067E+03  0.17091846922E+04  0.25500000920E-02 0.  1.
       -2    1    3    3    0  502 -0.14613353206E+04  0.39485680227E+03 -0.53135701998E+03  0.16042920857E+04  0.25500000920E-02 0. -1.
</event>
<event>
 5   0  0.3674967E-07  0.3315614E+04  0.7818609E-02  0.8158934E-01
        1   -1    0    0  501    0  0.00000000000E+00  0.00000000000E+00  0.16454569001E+04  0.16454569001E+04  0.50400001928E-02 0.  1.
       -1   -1    0    0    0  501  0.00000000000E+00  0.00000000000E+00 -0.16702502892E+04  0.16702502892E+04  0.50400001928E-02 0. -1.
    10030    2    1    2    0    0  0.00000000000E+00  0.00000000000E+00 -0.24793389131E+02  0.33157071892E+04  0.33156144910E+04 0.  0.
        2    1    3    3  502    0 -0.15773521787E+04  0.46514275381E+03 -0.22199068832E+03  0.16594208456E+04  0.25500000920E-02 0. -1.
       -2    1    3    3    0  502  0.15773521787E+04 -0.46514275381E+03  0.19719729919E+03  0.16562863436E+04  0.25500000920E-02 0.  1.
</event>
<event>
 5   0  0.1146799E-06  0.3155446E+04  0.7818609E-02  0.8200684E-01
       -2   -1    0    0    0  501  0.00000000000E+00  0.00000000000E+00  0.14410579714E+04  0.14410579714E+04  0.25500000920E-02 0. -1.
        2   -1    0    0  501    0  0.00000000000E+00  0.00000000000E+00 -0.17273492605E+04  0.17273492605E+04  0.25500000920E-02 0.  1.
    10030    2    1    2    0    0  0.00000000000E+00  0.00000000000E+00 -0.28629128911E+03  0.31684072319E+04  0.31554463527E+04 0.  0.
        5    1    3    3  502    0 -0.93288194835E+03  0.81692574606E+03  0.83633631528E+03  0.14956994773E+04  0.46999998093E+01 0. -1.
       -5    1    3    3    0  502  0.93288194835E+03 -0.81692574606E+03 -0.11226276044E+04  0.16727077546E+04  0.46999998093E+01 0.  1.
</event>
<event>
 5   0  0.3757406E-07  0.3294103E+04  0.7818609E-02  0.8164398E-01
        1   -1    0    0  501    0  0.00000000000E+00  0.00000000000E+00  0.38318071469E+04  0.38318071469E+04  0.50400001928E-02 0. -1.
       -1   -1    0    0    0  501  0.00000000000E+00  0.00000000000E+00 -0.70796318430E+03  0.70796318431E+03  0.50400001928E-02 0.  1.
    10030    2    1    2    0    0  0.00000000000E+00  0.00000000000E+00  0.31238439626E+04  0.45397703312E+04  0.32941028456E+04 0.  0.
        1    1    3    3  502    0 -0.72626494619E+03  0.14713813143E+04  0.13653016166E+04  0.21345894801E+04  0.50400001928E-02 0. -1.
       -1    1    3    3    0  502  0.72626494619E+03 -0.14713813143E+04  0.17585423460E+04  0.24051808512E+04  0.50400001928E-02 0.  1.
</event>
<event>
 5   0  0.1146799E-06  0.3292773E+04  0.7818609E-02  0.8164737E-01
        2   -1    0    0  501    0  0.00000000000E+00  0.00000000000E+00  0.24471666133E+04  0.24471666133E+04  0.25500000920E-02 0. -1.
       -2   -1    0    0    0  501  0.00000000000E+00  0.00000000000E+00 -0.11076436164E+04  0.11076436164E+04  0.25500000920E-02 0.  1.
    10030    2    1    2    0    0  0.00000000000E+00  0.00000000000E+00  0.13395229969E+04  0.35548102297E+04  0.32927729818E+04 0.  0.
        5    1    3    3  502    0 -0.59780336442E+02 -0.29196714660E+03  0.24177963807E+04  0.24360993272E+04  0.46999998093E+01 0. -1.
       -5    1    3    3    0  502  0.59780336442E+02  0.29196714660E+03 -0.10782733838E+04  0.11187109025E+04  0.46999998093E+01 0.  1.
</event>
<event>
 5   0  0.3709747E-07  0.3291091E+04  0.7818609E-02  0.8165166E-01
       -1   -1    0    0    0  501  0.00000000000E+00  0.00000000000E+00  0.15642466019E+04  0.15642466019E+04  0.50400001928E-02 0. -1.
        1   -1    0    0  501    0  0.00000000000E+00  0.00000000000E+00 -0.17310692725E+04  0.17310692725E+04  0.50400001928E-02 0.  1.
    10030    2    1    2    0    0  0.00000000000E+00  0.00000000000E+00 -0.16682267060E+03  0.32953158745E+04  0.32910905349E+04 0.  0.
        4    1    3    3  502    0  0.98405725532E+03  0.11577660425E+04 -0.71590795956E+03  0.16796775615E+04  0.12699999809E+01 0.  1.
       -4    1    3    3    0  502 -0.98405725532E+03 -0.11577660425E+04  0.54908528896E+03  0.16156383130E+04  0.12699999809E+01 0. -1.
</event>
<event>
 5   0  0.1120545E-06  0.3426414E+04  0.7818609E-02  0.8131454E-01
        2   -1    0    0  501    0  0.00000000000E+00  0.00000000000E+00  0.18125220314E+04  0.18125220314E+04  0.25500000920E-02 0.  1.
       -2   -1    0    0    0  501  0.00000000000E+00  0.00000000000E+00 -0.16193342164E+04  0.16193342164E+04  0.25500000920E-02 0. -1.
    10030    2    1    2    0    0  0.00000000000E+00  0.00000000000E+00  0.19318781496E+03  0.34318562478E+04  0.34264144194E+04 0.  0.
        4    1    3    3  502    0 -0.77964361677E+03  0.16960666046E+03  0.16150712321E+04  0.18014070295E+04  0.12699999809E+01 0.  1.
       -4    1    3    3    0  502  0.77964361677E+03 -0.16960666046E+03 -0.14218834171E+04  0.16304492182E+04  0.12699999809E+01 0. -1.
</event>
<event>
 5   0  0.1116462E-06  0.3286110E+04  0.7818609E-02  0.8166439E-01
        2   -1    0    0  501    0  0.00000000000E+00  0.00000000000E+00  0.23147141446E+04  0.23147141446E+04  0.25500000920E-02 0.  1.
       -2   -1    0    0    0  501  0.00000000000E+00  0.00000000000E+00 -0.11662904507E+04  0.11662904507E+04  0.25500000920E-02 0. -1.
    10030    2    1    2    0    0  0.00000000000E+00  0.00000000000E+00  0.11484236939E+04  0.34810045953E+04  0.32861095556E+04 0.  0.
        1    1    3    3  502    0  0.13432506245E+04 -0.55286592764E+03  0.13876382165E+04  0.20088610689E+04  0.50400001928E-02 0.  1.
       -1    1    3    3    0  502 -0.13432506245E+04  0.55286592764E+03 -0.23921452266E+03  0.14721435263E+04  0.50400001928E-02 0. -1.
</event>
<event>
 5   0  0.3749685E-07  0.3235691E+04  0.7818609E-02  0.8179454E-01
        1   -1    0    0  501    0  0.00000000000E+00  0.00000000000E+00  0.10933849032E+04  0.10933849032E+04  0.50400001928E-02 0. -1.
       -1   -1    0    0    0  501  0.00000000000E+00  0.00000000000E+00 -0.23938729932E+04  0.23938729932E+04  0.50400001928E-02 0.  1.
    10030    2    1    2    0    0  0.00000000000E+00  0.00000000000E+00 -0.13004880900E+04  0.34872578964E+04  0.32356913271E+04 0.  0.
        3    1    3    3  502    0 -0.76751469028E+02 -0.71751429886E+03  0.91033530722E+03  0.11616488018E+04  0.10100000352E+00 0. -1.
       -3    1    3    3    0  502  0.76751469028E+02  0.71751429886E+03 -0.22108233972E+04  0.23256090946E+04  0.10100000352E+00 0.  1.
</event>
<event>
 5   0  0.1129434E-06  0.3303650E+04  0.7818609E-02  0.8161967E-01
       -2   -1    0    0    0  501  0.00000000000E+00  0.00000000000E+00  0.11167545720E+04  0.11167545720E+04  0.25500000920E-02 0.  1.
        2   -1    0    0  501    0  0.00000000000E+00  0.00000000000E+00 -0.24432631458E+04  0.24432631458E+04  0.25500000920E-02 0. -1.
    10030    2    1    2    0    0  0.00000000000E+00  0.00000000000E+00 -0.13265085739E+04  0.35600177178E+04  0.33036496719E+04 0.  0.
        3    1    3    3  502    0 -0.64379526650E+03 -0.11751249202E+03  0.97109584171E+03  0.11710288959E+04  0.10100000352E+00 0.  1.
       -3    1    3    3    0  502  0.64379526650E+03  0.11751249202E+03 -0.22976044156E+04  0.23889888220E+04  0.10100000352E+00 0. -1.
</event>
<event>
 5   0  0.3709747E-07  0.3299179E+04  0.7818609E-02  0.8163104E-01
        1   -1    0    0  501    0  0.00000000000E+00  0.00000000000E+00  0.21407054501E+04  0.21407054502E+04  0.50400001928E-02 0.  1.
       -1   -1    0    0    0  501  0.00000000000E+00  0.00000000000E+00 -0.12711445287E+04  0.12711445287E+04  0.50400001928E-02 0. -1.
    10030    2    1    2    0    0  0.00000000000E+00  0.00000000000E+00  0.86956092143E+03  0.34118499789E+04  0.32991793044E+04 0.  0.
        4    1    3    3  502    0  0.12677549119E+04  0.12348588904E+03  0.15187628114E+04  0.19821940803E+04  0.12699999809E+01 0.  1.
       -4    1    3    3    0  502 -0.12677549119E+04 -0.12348588904E+03 -0.64920189002E+03  0.14296558986E+04  0.12699999809E+01 0. -1.
</event>
<event>
 5   0  0.1126221E-06  0.3276722E+04  0.7818609E-02  0.8168844E-01
       -2   -1    0    0    0  501  0.00000000000E+00  0.00000000000E+00  0.19842580756E+04  0.19842580756E+04  0.25500000920E-02 0.  1.
        2   -1    0    0  501    0  0.00000000000E+00  0.00000000000E+00 -0.13527612785E+04  0.13527612785E+04  0.25500000920E-02 0. -1.
    10030    2    1    2    0    0  0.00000000000E+00  0.00000000000E+00  0.63149679710E+03  0.33370193542E+04  0.32767224426E+04 0.  0.
        2    1    3    3  502    0  0.12715518000E+04 -0.83239829825E+03  0.93897072099E+03  0.17864481302E+04  0.25500000920E-02 0.  1.
       -2    1    3    3    0  502 -0.12715518000E+04  0.83239829825E+03 -0.30747392390E+03  0.15505712240E+04  0.25500000920E-02 0. -1.
</event>
<event>
 5   0  0.3709747E-07  0.3312212E+04  0.7818609E-02  0.8159795E-01
        1   -1    0    0  501    0  0.00000000000E+00  0.00000000000E+00  0.18982715093E+04  0.18982715093E+04  0.50400001928E-02 0.  1.
       -1   -1    0    0    0  501  0.00000000000E+00  0.00000000000E+00 -0.14448339530E+04  0.14448339530E+04  0.50400001928E-02 0. -1.
    10030    2    1    2    0    0  0.00000000000E+00  0.00000000000E+00  0.45343755633E+03  0.33431054622E+04  0.33122120274E+04 0.  0.
        4    1    3    3  502    0 -0.11890565160E+04 -0.88891918848E+03 -0.51405637270E+03  0.15710787024E+04  0.12699999809E+01 0. -1.
       -4    1    3    3    0  502  0.11890565160E+04  0.88891918848E+03  0.96749392903E+03  0.17720267598E+04  0.12699999809E+01 0.  1.
</event>
<event>
 5   0  0.3709747E-07  0.3302921E+04  0.7818609E-02  0.8162152E-01
        1   -1    0    0  501    0  0.00000000000E+00  0.00000000000E+00  0.20050671209E+04  0.20050671209E+04  0.50400001928E-02 0. -1.
       -1   -1    0    0    0  501  0.00000000000E+00  0.00000000000E+00 -0.13602150760E+04  0.13602150761E+04  0.50400001928E-02 0.  1.
    10030    2    1    2    0    0  0.00000000000E+00  0.00000000000E+00  0.64485204485E+03  0.33652821970E+04  0.33029214501E+04 0.  0.
        4    1    3    3  502    0 -0.49310139955E+03 -0.49652827573E+03 -0.12016882686E+04  0.13905918260E+04  0.12699999809E+01 0.  1.
       -4    1    3    3    0  502  0.49310139955E+03  0.49652827573E+03  0.18465403135E+04  0.19746903709E+04  0.12699999809E+01 0. -1.
</event>
<event>
 5   0  0.3674967E-07  0.3379021E+04  0.7818609E-02  0.8143075E-01
        1   -1    0    0  501    0  0.00000000000E+00  0.00000000000E+00  0.22471009308E+04  0.22471009308E+04  0.50400001928E-02 0.  1.
       -1   -1    0    0    0  501  0.00000000000E+00  0.00000000000E+00 -0.12702789161E+04  0.12702789161E+04  0.50400001928E-02 0. -1.
    10030    2    1    2    0    0  0.00000000000E+00  0.00000000000E+00  0.97682201472E+03  0.35173798469E+04  0.33790205295E+04 0.  0.
        2    1    3    3  502    0  0.62934321989E+03  0.15300365228E+04  0.13180470139E+03  0.16596557260E+04  0.25500000920E-02 0.  1.
       -2    1    3    3    0  502 -0.62934321989E+03 -0.15300365228E+04  0.84501731333E+03  0.18577241209E+04  0.25500000920E-02 0. -1.
</event>
<event>
 5   0  0.1126221E-06  0.3290867E+04  0.7818609E-02  0.8165223E-01
       -2   -1    0    0    0  501  0.00000000000E+00  0.00000000000E+00  0.10874327166E+04  0.10874327166E+04  0.25500000920E-02 0.  1.
        2   -1    0    0  501    0  0.00000000000E+00  0.00000000000E+00 -0.24897650569E+04  0.24897650569E+04  0.25500000920E-02 0. -1.
    10030    2    1    2    0    0  0.00000000000E+00  0.00000000000E+00 -0.14023323403E+04  0.35771977736E+04  0.32908673505E+04 0.  0.
        2    1    3    3  502    0 -0.93709742079E+03 -0.44822503367E+03 -0.20882810099E+04  0.23323753628E+04  0.25500000920E-02 0. -1.
       -2    1    3    3    0  502  0.93709742079E+03  0.44822503367E+03  0.68594866963E+03  0.12448224107E+04  0.25500000920E-02 0.  1.
</event>
<event>
 5   0  0.1116462E-06  0.3355983E+04  0.7818609E-02  0.8148795E-01
       -2   -1    0    0    0  501  0.00000000000E+00  0.00000000000E+00  0.23780453737E+04  0.23780453737E+04  0.25500000920E-02 0. -1.
        2   -1    0    0  501    0  0.00000000000E+00  0.00000000000E+00 -0.11840211366E+04  0.11840211366E+04  0.25500000920E-02 0.  1.
    10030    2    1    2    0    0  0.00000000000E+00  0.00000000000E+00  0.11940242371E+04  0.35620665103E+04  0.33559833052E+04 0.  0.
        1    1    3    3  502    0  0.14640640956E+04 -0.81616706419E+03  0.67952681207E+03  0.18086926331E+04  0.50400001928E-02 0. -1.
       -1    1    3    3    0  502 -0.14640640956E+04  0.81616706419E+03  0.51449742507E+03  0.17533738772E+04  0.50400001928E-02 0.  1.
</event>
<event>
 5   0  0.3674967E-07  0.3308194E+04  0.7818609E-02  0.8160813E-01
        1   -1    0    0  501    0  0.00000000000E+00  0.00000000000E+00  0.15655690253E+04  0.15655690253E+04  0.50400001928E-02 0.  1.
       -1   -1    0    0    0  501  0.00000000000E+00  0.00000000000E+00 -0.17476314075E+04  0.17476314075E+04  0.50400001928E-02 0. -1.
    10030    2    1    2    0    0  0.00000000000E+00  0.00000000000E+00 -0.18206238218E+03  0.33132004328E+04  0.33081944315E+04 0.  0.
        2    1    3    3  502    0  0.16532063398E+04 -0.43983279059E+02 -0.12288920680E+03  0.16583508338E+04  0.25500000920E-02 0.  1.
       -2    1    3    3    0  502 -0.16532063398E+04  0.43983279059E+02 -0.59173175375E+02  0.16548495990E+04  0.25500000920E-02 0. -1.
</event>
<event>
 5   0  0.1116462E-06  0.3315742E+04  0.7818609E-02  0.8158901E-01
        2   -1    0    0  501    0  0.00000000000E+00  0.00000000000E+00  0.23969318304E+04  0.23969318304E+04  0.25500000920E-02 0.  1.
       -2   -1    0    0    0  501  0.00000000000E+00  0.00000000000E+00 -0.11466892052E+04  0.11466892052E+04  0.25500000920E-02 0. -1.
    10030    2    1    2    0    0  0.00000000000E+00  0.00000000000E+00  0.12502426252E+04  0.35436210357E+04  0.33157417605E+04 0.  0.
        1    1    3    3  502    0 -0.58669721932E+03 -0.11963560915E+04  0.16793506967E+04  0.21437584489E+04  0.50400001928E-02 0.  1.
       -1    1    3    3    0  502  0.58669721932E+03  0.11963560915E+04 -0.42910807150E+03  0.13998625867E+04  0.50400001928E-02 0. -1.
</event>
<event>
 5   0  0.3757406E-07  0.2945036E+04  0.7818609E-02  0.8259603E-01
       -1   -1    0    0    0  501  0.00000000000E+00  0.00000000000E+00  0.11660234904E+04  0.11660234904E+04  0.50400001928E-02 0. -1.
        1   -1    0    0  501    0  0.00000000000E+00  0.00000000000E+00 -0.18595757357E+04  0.18595757357E+04  0.50400001928E-02 0.  1.
    10030    2    1    2    0    0  0.00000000000E+00  0.00000000000E+00 -0.69355224531E+03  0.30255992261E+04  0.29450358164E+04 0.  0.
        1    1    3    3  502    0 -0.37197278033E+03  0.11970627128E+04  0.44700895437E+03  0.13308417986E+04  0.50400001928E-02 0. -1.
       -1    1    3    3    0  502  0.37197278033E+03 -0.11970627128E+04 -0.11405611997E+04  0.16947574275E+04  0.50400001928E-02 0.  1.
</event>
<event>
 5   0  0.1146799E-06  0.3283898E+04  0.7818609E-02  0.8167005E-01
        2   -1    0    0  501    0  0.00000000000E+00  0.00000000000E+00  0.17091858438E+04  0.17091858438E+04  0.25500000920E-02 0. -1.
       -2   -1    0    0    0  501  0.00000000000E+00  0.00000000000E+00 -0.15773571937E+04  0.15773571937E+04  0.25500000920E-02 0.  1.
    10030    2    1    2    0    0  0.00000000000E+00  0.00000000000E+00  0.13182865010E+03  0.32865430376E+04  0.32838980412E+04 0.  0.
        5    1    3    3  502    0 -0.47716509527E+03 -0.87848222386E+03 -0.12376542442E+04  0.15909832381E+04  0.46999998093E+01 0.  1.
       -5    1    3    3    0  502  0.47716509527E+03  0.87848222386E+03  0.13694828943E+04  0.16955597995E+04  0.46999998093E+01 0. -1.
</event>
<event>
 5   0  0.1120545E-06  0.3284225E+04  0.7818609E-02  0.8166921E-01
        2   -1    0    0  501    0  0.00000000000E+00  0.00000000000E+00  0.20109064748E+04  0.20109064748E+04  0.25500000920E-02 0.  1.
       -2   -1    0    0    0  501  0.00000000000E+00  0.00000000000E+00 -0.13409542470E+04  0.13409542470E+04  0.25500000920E-02 0. -1.
    10030    2    1    2    0    0  0.00000000000E+00  0.00000000000E+00  0.66995222780E+03  0.33518607218E+04  0.32842250701E+04 0.  0.
        4    1    3    3  502    0 -0.84707043378E+03 -0.13303322587E+04 -0.13184916716E+03  0.15826237879E+04  0.12699999809E+01 0. -1.
       -4    1    3    3    0  502  0.84707043378E+03  0.13303322587E+04  0.80180139496E+03  0.17692369339E+04  0.12699999809E+01 0.  1.
</event>
<event>
 5   0  0.1120545E-06  0.3291544E+04  0.7818609E-02  0.8165050E-01
        2   -1    0    0  501    0  0.00000000000E+00  0.00000000000E+00  0.22676085484E+04  0.22676085484E+04  0.25500000920E-02 0.  1.
       -2   -1    0    0    0  501  0.00000000000E+00  0.00000000000E+00 -0.11944589204E+04  0.11944589204E+04  0.25500000920E-02 0. -1.
    10030    2    1    2    0    0  0.00000000000E+00  0.00000000000E+00  0.10731496280E+04  0.34620674688E+04  0.32915438679E+04 0.  0.
        4    1    3    3  502    0  0.53003799577E+03  0.15443196243E+04  0.31922905371E+03  0.16636622796E+04  0.12699999809E+01 0. -1.
       -4    1    3    3    0  502 -0.53003799577E+03 -0.15443196243E+04  0.75392057426E+03  0.17984051891E+04  0.12699999809E+01 0.  1.
</event>
<event>
 5   0  0.3674967E-07  0.3151739E+04  0.7818609E-02  0.8201680E-01
       -1   -1    0    0    0  501  0.00000000000E+00  0.00000000000E+00  0.25768461908E+04  0.25768461908E+04  0.50400001928E-02 0.  1.
        1   -1    0    0  501    0  0.00000000000E+00  0.00000000000E+00 -0.96372233655E+03  0.96372233656E+03  0.50400001928E-02 0. -1.
    10030    2    1    2    0    0  0.00000000000E+00  0.00000000000E+00  0.16131238542E+04  0.35405685274E+04  0.31517387150E+04 0.  0.
        2    1    3    3  502    0  0.43076271871E+03  0.65974369357E+03 -0.72655859962E+03  0.10717768703E+04  0.25500000920E-02 0. -1.
       -2    1    3    3    0  502 -0.43076271871E+03 -0.65974369357E+03  0.23396824539E+04  0.24687916571E+04  0.25500000920E-02 0.  1.
</event>
<event>
 5   0  0.3749685E-07  0.3307435E+04  0.7818609E-02  0.8161006E-01
        1   -1    0    0  501    0  0.00000000000E+00  0.00000000000E+00  0.13526663642E+04  0.13526663642E+04  0.50400001928E-02 0. -1.
       -1   -1    0    0    0  501  0.00000000000E+00  0.00000000000E+00 -0.20217715656E+04  0.20217715656E+04  0.50400001928E-02 0.  1.
    10030    2    1    2    0    0  0.00000000000E+00  0.00000000000E+00 -0.66910520138E+03  0.33744379298E+04  0.33074354978E+04 0.  0.
        3    1    3    3  502    0  0.60973146162E+03 -0.10554243518E+04  0.80571508297E+03  0.14611193732E+04  0.10100000352E+00 0. -1.
       -3    1    3    3    0  502 -0.60973146162E+03  0.10554243518E+04 -0.14748202844E+04  0.19133185566E+04  0.10100000352E+00 0.  1.
</event>
<event>
 5   0  0.3796529E-07  0.3280805E+04  0.7818609E-02  0.8167797E-01
       -1   -1    0    0    0  501  0.00000000000E+00  0.00000000000E+00  0.15817992912E+04  0.15817992913E+04  0.50400001928E-02 0. -1.
        1   -1    0    0  501    0  0.00000000000E+00  0.00000000000E+00 -0.17011769515E+04  0.17011769515E+04  0.50400001928E-02 0.  1.
    10030    2    1    2    0    0  0.00000000000E+00  0.00000000000E+00 -0.11937766023E+03  0.32829762427E+04  0.32808050818E+04 0.  0.
        5    1    3    3  502    0 -0.18103814847E+03 -0.37518651282E+03  0.15279797869E+04  0.15837563101E+04  0.46999998093E+01 0. -1.
       -5    1    3    3    0  502  0.18103814847E+03  0.37518651282E+03 -0.16473574472E+04  0.16992199326E+04  0.46999998093E+01 0.  1.
</event>
<event>
 5   0  0.1120545E-06  0.3260372E+04  0.7818609E-02  0.8173053E-01
        2   -1    0    0  501    0  0.00000000000E+00  0.00000000000E+00  0.20017400709E+04  0.20017400709E+04  0.25500000920E-02 0.  1.
       -2   -1    0    0    0  501  0.00000000000E+00  0.00000000000E+00 -0.13275978457E+04  0.13275978457E+04  0.25500000920E-02 0. -1.
    10030    2    1    2    0    0  0.00000000000E+00  0.00000000000E+00  0.67414222516E+03  0.33293379166E+04  0.32603716388E+04 0.  0.
        4    1    3    3  502    0  0.16269016961E+04  0.40299879749E+02  0.23981476319E+03  0.16449759703E+04  0.12699999809E+01 0.  1.
       -4    1    3    3    0  502 -0.16269016961E+04 -0.40299879749E+02  0.43432746197E+03  0.16843619464E+04  0.12699999809E+01 0. -1.
</event>
<event>
 5   0  0.1146799E-06  0.3314041E+04  0.7818609E-02  0.8159332E-01
        2   -1    0    0  501    0  0.00000000000E+00  0.00000000000E+00  0.13977952014E+04  0.13977952014E+04  0.25500000920E-02 0.  1.
       -2   -1    0    0    0  501  0.00000000000E+00  0.00000000000E+00 -0.19643195602E+04  0.19643195602E+04  0.25500000920E-02 0. -1.
    10030    2    1    2    0    0  0.00000000000E+00  0.00000000000E+00 -0.56652435879E+03  0.33621147616E+04  0.33140407091E+04 0.  0.
        5    1    3    3  502    0 -0.11979247847E+04  0.52746328397E+03 -0.13140988329E+04  0.18547558163E+04  0.46999998093E+01 0. -1.
       -5    1    3    3    0  502  0.11979247847E+04 -0.52746328397E+03  0.74757447406E+03  0.15073589453E+04  0.46999998093E+01 0.  1.
</event>
<event>
 5   0  0.1116462E-06  0.3311260E+04  0.7818609E-02  0.8160036E-01
       -2   -1    0    0    0  501  0.00000000000E+00  0.00000000000E+00  0.15710717583E+04  0.15710717584E+04  0.25500000920E-02 0. -1.
        2   -1    0    0  501    0  0.00000000000E+00  0.00000000000E+00 -0.17447395319E+04  0.17447395319E+04  0.25500000920E-02 0.  1.
    10030    2    1    2    0    0  0.00000000000E+00  0.00000000000E+00 -0.17366777359E+03  0.33158112903E+04  0.33112601857E+04 0.  0.
        1    1    3    3  502    0 -0.13907329485E+04 -0.82994165807E+03  0.25739680682E+03  0.16398763386E+04  0.50400001928E-02 0. -1.
       -1    1    3    3    0  502  0.13907329485E+04  0.82994165807E+03 -0.43106458042E+03  0.16759349517E+04  0.50400001928E-02 0.  1.
</event>
<event>
 5   0  0.1116462E-06  0.3299105E+04  0.7818609E-02  0.8163123E-01
       -2   -1    0    0    0  501  0.00000000000E+00  0.00000000000E+00  0.10331618762E+04  0.10331618762E+04  0.25500000920E-02 0.  1.
        2   -1    0    0  501    0  0.00000000000E+00  0.00000000000E+00 -0.26336847681E+04  0.26336847681E+04  0.25500000920E-02 0. -1.
    10030    2    1    2    0    0  0.00000000000E+00  0.00000000000E+00 -0.16005228918E+04  0.36668466443E+04  0.32991045430E+04 0.  0.
        1    1    3    3  502    0 -0.34501825030E+02 -0.12113677945E+03 -0.26283322115E+04  0.26313484584E+04  0.50400001928E-02 0. -1.
       -1    1    3    3    0  502  0.34501825030E+02  0.12113677945E+03  0.10278093197E+04  0.10354981859E+04  0.50400001928E-02 0.  1.
</event>
<event>
 5   0  0.3573375E-07  0.3312547E+04  0.7818609E-02  0.8159710E-01
       -3   -1    0    0    0  501  0.00000000000E+00  0.00000000000E+00  0.23879510321E+04  0.23879510343E+04  0.10100000352E+00 0.  1.
        3   -1    0    0  501    0  0.00000000000E+00  0.00000000000E+00 -0.11487851012E+04  0.11487851056E+04  0.10100000352E+00 0. -1.
    10030    2    1    2    0    0  0.00000000000E+00  0.00000000000E+00  0.12391659309E+04  0.35367361399E+04  0.33125474062E+04 0.  0.
        1    1    3    3  502    0 -0.26051372258E+03 -0.11829481918E+04  0.18256387200E+04  0.21909337188E+04  0.50400001928E-02 0.  1.
       -1    1    3    3    0  502  0.26051372258E+03  0.11829481918E+04 -0.58647278905E+03  0.13458024211E+04  0.50400001928E-02 0. -1.
</event>
<event>
 5   0  0.3573375E-07  0.3309399E+04  0.7818609E-02  0.8160508E-01
       -3   -1    0    0    0  501  0.00000000000E+00  0.00000000000E+00  0.12977862515E+04  0.12977862555E+04  0.10100000352E+00 0.  1.
        3   -1    0    0  501    0  0.00000000000E+00  0.00000000000E+00 -0.21097693907E+04  0.21097693931E+04  0.10100000352E+00 0. -1.
    10030    2    1    2    0    0  0.00000000000E+00  0.00000000000E+00 -0.81198313917E+03  0.34075556486E+04  0.33093985677E+04 0.  0.
        3    1    3    3  502    0  0.84885207475E+03  0.79366898477E+03  0.80689794192E+03  0.14147595559E+04  0.10100000352E+00 0.  1.
       -3    1    3    3    0  502 -0.84885207475E+03 -0.79366898477E+03 -0.16188810811E+04  0.19927960927E+04  0.10100000352E+00 0. -1.
</event>
<event>
 5   0  0.1120545E-06  0.3337068E+04  0.7818609E-02  0.8153527E-01
        2   -1    0    0  501    0  0.00000000000E+00  0.00000000000E+00  0.10356261620E+04  0.10356261620E+04  0.25500000920E-02 0.  1.
       -2   -1    0    0    0  501  0.00000000000E+00  0.00000000000E+00 -0.26882334763E+04  0.26882334763E+04  0.25500000920E-02 0. -1.
    10030    2    1    2    0    0  0.00000000000E+00  0.00000000000E+00 -0.16526073143E+04  0.37238596383E+04  0.33370675256E+04 0.  0.
        4    1    3    3  502    0 -0.64210692758E+03 -0.12758818110E+04 -0.17887232450E+04  0.22890408826E+04  0.12699999809E+01 0. -1.
       -4    1    3    3    0  502  0.64210692758E+03  0.12758818110E+04  0.13611593072E+03  0.14348187557E+04  0.12699999809E+01 0.  1.
</event>
<event>
 5   0  0.3709747E-07  0.3299497E+04  0.7818609E-02  0.8163023E-01
       -1   -1    0    0    0  501  0.00000000000E+00  0.00000000000E+00  0.15642938010E+04  0.15642938010E+04  0.50400001928E-02 0. -1.
        1   -1    0    0  501    0  0.00000000000E+00  0.00000000000E+00 -0.17398718202E+04  0.17398718202E+04  0.50400001928E-02 0.  1.
    10030    2    1    2    0    0  0.00000000000E+00  0.00000000000E+00 -0.17557801920E+03  0.33041656212E+04  0.32994973574E+04 0.  0.
        4    1    3    3  502    0  0.27533690079E+02 -0.21158962614E+03  0.15504169604E+04  0.15650311939E+04  0.12699999809E+01 0. -1.
       -4    1    3    3    0  502 -0.27533690079E+02  0.21158962614E+03 -0.17259949796E+04  0.17391344273E+04  0.12699999809E+01 0.  1.
</event>
<event>
 5   0  0.1120545E-06  0.3304788E+04  0.7818609E-02  0.8161678E-01
        2   -1    0    0  501    0  0.00000000000E+00  0.00000000000E+00  0.13818133910E+04  0.13818133910E+04  0.25500000920E-02 0. -1.
       -2   -1    0    0    0  501  0.00000000000E+00  0.00000000000E+00 -0.19759586356E+04  0.19759586356E+04  0.25500000920E-02 0.  1.
    10030    2    1    2    0    0  0.00000000000E+00  0.00000000000E+00 -0.59414524456E+03  0.33577720266E+04  0.33047881038E+04 0.  0.
        4    1    3    3  502    0 -0.23109818172E+02  0.75969930249E+03  0.11936680717E+04  0.14151050040E+04  0.12699999809E+01 0. -1.
       -4    1    3    3    0  502  0.23109818172E+02 -0.75969930249E+03 -0.17878133163E+04  0.19426670226E+04  0.12699999809E+01 0.  1.
</event>
<event>
 5   0  0.3749685E-07  0.3284644E+04  0.7818609E-02  0.8166814E-01
       -1   -1    0    0    0  501  0.00000000000E+00  0.00000000000E+00  0.12758924464E+04  0.12758924465E+04  0.50400001928E-02 0.  1.
        1   -1    0    0  501    0  0.00000000000E+00  0.00000000000E+00 -0.21139879619E+04  0.21139879619E+04  0.50400001928E-02 0. -1.
    10030    2    1    2    0    0  0.00000000000E+00  0.00000000000E+00 -0.83809551548E+03  0.33898804084E+04  0.32846438300E+04 0.  0.
        3    1    3    3  502    0 -0.30999547328E+02 -0.54135765656E+03 -0.20189385690E+04  0.20904884692E+04  0.10100000352E+00 0. -1.
       -3    1    3    3    0  502  0.30999547328E+02  0.54135765656E+03  0.11808430535E+04  0.12993919392E+04  0.10100000352E+00 0.  1.
</event>
<event>
 5   0  0.3709747E-07  0.3335967E+04  0.7818609E-02  0.8153804E-01
       -1   -1    0    0    0  501  0.00000000000E+00  0.00000000000E+00  0.13337222822E+04  0.13337222822E+04  0.50400001928E-02 0.  1.
        1   -1    0    0  501    0  0.00000000000E+00  0.00000000000E+00 -0.20860177871E+04  0.20860177871E+04  0.50400001928E-02 0. -1.
    10030    2    1    2    0    0  0.00000000000E+00  0.00000000000E+00 -0.75229550489E+03  0.34197400693E+04  0.33359666687E+04 0.  0.
        4    1    3    3  502    0  0.14428320302E+04  0.82615628005E+03 -0.51317701095E+03  0.17400145758E+04  0.12699999809E+01 0. -1.
       -4    1    3    3    0  502 -0.14428320302E+04 -0.82615628005E+03 -0.23911849394E+03  0.16797254935E+04  0.12699999809E+01 0.  1.
</event>
<event>
 5   0  0.3674967E-07  0.3297400E+04  0.7818609E-02  0.8163557E-01
       -1   -1    0    0    0  501  0.00000000000E+00  0.00000000000E+00  0.16308872137E+04  0.16308872137E+04  0.50400001928E-02 0. -1.
        1   -1    0    0  501    0  0.00000000000E+00  0.00000000000E+00 -0.16667070433E+04  0.16667070433E+04  0.50400001928E-02 0.  1.
    10030    2    1    2    0    0  0.00000000000E+00  0.00000000000E+00 -0.35819829551E+02  0.32975942570E+04  0.32973997064E+04 0.  0.
        2    1    3    3  502    0 -0.10379195818E+04 -0.12518439875E+04  0.25380591098E+03  0.16458456391E+04  0.25500000920E-02 0.  1.
       -2    1    3    3    0  502  0.10379195818E+04  0.12518439875E+04 -0.28962574053E+03  0.16517486179E+04  0.25500000920E-02 0. -1.
</event>
<event>
 5   0  0.1116462E-06  0.3362498E+04  0.7818609E-02  0.8147172E-01
        2   -1    0    0  501    0  0.00000000000E+00  0.00000000000E+00  0.23375209934E+04  0.23375209934E+04  0.25500000920E-02 0.  1.
       -2   -1    0    0    0  501  0.00000000000E+00  0.00000000000E+00 -0.12092288137E+04  0.12092288137E+04  0.25500000920E-02 0. -1.
    10030    2    1    2    0    0  0.00000000000E+00  0.00000000000E+00  0.11282921797E+04  0.35467498071E+04  0.33624977251E+04 0.  0.
        1    1    3    3  502    0 -0.11921780518E+04  0.65878840506E+03  0.16036995520E+04  0.21040776893E+04  0.50400001928E-02 0.  1.
       -1    1    3    3    0  502  0.11921780518E+04 -0.65878840506E+03 -0.47540737222E+03  0.14426721178E+04  0.50400001928E-02 0. -1.
</event>
<event>
 5   0  0.3749685E-07  0.3314783E+04  0.7818609E-02  0.8159144E-01
       -1   -1    0    0    0  501  0.00000000000E+00  0.00000000000E+00  0.11808907781E+04  0.11808907782E+04  0.50400001928E-02 0. -1.
        1   -1    0    0  501    0  0.00000000000E+00  0.00000000000E+00 -0.23261648040E+04  0.23261648040E+04  0.50400001928E-02 0.  1.
    10030    2    1    2    0    0  0.00000000000E+00  0.00000000000E+00 -0.11452740259E+04  0.35070555822E+04  0.33147829887E+04 0.  0.
        3    1    3    3  502    0  0.75585520738E+03 -0.10759404917E+04  0.49483745029E+03  0.14049303003E+04  0.10100000352E+00 0. -1.
       -3    1    3    3    0  502 -0.75585520738E+03  0.10759404917E+04 -0.16401114762E+04  0.21021252819E+04  0.10100000352E+00 0.  1.
</event>
<event>
 5   0  0.1116462E-06  0.3282699E+04  0.7818609E-02  0.8167312E-01
       -2   -1    0    0    0  501  0.00000000000E+00  0.00000000000E+00  0.12691936647E+04  0.12691936647E+04  0.25500000920E-02 0.  1.
        2   -1    0    0  501    0  0.00000000000E+00  0.00000000000E+00 -0.21226299636E+04  0.21226299636E+04  0.25500000920E-02 0. -1.
    10030    2    1    2    0    0  0.00000000000E+00  0.00000000000E+00 -0.85343629896E+03  0.33918236283E+04  0.32826991956E+04 0.  0.
        1    1    3    3  502    0 -0.65289790433E+03 -0.54250706873E+03  0.10247717427E+04  0.13306940737E+04  0.50400001928E-02 0.  1.
       -1    1    3    3    0  502  0.65289790433E+03  0.54250706873E+03 -0.18782080417E+04  0.20611295546E+04  0.50400001928E-02 0. -1.
</event>
<event>
 5   0  0.1126221E-06  0.3297239E+04  0.7818609E-02  0.8163598E-01
       -2   -1    0    0    0  501  0.00000000000E+00  0.00000000000E+00  0.13949238121E+04  0.13949238122E+04  0.25500000920E-02 0. -1.
        2   -1    0    0  501    0  0.00000000000E+00  0.00000000000E+00 -0.19484544480E+04  0.19484544480E+04  0.25500000920E-02 0.  1.
    10030    2    1    2    0    0  0.00000000000E+00  0.00000000000E+00 -0.55353063582E+03  0.33433782601E+04  0.32972385454E+04 0.  0.
        2    1    3    3  502    0  0.10138620216E+04 -0.63624443386E+03 -0.14263058184E+04  0.18620073755E+04  0.25500000920E-02 0.  1.
       -2    1    3    3    0  502 -0.10138620216E+04  0.63624443386E+03  0.87277518261E+03  0.14813708847E+04  0.25500000920E-02 0. -1.
</event>
<event>
 5   0  0.1120545E-06  0.3234287E+04  0.7818609E-02  0.8179820E-01
       -2   -1    0    0    0  501  0.00000000000E+00  0.00000000000E+00  0.11095185348E+04  0.11095185348E+04  0.25500000920E-02 0. -1.
        2   -1    0    0  501    0  0.00000000000E+00  0.00000000000E+00 -0.23570160032E+04  0.23570160032E+04  0.25500000920E-02 0.  1.
    10030    2    1    2    0    0  0.00000000000E+00  0.00000000000E+00 -0.12474974684E+04  0.34665345380E+04  0.32342869027E+04 0.  0.
        4    1    3    3  502    0 -0.13620050380E+04  0.33521263564E+03  0.23885768633E+03  0.14228421704E+04  0.12699999809E+01 0. -1.
       -4    1    3    3    0  502  0.13620050380E+04 -0.33521263564E+03 -0.14863551547E+04  0.20436923676E+04  0.12699999809E+01 0.  1.
</event>
<event>
 5   0  0.3709747E-07  0.3342029E+04  0.7818609E-02  0.8152283E-01
        1   -1    0    0  501    0  0.00000000000E+00  0.00000000000E+00  0.11875846015E+04  0.11875846015E+04  0.50400001928E-02 0.  1.
       -1   -1    0    0    0  501  0.00000000000E+00  0.00000000000E+00 -0.23512338930E+04  0.23512338930E+04  0.50400001928E-02 0. -1.
    10030    2    1    2    0    0  0.00000000000E+00  0.00000000000E+00 -0.11636492915E+04  0.35388184946E+04  0.33420288245E+04 0.  0.
        4    1    3    3  502    0  0.84305877827E+03  0.10172278311E+04 -0.16651957678E+04  0.21256479299E+04  0.12699999809E+01 0. -1.
       -4    1    3    3    0  502 -0.84305877827E+03 -0.10172278311E+04  0.50154647630E+03  0.14131705646E+04  0.12699999809E+01 0.  1.
</event>
<event>
 5   0  0.3757406E-07  0.3306181E+04  0.7818609E-02  0.8161324E-01
       -1   -1    0    0    0  501  0.00000000000E+00  0.00000000000E+00  0.13485926833E+04  0.13485926833E+04  0.50400001928E-02 0.  1.
        1   -1    0    0  501    0  0.00000000000E+00  0.00000000000E+00 -0.20263402894E+04  0.20263402894E+04  0.50400001928E-02 0. -1.
    10030    2    1    2    0    0  0.00000000000E+00  0.00000000000E+00 -0.67774760611E+03  0.33749329728E+04  0.33061806897E+04 0.  0.
        1    1    3    3  502    0 -0.60044850724E+03  0.15400999054E+04 -0.32236467574E+03  0.16841511549E+04  0.50400001928E-02 0.  1.
       -1    1    3    3    0  502  0.60044850724E+03 -0.15400999054E+04 -0.35538293037E+03  0.16907818179E+04  0.50400001928E-02 0. -1.
</event>
<event>
 5   0  0.1120545E-06  0.3340969E+04  0.7818609E-02  0.8152548E-01
       -2   -1    0    0    0  501  0.00000000000E+00  0.00000000000E+00  0.18258615478E+04  0.18258615478E+04  0.25500000920E-02 0.  1.
        2   -1    0    0  501    0  0.00000000000E+00  0.00000000000E+00 -0.15283294004E+04  0.15283294004E+04  0.25500000920E-02 0. -1.
    10030    2    1    2    0    0  0.00000000000E+00  0.00000000000E+00  0.29753214741E+03  0.33541909482E+04  0.33409686526E+04 0.  0.
        4    1    3    3  502    0 -0.11003989369E+04  0.90052499772E+03  0.10289874185E+04  0.17551751514E+04  0.12699999809E+01 0.  1.
       -4    1    3    3    0  502  0.11003989369E+04 -0.90052499772E+03 -0.73145527109E+03  0.15990157968E+04  0.12699999809E+01 0. -1.
</event>
<event>
 5   0  0.1146799E-06  0.3295785E+04  0.7818609E-02  0.8163969E-01
       -2   -1    0    0    0  501  0.00000000000E+00  0.00000000000E+00  0.15812668098E+04  0.15812668098E+04  0.25500000920E-02 0.  1.
        2   -1    0    0  501    0  0.00000000000E+00  0.00000000000E+00 -0.17173258313E+04  0.17173258313E+04  0.25500000920E-02 0. -1.
    10030    2    1    2    0    0  0.00000000000E+00  0.00000000000E+00 -0.13605902145E+03  0.32985926411E+04  0.32957853927E+04 0.  0.
        5    1    3    3  502    0 -0.87674629307E+03  0.11688775478E+04 -0.83062960777E+03  0.16807517424E+04  0.46999998093E+01 0. -1.
       -5    1    3    3    0  502  0.87674629307E+03 -0.11688775478E+04  0.69457058633E+03  0.16178408987E+04  0.46999998093E+01 0.  1.
</event>
<event>
 5   0  0.3674967E-07  0.3323970E+04  0.7818609E-02  0.8156823E-01
        1   -1    0    0  501    0  0.00000000000E+00  0.00000000000E+00  0.14475977373E+04  0.14475977373E+04  0.50400001928E-02 0. -1.
       -1   -1    0    0    0  501  0.00000000000E+00  0.00000000000E+00 -0.19081223969E+04  0.19081223969E+04  0.50400001928E-02 0.  1.
    10030    2    1    2    0    0  0.00000000000E+00  0.00000000000E+00 -0.46052465953E+03  0.33557201342E+04  0.33239697136E+04 0.  0.
        2    1    3    3  502    0 -0.74808947089E+03  0.10214837165E+04 -0.13171737548E+04  0.18270231361E+04  0.25500000920E-02 0.  1.
       -2    1    3    3    0  502  0.74808947089E+03 -0.10214837165E+04  0.85664909529E+03  0.15286969981E+04  0.25500000920E-02 0. -1.
</event>
<event>
 5   0  0.3749685E-07  0.3343960E+04  0.7818609E-02  0.8151799E-01
       -1   -1    0    0    0  501  0.00000000000E+00  0.00000000000E+00  0.18789929335E+04  0.18789929335E+04  0.50400001928E-02 0. -1.
        1   -1    0    0  501    0  0.00000000000E+00  0.00000000000E+00 -0.14877744701E+04  0.14877744701E+04  0.50400001928E-02 0.  1.
    10030    2    1    2    0    0  0.00000000000E+00  0.00000000000E+00  0.39121846338E+03  0.33667674037E+04  0.33439603563E+04 0.  0.
        3    1    3    3  502    0 -0.12698777304E+04  0.93330219880E+03  0.75787605313E+03  0.17487191217E+04  0.10100000352E+00 0. -1.
       -3    1    3    3    0  502  0.12698777304E+04 -0.93330219880E+03 -0.36665758975E+03  0.16180482820E+04  0.10100000352E+00 0.  1.
</event>
<event>
 5   0  0.1126221E-06  0.3307063E+04  0.7818609E-02  0.8161100E-01
        2   -1    0    0  501    0  0.00000000000E+00  0.00000000000E+00  0.22848479669E+04  0.22848479669E+04  0.25500000920E-02 0.  1.
       -2   -1    0    0    0  501  0.00000000000E+00  0.00000000000E+00 -0.11966516504E+04  0.11966516504E+04  0.25500000920E-02 0. -1.
    10030    2    1    2    0    0  0.00000000000E+00  0.00000000000E+00  0.10881963165E+04  0.34814996173E+04  0.33070634046E+04 0.  0.
        2    1    3    3  502    0  0.10727445092E+04 -0.71404884785E+03  0.16348576773E+04  0.20816834928E+04  0.25500000920E-02 0.  1.
       -2    1    3    3    0  502 -0.10727445092E+04  0.71404884785E+03 -0.54666136077E+03  0.13998161245E+04  0.25500000920E-02 0. -1.
</event>
<event>
 5   0  0.1120545E-06  0.3253472E+04  0.7818609E-02  0.8174836E-01
        2   -1    0    0  501    0  0.00000000000E+00  0.00000000000E+00  0.15562514023E+04  0.15562514023E+04  0.25500000920E-02 0. -1.
       -2   -1    0    0    0  501  0.00000000000E+00  0.00000000000E+00 -0.17004130016E+04  0.17004130016E+04  0.25500000920E-02 0.  1.
    10030    2    1    2    0    0  0.00000000000E+00  0.00000000000E+00 -0.14416159933E+03  0.32566644039E+04  0.32534720643E+04 0.  0.
        4    1    3    3  502    0  0.13292572327E+04  0.90921495294E+03  0.15764795144E+03  0.16181628814E+04  0.12699999809E+01 0. -1.
       -4    1    3    3    0  502 -0.13292572327E+04 -0.90921495294E+03 -0.30180955076E+03  0.16385015225E+04  0.12699999809E+01 0.  1.
</event>
<event>
 5   0  0.3757406E-07  0.3290189E+04  0.7818609E-02  0.8165396E-01
        1   -1    0    0  501    0  0.00000000000E+00  0.00000000000E+00  0.17529939162E+04  0.17529939162E+04  0.50400001928E-02 0. -1.
       -1   -1    0    0    0  501  0.00000000000E+00  0.00000000000E+00 -0.15438364086E+04  0.15438364086E+04  0.50400001928E-02 0.  1.
    10030    2    1    2    0    0  0.00000000000E+00  0.00000000000E+00  0.20915750755E+03  0.32968303248E+04  0.32901889502E+04 0.  0.
        1    1    3    3  502    0  0.10398436374E+04 -0.68016857545E+03 -0.97575883909E+03  0.15798763855E+04  0.50400001928E-02 0.  1.
       -1    1    3    3    0  502 -0.10398436374E+04  0.68016857545E+03  0.11849163466E+04  0.17169539394E+04  0.50400001928E-02 0. -1.
</event>
<event>
 5   0  0.3757406E-07  0.3235711E+04  0.7818609E-02  0.8179449E-01
       -1   -1    0    0    0  501  0.00000000000E+00  0.00000000000E+00  0.14380782087E+04  0.14380782087E+04  0.50400001928E-02 0. -1.
        1   -1    0    0  501    0  0.00000000000E+00  0.00000000000E+00 -0.18201076112E+04  0.18201076112E+04  0.50400001928E-02 0.  1.
    10030    2    1    2    0    0  0.00000000000E+00  0.00000000000E+00 -0.38202940252E+03  0.32581858199E+04  0.32357114168E+04 0.  0.
        1    1    3    3  502    0 -0.12012851071E+04 -0.59296905195E+03  0.72234607941E+03  0.15219993638E+04  0.50400001928E-02 0. -1.
       -1    1    3    3    0  502  0.12012851071E+04  0.59296905195E+03 -0.11043754819E+04  0.17361864560E+04  0.50400001928E-02 0.  1.
</event>
<event>
 5   0  0.1129434E-06  0.3312096E+04  0.7818609E-02  0.8159824E-01
        2   -1    0    0  501    0  0.00000000000E+00  0.00000000000E+00  0.22521942544E+04  0.22521942544E+04  0.25500000920E-02 0.  1.
       -2   -1    0    0    0  501  0.00000000000E+00  0.00000000000E+00 -0.12176992865E+04  0.12176992865E+04  0.25500000920E-02 0. -1.
    10030    2    1    2    0    0  0.00000000000E+00  0.00000000000E+00  0.10344949678E+04  0.34698935409E+04  0.33120962164E+04 0.  0.
        3    1    3    3  502    0  0.24114802277E+03  0.88695566314E+03 -0.92593603934E+03  0.13046839757E+04  0.10100000352E+00 0. -1.
       -3    1    3    3    0  502 -0.24114802277E+03 -0.88695566314E+03  0.19604310072E+04  0.21652095652E+04  0.10100000352E+00 0.  1.
</event>
<event>
 5   0  0.3709747E-07  0.3291973E+04  0.7818609E-02  0.8164941E-01
        1   -1    0    0  501    0  0.00000000000E+00  0.00000000000E+00  0.19766141578E+04  0.19766141578E+04  0.50400001928E-02 0. -1.
       -1   -1    0    0    0  501  0.00000000000E+00  0.00000000000E+00 -0.13706628583E+04  0.13706628583E+04  0.50400001928E-02 0.  1.
    10030    2    1    2    0    0  0.00000000000E+00  0.00000000000E+00  0.60595129951E+03  0.33472770160E+04  0.32919730322E+04 0.  0.
        4    1    3    3  502    0 -0.57638795188E+03 -0.19760717185E+03 -0.12517633231E+04  0.13921870188E+04  0.12699999809E+01 0.  1.
       -4    1    3    3    0  502  0.57638795188E+03  0.19760717185E+03  0.18577146226E+04  0.19550899972E+04  0.12699999809E+01 0. -1.
</event>
<event>
 5   0  0.3749685E-07  0.3316897E+04  0.7818609E-02  0.8158609E-01
       -1   -1    0    0    0  501  0.00000000000E+00  0.00000000000E+00  0.13683771317E+04  0.13683771317E+04  0.50400001928E-02 0. -1.
        1   -1    0    0  501    0  0.00000000000E+00  0.00000000000E+00 -0.20100100148E+04  0.20100100148E+04  0.50400001928E-02 0.  1.
    10030    2    1    2    0    0  0.00000000000E+00  0.00000000000E+00 -0.64163288306E+03  0.33783871466E+04  0.33168971879E+04 0.  0.
        3    1    3    3  502    0 -0.33865499218E+03 -0.67449400159E+03  0.11833211049E+04  0.14035234980E+04  0.10100000352E+00 0. -1.
       -3    1    3    3    0  502  0.33865499218E+03  0.67449400159E+03 -0.18249539880E+04  0.19748636485E+04  0.10100000352E+00 0.  1.
</event>
<event>
 5   0  0.3757406E-07  0.3302782E+04  0.7818609E-02  0.8162188E-01
       -1   -1    0    0    0  501  0.00000000000E+00  0.00000000000E+00  0.12645484889E+04  0.12645484889E+04  0.50400001928E-02 0.  1.
        1   -1    0    0  501    0  0.00000000000E+00  0.00000000000E+00 -0.21565734821E+04  0.21565734821E+04  0.50400001928E-02 0. -1.
    10030    2    1    2    0    0  0.00000000000E+00  0.00000000000E+00 -0.89202499322E+03  0.34211219710E+04  0.33027816991E+04 0.  0.
        1    1    3    3  502    0  0.10926941754E+04  0.58716479525E+03 -0.15751858805E+04  0.20049821984E+04  0.50400001928E-02 0. -1.
       -1    1    3    3    0  502 -0.10926941754E+04 -0.58716479525E+03  0.68316088727E+03  0.14161397726E+04  0.50400001928E-02 0.  1.
</event>
<event>
 5   0  0.3749685E-07  0.3229183E+04  0.7818609E-02  0.8181152E-01
       -1   -1    0    0    0  501  0.00000000000E+00  0.00000000000E+00  0.82874048892E+03  0.82874048894E+03  0.50400001928E-02 0.  1.
        1   -1    0    0  501    0  0.00000000000E+00  0.00000000000E+00 -0.31456227940E+04  0.31456227940E+04  0.50400001928E-02 0. -1.
    10030    2    1    2    0    0  0.00000000000E+00  0.00000000000E+00 -0.23168823050E+04  0.39743632829E+04  0.32291825419E+04 0.  0.
        3    1    3    3  502    0 -0.10161520239E+04 -0.50857727939E+03 -0.25701710661E+04  0.28101592667E+04  0.10100000352E+00 0. -1.
       -3    1    3    3    0  502  0.10161520239E+04  0.50857727939E+03  0.25328876107E+03  0.11642040162E+04  0.10100000352E+00 0.  1.
</event>
<event>
 5   0  0.3573375E-07  0.3271362E+04  0.7818609E-02  0.8170221E-01
        4   -1    0    0  501    0  0.00000000000E+00  0.00000000000E+00  0.14497623596E+04  0.14497629159E+04  0.12699999809E+01 0. -1.
       -4   -1    0    0    0  501  0.00000000000E+00  0.00000000000E+00 -0.18454404446E+04  0.18454408816E+04  0.12699999809E+01 0.  1.
    10030    2    1    2    0    0  0.00000000000E+00  0.00000000000E+00 -0.39567808498E+03  0.32952037975E+04  0.32713616309E+04 0.  0.
        5    1    3    3  502    0  0.11628474418E+04  0.61531400209E+03 -0.11768299257E+04  0.17651561569E+04  0.46999998093E+01 0.  1.
       -5    1    3    3    0  502 -0.11628474418E+04 -0.61531400209E+03  0.78115184076E+03  0.15300476406E+04  0.46999998093E+01 0. -1.
</event>
<event>
 5   0  0.3709747E-07  0.3277372E+04  0.7818609E-02  0.8168677E-01
        1   -1    0    0  501    0  0.00000000000E+00  0.00000000000E+00  0.15669649856E+04  0.15669649856E+04  0.50400001928E-02 0.  1.
       -1   -1    0    0    0  501  0.00000000000E+00  0.00000000000E+00 -0.17136901052E+04  0.17136901052E+04  0.50400001928E-02 0. -1.
    10030    2    1    2    0    0  0.00000000000E+00  0.00000000000E+00 -0.14672511966E+03  0.32806550908E+04  0.32773723566E+04 0.  0.
        4    1    3    3  502    0  0.47382201713E+03 -0.35970308107E+03 -0.16017832903E+04  0.17086851473E+04  0.12699999809E+01 0. -1.
       -4    1    3    3    0  502 -0.47382201713E+03  0.35970308107E+03  0.14550581707E+04  0.15719699435E+04  0.12699999809E+01 0.  1.
</event>
<event>
 5   0  0.3757406E-07  0.3306556E+04  0.7818609E-02  0.8161229E-01
        1   -1    0    0  501    0  0.00000000000E+00  0.00000000000E+00  0.15429148373E+04  0.15429148373E+04  0.50400001928E-02 0.  1.
       -1   -1    0    0    0  501  0.00000000000E+00  0.00000000000E+00 -0.17715348513E+04  0.17715348513E+04  0.50400001928E-02 0. -1.
    10030    2    1    2    0    0  0.00000000000E+00  0.00000000000E+00 -0.22862001394E+03  0.33144496886E+04  0.33065555534E+04 0.  0.
        1    1    3    3  502    0 -0.10070564183E+04  0.84883373794E+02  0.11972324740E+04  0.15667588881E+04  0.50400001928E-02 0.  1.
       -1    1    3    3    0  502  0.10070564183E+04 -0.84883373794E+02 -0.14258524879E+04  0.17476908005E+04  0.50400001928E-02 0. -1.
</event>
<event>
 5   0  0.3749685E-07  0.3299788E+04  0.7818609E-02  0.8162949E-01
        1   -1    0    0  501    0  0.00000000000E+00  0.00000000000E+00  0.13952646603E+04  0.13952646603E+04  0.50400001928E-02 0.  1.
       -1   -1    0    0    0  501  0.00000000000E+00  0.00000000000E+00 -0.19509922506E+04  0.19509922506E+04  0.50400001928E-02 0. -1.
    10030    2    1    2    0    0  0.00000000000E+00  0.00000000000E+00 -0.55572759025E+03  0.33462569109E+04  0.32997881991E+04 0.  0.
        3    1    3    3  502    0 -0.48521243217E+03 -0.76427370392E+03 -0.16766377844E+04  0.19054289987E+04  0.10100000352E+00 0. -1.
       -3    1    3    3    0  502  0.48521243217E+03  0.76427370392E+03  0.11209101942E+04  0.14408279121E+04  0.10100000352E+00 0.  1.
</event>
<event>
 5   0  0.1146799E-06  0.3271264E+04  0.7818609E-02  0.8170246E-01
       -2   -1    0    0    0  501  0.00000000000E+00  0.00000000000E+00  0.12800732070E+04  0.12800732070E+04  0.25500000920E-02 0.  1.
        2   -1    0    0  501    0  0.00000000000E+00  0.00000000000E+00 -0.20899526824E+04  0.20899526824E+04  0.25500000920E-02 0. -1.
    10030    2    1    2    0    0  0.00000000000E+00  0.00000000000E+00 -0.80987947534E+03  0.33700258894E+04  0.32712642405E+04 0.  0.
        5    1    3    3  502    0 -0.15143125440E+03 -0.16640421980E+03 -0.20739276463E+04  0.20861015702E+04  0.46999998093E+01 0. -1.
       -5    1    3    3    0  502  0.15143125440E+03  0.16640421980E+03  0.12640481709E+04  0.12839243193E+04  0.46999998093E+01 0.  1.
</event>
<event>
 5   0  0.1120545E-06  0.3264971E+04  0.7818609E-02  0.8171866E-01
       -2   -1    0    0    0  501  0.00000000000E+00  0.00000000000E+00  0.88796456916E+03  0.88796456916E+03  0.25500000920E-02 0. -1.
        2   -1    0    0  501    0  0.00000000000E+00  0.00000000000E+00 -0.30012560440E+04  0.30012560440E+04  0.25500000920E-02 0.  1.
    10030    2    1    2    0    0  0.00000000000E+00  0.00000000000E+00 -0.21132914749E+04  0.38892206132E+04  0.32649710750E+04 0.  0.
        4    1    3    3  502    0  0.77535822242E+03 -0.79384708376E+03  0.36962628876E+03  0.11696147963E+04  0.12699999809E+01 0. -1.
       -4    1    3    3    0  502 -0.77535822242E+03  0.79384708376E+03 -0.24829177636E+04  0.27196058169E+04  0.12699999809E+01 0.  1.
</event>
<event>
 5   0  0.3796529E-07  0.3284060E+04  0.7818609E-02  0.8166963E-01
        1   -1    0    0  501    0  0.00000000000E+00  0.00000000000E+00  0.21560928123E+04  0.21560928123E+04  0.50400001928E-02 0.  1.
       -1   -1    0    0    0  501  0.00000000000E+00  0.00000000000E+00 -0.12505316913E+04  0.12505316913E+04  0.50400001928E-02 0. -1.
    10030    2    1    2    0    0  0.00000000000E+00  0.00000000000E+00  0.90556112097E+03  0.34066245036E+04  0.32840599210E+04 0.  0.
        5    1    3    3  502    0  0.50812209772E+03  0.14441116915E+04  0.10687376259E+04  0.18670481640E+04  0.46999998093E+01 0.  1.
       -5    1    3    3    0  502 -0.50812209772E+03 -0.14441116915E+04 -0.16317650495E+03  0.15395763396E+04  0.46999998093E+01 0. -1.
</event>
<event>
 5   0  0.1120545E-06  0.3295215E+04  0.7818609E-02  0.8164114E-01
       -2   -1    0    0    0  501  0.00000000000E+00  0.00000000000E+00  0.12991305250E+04  0.12991305250E+04  0.25500000920E-02 0.  1.
        2   -1    0    0  501    0  0.00000000000E+00  0.00000000000E+00 -0.20895593668E+04  0.20895593668E+04  0.25500000920E-02 0. -1.
    10030    2    1    2    0    0  0.00000000000E+00  0.00000000000E+00 -0.79042884180E+03  0.33886898917E+04  0.32952149290E+04 0.  0.
        4    1    3    3  502    0 -0.22885126388E+03  0.13043099899E+04 -0.14033346427E+04  0.19294940226E+04  0.12699999809E+01 0. -1.
       -4    1    3    3    0  502  0.22885126388E+03 -0.13043099899E+04  0.61290580092E+03  0.14591958691E+04  0.12699999809E+01 0.  1.
</event>
<event>
 5   0  0.3796529E-07  0.3307780E+04  0.7818609E-02  0.8160919E-01
       -1   -1    0    0    0  501  0.00000000000E+00  0.00000000000E+00  0.17934247013E+04  0.17934247013E+04  0.50400001928E-02 0. -1.
        1   -1    0    0  501    0  0.00000000000E+00  0.00000000000E+00 -0.15252116992E+04  0.15252116992E+04  0.50400001928E-02 0.  1.
    10030    2    1    2    0    0  0.00000000000E+00  0.00000000000E+00  0.26821300209E+03  0.33186364005E+04  0.33077801233E+04 0.  0.
        5    1    3    3  502    0  0.92503478419E+02 -0.13092422075E+04  0.11437184456E+04  0.17409152835E+04  0.46999998093E+01 0. -1.
       -5    1    3    3    0  502 -0.92503478419E+02  0.13092422075E+04 -0.87550544352E+03  0.15777211170E+04  0.46999998093E+01 0.  1.
</event>
<event>
 5   0  0.1126221E-06  0.3310538E+04  0.7818609E-02  0.8160219E-01
        2   -1    0    0  501    0  0.00000000000E+00  0.00000000000E+00  0.20220142647E+04  0.20220142647E+04  0.25500000920E-02 0. -1.
       -2   -1    0    0    0  501  0.00000000000E+00  0.00000000000E+00 -0.13550425940E+04  0.13550425940E+04  0.25500000920E-02 0.  1.
    10030    2    1    2    0    0  0.00000000000E+00  0.00000000000E+00  0.66697167075E+03  0.33770568587E+04  0.33105379952E+04 0.  0.
        2    1    3    3  502    0  0.88372596509E+03  0.77687665210E+03  0.15210978557E+04  0.19230828377E+04  0.25500000920E-02 0. -1.
       -2    1    3    3    0  502 -0.88372596509E+03 -0.77687665210E+03 -0.85412618499E+03  0.14539740210E+04  0.25500000920E-02 0.  1.
</event>
<event>
 5   0  0.1116462E-06  0.3369557E+04  0.7818609E-02  0.8145419E-01
        2   -1    0    0  501    0  0.00000000000E+00  0.00000000000E+00  0.24373515334E+04  0.24373515334E+04  0.25500000920E-02 0.  1.
       -2   -1    0    0    0  501  0.00000000000E+00  0.00000000000E+00 -0.11645753128E+04  0.11645753128E+04  0.25500000920E-02 0. -1.
    10030    2    1    2    0    0  0.00000000000E+00  0.00000000000E+00  0.12727762207E+04  0.36019268462E+04  0.33695574928E+04 0.  0.
        1    1    3    3  502    0 -0.43554655257E+03  0.16227529162E+04  0.76926477366E+03  0.18479166969E+04  0.50400001928E-02 0.  1.
       -1    1    3    3    0  502  0.43554655257E+03 -0.16227529162E+04  0.50351144702E+03  0.17540101493E+04  0.50400001928E-02 0. -1.
</event>
<event>
 5   0  0.3709747E-07  0.3311848E+04  0.7818609E-02  0.8159887E-01
       -1   -1    0    0    0  501  0.00000000000E+00  0.00000000000E+00  0.12769880494E+04  0.12769880494E+04  0.50400001928E-02 0. -1.
        1   -1    0    0  501    0  0.00000000000E+00  0.00000000000E+00 -0.21473064299E+04  0.21473064299E+04  0.50400001928E-02 0.  1.
    10030    2    1    2    0    0  0.00000000000E+00  0.00000000000E+00 -0.87031838048E+03  0.34242944793E+04  0.33118482148E+04 0.  0.
        4    1    3    3  502    0  0.16535189591E+04 -0.53083965885E+02 -0.50928848780E+03  0.17309879353E+04  0.12699999809E+01 0.  1.
       -4    1    3    3    0  502 -0.16535189591E+04  0.53083965885E+02 -0.36102989268E+03  0.16933065440E+04  0.12699999809E+01 0. -1.
</event>
<event>
 5   0  0.1116462E-06  0.3298501E+04  0.7818609E-02  0.8163277E-01
        2   -1    0    0  501    0  0.00000000000E+00  0.00000000000E+00  0.15834353843E+04  0.15834353843E+04  0.25500000920E-02 0.  1.
       -2   -1    0    0    0  501  0.00000000000E+00  0.00000000000E+00 -0.17178008718E+04  0.17178008719E+04  0.25500000920E-02 0. -1.
    10030    2    1    2    0    0  0.00000000000E+00  0.00000000000E+00 -0.13436548756E+03  0.33012362561E+04  0.32985006798E+04 0.  0.
        1    1    3    3  502    0 -0.55246949227E+03 -0.14181551566E+04  0.56867092051E+03  0.16247378878E+04  0.50400001928E-02 0.  1.
       -1    1    3    3    0  502  0.55246949227E+03  0.14181551566E+04 -0.70303640806E+03  0.16764983684E+04  0.50400001928E-02 0. -1.
</event>
<event>
 5   0  0.3674967E-07  0.3068958E+04  0.7818609E-02  0.8224309E-01
        1   -1    0    0  501    0  0.00000000000E+00  0.00000000000E+00  0.94881273162E+03  0.94881273163E+03  0.50400001928E-02 0.  1.
       -1   -1    0    0    0  501  0.00000000000E+00  0.00000000000E+00 -0.24816548658E+04  0.24816548658E+04  0.50400001928E-02 0. -1.
    10030    2    1    2    0    0  0.00000000000E+00  0.00000000000E+00 -0.15328421341E+04  0.34304675974E+04  0.30689579548E+04 0.  0.
        2    1    3    3  502    0 -0.75703083416E+03 -0.62241458682E+03 -0.20862390445E+04  0.23049704885E+04  0.25500000920E-02 0. -1.
       -2    1    3    3    0  502  0.75703083416E+03  0.62241458682E+03  0.55339691039E+03  0.11254971089E+04  0.25500000920E-02 0.  1.
</event>
<event>
 5   0  0.1120545E-06  0.3284671E+04  0.7818609E-02  0.8166807E-01
       -2   -1    0    0    0  501  0.00000000000E+00  0.00000000000E+00  0.19763895542E+04  0.19763895542E+04  0.25500000920E-02 0.  1.
        2   -1    0    0  501    0  0.00000000000E+00  0.00000000000E+00 -0.13647442251E+04  0.13647442251E+04  0.25500000920E-02 0. -1.
    10030    2    1    2    0    0  0.00000000000E+00  0.00000000000E+00  0.61164532911E+03  0.33411337793E+04  0.32846712046E+04 0.  0.
        4    1    3    3  502    0 -0.13714397976E+04 -0.90173404363E+03  0.36419565240E+03  0.16812529524E+04  0.12699999809E+01 0. -1.
       -4    1    3    3    0  502  0.13714397976E+04  0.90173404363E+03  0.24744967671E+03  0.16598808268E+04  0.12699999809E+01 0.  1.
</event>
<event>
 5   0  0.1129434E-06  0.3307655E+04  0.7818609E-02  0.8160950E-01
        2   -1    0    0  501    0  0.00000000000E+00  0.00000000000E+00  0.21273336378E+04  0.21273336378E+04  0.25500000920E-02 0.  1.
       -2   -1    0    0    0  501  0.00000000000E+00  0.00000000000E+00 -0.12857152852E+04  0.12857152852E+04  0.25500000920E-02 0. -1.
    10030    2    1    2    0    0  0.00000000000E+00  0.00000000000E+00  0.84161835266E+03  0.34130489230E+04  0.33076549850E+04 0.  0.
        3    1    3    3  502    0  0.95738017885E+03  0.46316983603E+03  0.17276726321E+04  0.20287818606E+04  0.10100000352E+00 0.  1.
       -3    1    3    3    0  502 -0.95738017885E+03 -0.46316983603E+03 -0.88605427945E+03  0.13842670625E+04  0.10100000352E+00 0. -1.
</event>
<event>
 5   0  0.3674967E-07  0.3300551E+04  0.7818609E-02  0.8162755E-01
        1   -1    0    0  501    0  0.00000000000E+00  0.00000000000E+00  0.18812834226E+04  0.18812834226E+04  0.50400001928E-02 0. -1.
       -1   -1    0    0    0  501  0.00000000000E+00  0.00000000000E+00 -0.14476339681E+04  0.14476339681E+04  0.50400001928E-02 0.  1.
    10030    2    1    2    0    0  0.00000000000E+00  0.00000000000E+00  0.43364945448E+03  0.33289173907E+04  0.33005513395E+04 0.  0.
        2    1    3    3  502    0 -0.38764485613E+03 -0.14056144563E+04 -0.56272751994E+03  0.15629084413E+04  0.25500000920E-02 0.  1.
       -2    1    3    3    0  502  0.38764485613E+03  0.14056144563E+04  0.99637697442E+03  0.17660089494E+04  0.25500000920E-02 0. -1.
</event>
<event>
 5   0  0.3709747E-07  0.3285733E+04  0.7818609E-02  0.8166535E-01
       -1   -1    0    0    0  501  0.00000000000E+00  0.00000000000E+00  0.24659646300E+04  0.24659646300E+04  0.50400001928E-02 0. -1.
        1   -1    0    0  501    0  0.00000000000E+00  0.00000000000E+00 -0.10945048828E+04  0.10945048828E+04  0.50400001928E-02 0.  1.
    10030    2    1    2    0    0  0.00000000000E+00  0.00000000000E+00  0.13714597471E+04  0.35604695128E+04  0.32857329949E+04 0.  0.
        4    1    3    3  502    0  0.10919517519E+04  0.61961464716E+02 -0.64266492208E+03  0.12685494340E+04  0.12699999809E+01 0.  1.
       -4    1    3    3    0  502 -0.10919517519E+04 -0.61961464716E+02  0.20141246692E+04  0.22919200788E+04  0.12699999809E+01 0. -1.
</event>
<event>
 5   0  0.3749685E-07  0.3303625E+04  0.7818609E-02  0.8161974E-01
        1   -1    0    0  501    0  0.00000000000E+00  0.00000000000E+00  0.13334739342E+04  0.13334739342E+04  0.50400001928E-02 0. -1.
       -1   -1    0    0    0  501  0.00000000000E+00  0.00000000000E+00 -0.20461476806E+04  0.20461476806E+04  0.50400001928E-02 0.  1.
    10030    2    1    2    0    0  0.00000000000E+00  0.00000000000E+00 -0.71267374637E+03  0.33796216148E+04  0.33036250378E+04 0.  0.
        3    1    3    3  502    0 -0.61468599276E+03 -0.26151697014E+03 -0.19018025878E+04  0.20157090783E+04  0.10100000352E+00 0.  1.
       -3    1    3    3    0  502  0.61468599276E+03  0.26151697014E+03  0.11891288414E+04  0.13639125364E+04  0.10100000352E+00 0. -1.
</event>
<event>
 5   0  0.3749685E-07  0.3235645E+04  0.7818609E-02  0.8179466E-01
       -1   -1    0    0    0  501  0.00000000000E+00  0.00000000000E+00  0.10603249986E+04  0.10603249986E+04  0.50400001928E-02 0.  1.
        1   -1    0    0  501    0  0.00000000000E+00  0.00000000000E+00 -0.24684403004E+04  0.24684403004E+04  0.50400001928E-02 0. -1.
    10030    2    1    2    0    0  0.00000000000E+00  0.00000000000E+00 -0.14081153018E+04  0.35287652990E+04  0.32356445776E+04 0.  0.
        3    1    3    3  502    0 -0.74771134650E+03 -0.61946091214E+03  0.70721315726E+03  0.12012304273E+04  0.10100000352E+00 0.  1.
       -3    1    3    3    0  502  0.74771134650E+03  0.61946091214E+03 -0.21153284591E+04  0.23275348718E+04  0.10100000352E+00 0. -1.
</event>
<event>
 5   0  0.1129434E-06  0.3298734E+04  0.7818609E-02  0.8163218E-01
       -2   -1    0    0    0  501  0.00000000000E+00  0.00000000000E+00  0.93363979169E+03  0.93363979170E+03  0.25500000920E-02 0.  1.
        2   -1    0    0  501    0  0.00000000000E+00  0.00000000000E+00 -0.29137701339E+04  0.29137701339E+04  0.25500000920E-02 0. -1.
    10030    2    1    2    0    0  0.00000000000E+00  0.00000000000E+00 -0.19801303422E+04  0.38474099256E+04  0.32987341456E+04 0.  0.
        3    1    3    3  502    0  0.31609571871E+03 -0.12884886390E+04 -0.21330036603E+04  0.25119363250E+04  0.10100000352E+00 0. -1.
       -3    1    3    3    0  502 -0.31609571871E+03  0.12884886390E+04  0.15287331809E+03  0.13354736005E+04  0.10100000352E+00 0.  1.
</event>
<event>
 5   0  0.1146799E-06  0.3320830E+04  0.7818609E-02  0.8157615E-01
       -2   -1    0    0    0  501  0.00000000000E+00  0.00000000000E+00  0.10191608676E+04  0.10191608676E+04  0.25500000920E-02 0. -1.
        2   -1    0    0  501    0  0.00000000000E+00  0.00000000000E+00 -0.27051444254E+04  0.27051444254E+04  0.25500000920E-02 0.  1.
    10030    2    1    2    0    0  0.00000000000E+00  0.00000000000E+00 -0.16859835578E+04  0.37243052930E+04  0.33208296189E+04 0.  0.
        5    1    3    3  502    0 -0.67123215886E+03 -0.14330154425E+03 -0.25385948261E+04  0.26297478443E+04  0.46999998093E+01 0.  1.
       -5    1    3    3    0  502  0.67123215886E+03  0.14330154425E+03  0.85261126825E+03  0.10945574487E+04  0.46999998093E+01 0. -1.
</event>
<event>
 5   0  0.1126221E-06  0.3292094E+04  0.7818609E-02  0.8164910E-01
       -2   -1    0    0    0  501  0.00000000000E+00  0.00000000000E+00  0.16123543002E+04  0.16123543002E+04  0.25500000920E-02 0. -1.
        2   -1    0    0  501    0  0.00000000000E+00  0.00000000000E+00 -0.16804436597E+04  0.16804436597E+04  0.25500000920E-02 0.  1.
    10030    2    1    2    0    0  0.00000000000E+00  0.00000000000E+00 -0.68089359436E+02  0.32927979599E+04  0.32920938996E+04 0.  0.
        2    1    3    3  502    0  0.15895722355E+04  0.29826029105E+02  0.39247479698E+03  0.16375792958E+04  0.25500000920E-02 0. -1.
       -2    1    3    3    0  502 -0.15895722355E+04 -0.29826029105E+02 -0.46056415642E+03  0.16552186641E+04  0.25500000920E-02 0.  1.
</event>
<event>
 5   0  0.3749685E-07  0.3319102E+04  0.7818609E-02  0.8158052E-01
       -1   -1    0    0    0  501  0.00000000000E+00  0.00000000000E+00  0.17158820898E+04  0.17158820898E+04  0.50400001928E-02 0.  1.
        1   -1    0    0  501    0  0.00000000000E+00  0.00000000000E+00 -0.16050696772E+04  0.16050696772E+04  0.50400001928E-02 0. -1.
    10030    2    1    2    0    0  0.00000000000E+00  0.00000000000E+00  0.11081241268E+03  0.33209517670E+04  0.33191024763E+04 0.  0.
        3    1    3    3  502    0  0.15824290007E+04 -0.26518498884E+03  0.47955946729E+03  0.16746288883E+04  0.10100000352E+00 0.  1.
       -3    1    3    3    0  502 -0.15824290007E+04  0.26518498884E+03 -0.36874705461E+03  0.16463228787E+04  0.10100000352E+00 0. -1.
</event>
<event>
 5   0  0.1126221E-06  0.3324170E+04  0.7818609E-02  0.8156772E-01
        2   -1    0    0  501    0  0.00000000000E+00  0.00000000000E+00  0.10361088834E+04  0.10361088834E+04  0.25500000920E-02 0.  1.
       -2   -1    0    0    0  501  0.00000000000E+00  0.00000000000E+00 -0.26662516100E+04  0.26662516100E+04  0.25500000920E-02 0. -1.
    10030    2    1    2    0    0  0.00000000000E+00  0.00000000000E+00 -0.16301427266E+04  0.37023604934E+04  0.33241702595E+04 0.  0.
        2    1    3    3  502    0  0.13360321693E+04 -0.58325409506E+03  0.74104647135E+02  0.14596776341E+04  0.25500000920E-02 0. -1.
       -2    1    3    3    0  502 -0.13360321693E+04  0.58325409506E+03 -0.17042473737E+04  0.22426828593E+04  0.25500000920E-02 0.  1.
</event>
<event>
 5   0  0.3757406E-07  0.3321220E+04  0.7818609E-02  0.8157517E-01
        1   -1    0    0  501    0  0.00000000000E+00  0.00000000000E+00  0.15133766823E+04  0.15133766823E+04  0.50400001928E-02 0. -1.
       -1   -1    0    0    0  501  0.00000000000E+00  0.00000000000E+00 -0.18221670092E+04  0.18221670092E+04  0.50400001928E-02 0.  1.
    10030    2    1    2    0    0  0.00000000000E+00  0.00000000000E+00 -0.30879032691E+03  0.33355436915E+04  0.33212196934E+04 0.  0.
        1    1    3    3  502    0 -0.64084911106E+03  0.27252315865E+03  0.13596439188E+04  0.15276086021E+04  0.50400001928E-02 0. -1.
       -1    1    3    3    0  502  0.64084911106E+03 -0.27252315865E+03 -0.16684342457E+04  0.18079350894E+04  0.50400001928E-02 0.  1.
</event>
<event>
 5   0  0.3796529E-07  0.3303506E+04  0.7818609E-02  0.8162004E-01
       -1   -1    0    0    0  501  0.00000000000E+00  0.00000000000E+00  0.13862870639E+04  0.13862870639E+04  0.50400001928E-02 0.  1.
        1   -1    0    0  501    0  0.00000000000E+00  0.00000000000E+00 -0.19680543595E+04  0.19680543595E+04  0.50400001928E-02 0. -1.
    10030    2    1    2    0    0  0.00000000000E+00  0.00000000000E+00 -0.58176729555E+03  0.33543414234E+04  0.33035061978E+04 0.  0.
        5    1    3    3  502    0 -0.54049364791E+01 -0.26868324401E+03 -0.19457005992E+04  0.19641773878E+04  0.46999998093E+01 0. -1.
       -5    1    3    3    0  502  0.54049364791E+01  0.26868324401E+03  0.13639333037E+04  0.13901640356E+04  0.46999998093E+01 0.  1.
</event>
<event>
 5   0  0.1120545E-06  0.3304226E+04  0.7818609E-02  0.8161821E-01
       -2   -1    0    0    0  501  0.00000000000E+00  0.00000000000E+00  0.17050671883E+04  0.17050671883E+04  0.25500000920E-02 0.  1.
        2   -1    0    0  501    0  0.00000000000E+00  0.00000000000E+00 -0.16008038062E+04  0.16008038062E+04  0.25500000920E-02 0. -1.
    10030    2    1    2    0    0  0.00000000000E+00  0.00000000000E+00  0.10426338207E+03  0.33058709945E+04  0.33042264116E+04 0.  0.
        4    1    3    3  502    0 -0.40846864966E+02 -0.15628454171E+04 -0.48228973442E+03  0.16360804580E+04  0.12699999809E+01 0. -1.
       -4    1    3    3    0  502  0.40846864966E+02  0.15628454171E+04  0.58655311649E+03  0.16697905365E+04  0.12699999809E+01 0.  1.
</event>
<event>
 5   0  0.3749685E-07  0.3290840E+04  0.7818609E-02  0.8165230E-01
        1   -1    0    0  501    0  0.00000000000E+00  0.00000000000E+00  0.13729093661E+04  0.13729093661E+04  0.50400001928E-02 0.  1.
       -1   -1    0    0    0  501  0.00000000000E+00  0.00000000000E+00 -0.19720218550E+04  0.19720218551E+04  0.50400001928E-02 0. -1.
    10030    2    1    2    0    0  0.00000000000E+00  0.00000000000E+00 -0.59911248896E+03  0.33449312211E+04  0.32908401814E+04 0.  0.
        3    1    3    3  502    0  0.82388899400E+03 -0.12225921386E+04  0.44312645220E+03  0.15394433002E+04  0.10100000352E+00 0.  1.
       -3    1    3    3    0  502 -0.82388899400E+03  0.12225921386E+04 -0.10422389412E+04  0.18054879209E+04  0.10100000352E+00 0. -1.
</event>
<event>
 5   0  0.3757406E-07  0.3239027E+04  0.7818609E-02  0.8178586E-01
        1   -1    0    0  501    0  0.00000000000E+00  0.00000000000E+00  0.21420261402E+04  0.21420261402E+04  0.50400001928E-02 0.  1.
       -1   -1    0    0    0  501  0.00000000000E+00  0.00000000000E+00 -0.12244595869E+04  0.12244595869E+04  0.50400001928E-02 0. -1.
    10030    2    1    2    0    0  0.00000000000E+00  0.00000000000E+00  0.91756655335E+03  0.33664857271E+04  0.32390272877E+04 0.  0.
        1    1    3    3  502    0 -0.15049378736E+04  0.93266022821E+02 -0.15547912562E+03  0.15158200134E+04  0.50400001928E-02 0.  1.
       -1    1    3    3    0  502  0.15049378736E+04 -0.93266022821E+02  0.10730456790E+04  0.18506657137E+04  0.50400001928E-02 0. -1.
</event>
<event>
 5   0  0.3674967E-07  0.3296349E+04  0.7818609E-02  0.8163825E-01
       -1   -1    0    0    0  501  0.00000000000E+00  0.00000000000E+00  0.20261684716E+04  0.20261684716E+04  0.50400001928E-02 0. -1.
        1   -1    0    0  501    0  0.00000000000E+00  0.00000000000E+00 -0.13406975451E+04  0.13406975451E+04  0.50400001928E-02 0.  1.
    10030    2    1    2    0    0  0.00000000000E+00  0.00000000000E+00  0.68547092651E+03  0.33668660167E+04  0.32963489475E+04 0.  0.
        2    1    3    3  502    0 -0.73325350890E+03 -0.39571288291E+03  0.17952078920E+04  0.19791464750E+04  0.25500000920E-02 0. -1.
       -2    1    3    3    0  502  0.73325350890E+03  0.39571288291E+03 -0.11097369655E+04  0.13877195417E+04  0.25500000920E-02 0.  1.
</event>
<event>
 5   0  0.3709747E-07  0.3348662E+04  0.7818609E-02  0.8150623E-01
        1   -1    0    0  501    0  0.00000000000E+00  0.00000000000E+00  0.10868602017E+04  0.10868602017E+04  0.50400001928E-02 0.  1.
       -1   -1    0    0    0  501  0.00000000000E+00  0.00000000000E+00 -0.25793421320E+04  0.25793421320E+04  0.50400001928E-02 0. -1.
    10030    2    1    2    0    0  0.00000000000E+00  0.00000000000E+00 -0.14924819303E+04  0.36662023337E+04  0.33486620074E+04 0.  0.
        4    1    3    3  502    0 -0.29847661077E+03 -0.16372496190E+04 -0.94724844554E+03  0.19149297200E+04  0.12699999809E+01 0.  1.
       -4    1    3    3    0  502  0.29847661077E+03  0.16372496190E+04 -0.54523348475E+03  0.17512726138E+04  0.12699999809E+01 0. -1.
</event>
<event>
 5   0  0.3573375E-07  0.3329525E+04  0.7818609E-02  0.8155423E-01
       -3   -1    0    0    0  501  0.00000000000E+00  0.00000000000E+00  0.12406178780E+04  0.12406178821E+04  0.10100000352E+00 0.  1.
        3   -1    0    0  501    0  0.00000000000E+00  0.00000000000E+00 -0.22339142237E+04  0.22339142260E+04  0.10100000352E+00 0. -1.
    10030    2    1    2    0    0  0.00000000000E+00  0.00000000000E+00 -0.99329634579E+03  0.34745321081E+04  0.33295248519E+04 0.  0.
        1    1    3    3  502    0 -0.14717616177E+04 -0.75775030365E+03 -0.31242016022E+03  0.16845991032E+04  0.50400001928E-02 0.  1.
       -1    1    3    3    0  502  0.14717616177E+04  0.75775030365E+03 -0.68087618557E+03  0.17899330049E+04  0.50400001928E-02 0. -1.
</event>
<event>
 5   0  0.1116462E-06  0.3155535E+04  0.7818609E-02  0.8200660E-01
       -2   -1    0    0    0  501  0.00000000000E+00  0.00000000000E+00  0.13346925557E+04  0.13346925557E+04  0.25500000920E-02 0. -1.
        2   -1    0    0  501    0  0.00000000000E+00  0.00000000000E+00 -0.18651108846E+04  0.18651108846E+04  0.25500000920E-02 0.  1.
    10030    2    1    2    0    0  0.00000000000E+00  0.00000000000E+00 -0.53041832898E+03  0.31998034403E+04  0.31555345748E+04 0.  0.
        1    1    3    3  502    0 -0.72277821853E+03  0.45703452034E+03  0.10793109126E+04  0.13770261261E+04  0.50400001928E-02 0. -1.
       -1    1    3    3    0  502  0.72277821853E+03 -0.45703452034E+03 -0.16097292416E+04  0.18227773142E+04  0.50400001928E-02 0.  1.
</event>
<event>
 5   0  0.3674967E-07  0.3317435E+04  0.7818609E-02  0.8158473E-01
       -1   -1    0    0    0  501  0.00000000000E+00  0.00000000000E+00  0.12626271502E+04  0.12626271502E+04  0.50400001928E-02 0.  1.
        1   -1    0    0  501    0  0.00000000000E+00  0.00000000000E+00 -0.21790622533E+04  0.21790622533E+04  0.50400001928E-02 0. -1.
    10030    2    1    2    0    0  0.00000000000E+00  0.00000000000E+00 -0.91643510308E+03  0.34416894035E+04  0.33174346492E+04 0.  0.
        2    1    3    3  502    0 -0.21521559828E+03 -0.32477530004E+03 -0.21309176648E+04  0.21662425634E+04  0.25500000920E-02 0. -1.
       -2    1    3    3    0  502  0.21521559828E+03  0.32477530004E+03  0.12144825617E+04  0.12754468401E+04  0.25500000920E-02 0.  1.
</event>
<event>
 5   0  0.1129434E-06  0.3159751E+04  0.7818609E-02  0.8199528E-01
       -2   -1    0    0    0  501  0.00000000000E+00  0.00000000000E+00  0.12723210027E+04  0.12723210027E+04  0.25500000920E-02 0.  1.
        2   -1    0    0  501    0  0.00000000000E+00  0.00000000000E+00 -0.19617743526E+04  0.19617743526E+04  0.25500000920E-02 0. -1.
    10030    2    1    2    0    0  0.00000000000E+00  0.00000000000E+00 -0.68945334993E+03  0.32340953553E+04  0.31597510733E+04 0.  0.
        3    1    3    3  502    0 -0.11911717440E+04  0.10374801694E+04 -0.37278471838E+03  0.16230291686E+04  0.10100000352E+00 0.  1.
       -3    1    3    3    0  502  0.11911717440E+04 -0.10374801694E+04 -0.31666863155E+03  0.16110661867E+04  0.10100000352E+00 0. -1.
</event>
<event>
 5   0  0.3709747E-07  0.3288898E+04  0.7818609E-02  0.8165726E-01
       -1   -1    0    0    0  501  0.00000000000E+00  0.00000000000E+00  0.16658405001E+04  0.16658405002E+04  0.50400001928E-02 0. -1.
        1   -1    0    0  501    0  0.00000000000E+00  0.00000000000E+00 -0.16233323438E+04  0.16233323438E+04  0.50400001928E-02 0.  1.
    10030    2    1    2    0    0  0.00000000000E+00  0.00000000000E+00  0.42508156328E+02  0.32891728440E+04  0.32888981520E+04 0.  0.
        4    1    3    3  502    0  0.29183138075E+03  0.92839069463E+03  0.13469349756E+04  0.16617190731E+04  0.12699999809E+01 0. -1.
       -4    1    3    3    0  502 -0.29183138075E+03 -0.92839069463E+03 -0.13044268192E+04  0.16274537709E+04  0.12699999809E+01 0.  1.
</event>
<event>
 5   0  0.1116462E-06  0.3336326E+04  0.7818609E-02  0.8153713E-01
       -2   -1    0    0    0  501  0.00000000000E+00  0.00000000000E+00  0.16042246094E+04  0.16042246094E+04  0.25500000920E-02 0. -1.
        2   -1    0    0  501    0  0.00000000000E+00  0.00000000000E+00 -0.17346498265E+04  0.17346498265E+04  0.25500000920E-02 0.  1.
    10030    2    1    2    0    0  0.00000000000E+00  0.00000000000E+00 -0.13042521705E+03  0.33388744359E+04  0.33363260874E+04 0.  0.
        1    1    3    3  502    0 -0.57168316636E+03  0.14030883066E+04  0.63338182844E+03  0.16421482818E+04  0.50400001928E-02 0. -1.
       -1    1    3    3    0  502  0.57168316636E+03 -0.14030883066E+04 -0.76380704549E+03  0.16967261540E+04  0.50400001928E-02 0.  1.
</event>
<event>
 5   0  0.3749685E-07  0.3271303E+04  0.7818609E-02  0.8170236E-01
        1   -1    0    0  501    0  0.00000000000E+00  0.00000000000E+00  0.17499645358E+04  0.17499645358E+04  0.50400001928E-02 0. -1.
       -1   -1    0    0    0  501  0.00000000000E+00  0.00000000000E+00 -0.15288056204E+04  0.15288056204E+04  0.50400001928E-02 0.  1.
    10030    2    1    2    0    0  0.00000000000E+00  0.00000000000E+00  0.22115891540E+03  0.32787701561E+04  0.32713028705E+04 0.  0.
        3    1    3    3  502    0 -0.57427845471E+03  0.13406580849E+04  0.85267198115E+03  0.16894405470E+04  0.10100000352E+00 0. -1.
       -3    1    3    3    0  502  0.57427845471E+03 -0.13406580849E+04 -0.63151306574E+03  0.15893296092E+04  0.10100000352E+00 0.  1.
</event>
<event>
 5   0  0.1120545E-06  0.3280757E+04  0.7818609E-02  0.8167809E-01
        2   -1    0    0  501    0  0.00000000000E+00  0.00000000000E+00  0.19795203560E+04  0.19795203560E+04  0.25500000920E-02 0. -1.
       -2   -1    0    0    0  501  0.00000000000E+00  0.00000000000E+00 -0.13593402828E+04  0.13593402828E+04  0.25500000920E-02 0.  1.
    10030    2    1    2    0    0  0.00000000000E+00  0.00000000000E+00  0.62018007324E+03  0.33388606388E+04  0.32807570836E+04 0.  0.
        4    1    3    3  502    0  0.11715733957E+04 -0.95643566865E+03 -0.33636578283E+03  0.15493537241E+04  0.12699999809E+01 0.  1.
       -4    1    3    3    0  502 -0.11715733957E+04  0.95643566865E+03  0.95654585607E+03  0.17895069146E+04  0.12699999809E+01 0. -1.
</event>
<event>
 5   0  0.1120545E-06  0.3286466E+04  0.7818609E-02  0.8166348E-01
        2   -1    0    0  501    0  0.00000000000E+00  0.00000000000E+00  0.15465691747E+04  0.15465691747E+04  0.25500000920E-02 0.  1.
       -2   -1    0    0    0  501  0.00000000000E+00  0.00000000000E+00 -0.17459388537E+04  0.17459388537E+04  0.25500000920E-02 0. -1.
    10030    2    1    2    0    0  0.00000000000E+00  0.00000000000E+00 -0.19936967894E+03  0.32925080284E+04  0.32864663163E+04 0.  0.
        4    1    3    3  502    0  0.15221259702E+04  0.60460928311E+03  0.33953582214E+02  0.16381618702E+04  0.12699999809E+01 0. -1.
       -4    1    3    3    0  502 -0.15221259702E+04 -0.60460928311E+03 -0.23332326115E+03  0.16543461583E+04  0.12699999809E+01 0.  1.
</event>
<event>
 5   0  0.1146799E-06  0.3261593E+04  0.7818609E-02  0.8172737E-01
        2   -1    0    0  501    0  0.00000000000E+00  0.00000000000E+00  0.17652325774E+04  0.17652325774E+04  0.25500000920E-02 0.  1.
       -2   -1    0    0    0  501  0.00000000000E+00  0.00000000000E+00 -0.15065986863E+04  0.15065986863E+04  0.25500000920E-02 0. -1.
    10030    2    1    2    0    0  0.00000000000E+00  0.00000000000E+00  0.25863389109E+03  0.32718312637E+04  0.32615929128E+04 0.  0.
        5    1    3    3  502    0  0.88363454442E+03 -0.99844413664E+03  0.10712929919E+04  0.17103775801E+04  0.46999998093E+01 0.  1.
       -5    1    3    3    0  502 -0.88363454442E+03  0.99844413664E+03 -0.81265910077E+03  0.15614536836E+04  0.46999998093E+01 0. -1.
</event>
<event>
 5   0  0.1126221E-06  0.3315874E+04  0.7818609E-02  0.8158868E-01
       -2   -1    0    0    0  501  0.00000000000E+00  0.00000000000E+00  0.15778139810E+04  0.15778139810E+04  0.25500000920E-02 0. -1.
        2   -1    0    0  501    0  0.00000000000E+00  0.00000000000E+00 -0.17421284664E+04  0.17421284664E+04  0.25500000920E-02 0.  1.
    10030    2    1    2    0    0  0.00000000000E+00  0.00000000000E+00 -0.16431448550E+03  0.33199424474E+04  0.33158737316E+04 0.  0.
        2    1    3    3  502    0  0.51750545440E+03  0.15654790467E+04  0.91889627868E+02  0.16513570918E+04  0.25500000920E-02 0. -1.
       -2    1    3    3    0  502 -0.51750545440E+03 -0.15654790467E+04 -0.25620411336E+03  0.16685853556E+04  0.25500000920E-02 0.  1.
</event>
<event>
 5   0  0.1129434E-06  0.3278901E+04  0.7818609E-02  0.8168285E-01
        2   -1    0    0  501    0  0.00000000000E+00  0.00000000000E+00  0.14377338182E+04  0.14377338182E+04  0.25500000920E-02 0.  1.
       -2   -1    0    0    0  501  0.00000000000E+00  0.00000000000E+00 -0.18694688445E+04  0.18694688445E+04  0.25500000920E-02 0. -1.
    10030    2    1    2    0    0  0.00000000000E+00  0.00000000000E+00 -0.43173502628E+03  0.33072026627E+04  0.32789013890E+04 0.  0.
        3    1    3    3  502    0  0.52592417429E+03 -0.12968515128E+04  0.64554054042E+03  0.15411497925E+04  0.10100000352E+00 0.  1.
       -3    1    3    3    0  502 -0.52592417429E+03  0.12968515128E+04 -0.10772755667E+04  0.17660528702E+04  0.10100000352E+00 0. -1.
</event>
<event>
 5   0  0.1129434E-06  0.2919449E+04  0.7818609E-02  0.8267114E-01
       -2   -1    0    0    0  501  0.00000000000E+00  0.00000000000E+00  0.76317329965E+03  0.76317329965E+03  0.25500000920E-02 0.  1.
        2   -1    0    0  501    0  0.00000000000E+00  0.00000000000E+00 -0.27920205716E+04  0.27920205716E+04  0.25500000920E-02 0. -1.
    10030    2    1    2    0    0  0.00000000000E+00  0.00000000000E+00 -0.20288472719E+04  0.35551938712E+04  0.29194489564E+04 0.  0.
        3    1    3    3  502    0  0.43168595227E+03 -0.11391488443E+03  0.67798781887E+03  0.81178621263E+03  0.10100000352E+00 0.  1.
       -3    1    3    3    0  502 -0.43168595227E+03  0.11391488443E+03 -0.27068350908E+04  0.27434076586E+04  0.10100000352E+00 0. -1.
</event>
<event>
 5   0  0.1126221E-06  0.3263953E+04  0.7818609E-02  0.8172129E-01
       -2   -1    0    0    0  501  0.00000000000E+00  0.00000000000E+00  0.14522705218E+04  0.14522705218E+04  0.25500000920E-02 0.  1.
        2   -1    0    0  501    0  0.00000000000E+00  0.00000000000E+00 -0.18339190550E+04  0.18339190550E+04  0.25500000920E-02 0. -1.
    10030    2    1    2    0    0  0.00000000000E+00  0.00000000000E+00 -0.38164853322E+03  0.32861895768E+04  0.32639525627E+04 0.  0.
        2    1    3    3  502    0 -0.82603022439E+03 -0.56110567128E+03  0.11087762476E+04  0.14921629513E+04  0.25500000920E-02 0.  1.
       -2    1    3    3    0  502  0.82603022439E+03  0.56110567128E+03 -0.14904247808E+04  0.17940266255E+04  0.25500000920E-02 0. -1.
</event>
<event>
 5   0  0.3674967E-07  0.3373885E+04  0.7818609E-02  0.8144346E-01
       -1   -1    0    0    0  501  0.00000000000E+00  0.00000000000E+00  0.16001813637E+04  0.16001813637E+04  0.50400001928E-02 0. -1.
        1   -1    0    0  501    0  0.00000000000E+00  0.00000000000E+00 -0.17784074729E+04  0.17784074729E+04  0.50400001928E-02 0.  1.
    10030    2    1    2    0    0  0.00000000000E+00  0.00000000000E+00 -0.17822610924E+03  0.33785888366E+04  0.33738847017E+04 0.  0.
        2    1    3    3  502    0 -0.16054824010E+04  0.44773329877E+03  0.17151055268E+03  0.16755460950E+04  0.25500000920E-02 0.  1.
       -2    1    3    3    0  502  0.16054824010E+04 -0.44773329877E+03 -0.34973666192E+03  0.17030427415E+04  0.25500000920E-02 0. -1.
</event>
<event>
 5   0  0.1129434E-06  0.3304351E+04  0.7818609E-02  0.8161789E-01
        2   -1    0    0  501    0  0.00000000000E+00  0.00000000000E+00  0.24925135798E+04  0.24925135798E+04  0.25500000920E-02 0.  1.
       -2   -1    0    0    0  501  0.00000000000E+00  0.00000000000E+00 -0.10951531711E+04  0.10951531711E+04  0.25500000920E-02 0. -1.
    10030    2    1    2    0    0  0.00000000000E+00  0.00000000000E+00  0.13973604087E+04  0.35876667510E+04  0.33043511624E+04 0.  0.
        3    1    3    3  502    0  0.12791663835E+04  0.82612860211E+03  0.13946803272E+04  0.20649184800E+04  0.10100000352E+00 0.  1.
       -3    1    3    3    0  502 -0.12791663835E+04 -0.82612860211E+03  0.26800815089E+01  0.15227482710E+04  0.10100000352E+00 0. -1.
</event>
<event>
 5   0  0.3757406E-07  0.3186217E+04  0.7818609E-02  0.8192467E-01
        1   -1    0    0  501    0  0.00000000000E+00  0.00000000000E+00  0.15878360187E+04  0.15878360187E+04  0.50400001928E-02 0.  1.
       -1   -1    0    0    0  501  0.00000000000E+00  0.00000000000E+00 -0.15983983010E+04  0.15983983010E+04  0.50400001928E-02 0. -1.
    10030    2    1    2    0    0  0.00000000000E+00  0.00000000000E+00 -0.10562282276E+02  0.31862343197E+04  0.31862168128E+04 0.  0.
        1    1    3    3  502    0  0.14019857259E+04  0.51730790156E+03 -0.55739191226E+03  0.15949473924E+04  0.50400001928E-02 0. -1.
       -1    1    3    3    0  502 -0.14019857259E+04 -0.51730790156E+03  0.54682962998E+03  0.15912869273E+04  0.50400001928E-02 0.  1.
</event>
<event>
 5   0  0.1116462E-06  0.3316709E+04  0.7818609E-02  0.8158657E-01
        2   -1    0    0  501    0  0.00000000000E+00  0.00000000000E+00  0.16455929017E+04  0.16455929017E+04  0.25500000920E-02 0.  1.
       -2   -1    0    0    0  501  0.00000000000E+00  0.00000000000E+00 -0.16712151098E+04  0.16712151098E+04  0.25500000920E-02 0. -1.
    10030    2    1    2    0    0  0.00000000000E+00  0.00000000000E+00 -0.25622208020E+02  0.33168080115E+04  0.33167090448E+04 0.  0.
        1    1    3    3  502    0 -0.13598256799E+04 -0.17457701715E+02  0.93627415237E+03  0.16510723605E+04  0.50400001928E-02 0.  1.
       -1    1    3    3    0  502  0.13598256799E+04  0.17457701715E+02 -0.96189636039E+03  0.16657356511E+04  0.50400001928E-02 0. -1.
</event>
<event>
 5   0  0.1126221E-06  0.3311534E+04  0.7818609E-02  0.8159967E-01
       -2   -1    0    0    0  501  0.00000000000E+00  0.00000000000E+00  0.10164765097E+04  0.10164765097E+04  0.25500000920E-02 0. -1.
        2   -1    0    0  501    0  0.00000000000E+00  0.00000000000E+00 -0.26971259399E+04  0.26971259399E+04  0.25500000920E-02 0.  1.
    10030    2    1    2    0    0  0.00000000000E+00  0.00000000000E+00 -0.16806494301E+04  0.37136024496E+04  0.33115344852E+04 0.  0.
        2    1    3    3  502    0 -0.11256478265E+04  0.11425951571E+03 -0.21959968685E+04  0.24703320653E+04  0.25500000920E-02 0.  1.
       -2    1    3    3    0  502  0.11256478265E+04 -0.11425951571E+03  0.51534743841E+03  0.12432703843E+04  0.25500000920E-02 0. -1.
</event>
<event>
 5   0  0.3674967E-07  0.3308575E+04  0.7818609E-02  0.8160717E-01
       -1   -1    0    0    0  501  0.00000000000E+00  0.00000000000E+00  0.18967836100E+04  0.18967836100E+04  0.50400001928E-02 0. -1.
        1   -1    0    0  501    0  0.00000000000E+00  0.00000000000E+00 -0.14427933857E+04  0.14427933857E+04  0.50400001928E-02 0.  1.
    10030    2    1    2    0    0  0.00000000000E+00  0.00000000000E+00  0.45399022437E+03  0.33395769957E+04  0.33085748271E+04 0.  0.
        2    1    3    3  502    0  0.75540093793E+03  0.14627864614E+04  0.39066267853E+03  0.16920378651E+04  0.25500000920E-02 0. -1.
       -2    1    3    3    0  502 -0.75540093793E+03 -0.14627864614E+04  0.63327545841E+02  0.16475391306E+04  0.25500000920E-02 0.  1.
</event>
<event>
 5   0  0.1146799E-06  0.3296859E+04  0.7818609E-02  0.8163695E-01
       -2   -1    0    0    0  501  0.00000000000E+00  0.00000000000E+00  0.25074005614E+04  0.25074005614E+04  0.25500000920E-02 0.  1.
        2   -1    0    0  501    0  0.00000000000E+00  0.00000000000E+00 -0.10837199406E+04  0.10837199406E+04  0.25500000920E-02 0. -1.
    10030    2    1    2    0    0  0.00000000000E+00  0.00000000000E+00  0.14236806208E+04  0.35911205020E+04  0.32968591037E+04 0.  0.
        5    1    3    3  502    0 -0.11073630388E+04 -0.21124676136E+03 -0.59817620452E+03  0.12762111720E+04  0.46999998093E+01 0. -1.
       -5    1    3    3    0  502  0.11073630388E+04  0.21124676136E+03  0.20218568253E+04  0.23149093299E+04  0.46999998093E+01 0.  1.
</event>
<event>
 5   0  0.3749685E-07  0.3276962E+04  0.7818609E-02  0.8168782E-01
       -1   -1    0    0    0  501  0.00000000000E+00  0.00000000000E+00  0.26555063009E+04  0.26555063009E+04  0.50400001928E-02 0. -1.
        1   -1    0    0  501    0  0.00000000000E+00  0.00000000000E+00 -0.10109632191E+04  0.10109632191E+04  0.50400001928E-02 0.  1.
    10030    2    1    2    0    0  0.00000000000E+00  0.00000000000E+00  0.16445430819E+04  0.36664695200E+04  0.32769615184E+04 0.  0.
        3    1    3    3  502    0 -0.57971629880E+03 -0.15022055845E+04  0.48303916365E+03  0.16810768718E+04  0.10100000352E+00 0. -1.
       -3    1    3    3    0  502  0.57971629880E+03  0.15022055845E+04  0.11615039182E+04  0.19853926482E+04  0.10100000352E+00 0.  1.
</event>
<event>
 5   0  0.3749685E-07  0.3299333E+04  0.7818609E-02  0.8163065E-01
        1   -1    0    0  501    0  0.00000000000E+00  0.00000000000E+00  0.22705283699E+04  0.22705283699E+04  0.50400001928E-02 0. -1.
       -1   -1    0    0    0  501  0.00000000000E+00  0.00000000000E+00 -0.11985753895E+04  0.11985753896E+04  0.50400001928E-02 0.  1.
    10030    2    1    2    0    0  0.00000000000E+00  0.00000000000E+00  0.10719529803E+04  0.34691037594E+04  0.32993329177E+04 0.  0.
        3    1    3    3  502    0 -0.11084494063E+04  0.10194284164E+04  0.12440562901E+04  0.19533485213E+04  0.10100000352E+00 0. -1.
       -3    1    3    3    0  502  0.11084494063E+04 -0.10194284164E+04 -0.17210330973E+03  0.15157552382E+04  0.10100000352E+00 0.  1.
</event>
<event>
 5   0  0.3709747E-07  0.3315290E+04  0.7818609E-02  0.8159016E-01
       -1   -1    0    0    0  501  0.00000000000E+00  0.00000000000E+00  0.31200884172E+04  0.31200884172E+04  0.50400001928E-02 0. -1.
        1   -1    0    0  501    0  0.00000000000E+00  0.00000000000E+00 -0.88067582164E+03  0.88067582165E+03  0.50400001928E-02 0.  1.
    10030    2    1    2    0    0  0.00000000000E+00  0.00000000000E+00  0.22394125955E+04  0.40007642388E+04  0.33152896890E+04 0.  0.
        4    1    3    3  502    0 -0.13014845936E+04 -0.93170211275E+03  0.59946209455E+03  0.17091774015E+04  0.12699999809E+01 0.  1.
       -4    1    3    3    0  502  0.13014845936E+04  0.93170211275E+03  0.16399505010E+04  0.22915868373E+04  0.12699999809E+01 0. -1.
</event>
<event>
 5   0  0.1120545E-06  0.3274153E+04  0.7818609E-02  0.8169503E-01
       -2   -1    0    0    0  501  0.00000000000E+00  0.00000000000E+00  0.10809037858E+04  0.10809037858E+04  0.25500000920E-02 0.  1.
        2   -1    0    0  501    0  0.00000000000E+00  0.00000000000E+00 -0.24794248639E+04  0.24794248639E+04  0.25500000920E-02 0. -1.
    10030    2    1    2    0    0  0.00000000000E+00  0.00000000000E+00 -0.13985210781E+04  0.35603286497E+04  0.32741531558E+04 0.  0.
        4    1    3    3  502    0 -0.76291877955E+02 -0.14283920454E+03 -0.24706936294E+04  0.24759951762E+04  0.12699999809E+01 0. -1.
       -4    1    3    3    0  502  0.76291877955E+02  0.14283920454E+03  0.10721725513E+04  0.10843334735E+04  0.12699999809E+01 0.  1.
</event>
<event>
 5   0  0.1126221E-06  0.3300515E+04  0.7818609E-02  0.8162764E-01
       -2   -1    0    0    0  501  0.00000000000E+00  0.00000000000E+00  0.17627079025E+04  0.17627079025E+04  0.25500000920E-02 0.  1.
        2   -1    0    0  501    0  0.00000000000E+00  0.00000000000E+00 -0.15449805811E+04  0.15449805811E+04  0.25500000920E-02 0. -1.
    10030    2    1    2    0    0  0.00000000000E+00  0.00000000000E+00  0.21772732146E+03  0.33076884836E+04  0.33005147959E+04 0.  0.
        2    1    3    3  502    0 -0.13777904247E+04 -0.32381435191E+03 -0.74161935207E+03  0.15978615248E+04  0.25500000920E-02 0. -1.
       -2    1    3    3    0  502  0.13777904247E+04  0.32381435191E+03  0.95934667352E+03  0.17098269588E+04  0.25500000920E-02 0.  1.
</event>
<event>
 5   0  0.1120545E-06  0.3310164E+04  0.7818609E-02  0.8160314E-01
       -2   -1    0    0    0  501  0.00000000000E+00  0.00000000000E+00  0.19874206787E+04  0.19874206787E+04  0.25500000920E-02 0.  1.
        2   -1    0    0  501    0  0.00000000000E+00  0.00000000000E+00 -0.13783172856E+04  0.13783172856E+04  0.25500000920E-02 0. -1.
    10030    2    1    2    0    0  0.00000000000E+00  0.00000000000E+00  0.60910339311E+03  0.33657379643E+04  0.33101639084E+04 0.  0.
        4    1    3    3  502    0 -0.24750561756E+03  0.16317191824E+04  0.17784763381E+03  0.16599391298E+04  0.12699999809E+01 0.  1.
       -4    1    3    3    0  502  0.24750561756E+03 -0.16317191824E+04  0.43125575930E+03  0.17057988345E+04  0.12699999809E+01 0. -1.
</event>
<event>
 5   0  0.1116462E-06  0.3683922E+04  0.7818609E-02  0.8071534E-01
       -2   -1    0    0    0  501  0.00000000000E+00  0.00000000000E+00  0.14968120660E+04  0.14968120660E+04  0.25500000920E-02 0. -1.
        2   -1    0    0  501    0  0.00000000000E+00  0.00000000000E+00 -0.22666975158E+04  0.22666975158E+04  0.25500000920E-02 0.  1.
    10030    2    1    2    0    0  0.00000000000E+00  0.00000000000E+00 -0.76988544975E+03  0.37635095818E+04  0.36839219273E+04 0.  0.
        1    1    3    3  502    0 -0.58294615887E+03  0.59634503269E+03  0.12929051945E+04  0.15385244438E+04  0.50400001928E-02 0. -1.
       -1    1    3    3    0  502  0.58294615887E+03 -0.59634503269E+03 -0.20627906443E+04  0.22249851380E+04  0.50400001928E-02 0.  1.
</event>
<event>
 5   0  0.1129434E-06  0.3312468E+04  0.7818609E-02  0.8159730E-01
       -2   -1    0    0    0  501  0.00000000000E+00  0.00000000000E+00  0.13699927746E+04  0.13699927746E+04  0.25500000920E-02 0.  1.
        2   -1    0    0  501    0  0.00000000000E+00  0.00000000000E+00 -0.20022814312E+04  0.20022814312E+04  0.25500000920E-02 0. -1.
    10030    2    1    2    0    0  0.00000000000E+00  0.00000000000E+00 -0.63228865659E+03  0.33722742058E+04  0.33124680185E+04 0.  0.
        3    1    3    3  502    0  0.33450416691E+03 -0.16679326002E+03 -0.19587808507E+04  0.19941252369E+04  0.10100000352E+00 0. -1.
       -3    1    3    3    0  502 -0.33450416691E+03  0.16679326002E+03  0.13264921941E+04  0.13781489689E+04  0.10100000352E+00 0.  1.
</event>
<event>
 5   0  0.3757406E-07  0.3303718E+04  0.7818609E-02  0.8161950E-01
       -1   -1    0    0    0  501  0.00000000000E+00  0.00000000000E+00  0.17085780699E+04  0.17085780699E+04  0.50400001928E-02 0.  1.
        1   -1    0    0  501    0  0.00000000000E+00  0.00000000000E+00 -0.15970223423E+04  0.15970223423E+04  0.50400001928E-02 0. -1.
    10030    2    1    2    0    0  0.00000000000E+00  0.00000000000E+00  0.11155572755E+03  0.33056004122E+04  0.33037175129E+04 0.  0.
        1    1    3    3  502    0 -0.15073240832E+04  0.64794990144E+03  0.24764842508E+03  0.16592753566E+04  0.50400001928E-02 0. -1.
       -1    1    3    3    0  502  0.15073240832E+04 -0.64794990144E+03 -0.13609269753E+03  0.16463250556E+04  0.50400001928E-02 0.  1.
</event>
<event>
 5   0  0.1126221E-06  0.3302483E+04  0.7818609E-02  0.8162264E-01
        2   -1    0    0  501    0  0.00000000000E+00  0.00000000000E+00  0.21999066200E+04  0.21999066200E+04  0.25500000920E-02 0. -1.
       -2   -1    0    0    0  501  0.00000000000E+00  0.00000000000E+00 -0.12394151999E+04  0.12394151999E+04  0.25500000920E-02 0.  1.
    10030    2    1    2    0    0  0.00000000000E+00  0.00000000000E+00  0.96049142014E+03  0.34393218199E+04  0.33024825227E+04 0.  0.
        2    1    3    3  502    0  0.15918111914E+04 -0.37413871099E+03  0.24104396479E+03  0.16528595939E+04  0.25500000920E-02 0.  1.
       -2    1    3    3    0  502 -0.15918111914E+04  0.37413871099E+03  0.71944745535E+03  0.17864622260E+04  0.25500000920E-02 0. -1.
</event>
<event>
 5   0  0.3709747E-07  0.3294988E+04  0.7818609E-02  0.8164172E-01
       -1   -1    0    0    0  501  0.00000000000E+00  0.00000000000E+00  0.13532102973E+04  0.13532102973E+04  0.50400001928E-02 0. -1.
        1   -1    0    0  501    0  0.00000000000E+00  0.00000000000E+00 -0.20057752166E+04  0.20057752166E+04  0.50400001928E-02 0.  1.
    10030    2    1    2    0    0  0.00000000000E+00  0.00000000000E+00 -0.65256491922E+03  0.33589855139E+04  0.32949875127E+04 0.  0.
        4    1    3    3  502    0 -0.10356885819E+03  0.13135680929E+04 -0.13344532069E+04  0.18753545312E+04  0.12699999809E+01 0.  1.
       -4    1    3    3    0  502  0.10356885819E+03 -0.13135680929E+04  0.68188828771E+03  0.14836309827E+04  0.12699999809E+01 0. -1.
</event>
<event>
 5   0  0.1120545E-06  0.3273793E+04  0.7818609E-02  0.8169596E-01
       -2   -1    0    0    0  501  0.00000000000E+00  0.00000000000E+00  0.20652448298E+04  0.20652448298E+04  0.25500000920E-02 0. -1.
        2   -1    0    0  501    0  0.00000000000E+00  0.00000000000E+00 -0.12973912343E+04  0.12973912343E+04  0.25500000920E-02 0.  1.
    10030    2    1    2    0    0  0.00000000000E+00  0.00000000000E+00  0.76785359552E+03  0.33626360642E+04  0.32737932366E+04 0.  0.
        4    1    3    3  502    0 -0.15392620597E+04 -0.53508835659E+03  0.22552870020E+03  0.16451480314E+04  0.12699999809E+01 0. -1.
       -4    1    3    3    0  502  0.15392620597E+04  0.53508835659E+03  0.54232489532E+03  0.17174880328E+04  0.12699999809E+01 0.  1.
</event>
<event>
 5   0  0.1120545E-06  0.3313706E+04  0.7818609E-02  0.8159417E-01
        2   -1    0    0  501    0  0.00000000000E+00  0.00000000000E+00  0.13818611982E+04  0.13818611982E+04  0.25500000920E-02 0. -1.
       -2   -1    0    0    0  501  0.00000000000E+00  0.00000000000E+00 -0.19865682572E+04  0.19865682572E+04  0.25500000920E-02 0.  1.
    10030    2    1    2    0    0  0.00000000000E+00  0.00000000000E+00 -0.60470705908E+03  0.33684294554E+04  0.33137058362E+04 0.  0.
        4    1    3    3  502    0 -0.30624552584E+03 -0.13331060377E+04  0.64807483528E+03  0.15135919645E+04  0.12699999809E+01 0. -1.
       -4    1    3    3    0  502  0.30624552584E+03  0.13331060377E+04 -0.12527818944E+04  0.18548374909E+04  0.12699999809E+01 0.  1.
</event>
<event>
 5   0  0.3757406E-07  0.3295292E+04  0.7818609E-02  0.8164094E-01
       -1   -1    0    0    0  501  0.00000000000E+00  0.00000000000E+00  0.14523682939E+04  0.14523682939E+04  0.50400001928E-02 0. -1.
        1   -1    0    0  501    0  0.00000000000E+00  0.00000000000E+00 -0.18691795543E+04  0.18691795543E+04  0.50400001928E-02 0.  1.
    10030    2    1    2    0    0  0.00000000000E+00  0.00000000000E+00 -0.41681126039E+03  0.33215478482E+04  0.32952918658E+04 0.  0.
        1    1    3    3  502    0 -0.59930798869E+03 -0.85862766036E+03 -0.14906759153E+04  0.18216822470E+04  0.50400001928E-02 0.  1.
       -1    1    3    3    0  502  0.59930798869E+03  0.85862766036E+03  0.10738646550E+04  0.14998656012E+04  0.50400001928E-02 0. -1.
</event>
<event>
 5   0  0.3749685E-07  0.3285495E+04  0.7818609E-02  0.8166596E-01
        1   -1    0    0  501    0  0.00000000000E+00  0.00000000000E+00  0.17931703961E+04  0.17931703961E+04  0.50400001928E-02 0. -1.
       -1   -1    0    0    0  501  0.00000000000E+00  0.00000000000E+00 -0.15049434256E+04  0.15049434256E+04  0.50400001928E-02 0.  1.
    10030    2    1    2    0    0  0.00000000000E+00  0.00000000000E+00  0.28822697048E+03  0.32981138217E+04  0.32854953956E+04 0.  0.
        3    1    3    3  502    0  0.10759203418E+04  0.52827102853E+03 -0.98356426636E+03  0.15505075097E+04  0.10100000352E+00 0.  1.
       -3    1    3    3    0  502 -0.10759203418E+04 -0.52827102853E+03  0.12717912368E+04  0.17476063120E+04  0.10100000352E+00 0. -1.
</event>
<event>
 5   0  0.1129434E-06  0.2927633E+04  0.7818609E-02  0.8264703E-01
        2   -1    0    0  501    0  0.00000000000E+00  0.00000000000E+00  0.24919292143E+04  0.24919292143E+04  0.25500000920E-02 0. -1.
       -2   -1    0    0    0  501  0.00000000000E+00  0.00000000000E+00 -0.85987960161E+03  0.85987960161E+03  0.25500000920E-02 0.  1.
    10030    2    1    2    0    0  0.00000000000E+00  0.00000000000E+00  0.16320496127E+04  0.33518088159E+04  0.29276332421E+04 0.  0.
        3    1    3    3  502    0 -0.76099913755E+03  0.10678336762E+03  0.22424255117E+04  0.23704418493E+04  0.10100000352E+00 0. -1.
       -3    1    3    3    0  502  0.76099913755E+03 -0.10678336762E+03 -0.61037589901E+03  0.98136696666E+03  0.10100000352E+00 0.  1.
</event>
<event>
 5   0  0.3796529E-07  0.3263046E+04  0.7818609E-02  0.8172362E-01
        1   -1    0    0  501    0  0.00000000000E+00  0.00000000000E+00  0.17049749544E+04  0.17049749544E+04  0.50400001928E-02 0.  1.
       -1   -1    0    0    0  501  0.00000000000E+00  0.00000000000E+00 -0.15612355100E+04  0.15612355100E+04  0.50400001928E-02 0. -1.
    10030    2    1    2    0    0  0.00000000000E+00  0.00000000000E+00  0.14373944443E+03  0.32662104644E+04  0.32630460877E+04 0.  0.
        5    1    3    3  502    0 -0.12287692711E+04  0.69840937753E+03  0.88764212924E+03  0.16690057579E+04  0.46999998093E+01 0.  1.
       -5    1    3    3    0  502  0.12287692711E+04 -0.69840937753E+03 -0.74390268481E+03  0.15972047066E+04  0.46999998093E+01 0. -1.
</event>
<event>
 5   0  0.3709747E-07  0.3281442E+04  0.7818609E-02  0.8167634E-01
       -1   -1    0    0    0  501  0.00000000000E+00  0.00000000000E+00  0.13366079420E+04  0.13366079420E+04  0.50400001928E-02 0. -1.
        1   -1    0    0  501    0  0.00000000000E+00  0.00000000000E+00 -0.20140274510E+04  0.20140274510E+04  0.50400001928E-02 0.  1.
    10030    2    1    2    0    0  0.00000000000E+00  0.00000000000E+00 -0.67741950898E+03  0.33506353930E+04  0.32814418090E+04 0.  0.
        4    1    3    3  502    0 -0.54844201868E+02  0.12559174214E+04 -0.14152791046E+04  0.18929746466E+04  0.12699999809E+01 0.  1.
       -4    1    3    3    0  502  0.54844201868E+02 -0.12559174214E+04  0.73785959559E+03  0.14576607464E+04  0.12699999809E+01 0. -1.
</event>
<event>
 5   0  0.1120545E-06  0.3337978E+04  0.7818609E-02  0.8153299E-01
       -2   -1    0    0    0  501  0.00000000000E+00  0.00000000000E+00  0.16846174948E+04  0.16846174948E+04  0.25500000920E-02 0.  1.
        2   -1    0    0  501    0  0.00000000000E+00  0.00000000000E+00 -0.16535055055E+04  0.16535055055E+04  0.25500000920E-02 0. -1.
    10030    2    1    2    0    0  0.00000000000E+00  0.00000000000E+00  0.31111989213E+02  0.33381230003E+04  0.33379780121E+04 0.  0.
        4    1    3    3  502    0  0.11236042389E+04  0.40772900012E+03 -0.11493092920E+04  0.16582047174E+04  0.12699999809E+01 0. -1.
       -4    1    3    3    0  502 -0.11236042389E+04 -0.40772900012E+03  0.11804212812E+04  0.16799182829E+04  0.12699999809E+01 0.  1.
</event>
<event>
 5   0  0.1116462E-06  0.3278080E+04  0.7818609E-02  0.8168496E-01
        2   -1    0    0  501    0  0.00000000000E+00  0.00000000000E+00  0.17274558882E+04  0.17274558882E+04  0.25500000920E-02 0. -1.
       -2   -1    0    0    0  501  0.00000000000E+00  0.00000000000E+00 -0.15551490315E+04  0.15551490315E+04  0.25500000920E-02 0.  1.
    10030    2    1    2    0    0  0.00000000000E+00  0.00000000000E+00  0.17230685670E+03  0.32826049197E+04  0.32780795302E+04 0.  0.
        1    1    3    3  502    0  0.52645170661E+03  0.63753850489E+03  0.15033260638E+04  0.17156911141E+04  0.50400001928E-02 0. -1.
       -1    1    3    3    0  502 -0.52645170661E+03 -0.63753850489E+03 -0.13310192071E+04  0.15669138057E+04  0.50400001928E-02 0.  1.
</event>
<event>
 5   0  0.3674967E-07  0.3279990E+04  0.7818609E-02  0.8168006E-01
       -1   -1    0    0    0  501  0.00000000000E+00  0.00000000000E+00  0.24296709682E+04  0.24296709683E+04  0.50400001928E-02 0. -1.
        1   -1    0    0  501    0  0.00000000000E+00  0.00000000000E+00 -0.11069742500E+04  0.11069742500E+04  0.50400001928E-02 0.  1.
    10030    2    1    2    0    0  0.00000000000E+00  0.00000000000E+00  0.13226967183E+04  0.35366452182E+04  0.32799897547E+04 0.  0.
        2    1    3    3  502    0  0.52178957346E+03  0.58756335211E+03  0.22134605903E+04  0.23488088122E+04  0.25500000920E-02 0. -1.
       -2    1    3    3    0  502 -0.52178957346E+03 -0.58756335211E+03 -0.89076387199E+03  0.11878364060E+04  0.25500000920E-02 0.  1.
</event>
<event>
 5   0  0.1126221E-06  0.3298306E+04  0.7818609E-02  0.8163327E-01
       -2   -1    0    0    0  501  0.00000000000E+00  0.00000000000E+00  0.14938498588E+04  0.14938498588E+04  0.25500000920E-02 0. -1.
        2   -1    0    0  501    0  0.00000000000E+00  0.00000000000E+00 -0.18206013852E+04  0.18206013852E+04  0.25500000920E-02 0.  1.
    10030    2    1    2    0    0  0.00000000000E+00  0.00000000000E+00 -0.32675152638E+03  0.33144512440E+04  0.32983056998E+04 0.  0.
        2    1    3    3  502    0 -0.37667884769E+03 -0.67798232060E+03 -0.16258893865E+04  0.18014059172E+04  0.25500000920E-02 0.  1.
       -2    1    3    3    0  502  0.37667884769E+03  0.67798232060E+03  0.12991378602E+04  0.15130453268E+04  0.25500000920E-02 0. -1.
</event>
<event>
 5   0  0.1116462E-06  0.3284375E+04  0.7818609E-02  0.8166883E-01
        2   -1    0    0  501    0  0.00000000000E+00  0.00000000000E+00  0.20264983388E+04  0.20264983388E+04  0.25500000920E-02 0.  1.
       -2   -1    0    0    0  501  0.00000000000E+00  0.00000000000E+00 -0.13307585214E+04  0.13307585214E+04  0.25500000920E-02 0. -1.
    10030    2    1    2    0    0  0.00000000000E+00  0.00000000000E+00  0.69573981742E+03  0.33572568602E+04  0.32843750900E+04 0.  0.
        1    1    3    3  502    0 -0.16931194625E+03  0.14140146047E+04  0.11837417965E+04  0.18518500151E+04  0.50400001928E-02 0.  1.
       -1    1    3    3    0  502  0.16931194625E+03 -0.14140146047E+04 -0.48800197907E+03  0.15054068451E+04  0.50400001928E-02 0. -1.
</event>
<event>
 5   0  0.1129434E-06  0.3361526E+04  0.7818609E-02  0.8147414E-01
        2   -1    0    0  501    0  0.00000000000E+00  0.00000000000E+00  0.26015449095E+04  0.26015449095E+04  0.25500000920E-02 0.  1.
       -2   -1    0    0    0  501  0.00000000000E+00  0.00000000000E+00 -0.10858796742E+04  0.10858796743E+04  0.25500000920E-02 0. -1.
    10030    2    1    2    0    0  0.00000000000E+00  0.00000000000E+00  0.15156652353E+04  0.36874245838E+04  0.33615262836E+04 0.  0.
        3    1    3    3  502    0 -0.17227464195E+03 -0.15742603677E+04  0.13754361042E+04  0.20975697234E+04  0.10100000352E+00 0.  1.
       -3    1    3    3    0  502  0.17227464195E+03  0.15742603677E+04  0.14022913103E+03  0.15898548603E+04  0.10100000352E+00 0. -1.
</event>
<event>
 5   0  0.1126221E-06  0.3299445E+04  0.7818609E-02  0.8163037E-01
        2   -1    0    0  501    0  0.00000000000E+00  0.00000000000E+00  0.19803500252E+04  0.19803500252E+04  0.25500000920E-02 0. -1.
       -2   -1    0    0    0  501  0.00000000000E+00  0.00000000000E+00 -0.13742949698E+04  0.13742949698E+04  0.25500000920E-02 0.  1.
    10030    2    1    2    0    0  0.00000000000E+00  0.00000000000E+00  0.60605505540E+03  0.33546449950E+04  0.32994454553E+04 0.  0.
        2    1    3    3  502    0 -0.60325501281E+03  0.33940132873E+03 -0.12195150255E+04  0.14022577402E+04  0.25500000920E-02 0.  1.
       -2    1    3    3    0  502  0.60325501281E+03 -0.33940132873E+03  0.18255700809E+04  0.19523872548E+04  0.25500000920E-02 0. -1.
</event>
<event>
 5   0  0.3796529E-07  0.3227363E+04  0.7818609E-02  0.8181628E-01
        1   -1    0    0  501    0  0.00000000000E+00  0.00000000000E+00  0.14725012946E+04  0.14725012946E+04  0.50400001928E-02 0. -1.
       -1   -1    0    0    0  501  0.00000000000E+00  0.00000000000E+00 -0.17683975962E+04  0.17683975962E+04  0.50400001928E-02 0.  1.
    10030    2    1    2    0    0  0.00000000000E+00  0.00000000000E+00 -0.29589630168E+03  0.32408988908E+04  0.32273628552E+04 0.  0.
        5    1    3    3  502    0 -0.16628103891E+03  0.79162743271E+03 -0.15500931454E+04  0.17484662495E+04  0.46999998093E+01 0.  1.
       -5    1    3    3    0  502  0.16628103891E+03 -0.79162743271E+03  0.12541968437E+04  0.14924326413E+04  0.46999998093E+01 0. -1.
</event>
<event>
 5   0  0.1120545E-06  0.3309127E+04  0.7818609E-02  0.8160577E-01
        2   -1    0    0  501    0  0.00000000000E+00  0.00000000000E+00  0.20295406199E+04  0.20295406199E+04  0.25500000920E-02 0. -1.
       -2   -1    0    0    0  501  0.00000000000E+00  0.00000000000E+00 -0.13488671682E+04  0.13488671682E+04  0.25500000920E-02 0.  1.
    10030    2    1    2    0    0  0.00000000000E+00  0.00000000000E+00  0.68067345170E+03  0.33784077882E+04  0.33091272014E+04 0.  0.
        4    1    3    3  502    0  0.72145533306E+03  0.95093864595E+03 -0.82942496453E+03  0.14535231304E+04  0.12699999809E+01 0.  1.
       -4    1    3    3    0  502 -0.72145533306E+03 -0.95093864595E+03  0.15100984162E+04  0.19248846577E+04  0.12699999809E+01 0. -1.
</event>
<event>
 5   0  0.3749685E-07  0.3303704E+04  0.7818609E-02  0.8161953E-01
        1   -1    0    0  501    0  0.00000000000E+00  0.00000000000E+00  0.21822719400E+04  0.21822719400E+04  0.50400001928E-02 0.  1.
       -1   -1    0    0    0  501  0.00000000000E+00  0.00000000000E+00 -0.12503554890E+04  0.12503554890E+04  0.50400001928E-02 0. -1.
    10030    2    1    2    0    0  0.00000000000E+00  0.00000000000E+00  0.93191645101E+03  0.34326274290E+04  0.33037044048E+04 0.  0.
        3    1    3    3  502    0 -0.32848334293E+03 -0.49587379418E+03  0.20671419267E+04  0.21510155465E+04  0.10100000352E+00 0.  1.
       -3    1    3    3    0  502  0.32848334293E+03  0.49587379418E+03 -0.11352254757E+04  0.12816118824E+04  0.10100000352E+00 0. -1.
</event>
<event>
 5   0  0.3749685E-07  0.3254460E+04  0.7818609E-02  0.8174581E-01
       -1   -1    0    0    0  501  0.00000000000E+00  0.00000000000E+00  0.10879150860E+04  0.10879150860E+04  0.50400001928E-02 0. -1.
        1   -1    0    0  501    0  0.00000000000E+00  0.00000000000E+00 -0.24339013703E+04  0.24339013703E+04  0.50400001928E-02 0.  1.
    10030    2    1    2    0    0  0.00000000000E+00  0.00000000000E+00 -0.13459862843E+04  0.35218164563E+04  0.32544603353E+04 0.  0.
        3    1    3    3  502    0 -0.13333564339E+04 -0.39928145126E+02  0.33546699998E+03  0.13754896419E+04  0.10100000352E+00 0. -1.
       -3    1    3    3    0  502  0.13333564339E+04  0.39928145126E+02 -0.16814532843E+04  0.21463268144E+04  0.10100000352E+00 0.  1.
</event>
<event>
 5   0  0.1129434E-06  0.3306579E+04  0.7818609E-02  0.8161223E-01
        2   -1    0    0  501    0  0.00000000000E+00  0.00000000000E+00  0.28152271761E+04  0.28152271761E+04  0.25500000920E-02 0.  1.
       -2   -1    0    0    0  501  0.00000000000E+00  0.00000000000E+00 -0.97092199012E+03  0.97092199012E+03  0.25500000920E-02 0. -1.
    10030    2    1    2    0    0  0.00000000000E+00  0.00000000000E+00  0.18443051860E+04  0.37861491663E+04  0.33065788801E+04 0.  0.
        3    1    3    3  502    0 -0.53099080639E+03  0.11225973183E+04  0.21718628946E+04  0.25018322123E+04  0.10100000352E+00 0.  1.
       -3    1    3    3    0  502  0.53099080639E+03 -0.11225973183E+04 -0.32755770856E+03  0.12843169539E+04  0.10100000352E+00 0. -1.
</event>
<event>
 5   0  0.3749685E-07  0.3437682E+04  0.7818609E-02  0.8128719E-01
       -1   -1    0    0    0  501  0.00000000000E+00  0.00000000000E+00  0.18311662732E+04  0.18311662733E+04  0.50400001928E-02 0.  1.
        1   -1    0    0  501    0  0.00000000000E+00  0.00000000000E+00 -0.16134056421E+04  0.16134056421E+04  0.50400001928E-02 0. -1.
    10030    2    1    2    0    0  0.00000000000E+00  0.00000000000E+00  0.21776063119E+03  0.34445719153E+04  0.34376817752E+04 0.  0.
        3    1    3    3  502    0  0.99094464705E+03  0.37220612598E+02 -0.12978770947E+04  0.16333528800E+04  0.10100000352E+00 0. -1.
       -3    1    3    3    0  502 -0.99094464705E+03 -0.37220612598E+02  0.15156377259E+04  0.18112190353E+04  0.10100000352E+00 0.  1.
</event>
<event>
 5   0  0.3709747E-07  0.3299599E+04  0.7818609E-02  0.8162997E-01
       -1   -1    0    0    0  501  0.00000000000E+00  0.00000000000E+00  0.15423755893E+04  0.15423755893E+04  0.50400001928E-02 0.  1.
        1   -1    0    0  501    0  0.00000000000E+00  0.00000000000E+00 -0.17647050804E+04  0.17647050804E+04  0.50400001928E-02 0. -1.
    10030    2    1    2    0    0  0.00000000000E+00  0.00000000000E+00 -0.22232949101E+03  0.33070806697E+04  0.32995987867E+04 0.  0.
        4    1    3    3  502    0  0.10372659630E+04  0.11943093848E+04  0.35844955689E+03  0.16219689523E+04  0.12699999809E+01 0. -1.
       -4    1    3    3    0  502 -0.10372659630E+04 -0.11943093848E+04 -0.58077904791E+03  0.16851117174E+04  0.12699999809E+01 0.  1.
</event>
<event>
 5   0  0.3796529E-07  0.3276622E+04  0.7818609E-02  0.8168869E-01
       -1   -1    0    0    0  501  0.00000000000E+00  0.00000000000E+00  0.10029008512E+04  0.10029008512E+04  0.50400001928E-02 0.  1.
        1   -1    0    0  501    0  0.00000000000E+00  0.00000000000E+00 -0.26763001264E+04  0.26763001264E+04  0.50400001928E-02 0. -1.
    10030    2    1    2    0    0  0.00000000000E+00  0.00000000000E+00 -0.16733992752E+04  0.36792009777E+04  0.32766224531E+04 0.  0.
        5    1    3    3  502    0 -0.14839443669E+04 -0.17654088468E+03 -0.82803768321E+02  0.14967084292E+04  0.46999998093E+01 0.  1.
       -5    1    3    3    0  502  0.14839443669E+04  0.17654088468E+03 -0.15905955069E+04  0.21824925485E+04  0.46999998093E+01 0. -1.
</event>
<event>
 5   0  0.3709747E-07  0.3302782E+04  0.7818609E-02  0.8162188E-01
       -1   -1    0    0    0  501  0.00000000000E+00  0.00000000000E+00  0.16280984809E+04  0.16280984809E+04  0.50400001928E-02 0. -1.
        1   -1    0    0  501    0  0.00000000000E+00  0.00000000000E+00 -0.16750169085E+04  0.16750169085E+04  0.50400001928E-02 0.  1.
    10030    2    1    2    0    0  0.00000000000E+00  0.00000000000E+00 -0.46918427649E+02  0.33031153894E+04  0.33027821510E+04 0.  0.
        4    1    3    3  502    0 -0.69111474915E+03  0.14636748739E+04  0.30384607632E+03  0.16469085536E+04  0.12699999809E+01 0. -1.
       -4    1    3    3    0  502  0.69111474915E+03 -0.14636748739E+04 -0.35076450397E+03  0.16562068358E+04  0.12699999809E+01 0.  1.
</event>
<event>
 5   0  0.1129434E-06  0.3283687E+04  0.7818609E-02  0.8167059E-01
        2   -1    0    0  501    0  0.00000000000E+00  0.00000000000E+00  0.28185622905E+04  0.28185622905E+04  0.25500000920E-02 0.  1.
       -2   -1    0    0    0  501  0.00000000000E+00  0.00000000000E+00 -0.95639196361E+03  0.95639196361E+03  0.25500000920E-02 0. -1.
    10030    2    1    2    0    0  0.00000000000E+00  0.00000000000E+00  0.18621703269E+04  0.37749542541E+04  0.32836871493E+04 0.  0.
        3    1    3    3  502    0 -0.32795233475E+03  0.13474667801E+04 -0.79283171262E+02  0.13890663370E+04  0.10100000352E+00 0. -1.
       -3    1    3    3    0  502  0.32795233475E+03 -0.13474667801E+04  0.19414534982E+04  0.23858879171E+04  0.10100000352E+00 0.  1.
</event>
<event>
 5   0  0.3757406E-07  0.3317284E+04  0.7818609E-02  0.8158511E-01
        1   -1    0    0  501    0  0.00000000000E+00  0.00000000000E+00  0.19069580495E+04  0.19069580495E+04  0.50400001928E-02 0. -1.
       -1   -1    0    0    0  501  0.00000000000E+00  0.00000000000E+00 -0.14426609968E+04  0.14426609968E+04  0.50400001928E-02 0.  1.
    10030    2    1    2    0    0  0.00000000000E+00  0.00000000000E+00  0.46429705275E+03  0.33496190463E+04  0.33172844319E+04 0.  0.
        1    1    3    3  502    0 -0.14313281255E+04 -0.42324578972E+03 -0.49826725311E+03  0.15735652058E+04  0.50400001928E-02 0.  1.
       -1    1    3    3    0  502  0.14313281255E+04  0.42324578972E+03  0.96256430586E+03  0.17760538405E+04  0.50400001928E-02 0. -1.
</event>
<event>
 5   0  0.1129434E-06  0.3276039E+04  0.7818609E-02  0.8169019E-01
        2   -1    0    0  501    0  0.00000000000E+00  0.00000000000E+00  0.19118766809E+04  0.19118766809E+04  0.25500000920E-02 0.  1.
       -2   -1    0    0    0  501  0.00000000000E+00  0.00000000000E+00 -0.14033895768E+04  0.14033895768E+04  0.25500000920E-02 0. -1.
    10030    2    1    2    0    0  0.00000000000E+00  0.00000000000E+00  0.50848710408E+03  0.33152662576E+04  0.32760389534E+04 0.  0.
        3    1    3    3  502    0  0.49480135411E+03  0.11583738989E+04 -0.80540936714E+03  0.14951062600E+04  0.10100000352E+00 0. -1.
       -3    1    3    3    0  502 -0.49480135411E+03 -0.11583738989E+04  0.13138964712E+04  0.18201599977E+04  0.10100000352E+00 0.  1.
</event>
<event>
 5   0  0.1120545E-06  0.3344741E+04  0.7818609E-02  0.8151603E-01
       -2   -1    0    0    0  501  0.00000000000E+00  0.00000000000E+00  0.11617611581E+04  0.11617611581E+04  0.25500000920E-02 0. -1.
        2   -1    0    0  501    0  0.00000000000E+00  0.00000000000E+00 -0.24073999558E+04  0.24073999558E+04  0.25500000920E-02 0.  1.
    10030    2    1    2    0    0  0.00000000000E+00  0.00000000000E+00 -0.12456387978E+04  0.35691611139E+04  0.33447414015E+04 0.  0.
        4    1    3    3  502    0  0.14600185853E+04  0.13675140310E+03  0.23515981071E+03  0.14851454356E+04  0.12699999809E+01 0. -1.
       -4    1    3    3    0  502 -0.14600185853E+04 -0.13675140310E+03 -0.14807986085E+04  0.20840156783E+04  0.12699999809E+01 0.  1.
</event>
<event>
 5   0  0.3757406E-07  0.3298371E+04  0.7818609E-02  0.8163310E-01
       -1   -1    0    0    0  501  0.00000000000E+00  0.00000000000E+00  0.96909428832E+03  0.96909428833E+03  0.50400001928E-02 0.  1.
        1   -1    0    0  501    0  0.00000000000E+00  0.00000000000E+00 -0.28065506045E+04  0.28065506045E+04  0.50400001928E-02 0. -1.
    10030    2    1    2    0    0  0.00000000000E+00  0.00000000000E+00 -0.18374563162E+04  0.37756448929E+04  0.32983706043E+04 0.  0.
        1    1    3    3  502    0 -0.44027541917E+03 -0.97228861988E+02  0.89717030380E+03  0.10040968332E+04  0.50400001928E-02 0.  1.
       -1    1    3    3    0  502  0.44027541917E+03  0.97228861988E+02 -0.27346266200E+04  0.27715480597E+04  0.50400001928E-02 0. -1.
</event>
<event>
 5   0  0.3757406E-07  0.3304287E+04  0.7818609E-02  0.8161805E-01
        1   -1    0    0  501    0  0.00000000000E+00  0.00000000000E+00  0.19737060919E+04  0.19737060919E+04  0.50400001928E-02 0. -1.
       -1   -1    0    0    0  501  0.00000000000E+00  0.00000000000E+00 -0.13829710405E+04  0.13829710405E+04  0.50400001928E-02 0.  1.
    10030    2    1    2    0    0  0.00000000000E+00  0.00000000000E+00  0.59073505141E+03  0.33566771324E+04  0.33042871350E+04 0.  0.
        1    1    3    3  502    0 -0.90813069513E+03  0.13465869144E+04  0.60278867830E+03  0.17324410143E+04  0.50400001928E-02 0. -1.
       -1    1    3    3    0  502  0.90813069513E+03 -0.13465869144E+04 -0.12053626891E+02  0.16242361181E+04  0.50400001928E-02 0.  1.
</event>
<event>
 5   0  0.1126221E-06  0.3309566E+04  0.7818609E-02  0.8160466E-01
       -2   -1    0    0    0  501  0.00000000000E+00  0.00000000000E+00  0.12563288282E+04  0.12563288283E+04  0.25500000920E-02 0.  1.
        2   -1    0    0  501    0  0.00000000000E+00  0.00000000000E+00 -0.21796102425E+04  0.21796102425E+04  0.25500000920E-02 0. -1.
    10030    2    1    2    0    0  0.00000000000E+00  0.00000000000E+00 -0.92328141424E+03  0.34359390707E+04  0.33095662447E+04 0.  0.
        2    1    3    3  502    0 -0.16263175240E+04  0.14208532954E+02 -0.77857879602E+03  0.18031349126E+04  0.25500000920E-02 0. -1.
       -2    1    3    3    0  502  0.16263175240E+04 -0.14208532954E+02 -0.14470261822E+03  0.16328041582E+04  0.25500000920E-02 0.  1.
</event>
<event>
 5   0  0.1129434E-06  0.3288776E+04  0.7818609E-02  0.8165757E-01
        2   -1    0    0  501    0  0.00000000000E+00  0.00000000000E+00  0.15512065428E+04  0.15512065428E+04  0.25500000920E-02 0. -1.
       -2   -1    0    0    0  501  0.00000000000E+00  0.00000000000E+00 -0.17431670959E+04  0.17431670959E+04  0.25500000920E-02 0.  1.
    10030    2    1    2    0    0  0.00000000000E+00  0.00000000000E+00 -0.19196055309E+03  0.32943736386E+04  0.32887761884E+04 0.  0.
        3    1    3    3  502    0 -0.64040216278E+03  0.14924137029E+04  0.16252600178E+03  0.16321238624E+04  0.10100000352E+00 0. -1.
       -3    1    3    3    0  502  0.64040216278E+03 -0.14924137029E+04 -0.35448655487E+03  0.16622497762E+04  0.10100000352E+00 0.  1.
</event>
<event>
 5   0  0.3709747E-07  0.3301835E+04  0.7818609E-02  0.8162429E-01
       -1   -1    0    0    0  501  0.00000000000E+00  0.00000000000E+00  0.12534249395E+04  0.12534249395E+04  0.50400001928E-02 0.  1.
        1   -1    0    0  501    0  0.00000000000E+00  0.00000000000E+00 -0.21744647537E+04  0.21744647537E+04  0.50400001928E-02 0. -1.
    10030    2    1    2    0    0  0.00000000000E+00  0.00000000000E+00 -0.92103981423E+03  0.34278896932E+04  0.33018348549E+04 0.  0.
        4    1    3    3  502    0  0.16297750265E+04 -0.23900466905E+03 -0.34567634035E+03  0.16830875242E+04  0.12699999809E+01 0. -1.
       -4    1    3    3    0  502 -0.16297750265E+04  0.23900466905E+03 -0.57536347389E+03  0.17448021690E+04  0.12699999809E+01 0.  1.
</event>
<event>
 5   0  0.3674967E-07  0.3355489E+04  0.7818609E-02  0.8148918E-01
       -1   -1    0    0    0  501  0.00000000000E+00  0.00000000000E+00  0.25189282791E+04  0.25189282791E+04  0.50400001928E-02 0.  1.
        1   -1    0    0  501    0  0.00000000000E+00  0.00000000000E+00 -0.11174700887E+04  0.11174700887E+04  0.50400001928E-02 0. -1.
    10030    2    1    2    0    0  0.00000000000E+00  0.00000000000E+00  0.14014581904E+04  0.36363983678E+04  0.33554892385E+04 0.  0.
        2    1    3    3  502    0  0.76212631663E+03 -0.66846225171E+03 -0.74802924452E+03  0.12598516004E+04  0.25500000920E-02 0. -1.
       -2    1    3    3    0  502 -0.76212631663E+03  0.66846225171E+03  0.21494874349E+04  0.23765467673E+04  0.25500000920E-02 0.  1.
</event>
<event>
 5   0  0.3757406E-07  0.3295868E+04  0.7818609E-02  0.8163948E-01
       -1   -1    0    0    0  501  0.00000000000E+00  0.00000000000E+00  0.11194529792E+04  0.11194529792E+04  0.50400001928E-02 0.  1.
        1   -1    0    0  501    0  0.00000000000E+00  0.00000000000E+00 -0.24259043954E+04  0.24259043954E+04  0.50400001928E-02 0. -1.
    10030    2    1    2    0    0  0.00000000000E+00  0.00000000000E+00 -0.13064514163E+04  0.35453573746E+04  0.32958676567E+04 0.  0.
        1    1    3    3  502    0  0.83045021561E+03 -0.14204118536E+04 -0.75221625249E+03  0.18091563462E+04  0.50400001928E-02 0.  1.
       -1    1    3    3    0  502 -0.83045021561E+03  0.14204118536E+04 -0.55423516377E+03  0.17362010284E+04  0.50400001928E-02 0. -1.
</event>
<event>
 5   0  0.1126221E-06  0.3319449E+04  0.7818609E-02  0.8157964E-01
       -2   -1    0    0    0  501  0.00000000000E+00  0.00000000000E+00  0.14076874282E+04  0.14076874282E+04  0.25500000920E-02 0. -1.
        2   -1    0    0  501    0  0.00000000000E+00  0.00000000000E+00 -0.19568876295E+04  0.19568876295E+04  0.25500000920E-02 0.  1.
    10030    2    1    2    0    0  0.00000000000E+00  0.00000000000E+00 -0.54920020137E+03  0.33645750577E+04  0.33194494208E+04 0.  0.
        2    1    3    3  502    0 -0.98410385474E+03  0.12826015802E+04 -0.65541883413E+03  0.17444486403E+04  0.25500000920E-02 0.  1.
       -2    1    3    3    0  502  0.98410385474E+03 -0.12826015802E+04  0.10621863275E+03  0.16201264174E+04  0.25500000920E-02 0. -1.
</event>
<event>
 5   0  0.3796529E-07  0.3273484E+04  0.7818609E-02  0.8169675E-01
        1   -1    0    0  501    0  0.00000000000E+00  0.00000000000E+00  0.15632082450E+04  0.15632082450E+04  0.50400001928E-02 0.  1.
       -1   -1    0    0    0  501  0.00000000000E+00  0.00000000000E+00 -0.17137344502E+04  0.17137344502E+04  0.50400001928E-02 0. -1.
    10030    2    1    2    0    0  0.00000000000E+00  0.00000000000E+00 -0.15052620519E+03  0.32769426952E+04  0.32734836625E+04 0.  0.
        5    1    3    3  502    0 -0.62881956939E+03 -0.78143513665E+03  0.12194893881E+04  0.15789969542E+04  0.46999998093E+01 0.  1.
       -5    1    3    3    0  502  0.62881956939E+03  0.78143513665E+03 -0.13700155932E+04  0.16979457410E+04  0.46999998093E+01 0. -1.
</event>
<event>
 5   0  0.3749685E-07  0.3267689E+04  0.7818609E-02  0.8171166E-01
       -1   -1    0    0    0  501  0.00000000000E+00  0.00000000000E+00  0.13589454380E+04  0.13589454381E+04  0.50400001928E-02 0. -1.
        1   -1    0    0  501    0  0.00000000000E+00  0.00000000000E+00 -0.19643529220E+04  0.19643529220E+04  0.50400001928E-02 0.  1.
    10030    2    1    2    0    0  0.00000000000E+00  0.00000000000E+00 -0.60540748392E+03  0.33232983600E+04  0.32676893623E+04 0.  0.
        3    1    3    3  502    0 -0.21800100953E+03  0.10110708981E+04 -0.15890040139E+04  0.18959753605E+04  0.10100000352E+00 0.  1.
       -3    1    3    3    0  502  0.21800100953E+03 -0.10110708981E+04  0.98359652997E+03  0.14273229996E+04  0.10100000352E+00 0. -1.
</event>
<event>
 5   0  0.1129434E-06  0.3293594E+04  0.7818609E-02  0.8164527E-01
        2   -1    0    0  501    0  0.00000000000E+00  0.00000000000E+00  0.21131182295E+04  0.21131182295E+04  0.25500000920E-02 0.  1.
       -2   -1    0    0    0  501  0.00000000000E+00  0.00000000000E+00 -0.12833828809E+04  0.12833828809E+04  0.25500000920E-02 0. -1.
    10030    2    1    2    0    0  0.00000000000E+00  0.00000000000E+00  0.82973534859E+03  0.33965011105E+04  0.32935936368E+04 0.  0.
        3    1    3    3  502    0  0.38334275217E+03  0.15181541677E+04  0.94089954913E+03  0.18267555157E+04  0.10100000352E+00 0.  1.
       -3    1    3    3    0  502 -0.38334275217E+03 -0.15181541677E+04 -0.11116420054E+03  0.15697455947E+04  0.10100000352E+00 0. -1.
</event>
<event>
 5   0  0.1129434E-06  0.3324221E+04  0.7818609E-02  0.8156760E-01
        2   -1    0    0  501    0  0.00000000000E+00  0.00000000000E+00  0.15668764125E+04  0.15668764125E+04  0.25500000920E-02 0. -1.
       -2   -1    0    0    0  501  0.00000000000E+00  0.00000000000E+00 -0.17631325277E+04  0.17631325277E+04  0.25500000920E-02 0.  1.
    10030    2    1    2    0    0  0.00000000000E+00  0.00000000000E+00 -0.19625611525E+03  0.33300089403E+04  0.33242206725E+04 0.  0.
        3    1    3    3  502    0  0.89141898148E+03  0.91736230293E+03  0.96505374641E+03  0.16023451997E+04  0.10100000352E+00 0. -1.
       -3    1    3    3    0  502 -0.89141898148E+03 -0.91736230293E+03 -0.11613098617E+04  0.17276637405E+04  0.10100000352E+00 0.  1.
</event>
<event>
 5   0  0.3757406E-07  0.3342684E+04  0.7818609E-02  0.8152119E-01
       -1   -1    0    0    0  501  0.00000000000E+00  0.00000000000E+00  0.12731055513E+04  0.12731055513E+04  0.50400001928E-02 0.  1.
        1   -1    0    0  501    0  0.00000000000E+00  0.00000000000E+00 -0.21941495518E+04  0.21941495518E+04  0.50400001928E-02 0. -1.
    10030    2    1    2    0    0  0.00000000000E+00  0.00000000000E+00 -0.92104400054E+03  0.34672551031E+04  0.33426839364E+04 0.  0.
        1    1    3    3  502    0 -0.35839472115E+03  0.13352493419E+04 -0.14346952412E+04  0.19924075929E+04  0.50400001928E-02 0. -1.
       -1    1    3    3    0  502  0.35839472115E+03 -0.13352493419E+04  0.51365124065E+03  0.14748475102E+04  0.50400001928E-02 0.  1.
</event>
<event>
 5   0  0.1116462E-06  0.3279444E+04  0.7818609E-02  0.8168146E-01
       -2   -1    0    0    0  501  0.00000000000E+00  0.00000000000E+00  0.10769714990E+04  0.10769714990E+04  0.25500000920E-02 0. -1.
        2   -1    0    0  501    0  0.00000000000E+00  0.00000000000E+00 -0.24965269867E+04  0.24965269867E+04  0.25500000920E-02 0.  1.
    10030    2    1    2    0    0  0.00000000000E+00  0.00000000000E+00 -0.14195554878E+04  0.35734984857E+04  0.32794441060E+04 0.  0.
        1    1    3    3  502    0 -0.57868070888E+03  0.42371869238E+02  0.96136685147E+03  0.11228949021E+04  0.50400001928E-02 0. -1.
       -1    1    3    3    0  502  0.57868070888E+03 -0.42371869238E+02 -0.23809223392E+04  0.24506035835E+04  0.50400001928E-02 0.  1.
</event>
<event>
 5   0  0.3709747E-07  0.3315484E+04  0.7818609E-02  0.8158967E-01
        1   -1    0    0  501    0  0.00000000000E+00  0.00000000000E+00  0.21613970555E+04  0.21613970555E+04  0.50400001928E-02 0. -1.
       -1   -1    0    0    0  501  0.00000000000E+00  0.00000000000E+00 -0.12714503275E+04  0.12714503275E+04  0.50400001928E-02 0.  1.
    10030    2    1    2    0    0  0.00000000000E+00  0.00000000000E+00  0.88994672802E+03  0.34328473831E+04  0.33154842748E+04 0.  0.
        4    1    3    3  502    0 -0.64267385080E+03  0.12445953308E+04 -0.47301128304E+03  0.14784412409E+04  0.12699999809E+01 0.  1.
       -4    1    3    3    0  502  0.64267385080E+03 -0.12445953308E+04  0.13629580111E+04  0.19544061422E+04  0.12699999809E+01 0. -1.
</event>
<event>
 5   0  0.3757406E-07  0.3278824E+04  0.7818609E-02  0.8168304E-01
        1   -1    0    0  501    0  0.00000000000E+00  0.00000000000E+00  0.19344700559E+04  0.19344700559E+04  0.50400001928E-02 0.  1.
       -1   -1    0    0    0  501  0.00000000000E+00  0.00000000000E+00 -0.13893585472E+04  0.13893585472E+04  0.50400001928E-02 0. -1.
    10030    2    1    2    0    0  0.00000000000E+00  0.00000000000E+00  0.54511150872E+03  0.33238286031E+04  0.32788244884E+04 0.  0.
        1    1    3    3  502    0 -0.65669047429E+03 -0.10399433883E+04  0.13713838397E+04  0.18421233036E+04  0.50400001928E-02 0.  1.
       -1    1    3    3    0  502  0.65669047429E+03  0.10399433883E+04 -0.82627233094E+03  0.14817052996E+04  0.50400001928E-02 0. -1.
</event>
<event>
 5   0  0.3674967E-07  0.3316605E+04  0.7818609E-02  0.8158683E-01
       -1   -1    0    0    0  501  0.00000000000E+00  0.00000000000E+00  0.13033417559E+04  0.13033417559E+04  0.50400001928E-02 0.  1.
        1   -1    0    0  501    0  0.00000000000E+00  0.00000000000E+00 -0.21099358366E+04  0.21099358367E+04  0.50400001928E-02 0. -1.
    10030    2    1    2    0    0  0.00000000000E+00  0.00000000000E+00 -0.80659408078E+03  0.34132775925E+04  0.33166051789E+04 0.  0.
        2    1    3    3  502    0 -0.46055283359E+03  0.15608879363E+04 -0.75440439180E+02  0.16291627672E+04  0.25500000920E-02 0.  1.
       -2    1    3    3    0  502  0.46055283359E+03 -0.15608879363E+04 -0.73115364160E+03  0.17841148253E+04  0.25500000920E-02 0. -1.
</event>
<event>
 5   0  0.1116462E-06  0.3233044E+04  0.7818609E-02  0.8180144E-01
        2   -1    0    0  501    0  0.00000000000E+00  0.00000000000E+00  0.22743348125E+04  0.22743348125E+04  0.25500000920E-02 0. -1.
       -2   -1    0    0    0  501  0.00000000000E+00  0.00000000000E+00 -0.11489702893E+04  0.11489702893E+04  0.25500000920E-02 0.  1.
    10030    2    1    2    0    0  0.00000000000E+00  0.00000000000E+00  0.11253645232E+04  0.34233051018E+04  0.32330438459E+04 0.  0.
        1    1    3    3  502    0  0.53175132599E+03 -0.56381936685E+03 -0.93942528102E+03  0.12178553320E+04  0.50400001928E-02 0.  1.
       -1    1    3    3    0  502 -0.53175132599E+03  0.56381936685E+03  0.20647898042E+04  0.22054497697E+04  0.50400001928E-02 0. -1.
</event>
<event>
 5   0  0.3709747E-07  0.3288777E+04  0.7818609E-02  0.8165757E-01
        1   -1    0    0  501    0  0.00000000000E+00  0.00000000000E+00  0.11786746874E+04  0.11786746875E+04  0.50400001928E-02 0. -1.
       -1   -1    0    0    0  501  0.00000000000E+00  0.00000000000E+00 -0.22941136012E+04  0.22941136012E+04  0.50400001928E-02 0.  1.
    10030    2    1    2    0    0  0.00000000000E+00  0.00000000000E+00 -0.11154389137E+04  0.34727882887E+04  0.32887770565E+04 0.  0.
        4    1    3    3  502    0  0.10887851062E+04  0.10681843295E+04 -0.12065422209E+04  0.19447921516E+04  0.12699999809E+01 0. -1.
       -4    1    3    3    0  502 -0.10887851062E+04 -0.10681843295E+04  0.91103307169E+02  0.15279961370E+04  0.12699999809E+01 0.  1.
</event>
<event>
 5   0  0.3674967E-07  0.3170261E+04  0.7818609E-02  0.8196716E-01
        1   -1    0    0  501    0  0.00000000000E+00  0.00000000000E+00  0.22572058411E+04  0.22572058411E+04  0.50400001928E-02 0.  1.
       -1   -1    0    0    0  501  0.00000000000E+00  0.00000000000E+00 -0.11131634527E+04  0.11131634528E+04  0.50400001928E-02 0. -1.
    10030    2    1    2    0    0  0.00000000000E+00  0.00000000000E+00  0.11440423884E+04  0.33703692939E+04  0.31702612181E+04 0.  0.
        2    1    3    3  502    0 -0.27562072216E+03  0.13026082413E+04  0.14864802596E+04  0.19955897812E+04  0.25500000920E-02 0.  1.
       -2    1    3    3    0  502  0.27562072216E+03 -0.13026082413E+04 -0.34243787120E+03  0.13747795127E+04  0.25500000920E-02 0. -1.
</event>
<event>
 5   0  0.1126221E-06  0.3261791E+04  0.7818609E-02  0.8172686E-01
        2   -1    0    0  501    0  0.00000000000E+00  0.00000000000E+00  0.22856682810E+04  0.22856682810E+04  0.25500000920E-02 0.  1.
       -2   -1    0    0    0  501  0.00000000000E+00  0.00000000000E+00 -0.11636950090E+04  0.11636950090E+04  0.25500000920E-02 0. -1.
    10030    2    1    2    0    0  0.00000000000E+00  0.00000000000E+00  0.11219732719E+04  0.34493632900E+04  0.32617913918E+04 0.  0.
        2    1    3    3  502    0  0.85156105082E+03 -0.16388989620E+03 -0.89967528087E+03  0.12495726199E+04  0.25500000920E-02 0. -1.
       -2    1    3    3    0  502 -0.85156105082E+03  0.16388989620E+03  0.20216485528E+04  0.21997906701E+04  0.25500000920E-02 0.  1.
</event>
<event>
 5   0  0.3749685E-07  0.3193285E+04  0.7818609E-02  0.8190593E-01
       -1   -1    0    0    0  501  0.00000000000E+00  0.00000000000E+00  0.15141127064E+04  0.15141127065E+04  0.50400001928E-02 0.  1.
        1   -1    0    0  501    0  0.00000000000E+00  0.00000000000E+00 -0.16836705438E+04  0.16836705439E+04  0.50400001928E-02 0. -1.
    10030    2    1    2    0    0  0.00000000000E+00  0.00000000000E+00 -0.16955783740E+03  0.31977832503E+04  0.31932848066E+04 0.  0.
        3    1    3    3  502    0  0.73767693301E+03 -0.12105910143E+04 -0.82036736786E+03  0.16378951401E+04  0.10100000352E+00 0. -1.
       -3    1    3    3    0  502 -0.73767693301E+03  0.12105910143E+04  0.65080953046E+03  0.15598881103E+04  0.10100000352E+00 0.  1.
</event>
<event>
 5   0  0.1146799E-06  0.3287946E+04  0.7818609E-02  0.8165969E-01
        2   -1    0    0  501    0  0.00000000000E+00  0.00000000000E+00  0.10134519694E+04  0.10134519694E+04  0.25500000920E-02 0. -1.
       -2   -1    0    0    0  501  0.00000000000E+00  0.00000000000E+00 -0.26667742827E+04  0.26667742827E+04  0.25500000920E-02 0.  1.
    10030    2    1    2    0    0  0.00000000000E+00  0.00000000000E+00 -0.16533223133E+04  0.36802262521E+04  0.32879462579E+04 0.  0.
        5    1    3    3  502    0 -0.13884165191E+04  0.87363029976E+03 -0.94770818956E+03  0.18944928698E+04  0.46999998093E+01 0.  1.
       -5    1    3    3    0  502  0.13884165191E+04 -0.87363029976E+03 -0.70561412376E+03  0.17857333823E+04  0.46999998093E+01 0. -1.
</event>
<event>
 5   0  0.3749685E-07  0.3269122E+04  0.7818609E-02  0.8170797E-01
        1   -1    0    0  501    0  0.00000000000E+00  0.00000000000E+00  0.12757960743E+04  0.12757960743E+04  0.50400001928E-02 0. -1.
       -1   -1    0    0    0  501  0.00000000000E+00  0.00000000000E+00 -0.20942134056E+04  0.20942134056E+04  0.50400001928E-02 0.  1.
    10030    2    1    2    0    0  0.00000000000E+00  0.00000000000E+00 -0.81841733129E+03  0.33700094799E+04  0.32691217424E+04 0.  0.
        3    1    3    3  502    0  0.12122021532E+04 -0.10476779818E+04 -0.75607681764E+02  0.16039886987E+04  0.10100000352E+00 0. -1.
       -3    1    3    3    0  502 -0.12122021532E+04  0.10476779818E+04 -0.74280964952E+03  0.17660207812E+04  0.10100000352E+00 0.  1.
</event>
<event>
 5   0  0.1126221E-06  0.3310886E+04  0.7818609E-02  0.8160131E-01
       -2   -1    0    0    0  501  0.00000000000E+00  0.00000000000E+00  0.16588228933E+04  0.16588228933E+04  0.25500000920E-02 0. -1.
        2   -1    0    0  501    0  0.00000000000E+00  0.00000000000E+00 -0.16520695410E+04  0.16520695410E+04  0.25500000920E-02 0.  1.
    10030    2    1    2    0    0  0.00000000000E+00  0.00000000000E+00  0.67533522097E+01  0.33108924343E+04  0.33108855468E+04 0.  0.
        2    1    3    3  502    0 -0.10464765844E+04 -0.73095615751E+03 -0.10507036115E+04  0.16532961698E+04  0.25500000920E-02 0.  1.
       -2    1    3    3    0  502  0.10464765844E+04  0.73095615751E+03  0.10574569638E+04  0.16575962645E+04  0.25500000920E-02 0. -1.
</event>
<event>
 5   0  0.1126221E-06  0.3393300E+04  0.7818609E-02  0.8139553E-01
       -2   -1    0    0    0  501  0.00000000000E+00  0.00000000000E+00  0.14887465789E+04  0.14887465789E+04  0.25500000920E-02 0. -1.
        2   -1    0    0  501    0  0.00000000000E+00  0.00000000000E+00 -0.19335869381E+04  0.19335869382E+04  0.25500000920E-02 0.  1.
    10030    2    1    2    0    0  0.00000000000E+00  0.00000000000E+00 -0.44484035929E+03  0.34223335170E+04  0.33932998330E+04 0.  0.
        2    1    3    3  502    0 -0.12826914331E+04  0.88718657100E+03 -0.89613541713E+03  0.17987373377E+04  0.25500000920E-02 0.  1.
       -2    1    3    3    0  502  0.12826914331E+04 -0.88718657100E+03  0.45129505785E+03  0.16235961793E+04  0.25500000920E-02 0. -1.
</event>
<event>
 5   0  0.3757406E-07  0.3279977E+04  0.7818609E-02  0.8168009E-01
        1   -1    0    0  501    0  0.00000000000E+00  0.00000000000E+00  0.30008053328E+04  0.30008053328E+04  0.50400001928E-02 0. -1.
       -1   -1    0    0    0  501  0.00000000000E+00  0.00000000000E+00 -0.89628026649E+03  0.89628026650E+03  0.50400001928E-02 0.  1.
    10030    2    1    2    0    0  0.00000000000E+00  0.00000000000E+00  0.21045250664E+04  0.38970855993E+04  0.32799771971E+04 0.  0.
        1    1    3    3  502    0  0.72495082944E+03  0.10871758407E+04 -0.12517424955E+03  0.13126970734E+04  0.50400001928E-02 0.  1.
       -1    1    3    3    0  502 -0.72495082944E+03 -0.10871758407E+04  0.22296993159E+04  0.25843885260E+04  0.50400001928E-02 0. -1.
</event>
<event>
 5   0  0.1129434E-06  0.3210589E+04  0.7818609E-02  0.8186026E-01
        2   -1    0    0  501    0  0.00000000000E+00  0.00000000000E+00  0.16982760334E+04  0.16982760335E+04  0.25500000920E-02 0. -1.
       -2   -1    0    0    0  501  0.00000000000E+00  0.00000000000E+00 -0.15174040935E+04  0.15174040935E+04  0.25500000920E-02 0.  1.
    10030    2    1    2    0    0  0.00000000000E+00  0.00000000000E+00  0.18087193993E+03  0.32156801270E+04  0.32105893572E+04 0.  0.
        3    1    3    3  502    0  0.65794238228E+02  0.13601916710E+04 -0.76092401983E+03  0.15599537294E+04  0.10100000352E+00 0.  1.
       -3    1    3    3    0  502 -0.65794238228E+02 -0.13601916710E+04  0.94179595976E+03  0.16557263976E+04  0.10100000352E+00 0. -1.
</event>
<event>
 5   0  0.1126221E-06  0.3302583E+04  0.7818609E-02  0.8162238E-01
       -2   -1    0    0    0  501  0.00000000000E+00  0.00000000000E+00  0.17246261973E+04  0.17246261973E+04  0.25500000920E-02 0.  1.
        2   -1    0    0  501    0  0.00000000000E+00  0.00000000000E+00 -0.15810750053E+04  0.15810750053E+04  0.25500000920E-02 0. -1.
    10030    2    1    2    0    0  0.00000000000E+00  0.00000000000E+00  0.14355119204E+03  0.33057012026E+04  0.33025828523E+04 0.  0.
        2    1    3    3  502    0  0.95558003720E+03  0.11020697918E+04  0.84650405269E+03  0.16864934464E+04  0.25500000920E-02 0. -1.
       -2    1    3    3    0  502 -0.95558003720E+03 -0.11020697918E+04 -0.70295286064E+03  0.16192077562E+04  0.25500000920E-02 0.  1.
</event>
<event>
 5   0  0.3749685E-07  0.3301100E+04  0.7818609E-02  0.8162616E-01
        1   -1    0    0  501    0  0.00000000000E+00  0.00000000000E+00  0.21593301575E+04  0.21593301575E+04  0.50400001928E-02 0. -1.
       -1   -1    0    0    0  501  0.00000000000E+00  0.00000000000E+00 -0.12616484714E+04  0.12616484714E+04  0.50400001928E-02 0.  1.
    10030    2    1    2    0    0  0.00000000000E+00  0.00000000000E+00  0.89768168613E+03  0.34209786289E+04  0.33011001757E+04 0.  0.
        3    1    3    3  502    0 -0.10852527615E+04  0.61847275355E+03 -0.66924305501E+03  0.14170985781E+04  0.10100000352E+00 0.  1.
       -3    1    3    3    0  502  0.10852527615E+04 -0.61847275355E+03  0.15669247411E+04  0.20038800508E+04  0.10100000352E+00 0. -1.
</event>
<event>
 5   0  0.3796529E-07  0.3280266E+04  0.7818609E-02  0.8167935E-01
       -1   -1    0    0    0  501  0.00000000000E+00  0.00000000000E+00  0.16722453811E+04  0.16722453811E+04  0.50400001928E-02 0. -1.
        1   -1    0    0  501    0  0.00000000000E+00  0.00000000000E+00 -0.16086371291E+04  0.16086371291E+04  0.50400001928E-02 0.  1.
    10030    2    1    2    0    0  0.00000000000E+00  0.00000000000E+00  0.63608251972E+02  0.32808825102E+04  0.32802658483E+04 0.  0.
        5    1    3    3  502    0  0.14695150033E+04  0.22196029388E+03 -0.66206485971E+03  0.16269888400E+04  0.46999998093E+01 0.  1.
       -5    1    3    3    0  502 -0.14695150033E+04 -0.22196029388E+03  0.72567311168E+03  0.16538936701E+04  0.46999998093E+01 0. -1.
</event>
<event>
 5   0  0.3709747E-07  0.3339200E+04  0.7818609E-02  0.8152992E-01
        1   -1    0    0  501    0  0.00000000000E+00  0.00000000000E+00  0.29674298266E+04  0.29674298266E+04  0.50400001928E-02 0. -1.
       -1   -1    0    0    0  501  0.00000000000E+00  0.00000000000E+00 -0.93938664717E+03  0.93938664718E+03  0.50400001928E-02 0.  1.
    10030    2    1    2    0    0  0.00000000000E+00  0.00000000000E+00  0.20280431794E+04  0.39068164738E+04  0.33391998775E+04 0.  0.
        4    1    3    3  502    0  0.14623518598E+04  0.28275130827E+02  0.19560526482E+04  0.24424201154E+04  0.12699999809E+01 0. -1.
       -4    1    3    3    0  502 -0.14623518598E+04 -0.28275130827E+02  0.71990531180E+02  0.14643963583E+04  0.12699999809E+01 0.  1.
</event>
<event>
 5   0  0.1129434E-06  0.3605838E+04  0.7818609E-02  0.8089156E-01
       -2   -1    0    0    0  501  0.00000000000E+00  0.00000000000E+00  0.14155117902E+04  0.14155117902E+04  0.25500000920E-02 0.  1.
        2   -1    0    0  501    0  0.00000000000E+00  0.00000000000E+00 -0.22963547966E+04  0.22963547966E+04  0.25500000920E-02 0. -1.
    10030    2    1    2    0    0  0.00000000000E+00  0.00000000000E+00 -0.88084300644E+03  0.37118665868E+04  0.36058382044E+04 0.  0.
        3    1    3    3  502    0 -0.12884593745E+04 -0.10359117921E+04 -0.11807892443E+04  0.20316259622E+04  0.10100000352E+00 0. -1.
       -3    1    3    3    0  502  0.12884593745E+04  0.10359117921E+04  0.29994623788E+03  0.16802406246E+04  0.10100000352E+00 0.  1.
</event>
<event>
 5   0  0.1126221E-06  0.3279223E+04  0.7818609E-02  0.8168202E-01
       -2   -1    0    0    0  501  0.00000000000E+00  0.00000000000E+00  0.14495128127E+04  0.14495128127E+04  0.25500000920E-02 0. -1.
        2   -1    0    0  501    0  0.00000000000E+00  0.00000000000E+00 -0.18546407017E+04  0.18546407017E+04  0.25500000920E-02 0.  1.
    10030    2    1    2    0    0  0.00000000000E+00  0.00000000000E+00 -0.40512788906E+03  0.33041535144E+04  0.32792227494E+04 0.  0.
        2    1    3    3  502    0  0.57493445433E+03 -0.11271706417E+04  0.84808212217E+03  0.15232552538E+04  0.25500000920E-02 0. -1.
       -2    1    3    3    0  502 -0.57493445433E+03  0.11271706417E+04 -0.12532100112E+04  0.17808982606E+04  0.25500000920E-02 0.  1.
</event>
<event>
 5   0  0.1120545E-06  0.3317498E+04  0.7818609E-02  0.8158457E-01
       -2   -1    0    0    0  501  0.00000000000E+00  0.00000000000E+00  0.13492260495E+04  0.13492260495E+04  0.25500000920E-02 0. -1.
        2   -1    0    0  501    0  0.00000000000E+00  0.00000000000E+00 -0.20392790412E+04  0.20392790412E+04  0.25500000920E-02 0.  1.
    10030    2    1    2    0    0  0.00000000000E+00  0.00000000000E+00 -0.69005299171E+03  0.33885050908E+04  0.33174980963E+04 0.  0.
        4    1    3    3  502    0  0.69694100530E+03  0.55573943346E+03 -0.17738509001E+04  0.19852258591E+04  0.12699999809E+01 0.  1.
       -4    1    3    3    0  502 -0.69694100530E+03 -0.55573943346E+03  0.10837979084E+04  0.14032792317E+04  0.12699999809E+01 0. -1.
</event>
<event>
 5   0  0.3674967E-07  0.3291330E+04  0.7818609E-02  0.8165105E-01
        1   -1    0    0  501    0  0.00000000000E+00  0.00000000000E+00  0.18872301705E+04  0.18872301705E+04  0.50400001928E-02 0. -1.
       -1   -1    0    0    0  501  0.00000000000E+00  0.00000000000E+00 -0.14350201590E+04  0.14350201590E+04  0.50400001928E-02 0.  1.
    10030    2    1    2    0    0  0.00000000000E+00  0.00000000000E+00  0.45221001154E+03  0.33222503295E+04  0.32913300287E+04 0.  0.
        2    1    3    3  502    0  0.24543186418E+03  0.52938726095E+03 -0.13270922414E+04  0.14497108295E+04  0.25500000920E-02 0.  1.
       -2    1    3    3    0  502 -0.24543186418E+03 -0.52938726095E+03  0.17793022529E+04  0.18725395001E+04  0.25500000920E-02 0. -1.
</event>
<event>
 5   0  0.1129434E-06  0.3299667E+04  0.7818609E-02  0.8162980E-01
        2   -1    0    0  501    0  0.00000000000E+00  0.00000000000E+00  0.26934024494E+04  0.26934024494E+04  0.25500000920E-02 0. -1.
       -2   -1    0    0    0  501  0.00000000000E+00  0.00000000000E+00 -0.10105993869E+04  0.10105993869E+04  0.25500000920E-02 0.  1.
    10030    2    1    2    0    0  0.00000000000E+00  0.00000000000E+00  0.16828030625E+04  0.37040018364E+04  0.32996671736E+04 0.  0.
        3    1    3    3  502    0 -0.96516652629E+03 -0.80880331591E+03  0.20379668331E+04  0.23956247724E+04  0.10100000352E+00 0. -1.
       -3    1    3    3    0  502  0.96516652629E+03  0.80880331591E+03 -0.35516377057E+03  0.13083770639E+04  0.10100000352E+00 0.  1.
</event>
<event>
 5   0  0.1126221E-06  0.3313106E+04  0.7818609E-02  0.8159569E-01
        2   -1    0    0  501    0  0.00000000000E+00  0.00000000000E+00  0.19791896016E+04  0.19791896016E+04  0.25500000920E-02 0. -1.
       -2   -1    0    0    0  501  0.00000000000E+00  0.00000000000E+00 -0.13865110210E+04  0.13865110210E+04  0.25500000920E-02 0.  1.
    10030    2    1    2    0    0  0.00000000000E+00  0.00000000000E+00  0.59267858057E+03  0.33657006226E+04  0.33131062133E+04 0.  0.
        2    1    3    3  502    0  0.38283590597E+03  0.38778286903E+03  0.18855352671E+04  0.19626976659E+04  0.25500000920E-02 0. -1.
       -2    1    3    3    0  502 -0.38283590597E+03 -0.38778286903E+03 -0.12928566865E+04  0.14030029566E+04  0.25500000920E-02 0.  1.
</event>
<event>
 5   0  0.3757406E-07  0.3299840E+04  0.7818609E-02  0.8162936E-01
        1   -1    0    0  501    0  0.00000000000E+00  0.00000000000E+00  0.16579950224E+04  0.16579950224E+04  0.50400001928E-02 0.  1.
       -1   -1    0    0    0  501  0.00000000000E+00  0.00000000000E+00 -0.16418845430E+04  0.16418845430E+04  0.50400001928E-02 0. -1.
    10030    2    1    2    0    0  0.00000000000E+00  0.00000000000E+00  0.16110479437E+02  0.32998795654E+04  0.32998402384E+04 0.  0.
        1    1    3    3  502    0  0.50553700226E+03 -0.69822486154E+03 -0.13987844656E+04  0.16430713920E+04  0.50400001928E-02 0. -1.
       -1    1    3    3    0  502 -0.50553700226E+03  0.69822486154E+03  0.14148949451E+04  0.16568081734E+04  0.50400001928E-02 0.  1.
</event>
<event>
 5   0  0.3796529E-07  0.3294342E+04  0.7818609E-02  0.8164337E-01
        1   -1    0    0  501    0  0.00000000000E+00  0.00000000000E+00  0.21231734670E+04  0.21231734670E+04  0.50400001928E-02 0.  1.
       -1   -1    0    0    0  501  0.00000000000E+00  0.00000000000E+00 -0.12778850210E+04  0.12778850210E+04  0.50400001928E-02 0. -1.
    10030    2    1    2    0    0  0.00000000000E+00  0.00000000000E+00  0.84528844599E+03  0.34010584879E+04  0.32943415551E+04 0.  0.
        5    1    3    3  502    0 -0.94911706190E+02  0.12558180615E+04 -0.67337816872E+03  0.14281272645E+04  0.46999998093E+01 0. -1.
       -5    1    3    3    0  502  0.94911706190E+02 -0.12558180615E+04  0.15186666147E+04  0.19729312234E+04  0.46999998093E+01 0.  1.
</event>
<event>
 5   0  0.3709747E-07  0.3328189E+04  0.7818609E-02  0.8155760E-01
        1   -1    0    0  501    0  0.00000000000E+00  0.00000000000E+00  0.15647844881E+04  0.15647844881E+04  0.50400001928E-02 0. -1.
       -1   -1    0    0    0  501  0.00000000000E+00  0.00000000000E+00 -0.17697069016E+04  0.17697069016E+04  0.50400001928E-02 0.  1.
    10030    2    1    2    0    0  0.00000000000E+00  0.00000000000E+00 -0.20492241353E+03  0.33344913898E+04  0.33281886414E+04 0.  0.
        4    1    3    3  502    0  0.11216739092E+04  0.10577010302E+04  0.52508305562E+03  0.16286797279E+04  0.12699999809E+01 0. -1.
       -4    1    3    3    0  502 -0.11216739092E+04 -0.10577010302E+04 -0.73000546914E+03  0.17058116619E+04  0.12699999809E+01 0.  1.
</event>
<event>
 5   0  0.3749685E-07  0.3326454E+04  0.7818609E-02  0.8156197E-01
        1   -1    0    0  501    0  0.00000000000E+00  0.00000000000E+00  0.15398696505E+04  0.15398696505E+04  0.50400001928E-02 0.  1.
       -1   -1    0    0    0  501  0.00000000000E+00  0.00000000000E+00 -0.17964659887E+04  0.17964659887E+04  0.50400001928E-02 0. -1.
    10030    2    1    2    0    0  0.00000000000E+00  0.00000000000E+00 -0.25659633822E+03  0.33363356392E+04  0.33264536396E+04 0.  0.
        3    1    3    3  502    0  0.33798318272E+02 -0.61607850860E+03 -0.16774345620E+04  0.17873113258E+04  0.10100000352E+00 0. -1.
       -3    1    3    3    0  502 -0.33798318272E+02  0.61607850860E+03  0.14208382238E+04  0.15490243134E+04  0.10100000352E+00 0.  1.
</event>
<event>
 5   0  0.1129434E-06  0.3288640E+04  0.7818609E-02  0.8165792E-01
        2   -1    0    0  501    0  0.00000000000E+00  0.00000000000E+00  0.14228748380E+04  0.14228748380E+04  0.25500000920E-02 0.  1.
       -2   -1    0    0    0  501  0.00000000000E+00  0.00000000000E+00 -0.19002288204E+04  0.19002288204E+04  0.25500000920E-02 0. -1.
    10030    2    1    2    0    0  0.00000000000E+00  0.00000000000E+00 -0.47735398249E+03  0.33231036584E+04  0.32886397036E+04 0.  0.
        3    1    3    3  502    0  0.14575028546E+04  0.68262751361E+03  0.10174051406E+03  0.16126518644E+04  0.10100000352E+00 0.  1.
       -3    1    3    3    0  502 -0.14575028546E+04 -0.68262751361E+03 -0.57909449655E+03  0.17104517940E+04  0.10100000352E+00 0. -1.
</event>
<event>
 5   0  0.3709747E-07  0.3200288E+04  0.7818609E-02  0.8188741E-01
       -1   -1    0    0    0  501  0.00000000000E+00  0.00000000000E+00  0.15958635381E+04  0.15958635381E+04  0.50400001928E-02 0.  1.
        1   -1    0    0  501    0  0.00000000000E+00  0.00000000000E+00 -0.16044358353E+04  0.16044358353E+04  0.50400001928E-02 0. -1.
    10030    2    1    2    0    0  0.00000000000E+00  0.00000000000E+00 -0.85722972418E+01  0.32002993734E+04  0.32002878925E+04 0.  0.
        4    1    3    3  502    0  0.14427645369E+04 -0.68734847856E+03 -0.84545990573E+02  0.16003646701E+04  0.12699999809E+01 0.  1.
       -4    1    3    3    0  502 -0.14427645369E+04  0.68734847856E+03  0.75973693332E+02  0.15999347033E+04  0.12699999809E+01 0. -1.
</event>
<event>
 5   0  0.1116462E-06  0.3390383E+04  0.7818609E-02  0.8140271E-01
        2   -1    0    0  501    0  0.00000000000E+00  0.00000000000E+00  0.20956744640E+04  0.20956744640E+04  0.25500000920E-02 0. -1.
       -2   -1    0    0    0  501  0.00000000000E+00  0.00000000000E+00 -0.13712403963E+04  0.13712403963E+04  0.25500000920E-02 0.  1.
    10030    2    1    2    0    0  0.00000000000E+00  0.00000000000E+00  0.72443406768E+03  0.34669148604E+04  0.33903825641E+04 0.  0.
        1    1    3    3  502    0 -0.51194463356E+03  0.64099246132E+03 -0.11547507460E+04  0.14164772955E+04  0.50400001928E-02 0.  1.
       -1    1    3    3    0  502  0.51194463356E+03 -0.64099246132E+03  0.18791848137E+04  0.20504375648E+04  0.50400001928E-02 0. -1.
</event>
<event>
 5   0  0.3674967E-07  0.3323462E+04  0.7818609E-02  0.8156951E-01
        1   -1    0    0  501    0  0.00000000000E+00  0.00000000000E+00  0.21729148477E+04  0.21729148477E+04  0.50400001928E-02 0. -1.
       -1   -1    0    0    0  501  0.00000000000E+00  0.00000000000E+00 -0.12708048010E+04  0.12708048010E+04  0.50400001928E-02 0.  1.
    10030    2    1    2    0    0  0.00000000000E+00  0.00000000000E+00  0.90211004675E+03  0.34437196487E+04  0.33234624238E+04 0.  0.
        2    1    3    3  502    0 -0.15299226960E+04 -0.64712901312E+03  0.40575580872E+03  0.17099933309E+04  0.25500000920E-02 0. -1.
       -2    1    3    3    0  502  0.15299226960E+04  0.64712901312E+03  0.49635423802E+03  0.17337263178E+04  0.25500000920E-02 0.  1.
</event>
<event>
 5   0  0.3749685E-07  0.3302650E+04  0.7818609E-02  0.8162221E-01
        1   -1    0    0  501    0  0.00000000000E+00  0.00000000000E+00  0.99666856489E+03  0.99666856490E+03  0.50400001928E-02 0.  1.
       -1   -1    0    0    0  501  0.00000000000E+00  0.00000000000E+00 -0.27359897660E+04  0.27359897660E+04  0.50400001928E-02 0. -1.
    10030    2    1    2    0    0  0.00000000000E+00  0.00000000000E+00 -0.17393212011E+04  0.37326583309E+04  0.33026504469E+04 0.  0.
        3    1    3    3  502    0 -0.79777471444E+03  0.10713230407E+04  0.22768086423E+03  0.13549967301E+04  0.10100000352E+00 0.  1.
       -3    1    3    3    0  502  0.79777471444E+03 -0.10713230407E+04 -0.19670020653E+04  0.23776616007E+04  0.10100000352E+00 0. -1.
</event>
<event>
 5   0  0.1116462E-06  0.3268176E+04  0.7818609E-02  0.8171041E-01
       -2   -1    0    0    0  501  0.00000000000E+00  0.00000000000E+00  0.11146081679E+04  0.11146081679E+04  0.25500000920E-02 0. -1.
        2   -1    0    0  501    0  0.00000000000E+00  0.00000000000E+00 -0.23956787126E+04  0.23956787126E+04  0.25500000920E-02 0.  1.
    10030    2    1    2    0    0  0.00000000000E+00  0.00000000000E+00 -0.12810705447E+04  0.35102868805E+04  0.32681756751E+04 0.  0.
        1    1    3    3  502    0 -0.36076137374E+03 -0.15863546405E+04 -0.47562530024E+03  0.16949599524E+04  0.50400001928E-02 0. -1.
       -1    1    3    3    0  502  0.36076137374E+03  0.15863546405E+04 -0.80544524447E+03  0.18153269281E+04  0.50400001928E-02 0.  1.
</event>
<event>
 5   0  0.3709747E-07  0.3293385E+04  0.7818609E-02  0.8164581E-01
        1   -1    0    0  501    0  0.00000000000E+00  0.00000000000E+00  0.21132318246E+04  0.21132318246E+04  0.50400001928E-02 0. -1.
       -1   -1    0    0    0  501  0.00000000000E+00  0.00000000000E+00 -0.12831509843E+04  0.12831509843E+04  0.50400001928E-02 0.  1.
    10030    2    1    2    0    0  0.00000000000E+00  0.00000000000E+00  0.83008084024E+03  0.33963828089E+04  0.32933845787E+04 0.  0.
        4    1    3    3  502    0  0.33712713102E+03 -0.33890879381E+03  0.20401009542E+04  0.20953585347E+04  0.12699999809E+01 0. -1.
       -4    1    3    3    0  502 -0.33712713102E+03  0.33890879381E+03 -0.12100201139E+04  0.13010242742E+04  0.12699999809E+01 0.  1.
</event>
<event>
 5   0  0.1126221E-06  0.3317156E+04  0.7818609E-02  0.8158544E-01
        2   -1    0    0  501    0  0.00000000000E+00  0.00000000000E+00  0.20504926465E+04  0.20504926465E+04  0.25500000920E-02 0.  1.
       -2   -1    0    0    0  501  0.00000000000E+00  0.00000000000E+00 -0.13415707180E+04  0.13415707180E+04  0.25500000920E-02 0. -1.
    10030    2    1    2    0    0  0.00000000000E+00  0.00000000000E+00  0.70892192844E+03  0.33920633645E+04  0.33171559457E+04 0.  0.
        2    1    3    3  502    0 -0.78822400238E+03 -0.98979655689E+03 -0.74208179637E+03  0.14668604891E+04  0.25500000920E-02 0. -1.
       -2    1    3    3    0  502  0.78822400238E+03  0.98979655689E+03  0.14510037248E+04  0.19252028754E+04  0.25500000920E-02 0.  1.
</event>
<event>
 5   0  0.3796529E-07  0.3289799E+04  0.7818609E-02  0.8165496E-01
        1   -1    0    0  501    0  0.00000000000E+00  0.00000000000E+00  0.10549138986E+04  0.10549138986E+04  0.50400001928E-02 0. -1.
       -1   -1    0    0    0  501  0.00000000000E+00  0.00000000000E+00 -0.25648488756E+04  0.25648488756E+04  0.50400001928E-02 0.  1.
    10030    2    1    2    0    0  0.00000000000E+00  0.00000000000E+00 -0.15099349771E+04  0.36197627742E+04  0.32897992198E+04 0.  0.
        5    1    3    3  502    0 -0.14356666049E+04  0.24105676202E+03  0.87624264085E+02  0.14584056584E+04  0.46999998093E+01 0. -1.
       -5    1    3    3    0  502  0.14356666049E+04 -0.24105676202E+03 -0.15975592412E+04  0.21613571158E+04  0.46999998093E+01 0.  1.
</event>
<event>
 5   0  0.1129434E-06  0.3296671E+04  0.7818609E-02  0.8163743E-01
       -2   -1    0    0    0  501  0.00000000000E+00  0.00000000000E+00  0.12667765982E+04  0.12667765982E+04  0.25500000920E-02 0.  1.
        2   -1    0    0  501    0  0.00000000000E+00  0.00000000000E+00 -0.21448219274E+04  0.21448219274E+04  0.25500000920E-02 0. -1.
    10030    2    1    2    0    0  0.00000000000E+00  0.00000000000E+00 -0.87804532913E+03  0.34115985256E+04  0.32966711847E+04 0.  0.
        3    1    3    3  502    0 -0.13840278556E+04 -0.17161165992E+03  0.47025893643E+03  0.14717768664E+04  0.10100000352E+00 0.  1.
       -3    1    3    3    0  502  0.13840278556E+04  0.17161165992E+03 -0.13483042656E+04  0.19398216592E+04  0.10100000352E+00 0. -1.
</event>
<event>
 5   0  0.3674967E-07  0.3326084E+04  0.7818609E-02  0.8156290E-01
        1   -1    0    0  501    0  0.00000000000E+00  0.00000000000E+00  0.24669642477E+04  0.24669642477E+04  0.50400001928E-02 0. -1.
       -1   -1    0    0    0  501  0.00000000000E+00  0.00000000000E+00 -0.11210979707E+04  0.11210979707E+04  0.50400001928E-02 0.  1.
    10030    2    1    2    0    0  0.00000000000E+00  0.00000000000E+00  0.13458662770E+04  0.35880622184E+04  0.33260839508E+04 0.  0.
        2    1    3    3  502    0 -0.15982730549E+03  0.66963048664E+03  0.23060272682E+04  0.24065974981E+04  0.25500000920E-02 0. -1.
       -2    1    3    3    0  502  0.15982730549E+03 -0.66963048664E+03 -0.96016099125E+03  0.11814647203E+04  0.25500000920E-02 0.  1.
</event>
<event>
 5   0  0.1126221E-06  0.3128128E+04  0.7818609E-02  0.8208061E-01
       -2   -1    0    0    0  501  0.00000000000E+00  0.00000000000E+00  0.15450771147E+04  0.15450771147E+04  0.25500000920E-02 0.  1.
        2   -1    0    0  501    0  0.00000000000E+00  0.00000000000E+00 -0.15832838147E+04  0.15832838147E+04  0.25500000920E-02 0. -1.
    10030    2    1    2    0    0  0.00000000000E+00  0.00000000000E+00 -0.38206699934E+02  0.31283609294E+04  0.31281276113E+04 0.  0.
        2    1    3    3  502    0 -0.38335599562E+03 -0.14775365806E+04  0.32183177485E+03  0.15600166210E+04  0.25500000920E-02 0.  1.
       -2    1    3    3    0  502  0.38335599562E+03  0.14775365806E+04 -0.36003847479E+03  0.15683443084E+04  0.25500000920E-02 0. -1.
</event>
<event>
 5   0  0.1116462E-06  0.3293656E+04  0.7818609E-02  0.8164511E-01
        2   -1    0    0  501    0  0.00000000000E+00  0.00000000000E+00  0.11817006160E+04  0.11817006160E+04  0.25500000920E-02 0.  1.
       -2   -1    0    0    0  501  0.00000000000E+00  0.00000000000E+00 -0.22950335666E+04  0.22950335666E+04  0.25500000920E-02 0. -1.
    10030    2    1    2    0    0  0.00000000000E+00  0.00000000000E+00 -0.11133329505E+04  0.34767341826E+04  0.32936560715E+04 0.  0.
        1    1    3    3  502    0  0.11401863703E+03 -0.13845642975E+04 -0.14901427636E+04  0.20372883938E+04  0.50400001928E-02 0. -1.
       -1    1    3    3    0  502 -0.11401863703E+03  0.13845642975E+04  0.37680981301E+03  0.14394457888E+04  0.50400001928E-02 0.  1.
</event>
<event>
 5   0  0.3749685E-07  0.3121774E+04  0.7818609E-02  0.8209788E-01
        1   -1    0    0  501    0  0.00000000000E+00  0.00000000000E+00  0.14634088797E+04  0.14634088797E+04  0.50400001928E-02 0. -1.
       -1   -1    0    0    0  501  0.00000000000E+00  0.00000000000E+00 -0.16648581364E+04  0.16648581364E+04  0.50400001928E-02 0.  1.
    10030    2    1    2    0    0  0.00000000000E+00  0.00000000000E+00 -0.20144925665E+03  0.31282670161E+04  0.31217739702E+04 0.  0.
        3    1    3    3  502    0  0.61673704604E+03 -0.23576631694E+03  0.13165784124E+04  0.14728642390E+04  0.10100000352E+00 0. -1.
       -3    1    3    3    0  502 -0.61673704604E+03  0.23576631694E+03 -0.15180276691E+04  0.16554027771E+04  0.10100000352E+00 0.  1.
</event>
<event>
 5   0  0.3709747E-07  0.3466238E+04  0.7818609E-02  0.8121838E-01
        1   -1    0    0  501    0  0.00000000000E+00  0.00000000000E+00  0.14401267598E+04  0.14401267598E+04  0.50400001928E-02 0. -1.
       -1   -1    0    0    0  501  0.00000000000E+00  0.00000000000E+00 -0.20857197488E+04  0.20857197488E+04  0.50400001928E-02 0.  1.
    10030    2    1    2    0    0  0.00000000000E+00  0.00000000000E+00 -0.64559298898E+03  0.35258465086E+04  0.34662376282E+04 0.  0.
        4    1    3    3  502    0  0.77026456591E+03 -0.45090144042E+03 -0.18339690857E+04  0.20396234532E+04  0.12699999809E+01 0.  1.
       -4    1    3    3    0  502 -0.77026456591E+03  0.45090144042E+03  0.11883760967E+04  0.14862230555E+04  0.12699999809E+01 0. -1.
</event>
<event>
 5   0  0.1126221E-06  0.3293988E+04  0.7818609E-02  0.8164427E-01
        2   -1    0    0  501    0  0.00000000000E+00  0.00000000000E+00  0.10206975585E+04  0.10206975585E+04  0.25500000920E-02 0.  1.
       -2   -1    0    0    0  501  0.00000000000E+00  0.00000000000E+00 -0.26575831109E+04  0.26575831109E+04  0.25500000920E-02 0. -1.
    10030    2    1    2    0    0  0.00000000000E+00  0.00000000000E+00 -0.16368855524E+04  0.36782806694E+04  0.32939876094E+04 0.  0.
        2    1    3    3  502    0 -0.35313033631E+03  0.93350825810E+03 -0.22814230429E+04  0.24901867004E+04  0.25500000920E-02 0. -1.
       -2    1    3    3    0  502  0.35313033631E+03 -0.93350825810E+03  0.64453749051E+03  0.11880939689E+04  0.25500000920E-02 0.  1.
</event>
<event>
 5   0  0.1120545E-06  0.3331360E+04  0.7818609E-02  0.8154961E-01
        2   -1    0    0  501    0  0.00000000000E+00  0.00000000000E+00  0.14447116914E+04  0.14447116914E+04  0.25500000920E-02 0.  1.
       -2   -1    0    0    0  501  0.00000000000E+00  0.00000000000E+00 -0.19204449619E+04  0.19204449619E+04  0.25500000920E-02 0. -1.
    10030    2    1    2    0    0  0.00000000000E+00  0.00000000000E+00 -0.47573327047E+03  0.33651566533E+04  0.33313596558E+04 0.  0.
        4    1    3    3  502    0 -0.60494656695E+03  0.10478270961E+04 -0.13942889872E+04  0.18460621237E+04  0.12699999809E+01 0. -1.
       -4    1    3    3    0  502  0.60494656695E+03 -0.10478270961E+04  0.91855571669E+03  0.15190945295E+04  0.12699999809E+01 0.  1.
</event>
<event>
 5   0  0.1129434E-06  0.3258983E+04  0.7818609E-02  0.8173411E-01
        2   -1    0    0  501    0  0.00000000000E+00  0.00000000000E+00  0.11143331987E+04  0.11143331987E+04  0.25500000920E-02 0. -1.
       -2   -1    0    0    0  501  0.00000000000E+00  0.00000000000E+00 -0.23828089149E+04  0.23828089150E+04  0.25500000920E-02 0.  1.
    10030    2    1    2    0    0  0.00000000000E+00  0.00000000000E+00 -0.12684757162E+04  0.34971421137E+04  0.32589833262E+04 0.  0.
        3    1    3    3  502    0 -0.15164450447E+04  0.59296768887E+03 -0.70233236135E+03  0.17732701457E+04  0.10100000352E+00 0. -1.
       -3    1    3    3    0  502  0.15164450447E+04 -0.59296768887E+03 -0.56614335490E+03  0.17238719680E+04  0.10100000352E+00 0.  1.
</event>
<event>
 5   0  0.1146799E-06  0.3310164E+04  0.7818609E-02  0.8160314E-01
       -2   -1    0    0    0  501  0.00000000000E+00  0.00000000000E+00  0.10418643552E+04  0.10418643552E+04  0.25500000920E-02 0.  1.
        2   -1    0    0  501    0  0.00000000000E+00  0.00000000000E+00 -0.26292255922E+04  0.26292255922E+04  0.25500000920E-02 0. -1.
    10030    2    1    2    0    0  0.00000000000E+00  0.00000000000E+00 -0.15873612370E+04  0.36710899473E+04  0.33101639997E+04 0.  0.
        5    1    3    3  502    0 -0.14649996707E+04 -0.26528506141E+03  0.81100913208E+01  0.14888546143E+04  0.46999998093E+01 0.  1.
       -5    1    3    3    0  502  0.14649996707E+04  0.26528506141E+03 -0.15954713283E+04  0.21822353330E+04  0.46999998093E+01 0. -1.
</event>
<event>
 5   0  0.3709747E-07  0.3348331E+04  0.7818609E-02  0.8150705E-01
        1   -1    0    0  501    0  0.00000000000E+00  0.00000000000E+00  0.10772233472E+04  0.10772233472E+04  0.50400001928E-02 0. -1.
       -1   -1    0    0    0  501  0.00000000000E+00  0.00000000000E+00 -0.26019032303E+04  0.26019032303E+04  0.50400001928E-02 0.  1.
    10030    2    1    2    0    0  0.00000000000E+00  0.00000000000E+00 -0.15246798830E+04  0.36791265775E+04  0.33483314692E+04 0.  0.
        4    1    3    3  502    0 -0.67286520084E+03 -0.39096053588E+03 -0.23910890865E+04  0.25145389939E+04  0.12699999809E+01 0.  1.
       -4    1    3    3    0  502  0.67286520084E+03  0.39096053588E+03  0.86640920349E+03  0.11645875836E+04  0.12699999809E+01 0. -1.
</event>
<event>
 5   0  0.3796529E-07  0.3294772E+04  0.7818609E-02  0.8164227E-01
        1   -1    0    0  501    0  0.00000000000E+00  0.00000000000E+00  0.12283478233E+04  0.12283478233E+04  0.50400001928E-02 0. -1.
       -1   -1    0    0    0  501  0.00000000000E+00  0.00000000000E+00 -0.22093742542E+04  0.22093742542E+04  0.50400001928E-02 0.  1.
    10030    2    1    2    0    0  0.00000000000E+00  0.00000000000E+00 -0.98102643085E+03  0.34377220775E+04  0.32947716498E+04 0.  0.
        5    1    3    3  502    0  0.31989893936E+01 -0.15021090843E+04 -0.11962595008E+04  0.19202606120E+04  0.46999998093E+01 0.  1.
       -5    1    3    3    0  502 -0.31989893936E+01  0.15021090843E+04  0.21523307000E+03  0.15174614655E+04  0.46999998093E+01 0. -1.
</event>
<event>
 5   0  0.3757406E-07  0.3287459E+04  0.7818609E-02  0.8166094E-01
       -1   -1    0    0    0  501  0.00000000000E+00  0.00000000000E+00  0.17208972994E+04  0.17208972994E+04  0.50400001928E-02 0. -1.
        1   -1    0    0  501    0  0.00000000000E+00  0.00000000000E+00 -0.15700220542E+04  0.15700220542E+04  0.50400001928E-02 0.  1.
    10030    2    1    2    0    0  0.00000000000E+00  0.00000000000E+00  0.15087524514E+03  0.32909193536E+04  0.32874590267E+04 0.  0.
        1    1    3    3  502    0 -0.69028322846E+03 -0.12437752183E+04  0.89994222372E+03  0.16832598537E+04  0.50400001928E-02 0. -1.
       -1    1    3    3    0  502  0.69028322846E+03  0.12437752183E+04 -0.74906697857E+03  0.16076594999E+04  0.50400001928E-02 0.  1.
</event>
<event>
 5   0  0.1120545E-06  0.3301778E+04  0.7818609E-02  0.8162443E-01
       -2   -1    0    0    0  501  0.00000000000E+00  0.00000000000E+00  0.14399493501E+04  0.14399493501E+04  0.25500000920E-02 0.  1.
        2   -1    0    0  501    0  0.00000000000E+00  0.00000000000E+00 -0.18927289763E+04  0.18927289764E+04  0.25500000920E-02 0. -1.
    10030    2    1    2    0    0  0.00000000000E+00  0.00000000000E+00 -0.45277962627E+03  0.33326783264E+04  0.33017776178E+04 0.  0.
        4    1    3    3  502    0  0.10637887397E+04  0.11825165296E+04 -0.67261365674E+03  0.17269633955E+04  0.12699999809E+01 0. -1.
       -4    1    3    3    0  502 -0.10637887397E+04 -0.11825165296E+04  0.21983403047E+03  0.16057149309E+04  0.12699999809E+01 0.  1.
</event>
<event>
 5   0  0.1120545E-06  0.3315030E+04  0.7818609E-02  0.8159082E-01
        2   -1    0    0  501    0  0.00000000000E+00  0.00000000000E+00  0.21920683862E+04  0.21920683862E+04  0.25500000920E-02 0.  1.
       -2   -1    0    0    0  501  0.00000000000E+00  0.00000000000E+00 -0.12533166580E+04  0.12533166580E+04  0.25500000920E-02 0. -1.
    10030    2    1    2    0    0  0.00000000000E+00  0.00000000000E+00  0.93875172820E+03  0.34453850442E+04  0.33150299087E+04 0.  0.
        4    1    3    3  502    0 -0.47797140004E+03 -0.43254754014E+03  0.20564454851E+04  0.21551156999E+04  0.12699999809E+01 0.  1.
       -4    1    3    3    0  502  0.47797140004E+03  0.43254754014E+03 -0.11176937569E+04  0.12902693443E+04  0.12699999809E+01 0. -1.
</event>
<event>
 5   0  0.3573375E-07  0.3267914E+04  0.7818609E-02  0.8171108E-01
        3   -1    0    0  501    0  0.00000000000E+00  0.00000000000E+00  0.18990704526E+04  0.18990704553E+04  0.10100000352E+00 0. -1.
       -3   -1    0    0    0  501  0.00000000000E+00  0.00000000000E+00 -0.14058537081E+04  0.14058537117E+04  0.10100000352E+00 0.  1.
    10030    2    1    2    0    0  0.00000000000E+00  0.00000000000E+00  0.49321674453E+03  0.33049241671E+04  0.32679138595E+04 0.  0.
        5    1    3    3  502    0 -0.91031491028E+03 -0.13101069950E+04  0.60379323391E+03  0.17057672566E+04  0.46999998093E+01 0. -1.
       -5    1    3    3    0  502  0.91031491028E+03  0.13101069950E+04 -0.11057648938E+03  0.15991569105E+04  0.46999998093E+01 0.  1.
</event>
<event>
 5   0  0.1126221E-06  0.3291601E+04  0.7818609E-02  0.8165036E-01
        2   -1    0    0  501    0  0.00000000000E+00  0.00000000000E+00  0.12352511848E+04  0.12352511848E+04  0.25500000920E-02 0.  1.
       -2   -1    0    0    0  501  0.00000000000E+00  0.00000000000E+00 -0.21927999071E+04  0.21927999071E+04  0.25500000920E-02 0. -1.
    10030    2    1    2    0    0  0.00000000000E+00  0.00000000000E+00 -0.95754872236E+03  0.34280510919E+04  0.32916006339E+04 0.  0.
        2    1    3    3  502    0 -0.13001540323E+04 -0.56880192858E+03 -0.13468265651E+04  0.19564963425E+04  0.25500000920E-02 0. -1.
       -2    1    3    3    0  502  0.13001540323E+04  0.56880192858E+03  0.38927784275E+03  0.14715547494E+04  0.25500000920E-02 0.  1.
</event>
<event>
 5   0  0.3674967E-07  0.3322418E+04  0.7818609E-02  0.8157215E-01
        1   -1    0    0  501    0  0.00000000000E+00  0.00000000000E+00  0.10697026249E+04  0.10697026249E+04  0.50400001928E-02 0. -1.
       -1   -1    0    0    0  501  0.00000000000E+00  0.00000000000E+00 -0.25797961666E+04  0.25797961666E+04  0.50400001928E-02 0.  1.
    10030    2    1    2    0    0  0.00000000000E+00  0.00000000000E+00 -0.15100935417E+04  0.36494987915E+04  0.33224176324E+04 0.  0.
        2    1    3    3  502    0  0.36856075916E+03  0.38061064887E+03  0.97440981317E+03  0.11091329872E+04  0.25500000920E-02 0. -1.
       -2    1    3    3    0  502 -0.36856075916E+03 -0.38061064887E+03 -0.24845033549E+04  0.25403658043E+04  0.25500000920E-02 0.  1.
</event>
<event>
 5   0  0.3749685E-07  0.3187122E+04  0.7818609E-02  0.8192226E-01
       -1   -1    0    0    0  501  0.00000000000E+00  0.00000000000E+00  0.30739158055E+04  0.30739158055E+04  0.50400001928E-02 0. -1.
        1   -1    0    0  501    0  0.00000000000E+00  0.00000000000E+00 -0.82612438281E+03  0.82612438282E+03  0.50400001928E-02 0.  1.
    10030    2    1    2    0    0  0.00000000000E+00  0.00000000000E+00  0.22477914227E+04  0.39000401883E+04  0.31871220859E+04 0.  0.
        3    1    3    3  502    0  0.11656177300E+04  0.53246070011E+03 -0.35225835123E+02  0.12819594219E+04  0.10100000352E+00 0.  1.
       -3    1    3    3    0  502 -0.11656177300E+04 -0.53246070011E+03  0.22830172578E+04  0.26180807664E+04  0.10100000352E+00 0. -1.
</event>
<event>
 5   0  0.1146799E-06  0.3307827E+04  0.7818609E-02  0.8160907E-01
       -2   -1    0    0    0  501  0.00000000000E+00  0.00000000000E+00  0.12290842453E+04  0.12290842454E+04  0.25500000920E-02 0. -1.
        2   -1    0    0  501    0  0.00000000000E+00  0.00000000000E+00 -0.22255842089E+04  0.22255842089E+04  0.25500000920E-02 0.  1.
    10030    2    1    2    0    0  0.00000000000E+00  0.00000000000E+00 -0.99649996358E+03  0.34546684543E+04  0.33078273763E+04 0.  0.
        5    1    3    3  502    0  0.11076254475E+02  0.43836453370E+03 -0.21637596416E+04  0.22077508973E+04  0.46999998093E+01 0.  1.
       -5    1    3    3    0  502 -0.11076254475E+02 -0.43836453370E+03  0.11672596781E+04  0.12469175570E+04  0.46999998093E+01 0. -1.
</event>
<event>
 5   0  0.1116462E-06  0.3301817E+04  0.7818609E-02  0.8162433E-01
        2   -1    0    0  501    0  0.00000000000E+00  0.00000000000E+00  0.17097643654E+04  0.17097643654E+04  0.25500000920E-02 0.  1.
       -2   -1    0    0    0  501  0.00000000000E+00  0.00000000000E+00 -0.15940788839E+04  0.15940788839E+04  0.25500000920E-02 0. -1.
    10030    2    1    2    0    0  0.00000000000E+00  0.00000000000E+00  0.11568548153E+03  0.33038432494E+04  0.33018172399E+04 0.  0.
        1    1    3    3  502    0 -0.13352136503E+03 -0.65982493545E+02  0.17030284992E+04  0.17095285062E+04  0.50400001928E-02 0.  1.
       -1    1    3    3    0  502  0.13352136503E+03  0.65982493545E+02 -0.15873430177E+04  0.15943147431E+04  0.50400001928E-02 0. -1.
</event>
<event>
 5   0  0.3709747E-07  0.3281877E+04  0.7818609E-02  0.8167522E-01
        1   -1    0    0  501    0  0.00000000000E+00  0.00000000000E+00  0.89043109073E+03  0.89043109075E+03  0.50400001928E-02 0. -1.
       -1   -1    0    0    0  501  0.00000000000E+00  0.00000000000E+00 -0.30240174164E+04  0.30240174164E+04  0.50400001928E-02 0.  1.
    10030    2    1    2    0    0  0.00000000000E+00  0.00000000000E+00 -0.21335863257E+04  0.39144485072E+04  0.32818769791E+04 0.  0.
        4    1    3    3  502    0 -0.37611984400E+03  0.11565454300E+04 -0.23807726453E+04  0.26734141973E+04  0.12699999809E+01 0.  1.
       -4    1    3    3    0  502  0.37611984400E+03 -0.11565454300E+04  0.24718631961E+03  0.12410343099E+04  0.12699999809E+01 0. -1.
</event>
<event>
 5   0  0.3709747E-07  0.3283759E+04  0.7818609E-02  0.8167040E-01
        1   -1    0    0  501    0  0.00000000000E+00  0.00000000000E+00  0.14688896996E+04  0.14688896996E+04  0.50400001928E-02 0.  1.
       -1   -1    0    0    0  501  0.00000000000E+00  0.00000000000E+00 -0.18352424737E+04  0.18352424737E+04  0.50400001928E-02 0. -1.
    10030    2    1    2    0    0  0.00000000000E+00  0.00000000000E+00 -0.36635277410E+03  0.33041321733E+04  0.32837592883E+04 0.  0.
        4    1    3    3  502    0  0.11514295451E+04 -0.90718735258E+03  0.56099865618E+03  0.15695540752E+04  0.12699999809E+01 0.  1.
       -4    1    3    3    0  502 -0.11514295451E+04  0.90718735258E+03 -0.92735143029E+03  0.17345780980E+04  0.12699999809E+01 0. -1.
</event>
<event>
 5   0  0.3796529E-07  0.3299322E+04  0.7818609E-02  0.8163068E-01
        1   -1    0    0  501    0  0.00000000000E+00  0.00000000000E+00  0.92553957093E+03  0.92553957094E+03  0.50400001928E-02 0.  1.
       -1   -1    0    0    0  501  0.00000000000E+00  0.00000000000E+00 -0.29403192026E+04  0.29403192026E+04  0.50400001928E-02 0. -1.
    10030    2    1    2    0    0  0.00000000000E+00  0.00000000000E+00 -0.20147796316E+04  0.38658587735E+04  0.32993222172E+04 0.  0.
        5    1    3    3  502    0 -0.10667096527E+04 -0.84383522709E+03 -0.21011902260E+04  0.25029881801E+04  0.46999998093E+01 0. -1.
       -5    1    3    3    0  502  0.10667096527E+04  0.84383522709E+03  0.86410594328E+02  0.13628705935E+04  0.46999998093E+01 0.  1.
</event>
<event>
 5   0  0.1120545E-06  0.3324322E+04  0.7818609E-02  0.8156734E-01
        2   -1    0    0  501    0  0.00000000000E+00  0.00000000000E+00  0.22176619982E+04  0.22176619982E+04  0.25500000920E-02 0.  1.
       -2   -1    0    0    0  501  0.00000000000E+00  0.00000000000E+00 -0.12458068961E+04  0.12458068961E+04  0.25500000920E-02 0. -1.
    10030    2    1    2    0    0  0.00000000000E+00  0.00000000000E+00  0.97185510208E+03  0.34634688942E+04  0.33243216514E+04 0.  0.
        4    1    3    3  502    0  0.90471306714E+03  0.12880551900E+04 -0.70452644006E+02  0.15756132438E+04  0.12699999809E+01 0. -1.
       -4    1    3    3    0  502 -0.90471306714E+03 -0.12880551900E+04  0.10423077461E+04  0.18878556504E+04  0.12699999809E+01 0.  1.
</event>
<event>
 5   0  0.3796529E-07  0.3330649E+04  0.7818609E-02  0.8155140E-01
        1   -1    0    0  501    0  0.00000000000E+00  0.00000000000E+00  0.21529520417E+04  0.21529520417E+04  0.50400001928E-02 0. -1.
       -1   -1    0    0    0  501  0.00000000000E+00  0.00000000000E+00 -0.12881411343E+04  0.12881411343E+04  0.50400001928E-02 0.  1.
    10030    2    1    2    0    0  0.00000000000E+00  0.00000000000E+00  0.86481090747E+03  0.34410931760E+04  0.33306492371E+04 0.  0.
        5    1    3    3  502    0 -0.59413111682E+03 -0.31247726563E+03 -0.11421553485E+04  0.13248300856E+04  0.46999998093E+01 0.  1.
       -5    1    3    3    0  502  0.59413111682E+03  0.31247726563E+03  0.20069662560E+04  0.21162630905E+04  0.46999998093E+01 0. -1.
</event>
<event>
 5   0  0.1129434E-06  0.3280683E+04  0.7818609E-02  0.8167828E-01
        2   -1    0    0  501    0  0.00000000000E+00  0.00000000000E+00  0.20176945984E+04  0.20176945984E+04  0.25500000920E-02 0.  1.
       -2   -1    0    0    0  501  0.00000000000E+00  0.00000000000E+00 -0.13335620115E+04  0.13335620115E+04  0.25500000920E-02 0. -1.
    10030    2    1    2    0    0  0.00000000000E+00  0.00000000000E+00  0.68413258688E+03  0.33512566098E+04  0.32806833844E+04 0.  0.
        3    1    3    3  502    0  0.95138687616E+03 -0.99011132420E+03 -0.57460230435E+03  0.14884976455E+04  0.10100000352E+00 0. -1.
       -3    1    3    3    0  502 -0.95138687616E+03  0.99011132420E+03  0.12587348912E+04  0.18627589643E+04  0.10100000352E+00 0.  1.
</event>
<event>
 5   0  0.1129434E-06  0.3268584E+04  0.7818609E-02  0.8170936E-01
       -2   -1    0    0    0  501  0.00000000000E+00  0.00000000000E+00  0.14113774638E+04  0.14113774638E+04  0.25500000920E-02 0. -1.
        2   -1    0    0  501    0  0.00000000000E+00  0.00000000000E+00 -0.18924137870E+04  0.18924137870E+04  0.25500000920E-02 0.  1.
    10030    2    1    2    0    0  0.00000000000E+00  0.00000000000E+00 -0.48103632322E+03  0.33037912508E+04  0.32685838959E+04 0.  0.
        3    1    3    3  502    0 -0.12942910971E+04 -0.52082095696E+02 -0.12477498334E+04  0.17985498730E+04  0.10100000352E+00 0.  1.
       -3    1    3    3    0  502  0.12942910971E+04  0.52082095696E+02  0.76671351015E+03  0.15052413778E+04  0.10100000352E+00 0. -1.
</event>
<event>
 5   0  0.3796529E-07  0.3329066E+04  0.7818609E-02  0.8155539E-01
       -1   -1    0    0    0  501  0.00000000000E+00  0.00000000000E+00  0.11677453878E+04  0.11677453878E+04  0.50400001928E-02 0.  1.
        1   -1    0    0  501    0  0.00000000000E+00  0.00000000000E+00 -0.23726659801E+04  0.23726659801E+04  0.50400001928E-02 0. -1.
    10030    2    1    2    0    0  0.00000000000E+00  0.00000000000E+00 -0.12049205923E+04  0.35404113679E+04  0.33290657879E+04 0.  0.
        5    1    3    3  502    0 -0.11562559441E+03 -0.53268671190E+03  0.10701291331E+04  0.12009674694E+04  0.46999998093E+01 0.  1.
       -5    1    3    3    0  502  0.11562559441E+03  0.53268671190E+03 -0.22750497254E+04  0.23394438985E+04  0.46999998093E+01 0. -1.
</event>
<event>
 5   0  0.1129434E-06  0.3301486E+04  0.7818609E-02  0.8162517E-01
       -2   -1    0    0    0  501  0.00000000000E+00  0.00000000000E+00  0.13696820747E+04  0.13696820747E+04  0.25500000920E-02 0. -1.
        2   -1    0    0  501    0  0.00000000000E+00  0.00000000000E+00 -0.19894780141E+04  0.19894780141E+04  0.25500000920E-02 0.  1.
    10030    2    1    2    0    0  0.00000000000E+00  0.00000000000E+00 -0.61979593945E+03  0.33591600888E+04  0.33014859526E+04 0.  0.
        3    1    3    3  502    0 -0.14250512794E+04  0.77936053771E+03 -0.60962574135E+03  0.17348825756E+04  0.10100000352E+00 0.  1.
       -3    1    3    3    0  502  0.14250512794E+04 -0.77936053771E+03 -0.10170198107E+02  0.16242775131E+04  0.10100000352E+00 0. -1.
</event>
<event>
 5   0  0.1126221E-06  0.3317851E+04  0.7818609E-02  0.8158368E-01
       -2   -1    0    0    0  501  0.00000000000E+00  0.00000000000E+00  0.17381083618E+04  0.17381083618E+04  0.25500000920E-02 0. -1.
        2   -1    0    0  501    0  0.00000000000E+00  0.00000000000E+00 -0.15833494956E+04  0.15833494956E+04  0.25500000920E-02 0.  1.
    10030    2    1    2    0    0  0.00000000000E+00  0.00000000000E+00  0.15475886621E+03  0.33214578573E+04  0.33178505077E+04 0.  0.
        2    1    3    3  502    0  0.67718174353E+03  0.12950075621E+04  0.86335298467E+03  0.16973503103E+04  0.25500000920E-02 0. -1.
       -2    1    3    3    0  502 -0.67718174353E+03 -0.12950075621E+04 -0.70859411846E+03  0.16241075471E+04  0.25500000920E-02 0.  1.
</event>
<event>
 5   0  0.1116462E-06  0.3315628E+04  0.7818609E-02  0.8158930E-01
        2   -1    0    0  501    0  0.00000000000E+00  0.00000000000E+00  0.11930560968E+04  0.11930560969E+04  0.25500000920E-02 0. -1.
       -2   -1    0    0    0  501  0.00000000000E+00  0.00000000000E+00 -0.23036195825E+04  0.23036195825E+04  0.25500000920E-02 0.  1.
    10030    2    1    2    0    0  0.00000000000E+00  0.00000000000E+00 -0.11105634856E+04  0.34966756793E+04  0.33156280779E+04 0.  0.
        1    1    3    3  502    0  0.33336418821E+03 -0.81629357256E+03 -0.20358201956E+04  0.22185650199E+04  0.50400001928E-02 0.  1.
       -1    1    3    3    0  502 -0.33336418821E+03  0.81629357256E+03  0.92525670994E+03  0.12781106595E+04  0.50400001928E-02 0. -1.
</event>
<event>
 5   0  0.3757406E-07  0.3305955E+04  0.7818609E-02  0.8161382E-01
       -1   -1    0    0    0  501  0.00000000000E+00  0.00000000000E+00  0.12417462312E+04  0.12417462312E+04  0.50400001928E-02 0.  1.
        1   -1    0    0  501    0  0.00000000000E+00  0.00000000000E+00 -0.22003973029E+04  0.22003973030E+04  0.50400001928E-02 0. -1.
    10030    2    1    2    0    0  0.00000000000E+00  0.00000000000E+00 -0.95865107179E+03  0.34421435341E+04  0.33059552677E+04 0.  0.
        1    1    3    3  502    0  0.15295451711E+04 -0.55081063701E+03 -0.16795036023E+03  0.16343525054E+04  0.50400001928E-02 0.  1.
       -1    1    3    3    0  502 -0.15295451711E+04  0.55081063701E+03 -0.79070071156E+03  0.18077910287E+04  0.50400001928E-02 0. -1.
</event>
<event>
 5   0  0.1120545E-06  0.3303322E+04  0.7818609E-02  0.8162051E-01
        2   -1    0    0  501    0  0.00000000000E+00  0.00000000000E+00  0.23431157422E+04  0.23431157422E+04  0.25500000920E-02 0.  1.
       -2   -1    0    0    0  501  0.00000000000E+00  0.00000000000E+00 -0.11642550458E+04  0.11642550458E+04  0.25500000920E-02 0. -1.
    10030    2    1    2    0    0  0.00000000000E+00  0.00000000000E+00  0.11788606964E+04  0.35073707880E+04  0.33033221616E+04 0.  0.
        4    1    3    3  502    0 -0.15872765575E+04  0.43230938398E+03  0.74563858205E+03  0.18061884678E+04  0.12699999809E+01 0.  1.
       -4    1    3    3    0  502  0.15872765575E+04 -0.43230938398E+03  0.43322211435E+03  0.17011823202E+04  0.12699999809E+01 0. -1.
</event>
<event>
 5   0  0.1120545E-06  0.3246154E+04  0.7818609E-02  0.8176733E-01
        2   -1    0    0  501    0  0.00000000000E+00  0.00000000000E+00  0.14642127226E+04  0.14642127226E+04  0.25500000920E-02 0.  1.
       -2   -1    0    0    0  501  0.00000000000E+00  0.00000000000E+00 -0.17991773111E+04  0.17991773111E+04  0.25500000920E-02 0. -1.
    10030    2    1    2    0    0  0.00000000000E+00  0.00000000000E+00 -0.33496458849E+03  0.32633900337E+04  0.32461536064E+04 0.  0.
        4    1    3    3  502    0 -0.18567439191E+03 -0.45592250016E+03  0.13873509130E+04  0.14721020598E+04  0.12699999809E+01 0.  1.
       -4    1    3    3    0  502  0.18567439191E+03  0.45592250016E+03 -0.17223155014E+04  0.17912879739E+04  0.12699999809E+01 0. -1.
</event>
<event>
 5   0  0.1146799E-06  0.3303783E+04  0.7818609E-02  0.8161933E-01
       -2   -1    0    0    0  501  0.00000000000E+00  0.00000000000E+00  0.99697068730E+03  0.99697068730E+03  0.25500000920E-02 0.  1.
        2   -1    0    0  501    0  0.00000000000E+00  0.00000000000E+00 -0.27370373761E+04  0.27370373761E+04  0.25500000920E-02 0. -1.
    10030    2    1    2    0    0  0.00000000000E+00  0.00000000000E+00 -0.17400666888E+04  0.37340080634E+04  0.33037833065E+04 0.  0.
        5    1    3    3  502    0 -0.42824855603E+03 -0.92161044785E+03  0.60184415428E+03  0.11811016550E+04  0.46999998093E+01 0.  1.
       -5    1    3    3    0  502  0.42824855603E+03  0.92161044785E+03 -0.23419108431E+04  0.25529064084E+04  0.46999998093E+01 0. -1.
</event>
<event>
 5   0  0.3709747E-07  0.3294337E+04  0.7818609E-02  0.8164338E-01
        1   -1    0    0  501    0  0.00000000000E+00  0.00000000000E+00  0.17761243286E+04  0.17761243286E+04  0.50400001928E-02 0. -1.
       -1   -1    0    0    0  501  0.00000000000E+00  0.00000000000E+00 -0.15275750690E+04  0.15275750690E+04  0.50400001928E-02 0.  1.
    10030    2    1    2    0    0  0.00000000000E+00  0.00000000000E+00  0.24854925958E+03  0.33036993976E+04  0.32943365000E+04 0.  0.
        4    1    3    3  502    0 -0.10112867850E+02 -0.30796819367E+03  0.17469633431E+04  0.17739304421E+04  0.12699999809E+01 0. -1.
       -4    1    3    3    0  502  0.10112867850E+02  0.30796819367E+03 -0.14984140835E+04  0.15297689555E+04  0.12699999809E+01 0.  1.
</event>
<event>
 5   0  0.3674967E-07  0.3221447E+04  0.7818609E-02  0.8183176E-01
       -1   -1    0    0    0  501  0.00000000000E+00  0.00000000000E+00  0.14530490479E+04  0.14530490479E+04  0.50400001928E-02 0.  1.
        1   -1    0    0  501    0  0.00000000000E+00  0.00000000000E+00 -0.17855079045E+04  0.17855079045E+04  0.50400001928E-02 0. -1.
    10030    2    1    2    0    0  0.00000000000E+00  0.00000000000E+00 -0.33245885659E+03  0.32385569524E+04  0.32214472280E+04 0.  0.
        2    1    3    3  502    0  0.32209609800E+03 -0.15781769712E+04 -0.17275325361E+03  0.16199481891E+04  0.25500000920E-02 0.  1.
       -2    1    3    3    0  502 -0.32209609800E+03  0.15781769712E+04 -0.15970560298E+03  0.16186087632E+04  0.25500000920E-02 0. -1.
</event>
<event>
 5   0  0.1129434E-06  0.3233943E+04  0.7818609E-02  0.8179910E-01
        2   -1    0    0  501    0  0.00000000000E+00  0.00000000000E+00  0.21764717856E+04  0.21764717856E+04  0.25500000920E-02 0. -1.
       -2   -1    0    0    0  501  0.00000000000E+00  0.00000000000E+00 -0.12013003494E+04  0.12013003494E+04  0.25500000920E-02 0.  1.
    10030    2    1    2    0    0  0.00000000000E+00  0.00000000000E+00  0.97517143617E+03  0.33777721349E+04  0.32339426813E+04 0.  0.
        3    1    3    3  502    0  0.85156534314E+02  0.10515769907E+04  0.17674535100E+04  0.20583871655E+04  0.10100000352E+00 0. -1.
       -3    1    3    3    0  502 -0.85156534314E+02 -0.10515769907E+04 -0.79228207386E+03  0.13193849694E+04  0.10100000352E+00 0.  1.
</event>
<event>
 5   0  0.1116462E-06  0.3217008E+04  0.7818609E-02  0.8184340E-01
       -2   -1    0    0    0  501  0.00000000000E+00  0.00000000000E+00  0.21715049413E+04  0.21715049413E+04  0.25500000920E-02 0.  1.
        2   -1    0    0  501    0  0.00000000000E+00  0.00000000000E+00 -0.11914711343E+04  0.11914711343E+04  0.25500000920E-02 0. -1.
    10030    2    1    2    0    0  0.00000000000E+00  0.00000000000E+00  0.98003380701E+03  0.33629760757E+04  0.32170082099E+04 0.  0.
        1    1    3    3  502    0  0.28936832288E+03 -0.15181016521E+04  0.95625690056E+03  0.18173590488E+04  0.50400001928E-02 0.  1.
       -1    1    3    3    0  502 -0.28936832288E+03  0.15181016521E+04  0.23776906443E+02  0.15456170268E+04  0.50400001928E-02 0. -1.
</event>
<event>
 5   0  0.1120545E-06  0.3266042E+04  0.7818609E-02  0.8171590E-01
       -2   -1    0    0    0  501  0.00000000000E+00  0.00000000000E+00  0.11010727234E+04  0.11010727234E+04  0.25500000920E-02 0. -1.
        2   -1    0    0  501    0  0.00000000000E+00  0.00000000000E+00 -0.24219634073E+04  0.24219634073E+04  0.25500000920E-02 0.  1.
    10030    2    1    2    0    0  0.00000000000E+00  0.00000000000E+00 -0.13208906839E+04  0.35230361306E+04  0.32660421582E+04 0.  0.
        4    1    3    3  502    0 -0.15676302511E+04  0.11317781183E+03 -0.18230306037E+03  0.15822483497E+04  0.12699999809E+01 0. -1.
       -4    1    3    3    0  502  0.15676302511E+04 -0.11317781183E+03 -0.11385876235E+04  0.19407877810E+04  0.12699999809E+01 0.  1.
</event>
<event>
 5   0  0.3749685E-07  0.3313859E+04  0.7818609E-02  0.8159378E-01
        1   -1    0    0  501    0  0.00000000000E+00  0.00000000000E+00  0.20183102698E+04  0.20183102698E+04  0.50400001928E-02 0. -1.
       -1   -1    0    0    0  501  0.00000000000E+00  0.00000000000E+00 -0.13602543925E+04  0.13602543925E+04  0.50400001928E-02 0.  1.
    10030    2    1    2    0    0  0.00000000000E+00  0.00000000000E+00  0.65805587729E+03  0.33785646622E+04  0.33138590253E+04 0.  0.
        3    1    3    3  502    0  0.13782853600E+04 -0.72926125419E+03 -0.24220033791E+03  0.15780220291E+04  0.10100000352E+00 0.  1.
       -3    1    3    3    0  502 -0.13782853600E+04  0.72926125419E+03  0.90025621520E+03  0.18005426331E+04  0.10100000352E+00 0. -1.
</event>
<event>
 5   0  0.3757406E-07  0.3311359E+04  0.7818609E-02  0.8160011E-01
       -1   -1    0    0    0  501  0.00000000000E+00  0.00000000000E+00  0.12875704460E+04  0.12875704460E+04  0.50400001928E-02 0.  1.
        1   -1    0    0  501    0  0.00000000000E+00  0.00000000000E+00 -0.21290289315E+04  0.21290289315E+04  0.50400001928E-02 0. -1.
    10030    2    1    2    0    0  0.00000000000E+00  0.00000000000E+00 -0.84145848549E+03  0.34165993775E+04  0.33113590750E+04 0.  0.
        1    1    3    3  502    0  0.15311144428E+04 -0.62205927662E+03 -0.31752245262E+03  0.16828813649E+04  0.50400001928E-02 0.  1.
       -1    1    3    3    0  502 -0.15311144428E+04  0.62205927662E+03 -0.52393603286E+03  0.17337180126E+04  0.50400001928E-02 0. -1.
</event>
<event>
 5   0  0.3709747E-07  0.3315922E+04  0.7818609E-02  0.8158856E-01
        1   -1    0    0  501    0  0.00000000000E+00  0.00000000000E+00  0.22850472727E+04  0.22850472727E+04  0.50400001928E-02 0. -1.
       -1   -1    0    0    0  501  0.00000000000E+00  0.00000000000E+00 -0.12029665272E+04  0.12029665272E+04  0.50400001928E-02 0.  1.
    10030    2    1    2    0    0  0.00000000000E+00  0.00000000000E+00  0.10820807454E+04  0.34880137999E+04  0.33159224250E+04 0.  0.
        4    1    3    3  502    0  0.79832874028E+03 -0.14217577575E+04  0.22527826237E+03  0.16460485433E+04  0.12699999809E+01 0.  1.
       -4    1    3    3    0  502 -0.79832874028E+03  0.14217577575E+04  0.85680248307E+03  0.18419652566E+04  0.12699999809E+01 0. -1.
</event>
<event>
 5   0  0.1116462E-06  0.3307499E+04  0.7818609E-02  0.8160990E-01
       -2   -1    0    0    0  501  0.00000000000E+00  0.00000000000E+00  0.10440773749E+04  0.10440773749E+04  0.25500000920E-02 0.  1.
        2   -1    0    0  501    0  0.00000000000E+00  0.00000000000E+00 -0.26194292749E+04  0.26194292749E+04  0.25500000920E-02 0. -1.
    10030    2    1    2    0    0  0.00000000000E+00  0.00000000000E+00 -0.15753519000E+04  0.36635066498E+04  0.33074986568E+04 0.  0.
        1    1    3    3  502    0 -0.75017713572E+03 -0.14553648957E+04 -0.53020313879E+03  0.17210369209E+04  0.50400001928E-02 0.  1.
       -1    1    3    3    0  502  0.75017713572E+03  0.14553648957E+04 -0.10451487612E+04  0.19424697289E+04  0.50400001928E-02 0. -1.
</event>
<event>
 5   0  0.1120545E-06  0.3304613E+04  0.7818609E-02  0.8161723E-01
        2   -1    0    0  501    0  0.00000000000E+00  0.00000000000E+00  0.17674777323E+04  0.17674777323E+04  0.25500000920E-02 0. -1.
       -2   -1    0    0    0  501  0.00000000000E+00  0.00000000000E+00 -0.15446400960E+04  0.15446400960E+04  0.25500000920E-02 0.  1.
    10030    2    1    2    0    0  0.00000000000E+00  0.00000000000E+00  0.22283763624E+03  0.33121178283E+04  0.33046131236E+04 0.  0.
        4    1    3    3  502    0  0.73798089930E+03  0.10094948858E+04 -0.97104294654E+03  0.15832314263E+04  0.12699999809E+01 0.  1.
       -4    1    3    3    0  502 -0.73798089930E+03 -0.10094948858E+04  0.11938805828E+04  0.17288864020E+04  0.12699999809E+01 0. -1.
</event>
<event>
 5   0  0.3796529E-07  0.3119428E+04  0.7818609E-02  0.8210426E-01
        1   -1    0    0  501    0  0.00000000000E+00  0.00000000000E+00  0.13314739326E+04  0.13314739326E+04  0.50400001928E-02 0. -1.
       -1   -1    0    0    0  501  0.00000000000E+00  0.00000000000E+00 -0.18270786171E+04  0.18270786171E+04  0.50400001928E-02 0.  1.
    10030    2    1    2    0    0  0.00000000000E+00  0.00000000000E+00 -0.49560468448E+03  0.31585525497E+04  0.31194278651E+04 0.  0.
        5    1    3    3  502    0  0.86588851117E+03  0.15003722526E+03 -0.15525334285E+04  0.17840000615E+04  0.46999998093E+01 0.  1.
       -5    1    3    3    0  502 -0.86588851117E+03 -0.15003722526E+03  0.10569287440E+04  0.13745524882E+04  0.46999998093E+01 0. -1.
</event>
<event>
 5   0  0.1116462E-06  0.3298956E+04  0.7818609E-02  0.8163161E-01
        2   -1    0    0  501    0  0.00000000000E+00  0.00000000000E+00  0.15300394770E+04  0.15300394770E+04  0.25500000920E-02 0. -1.
       -2   -1    0    0    0  501  0.00000000000E+00  0.00000000000E+00 -0.17782398274E+04  0.17782398274E+04  0.25500000920E-02 0.  1.
    10030    2    1    2    0    0  0.00000000000E+00  0.00000000000E+00 -0.24820035046E+03  0.33082793044E+04  0.32989556745E+04 0.  0.
        1    1    3    3  502    0 -0.87725959474E+03  0.12474313894E+04 -0.75445258400E+03  0.17014312121E+04  0.50400001928E-02 0.  1.
       -1    1    3    3    0  502  0.87725959474E+03 -0.12474313894E+04  0.50625223354E+03  0.16068480924E+04  0.50400001928E-02 0. -1.
</event>
<event>
 5   0  0.3749685E-07  0.3299464E+04  0.7818609E-02  0.8163032E-01
        1   -1    0    0  501    0  0.00000000000E+00  0.00000000000E+00  0.17440137128E+04  0.17440137128E+04  0.50400001928E-02 0. -1.
       -1   -1    0    0    0  501  0.00000000000E+00  0.00000000000E+00 -0.15605467499E+04  0.15605467499E+04  0.50400001928E-02 0.  1.
    10030    2    1    2    0    0  0.00000000000E+00  0.00000000000E+00  0.18346696291E+03  0.33045604626E+04  0.32994635511E+04 0.  0.
        3    1    3    3  502    0  0.12839855152E+04  0.75616182898E+03 -0.61732584406E+03  0.16129137369E+04  0.10100000352E+00 0.  1.
       -3    1    3    3    0  502 -0.12839855152E+04 -0.75616182898E+03  0.80079280697E+03  0.16916467257E+04  0.10100000352E+00 0. -1.
</event>
<event>
 5   0  0.3573375E-07  0.3295523E+04  0.7818609E-02  0.8164036E-01
        3   -1    0    0  501    0  0.00000000000E+00  0.00000000000E+00  0.13149417461E+04  0.13149417500E+04  0.10100000352E+00 0. -1.
       -3   -1    0    0    0  501  0.00000000000E+00  0.00000000000E+00 -0.20648193966E+04  0.20648193991E+04  0.10100000352E+00 0.  1.
    10030    2    1    2    0    0  0.00000000000E+00  0.00000000000E+00 -0.74987765053E+03  0.33797611490E+04  0.32955225585E+04 0.  0.
        1    1    3    3  502    0 -0.43835145236E+03  0.77873394314E+03  0.10448394132E+04  0.13748701573E+04  0.50400001928E-02 0. -1.
       -1    1    3    3    0  502  0.43835145236E+03 -0.77873394314E+03 -0.17947170637E+04  0.20048909918E+04  0.50400001928E-02 0.  1.
</event>
<event>
 5   0  0.3796529E-07  0.3303919E+04  0.7818609E-02  0.8161899E-01
        1   -1    0    0  501    0  0.00000000000E+00  0.00000000000E+00  0.15092259711E+04  0.15092259711E+04  0.50400001928E-02 0. -1.
       -1   -1    0    0    0  501  0.00000000000E+00  0.00000000000E+00 -0.18081919118E+04  0.18081919118E+04  0.50400001928E-02 0.  1.
    10030    2    1    2    0    0  0.00000000000E+00  0.00000000000E+00 -0.29896594062E+03  0.33174178829E+04  0.33039190027E+04 0.  0.
        5    1    3    3  502    0 -0.64644825905E+03  0.71732755941E+03  0.11963267666E+04  0.15374244702E+04  0.46999998093E+01 0. -1.
       -5    1    3    3    0  502  0.64644825905E+03 -0.71732755941E+03 -0.14952927072E+04  0.17799934127E+04  0.46999998093E+01 0.  1.
</event>
<event>
 5   0  0.3674967E-07  0.3286444E+04  0.7818609E-02  0.8166353E-01
       -1   -1    0    0    0  501  0.00000000000E+00  0.00000000000E+00  0.13680347151E+04  0.13680347152E+04  0.50400001928E-02 0. -1.
        1   -1    0    0  501    0  0.00000000000E+00  0.00000000000E+00 -0.19737647741E+04  0.19737647741E+04  0.50400001928E-02 0.  1.
    10030    2    1    2    0    0  0.00000000000E+00  0.00000000000E+00 -0.60573005893E+03  0.33417994892E+04  0.32864441151E+04 0.  0.
        2    1    3    3  502    0  0.26341721193E+03  0.15164932995E+04  0.28218523040E+03  0.15648543252E+04  0.25500000920E-02 0.  1.
       -2    1    3    3    0  502 -0.26341721193E+03 -0.15164932995E+04 -0.88791528934E+03  0.17769451640E+04  0.25500000920E-02 0. -1.
</event>
<event>
 5   0  0.1146799E-06  0.3107803E+04  0.7818609E-02  0.8213600E-01
       -2   -1    0    0    0  501  0.00000000000E+00  0.00000000000E+00  0.11386904530E+04  0.11386904530E+04  0.25500000920E-02 0.  1.
        2   -1    0    0  501    0  0.00000000000E+00  0.00000000000E+00 -0.21205148686E+04  0.21205148686E+04  0.25500000920E-02 0. -1.
    10030    2    1    2    0    0  0.00000000000E+00  0.00000000000E+00 -0.98182441559E+03  0.32592053215E+04  0.31078031059E+04 0.  0.
        5    1    3    3  502    0  0.14675471393E+04  0.18388008782E+03 -0.99065789750E+03  0.17801493344E+04  0.46999998093E+01 0. -1.
       -5    1    3    3    0  502 -0.14675471393E+04 -0.18388008782E+03  0.88334819135E+01  0.14790559872E+04  0.46999998093E+01 0.  1.
</event>
<event>
 5   0  0.1120545E-06  0.3294251E+04  0.7818609E-02  0.8164360E-01
       -2   -1    0    0    0  501  0.00000000000E+00  0.00000000000E+00  0.11628002254E+04  0.11628002254E+04  0.25500000920E-02 0.  1.
        2   -1    0    0  501    0  0.00000000000E+00  0.00000000000E+00 -0.23331804135E+04  0.23331804135E+04  0.25500000920E-02 0. -1.
    10030    2    1    2    0    0  0.00000000000E+00  0.00000000000E+00 -0.11703801881E+04  0.34959806388E+04  0.32942511808E+04 0.  0.
        4    1    3    3  502    0  0.88465771716E+03 -0.49567617412E+03  0.79225562125E+03  0.12868507017E+04  0.12699999809E+01 0.  1.
       -4    1    3    3    0  502 -0.88465771716E+03  0.49567617412E+03 -0.19626358093E+04  0.22091299371E+04  0.12699999809E+01 0. -1.
</event>
<event>
 5   0  0.3757406E-07  0.3293645E+04  0.7818609E-02  0.8164514E-01
        1   -1    0    0  501    0  0.00000000000E+00  0.00000000000E+00  0.17680018564E+04  0.17680018565E+04  0.50400001928E-02 0. -1.
       -1   -1    0    0    0  501  0.00000000000E+00  0.00000000000E+00 -0.15339492698E+04  0.15339492698E+04  0.50400001928E-02 0.  1.
    10030    2    1    2    0    0  0.00000000000E+00  0.00000000000E+00  0.23405258664E+03  0.33019511263E+04  0.32936454920E+04 0.  0.
        1    1    3    3  502    0  0.15920539290E+04  0.41540434965E+03  0.47362429809E+02  0.16460375714E+04  0.50400001928E-02 0.  1.
       -1    1    3    3    0  502 -0.15920539290E+04 -0.41540434965E+03  0.18669015683E+03  0.16559135549E+04  0.50400001928E-02 0. -1.
</event>
<event>
 5   0  0.1146799E-06  0.3289466E+04  0.7818609E-02  0.8165581E-01
       -2   -1    0    0    0  501  0.00000000000E+00  0.00000000000E+00  0.12145430266E+04  0.12145430266E+04  0.25500000920E-02 0. -1.
        2   -1    0    0  501    0  0.00000000000E+00  0.00000000000E+00 -0.22272961903E+04  0.22272961903E+04  0.25500000920E-02 0.  1.
    10030    2    1    2    0    0  0.00000000000E+00  0.00000000000E+00 -0.10127531638E+04  0.34418392169E+04  0.32894662522E+04 0.  0.
        5    1    3    3  502    0  0.14332052051E+04 -0.18696048410E+03 -0.13276513615E+04  0.19625777973E+04  0.46999998093E+01 0.  1.
       -5    1    3    3    0  502 -0.14332052051E+04  0.18696048410E+03  0.31489819775E+03  0.14792614196E+04  0.46999998093E+01 0. -1.
</event>
<event>
 5   0  0.3796529E-07  0.3429580E+04  0.7818609E-02  0.8130684E-01
        1   -1    0    0  501    0  0.00000000000E+00  0.00000000000E+00  0.10244484095E+04  0.10244484095E+04  0.50400001928E-02 0. -1.
       -1   -1    0    0    0  501  0.00000000000E+00  0.00000000000E+00 -0.28703295280E+04  0.28703295280E+04  0.50400001928E-02 0.  1.
    10030    2    1    2    0    0  0.00000000000E+00  0.00000000000E+00 -0.18458811185E+04  0.38947779375E+04  0.34295798692E+04 0.  0.
        5    1    3    3  502    0  0.72121309618E+03 -0.84294995942E+03 -0.24078862088E+04  0.26511603212E+04  0.46999998093E+01 0.  1.
       -5    1    3    3    0  502 -0.72121309618E+03  0.84294995942E+03  0.56200509027E+03  0.12436176163E+04  0.46999998093E+01 0. -1.
</event>
<event>
 5   0  0.1129434E-06  0.3293241E+04  0.7818609E-02  0.8164617E-01
       -2   -1    0    0    0  501  0.00000000000E+00  0.00000000000E+00  0.14595396800E+04  0.14595396800E+04  0.25500000920E-02 0.  1.
        2   -1    0    0  501    0  0.00000000000E+00  0.00000000000E+00 -0.18576811089E+04  0.18576811089E+04  0.25500000920E-02 0. -1.
    10030    2    1    2    0    0  0.00000000000E+00  0.00000000000E+00 -0.39814142890E+03  0.33172207889E+04  0.32932411338E+04 0.  0.
        3    1    3    3  502    0 -0.10704310358E+04 -0.10465878514E+04 -0.88976807179E+03  0.17415096798E+04  0.10100000352E+00 0. -1.
       -3    1    3    3    0  502  0.10704310358E+04  0.10465878514E+04  0.49162664289E+03  0.15757111091E+04  0.10100000352E+00 0.  1.
</event>
<event>
 5   0  0.1146799E-06  0.3312573E+04  0.7818609E-02  0.8159704E-01
       -2   -1    0    0    0  501  0.00000000000E+00  0.00000000000E+00  0.15618820916E+04  0.15618820916E+04  0.25500000920E-02 0. -1.
        2   -1    0    0  501    0  0.00000000000E+00  0.00000000000E+00 -0.17563967130E+04  0.17563967130E+04  0.25500000920E-02 0.  1.
    10030    2    1    2    0    0  0.00000000000E+00  0.00000000000E+00 -0.19451462134E+03  0.33182788046E+04  0.33125727595E+04 0.  0.
        5    1    3    3  502    0  0.83204687880E+03 -0.12251798847E+04  0.64556890601E+03  0.16155955747E+04  0.46999998093E+01 0. -1.
       -5    1    3    3    0  502 -0.83204687880E+03  0.12251798847E+04 -0.84008352735E+03  0.17026832299E+04  0.46999998093E+01 0.  1.
</event>
<event>
 5   0  0.3709747E-07  0.3307116E+04  0.7818609E-02  0.8161087E-01
        1   -1    0    0  501    0  0.00000000000E+00  0.00000000000E+00  0.22698807923E+04  0.22698807923E+04  0.50400001928E-02 0. -1.
       -1   -1    0    0    0  501  0.00000000000E+00  0.00000000000E+00 -0.12045801520E+04  0.12045801520E+04  0.50400001928E-02 0.  1.
    10030    2    1    2    0    0  0.00000000000E+00  0.00000000000E+00  0.10653006403E+04  0.34744609443E+04  0.33071155709E+04 0.  0.
        4    1    3    3  502    0 -0.16127328901E+03  0.15579333994E+04  0.10896536785E+04  0.19080126579E+04  0.12699999809E+01 0. -1.
       -4    1    3    3    0  502  0.16127328901E+03 -0.15579333994E+04 -0.24353038154E+02  0.15664482864E+04  0.12699999809E+01 0.  1.
</event>
<event>
 5   0  0.1129434E-06  0.3217245E+04  0.7818609E-02  0.8184278E-01
       -2   -1    0    0    0  501  0.00000000000E+00  0.00000000000E+00  0.11533620799E+04  0.11533620799E+04  0.25500000920E-02 0.  1.
        2   -1    0    0  501    0  0.00000000000E+00  0.00000000000E+00 -0.22435859500E+04  0.22435859500E+04  0.25500000920E-02 0. -1.
    10030    2    1    2    0    0  0.00000000000E+00  0.00000000000E+00 -0.10902238701E+04  0.33969480300E+04  0.32172453794E+04 0.  0.
        3    1    3    3  502    0 -0.12092634526E+04 -0.44403420028E+03  0.47212331158E+03  0.13720003281E+04  0.10100000352E+00 0.  1.
       -3    1    3    3    0  502  0.12092634526E+04  0.44403420028E+03 -0.15623471817E+04  0.20249477018E+04  0.10100000352E+00 0. -1.
</event>
<event>
 5   0  0.1126221E-06  0.3373378E+04  0.7818609E-02  0.8144471E-01
        2   -1    0    0  501    0  0.00000000000E+00  0.00000000000E+00  0.14525574351E+04  0.14525574351E+04  0.25500000920E-02 0.  1.
       -2   -1    0    0    0  501  0.00000000000E+00  0.00000000000E+00 -0.19585594283E+04  0.19585594283E+04  0.25500000920E-02 0. -1.
    10030    2    1    2    0    0  0.00000000000E+00  0.00000000000E+00 -0.50600199319E+03  0.34111168633E+04  0.33733781641E+04 0.  0.
        2    1    3    3  502    0 -0.94149825401E+03  0.13990675533E+04 -0.21929525115E+03  0.17005585518E+04  0.25500000920E-02 0. -1.
       -2    1    3    3    0  502  0.94149825401E+03 -0.13990675533E+04 -0.28670674205E+03  0.17105583115E+04  0.25500000920E-02 0.  1.
</event>
<event>
 5   0  0.1120545E-06  0.3210527E+04  0.7818609E-02  0.8186042E-01
       -2   -1    0    0    0  501  0.00000000000E+00  0.00000000000E+00  0.13054536268E+04  0.13054536268E+04  0.25500000920E-02 0.  1.
        2   -1    0    0  501    0  0.00000000000E+00  0.00000000000E+00 -0.19739277961E+04  0.19739277961E+04  0.25500000920E-02 0. -1.
    10030    2    1    2    0    0  0.00000000000E+00  0.00000000000E+00 -0.66847416932E+03  0.32793814229E+04  0.32105271844E+04 0.  0.
        4    1    3    3  502    0 -0.82915709863E+03 -0.11031379295E+04 -0.11718572614E+04  0.18104325007E+04  0.12699999809E+01 0. -1.
       -4    1    3    3    0  502  0.82915709863E+03  0.11031379295E+04  0.50338309208E+03  0.14689489222E+04  0.12699999809E+01 0.  1.
</event>
<event>
 5   0  0.1146799E-06  0.3304155E+04  0.7818609E-02  0.8161839E-01
       -2   -1    0    0    0  501  0.00000000000E+00  0.00000000000E+00  0.22379473643E+04  0.22379473643E+04  0.25500000920E-02 0.  1.
        2   -1    0    0  501    0  0.00000000000E+00  0.00000000000E+00 -0.12195819762E+04  0.12195819762E+04  0.25500000920E-02 0. -1.
    10030    2    1    2    0    0  0.00000000000E+00  0.00000000000E+00  0.10183653880E+04  0.34575293405E+04  0.33041551230E+04 0.  0.
        5    1    3    3  502    0 -0.15195416369E+04  0.62830106414E+03  0.67650880801E+03  0.17780481632E+04  0.46999998093E+01 0.  1.
       -5    1    3    3    0  502  0.15195416369E+04 -0.62830106414E+03  0.34185658003E+03  0.16794811773E+04  0.46999998093E+01 0. -1.
</event>
<event>
 5   0  0.1116462E-06  0.3282565E+04  0.7818609E-02  0.8167346E-01
        2   -1    0    0  501    0  0.00000000000E+00  0.00000000000E+00  0.19432019770E+04  0.19432019770E+04  0.25500000920E-02 0. -1.
       -2   -1    0    0    0  501  0.00000000000E+00  0.00000000000E+00 -0.13862730298E+04  0.13862730298E+04  0.25500000920E-02 0.  1.
    10030    2    1    2    0    0  0.00000000000E+00  0.00000000000E+00  0.55692894713E+03  0.33294750068E+04  0.32825651507E+04 0.  0.
        1    1    3    3  502    0 -0.11119101679E+04 -0.44093299778E+03  0.14183765721E+04  0.18554132236E+04  0.50400001928E-02 0. -1.
       -1    1    3    3    0  502  0.11119101679E+04  0.44093299778E+03 -0.86144762501E+03  0.14740617832E+04  0.50400001928E-02 0.  1.
</event>
<event>
 5   0  0.1116462E-06  0.3311462E+04  0.7818609E-02  0.8159985E-01
       -2   -1    0    0    0  501  0.00000000000E+00  0.00000000000E+00  0.26017370865E+04  0.26017370865E+04  0.25500000920E-02 0. -1.
        2   -1    0    0  501    0  0.00000000000E+00  0.00000000000E+00 -0.10536980423E+04  0.10536980423E+04  0.25500000920E-02 0.  1.
    10030    2    1    2    0    0  0.00000000000E+00  0.00000000000E+00  0.15480390443E+04  0.36554351288E+04  0.33114620786E+04 0.  0.
        1    1    3    3  502    0 -0.13065948712E+04 -0.50585682002E+03  0.17479112213E+04  0.22401506461E+04  0.50400001928E-02 0. -1.
       -1    1    3    3    0  502  0.13065948712E+04  0.50585682002E+03 -0.19987217704E+03  0.14152844827E+04  0.50400001928E-02 0.  1.
</event>
<event>
 5   0  0.3757406E-07  0.3232513E+04  0.7818609E-02  0.8180283E-01
        1   -1    0    0  501    0  0.00000000000E+00  0.00000000000E+00  0.15378338022E+04  0.15378338022E+04  0.50400001928E-02 0. -1.
       -1   -1    0    0    0  501  0.00000000000E+00  0.00000000000E+00 -0.16986780781E+04  0.16986780781E+04  0.50400001928E-02 0.  1.
    10030    2    1    2    0    0  0.00000000000E+00  0.00000000000E+00 -0.16084427586E+03  0.32365118803E+04  0.32325126868E+04 0.  0.
        1    1    3    3  502    0  0.34300234958E+03  0.73939426216E+03  0.13169872275E+04  0.15488091697E+04  0.50400001928E-02 0. -1.
       -1    1    3    3    0  502 -0.34300234958E+03 -0.73939426216E+03 -0.14778315034E+04  0.16877027105E+04  0.50400001928E-02 0.  1.
</event>
<event>
 5   0  0.3674967E-07  0.3434220E+04  0.7818609E-02  0.8129558E-01
       -1   -1    0    0    0  501  0.00000000000E+00  0.00000000000E+00  0.18245937056E+04  0.18245937056E+04  0.50400001928E-02 0.  1.
        1   -1    0    0  501    0  0.00000000000E+00  0.00000000000E+00 -0.16159580753E+04  0.16159580753E+04  0.50400001928E-02 0. -1.
    10030    2    1    2    0    0  0.00000000000E+00  0.00000000000E+00  0.20863563025E+03  0.34405517809E+04  0.34342201052E+04 0.  0.
        2    1    3    3  502    0 -0.17981941773E+03 -0.46372218398E+03  0.17508483635E+04  0.18201217758E+04  0.25500000920E-02 0.  1.
       -2    1    3    3    0  502  0.17981941773E+03  0.46372218398E+03 -0.15422127332E+04  0.16204300051E+04  0.25500000920E-02 0. -1.
</event>
<event>
 5   0  0.1116462E-06  0.3308972E+04  0.7818609E-02  0.8160616E-01
       -2   -1    0    0    0  501  0.00000000000E+00  0.00000000000E+00  0.11125162736E+04  0.11125162736E+04  0.25500000920E-02 0. -1.
        2   -1    0    0  501    0  0.00000000000E+00  0.00000000000E+00 -0.24604794374E+04  0.24604794374E+04  0.25500000920E-02 0.  1.
    10030    2    1    2    0    0  0.00000000000E+00  0.00000000000E+00 -0.13479631638E+04  0.35729957110E+04  0.33089716922E+04 0.  0.
        1    1    3    3  502    0 -0.82093226053E+03  0.63417751615E+03 -0.20657021330E+04  0.23115441161E+04  0.50400001928E-02 0.  1.
       -1    1    3    3    0  502  0.82093226053E+03 -0.63417751615E+03  0.71773896918E+03  0.12614515949E+04  0.50400001928E-02 0. -1.
</event>
<event>
 5   0  0.3796529E-07  0.3301033E+04  0.7818609E-02  0.8162633E-01
       -1   -1    0    0    0  501  0.00000000000E+00  0.00000000000E+00  0.13526553286E+04  0.13526553286E+04  0.50400001928E-02 0.  1.
        1   -1    0    0  501    0  0.00000000000E+00  0.00000000000E+00 -0.20139675910E+04  0.20139675910E+04  0.50400001928E-02 0. -1.
    10030    2    1    2    0    0  0.00000000000E+00  0.00000000000E+00 -0.66131226243E+03  0.33666229197E+04  0.33010325619E+04 0.  0.
        5    1    3    3  502    0  0.85661301338E+03 -0.14085614617E+04 -0.24938168613E+03  0.16673465631E+04  0.46999998093E+01 0.  1.
       -5    1    3    3    0  502 -0.85661301338E+03  0.14085614617E+04 -0.41193057630E+03  0.16992763565E+04  0.46999998093E+01 0. -1.
</event>
<event>
 5   0  0.1146799E-06  0.3272154E+04  0.7818609E-02  0.8170017E-01
       -2   -1    0    0    0  501  0.00000000000E+00  0.00000000000E+00  0.12619148595E+04  0.12619148595E+04  0.25500000920E-02 0.  1.
        2   -1    0    0  501    0  0.00000000000E+00  0.00000000000E+00 -0.21211800080E+04  0.21211800080E+04  0.25500000920E-02 0. -1.
    10030    2    1    2    0    0  0.00000000000E+00  0.00000000000E+00 -0.85926514849E+03  0.33830948675E+04  0.32721543800E+04 0.  0.
        5    1    3    3  502    0  0.80520181500E+03 -0.25022658101E+03  0.10199601101E+04  0.13233684373E+04  0.46999998093E+01 0.  1.
       -5    1    3    3    0  502 -0.80520181500E+03  0.25022658101E+03 -0.18792252586E+04  0.20597264302E+04  0.46999998093E+01 0. -1.
</event>
<event>
 5   0  0.3749685E-07  0.3309092E+04  0.7818609E-02  0.8160586E-01
        1   -1    0    0  501    0  0.00000000000E+00  0.00000000000E+00  0.19126631862E+04  0.19126631862E+04  0.50400001928E-02 0.  1.
       -1   -1    0    0    0  501  0.00000000000E+00  0.00000000000E+00 -0.14312623561E+04  0.14312623561E+04  0.50400001928E-02 0. -1.
    10030    2    1    2    0    0  0.00000000000E+00  0.00000000000E+00  0.48140083008E+03  0.33439255424E+04  0.33090922129E+04 0.  0.
        3    1    3    3  502    0 -0.87553998140E+03 -0.13123111893E+04  0.74474138671E+03  0.17445259126E+04  0.10100000352E+00 0. -1.
       -3    1    3    3    0  502  0.87553998140E+03  0.13123111893E+04 -0.26334055663E+03  0.15993996297E+04  0.10100000352E+00 0.  1.
</event>
<event>
 5   0  0.1126221E-06  0.3312454E+04  0.7818609E-02  0.8159734E-01
        2   -1    0    0  501    0  0.00000000000E+00  0.00000000000E+00  0.22209802712E+04  0.22209802712E+04  0.25500000920E-02 0.  1.
       -2   -1    0    0    0  501  0.00000000000E+00  0.00000000000E+00 -0.12350796879E+04  0.12350796879E+04  0.25500000920E-02 0. -1.
    10030    2    1    2    0    0  0.00000000000E+00  0.00000000000E+00  0.98590058330E+03  0.34560599591E+04  0.33124538458E+04 0.  0.
        2    1    3    3  502    0  0.10270770051E+04 -0.63491582921E+03 -0.68981047378E+03  0.13906271155E+04  0.25500000920E-02 0. -1.
       -2    1    3    3    0  502 -0.10270770051E+04  0.63491582921E+03  0.16757110571E+04  0.20654328436E+04  0.25500000920E-02 0.  1.
</event>
<event>
 5   0  0.3709747E-07  0.3297779E+04  0.7818609E-02  0.8163461E-01
        1   -1    0    0  501    0  0.00000000000E+00  0.00000000000E+00  0.11294811643E+04  0.11294811644E+04  0.50400001928E-02 0. -1.
       -1   -1    0    0    0  501  0.00000000000E+00  0.00000000000E+00 -0.24071554975E+04  0.24071554975E+04  0.50400001928E-02 0.  1.
    10030    2    1    2    0    0  0.00000000000E+00  0.00000000000E+00 -0.12776743332E+04  0.35366366619E+04  0.32977791279E+04 0.  0.
        4    1    3    3  502    0  0.11680027365E+04 -0.11638257412E+04 -0.65030931150E+03  0.17724628520E+04  0.12699999809E+01 0. -1.
       -4    1    3    3    0  502 -0.11680027365E+04  0.11638257412E+04 -0.62736502165E+03  0.17641738099E+04  0.12699999809E+01 0.  1.
</event>
<event>
 5   0  0.3796529E-07  0.3382682E+04  0.7818609E-02  0.8142170E-01
        1   -1    0    0  501    0  0.00000000000E+00  0.00000000000E+00  0.10725493597E+04  0.10725493597E+04  0.50400001928E-02 0.  1.
       -1   -1    0    0    0  501  0.00000000000E+00  0.00000000000E+00 -0.26671349480E+04  0.26671349480E+04  0.50400001928E-02 0. -1.
    10030    2    1    2    0    0  0.00000000000E+00  0.00000000000E+00 -0.15945855883E+04  0.37396843077E+04  0.33826817058E+04 0.  0.
        5    1    3    3  502    0 -0.23097066803E+03  0.84995189874E+03 -0.23935791782E+04  0.25504919236E+04  0.46999998093E+01 0. -1.
       -5    1    3    3    0  502  0.23097066803E+03 -0.84995189874E+03  0.79899358991E+03  0.11891923841E+04  0.46999998093E+01 0.  1.
</event>
<event>
 5   0  0.3749685E-07  0.3295035E+04  0.7818609E-02  0.8164160E-01
        1   -1    0    0  501    0  0.00000000000E+00  0.00000000000E+00  0.22053430845E+04  0.22053430845E+04  0.50400001928E-02 0. -1.
       -1   -1    0    0    0  501  0.00000000000E+00  0.00000000000E+00 -0.12307895137E+04  0.12307895137E+04  0.50400001928E-02 0.  1.
    10030    2    1    2    0    0  0.00000000000E+00  0.00000000000E+00  0.97455357082E+03  0.34361325983E+04  0.32950345325E+04 0.  0.
        3    1    3    3  502    0 -0.15325094524E+04  0.48927815981E+03  0.11662044720E+03  0.16129410027E+04  0.10100000352E+00 0.  1.
       -3    1    3    3    0  502  0.15325094524E+04 -0.48927815981E+03  0.85793312362E+03  0.18231915956E+04  0.10100000352E+00 0. -1.
</event>
<event>
 5   0  0.3674967E-07  0.3176163E+04  0.7818609E-02  0.8195141E-01
        1   -1    0    0  501    0  0.00000000000E+00  0.00000000000E+00  0.17659648062E+04  0.17659648062E+04  0.50400001928E-02 0.  1.
       -1   -1    0    0    0  501  0.00000000000E+00  0.00000000000E+00 -0.14281165640E+04  0.14281165640E+04  0.50400001928E-02 0. -1.
    10030    2    1    2    0    0  0.00000000000E+00  0.00000000000E+00  0.33784824222E+03  0.31940813702E+04  0.31761634663E+04 0.  0.
        2    1    3    3  502    0 -0.42401100345E+03 -0.12879972602E+03  0.17025284887E+04  0.17592549432E+04  0.25500000920E-02 0.  1.
       -2    1    3    3    0  502  0.42401100345E+03  0.12879972602E+03 -0.13646802465E+04  0.14348264270E+04  0.25500000920E-02 0. -1.
</event>
<event>
 5   0  0.1129434E-06  0.3302055E+04  0.7818609E-02  0.8162373E-01
       -2   -1    0    0    0  501  0.00000000000E+00  0.00000000000E+00  0.14810770152E+04  0.14810770152E+04  0.25500000920E-02 0. -1.
        2   -1    0    0  501    0  0.00000000000E+00  0.00000000000E+00 -0.18404791981E+04  0.18404791981E+04  0.25500000920E-02 0.  1.
    10030    2    1    2    0    0  0.00000000000E+00  0.00000000000E+00 -0.35940218289E+03  0.33215562133E+04  0.33020547768E+04 0.  0.
        3    1    3    3  502    0 -0.44873037550E+03 -0.94950012833E+03  0.11017858434E+04  0.15221174391E+04  0.10100000352E+00 0. -1.
       -3    1    3    3    0  502  0.44873037550E+03  0.94950012833E+03 -0.14611880263E+04  0.17994387742E+04  0.10100000352E+00 0.  1.
</event>
<event>
 5   0  0.1116462E-06  0.3504295E+04  0.7818609E-02  0.8112773E-01
       -2   -1    0    0    0  501  0.00000000000E+00  0.00000000000E+00  0.21501736329E+04  0.21501736329E+04  0.25500000920E-02 0.  1.
        2   -1    0    0  501    0  0.00000000000E+00  0.00000000000E+00 -0.14278015704E+04  0.14278015704E+04  0.25500000920E-02 0. -1.
    10030    2    1    2    0    0  0.00000000000E+00  0.00000000000E+00  0.72237206253E+03  0.35779752032E+04  0.35042952442E+04 0.  0.
        1    1    3    3  502    0  0.11232308291E+04  0.13194333722E+04  0.62639607418E+03  0.18425319430E+04  0.50400001928E-02 0.  1.
       -1    1    3    3    0  502 -0.11232308291E+04 -0.13194333722E+04  0.95975988355E+02  0.17354432603E+04  0.50400001928E-02 0. -1.
</event>
<event>
 5   0  0.3674967E-07  0.3316099E+04  0.7818609E-02  0.8158811E-01
        1   -1    0    0  501    0  0.00000000000E+00  0.00000000000E+00  0.26631982868E+04  0.26631982868E+04  0.50400001928E-02 0.  1.
       -1   -1    0    0    0  501  0.00000000000E+00  0.00000000000E+00 -0.10322654703E+04  0.10322654703E+04  0.50400001928E-02 0. -1.
    10030    2    1    2    0    0  0.00000000000E+00  0.00000000000E+00  0.16309328165E+04  0.36954637572E+04  0.33160986910E+04 0.  0.
        2    1    3    3  502    0  0.13947733579E+04 -0.81365434027E+03  0.12349633171E+04  0.20328700155E+04  0.25500000920E-02 0.  1.
       -2    1    3    3    0  502 -0.13947733579E+04  0.81365434027E+03  0.39596949936E+03  0.16625937416E+04  0.25500000920E-02 0. -1.
</event>
<event>
 5   0  0.3709747E-07  0.3265628E+04  0.7818609E-02  0.8171697E-01
       -1   -1    0    0    0  501  0.00000000000E+00  0.00000000000E+00  0.12603031277E+04  0.12603031277E+04  0.50400001928E-02 0.  1.
        1   -1    0    0  501    0  0.00000000000E+00  0.00000000000E+00 -0.21154291983E+04  0.21154291983E+04  0.50400001928E-02 0. -1.
    10030    2    1    2    0    0  0.00000000000E+00  0.00000000000E+00 -0.85512607061E+03  0.33757323261E+04  0.32656282918E+04 0.  0.
        4    1    3    3  502    0  0.75959564870E+03 -0.13535864538E+04 -0.95150370212E+03  0.18205885712E+04  0.12699999809E+01 0.  1.
       -4    1    3    3    0  502 -0.75959564870E+03  0.13535864538E+04  0.96377631504E+02  0.15551437549E+04  0.12699999809E+01 0. -1.
</event>
<event>
 5   0  0.3749685E-07  0.3305475E+04  0.7818609E-02  0.8161504E-01
       -1   -1    0    0    0  501  0.00000000000E+00  0.00000000000E+00  0.16755718167E+04  0.16755718167E+04  0.50400001928E-02 0. -1.
        1   -1    0    0  501    0  0.00000000000E+00  0.00000000000E+00 -0.16302144558E+04  0.16302144558E+04  0.50400001928E-02 0.  1.
    10030    2    1    2    0    0  0.00000000000E+00  0.00000000000E+00  0.45357360868E+02  0.33057862725E+04  0.33054750929E+04 0.  0.
        3    1    3    3  502    0 -0.85311067651E+03 -0.14089196204E+04 -0.11404214099E+03  0.16510172450E+04  0.10100000352E+00 0.  1.
       -3    1    3    3    0  502  0.85311067651E+03  0.14089196204E+04  0.15939950186E+03  0.16547690276E+04  0.10100000352E+00 0. -1.
</event>
<event>
 5   0  0.3709747E-07  0.3390437E+04  0.7818609E-02  0.8140257E-01
       -1   -1    0    0    0  501  0.00000000000E+00  0.00000000000E+00  0.14697805224E+04  0.14697805224E+04  0.50400001928E-02 0. -1.
        1   -1    0    0  501    0  0.00000000000E+00  0.00000000000E+00 -0.19552345215E+04  0.19552345215E+04  0.50400001928E-02 0.  1.
    10030    2    1    2    0    0  0.00000000000E+00  0.00000000000E+00 -0.48545399914E+03  0.34250150439E+04  0.33904369137E+04 0.  0.
        4    1    3    3  502    0  0.11287000187E+03  0.16212425796E+04 -0.72992864154E+03  0.17815623969E+04  0.12699999809E+01 0.  1.
       -4    1    3    3    0  502 -0.11287000187E+03 -0.16212425796E+04  0.24447464240E+03  0.16434526470E+04  0.12699999809E+01 0. -1.
</event>
<event>
 5   0  0.1126221E-06  0.3284467E+04  0.7818609E-02  0.8166859E-01
       -2   -1    0    0    0  501  0.00000000000E+00  0.00000000000E+00  0.15295935916E+04  0.15295935916E+04  0.25500000920E-02 0. -1.
        2   -1    0    0  501    0  0.00000000000E+00  0.00000000000E+00 -0.17631678553E+04  0.17631678553E+04  0.25500000920E-02 0.  1.
    10030    2    1    2    0    0  0.00000000000E+00  0.00000000000E+00 -0.23357426371E+03  0.32927614469E+04  0.32844666248E+04 0.  0.
        2    1    3    3  502    0 -0.48578422121E+03  0.47425407905E+03  0.13823243754E+04  0.15400402332E+04  0.25500000920E-02 0. -1.
       -2    1    3    3    0  502  0.48578422121E+03 -0.47425407905E+03 -0.16158986391E+04  0.17527212137E+04  0.25500000920E-02 0.  1.
</event>
<event>
 5   0  0.1116462E-06  0.3303822E+04  0.7818609E-02  0.8161924E-01
       -2   -1    0    0    0  501  0.00000000000E+00  0.00000000000E+00  0.11777903607E+04  0.11777903607E+04  0.25500000920E-02 0. -1.
        2   -1    0    0  501    0  0.00000000000E+00  0.00000000000E+00 -0.23168894967E+04  0.23168894967E+04  0.25500000920E-02 0.  1.
    10030    2    1    2    0    0  0.00000000000E+00  0.00000000000E+00 -0.11390991360E+04  0.34946798574E+04  0.33038220994E+04 0.  0.
        1    1    3    3  502    0 -0.55887453536E+03 -0.14388995120E+04 -0.11917816022E+04  0.19501579268E+04  0.50400001928E-02 0. -1.
       -1    1    3    3    0  502  0.55887453536E+03  0.14388995120E+04  0.52682466162E+02  0.15445219307E+04  0.50400001928E-02 0.  1.
</event>
<event>
 5   0  0.3757406E-07  0.3314233E+04  0.7818609E-02  0.8159283E-01
        1   -1    0    0  501    0  0.00000000000E+00  0.00000000000E+00  0.21968455146E+04  0.21968455146E+04  0.50400001928E-02 0.  1.
       -1   -1    0    0    0  501  0.00000000000E+00  0.00000000000E+00 -0.12499901972E+04  0.12499901972E+04  0.50400001928E-02 0. -1.
    10030    2    1    2    0    0  0.00000000000E+00  0.00000000000E+00  0.94685531738E+03  0.34468357118E+04  0.33142331590E+04 0.  0.
        1    1    3    3  502    0 -0.13440861372E+04  0.96041740207E+03  0.60929225168E+03  0.17607402359E+04  0.50400001928E-02 0.  1.
       -1    1    3    3    0  502  0.13440861372E+04 -0.96041740207E+03  0.33756306570E+03  0.16860954759E+04  0.50400001928E-02 0. -1.
</event>
<event>
 5   0  0.1126221E-06  0.3345309E+04  0.7818609E-02  0.8151461E-01
       -2   -1    0    0    0  501  0.00000000000E+00  0.00000000000E+00  0.11899968618E+04  0.11899968618E+04  0.25500000920E-02 0. -1.
        2   -1    0    0  501    0  0.00000000000E+00  0.00000000000E+00 -0.23510766653E+04  0.23510766653E+04  0.25500000920E-02 0.  1.
    10030    2    1    2    0    0  0.00000000000E+00  0.00000000000E+00 -0.11610798035E+04  0.35410735271E+04  0.33453094647E+04 0.  0.
        2    1    3    3  502    0 -0.75336653537E+03  0.48341568656E+03 -0.20762095976E+04  0.22609507194E+04  0.25500000920E-02 0.  1.
       -2    1    3    3    0  502  0.75336653537E+03 -0.48341568656E+03  0.91512979412E+03  0.12801228077E+04  0.25500000920E-02 0. -1.
</event>
<event>
 5   0  0.3749685E-07  0.3284019E+04  0.7818609E-02  0.8166974E-01
       -1   -1    0    0    0  501  0.00000000000E+00  0.00000000000E+00  0.14079547086E+04  0.14079547087E+04  0.50400001928E-02 0.  1.
        1   -1    0    0  501    0  0.00000000000E+00  0.00000000000E+00 -0.19149724655E+04  0.19149724655E+04  0.50400001928E-02 0. -1.
    10030    2    1    2    0    0  0.00000000000E+00  0.00000000000E+00 -0.50701775681E+03  0.33229271741E+04  0.32840185747E+04 0.  0.
        3    1    3    3  502    0 -0.98090544765E+03 -0.24949675438E+03 -0.15617973944E+04  0.18610844255E+04  0.10100000352E+00 0. -1.
       -3    1    3    3    0  502  0.98090544765E+03  0.24949675438E+03  0.10547796375E+04  0.14618427486E+04  0.10100000352E+00 0.  1.
</event>
<event>
 5   0  0.1116462E-06  0.3309789E+04  0.7818609E-02  0.8160409E-01
       -2   -1    0    0    0  501  0.00000000000E+00  0.00000000000E+00  0.21097513775E+04  0.21097513775E+04  0.25500000920E-02 0. -1.
        2   -1    0    0  501    0  0.00000000000E+00  0.00000000000E+00 -0.12981039584E+04  0.12981039584E+04  0.25500000920E-02 0.  1.
    10030    2    1    2    0    0  0.00000000000E+00  0.00000000000E+00  0.81164741915E+03  0.34078553359E+04  0.33097894884E+04 0.  0.
        1    1    3    3  502    0 -0.94449386239E+03 -0.87675063543E+03 -0.66316543285E+03  0.14493269901E+04  0.50400001928E-02 0.  1.
       -1    1    3    3    0  502  0.94449386239E+03  0.87675063543E+03  0.14748128520E+04  0.19585283458E+04  0.50400001928E-02 0. -1.
</event>
<event>
 5   0  0.3749685E-07  0.3220998E+04  0.7818609E-02  0.8183294E-01
        1   -1    0    0  501    0  0.00000000000E+00  0.00000000000E+00  0.18726598808E+04  0.18726598808E+04  0.50400001928E-02 0. -1.
       -1   -1    0    0    0  501  0.00000000000E+00  0.00000000000E+00 -0.13850390694E+04  0.13850390694E+04  0.50400001928E-02 0.  1.
    10030    2    1    2    0    0  0.00000000000E+00  0.00000000000E+00  0.48762081140E+03  0.32576989502E+04  0.32209980432E+04 0.  0.
        3    1    3    3  502    0  0.68808922932E+03 -0.14043981622E+04 -0.14515729015E+03  0.15706277836E+04  0.10100000352E+00 0.  1.
       -3    1    3    3    0  502 -0.68808922932E+03  0.14043981622E+04  0.63277810155E+03  0.16870711667E+04  0.10100000352E+00 0. -1.
</event>
<event>
 5   0  0.1146799E-06  0.3284930E+04  0.7818609E-02  0.8166741E-01
       -2   -1    0    0    0  501  0.00000000000E+00  0.00000000000E+00  0.18466368902E+04  0.18466368902E+04  0.25500000920E-02 0. -1.
        2   -1    0    0  501    0  0.00000000000E+00  0.00000000000E+00 -0.14608669055E+04  0.14608669055E+04  0.25500000920E-02 0.  1.
    10030    2    1    2    0    0  0.00000000000E+00  0.00000000000E+00  0.38576998470E+03  0.33075037957E+04  0.32849296610E+04 0.  0.
        5    1    3    3  502    0 -0.11010603956E+04  0.97587416276E+03  0.92797346751E+03  0.17394887820E+04  0.46999998093E+01 0. -1.
       -5    1    3    3    0  502  0.11010603956E+04 -0.97587416276E+03 -0.54220348282E+03  0.15680150137E+04  0.46999998093E+01 0.  1.
</event>
<event>
 5   0  0.1116462E-06  0.3274772E+04  0.7818609E-02  0.8169345E-01
        2   -1    0    0  501    0  0.00000000000E+00  0.00000000000E+00  0.13671325296E+04  0.13671325296E+04  0.25500000920E-02 0. -1.
       -2   -1    0    0    0  501  0.00000000000E+00  0.00000000000E+00 -0.19610623370E+04  0.19610623370E+04  0.25500000920E-02 0.  1.
    10030    2    1    2    0    0  0.00000000000E+00  0.00000000000E+00 -0.59392980733E+03  0.33281948666E+04  0.32747715117E+04 0.  0.
        1    1    3    3  502    0  0.27395238387E+03  0.13468190750E+04  0.60753170654E+03  0.15026863624E+04  0.50400001928E-02 0. -1.
       -1    1    3    3    0  502 -0.27395238387E+03 -0.13468190750E+04 -0.12014615139E+04  0.18255085042E+04  0.50400001928E-02 0.  1.
</event>
<event>
 5   0  0.3674967E-07  0.3291226E+04  0.7818609E-02  0.8165131E-01
       -1   -1    0    0    0  501  0.00000000000E+00  0.00000000000E+00  0.20225087207E+04  0.20225087207E+04  0.50400001928E-02 0.  1.
        1   -1    0    0  501    0  0.00000000000E+00  0.00000000000E+00 -0.13389523355E+04  0.13389523355E+04  0.50400001928E-02 0. -1.
    10030    2    1    2    0    0  0.00000000000E+00  0.00000000000E+00  0.68355638513E+03  0.33614610562E+04  0.32912263825E+04 0.  0.
        2    1    3    3  502    0 -0.38414447422E+03 -0.43629770193E+03 -0.12305945492E+04  0.13609869971E+04  0.25500000920E-02 0. -1.
       -2    1    3    3    0  502  0.38414447422E+03  0.43629770193E+03  0.19141509343E+04  0.20004740591E+04  0.25500000920E-02 0.  1.
</event>
<event>
 5   0  0.1126221E-06  0.3308953E+04  0.7818609E-02  0.8160621E-01
       -2   -1    0    0    0  501  0.00000000000E+00  0.00000000000E+00  0.15317208860E+04  0.15317208860E+04  0.25500000920E-02 0. -1.
        2   -1    0    0  501    0  0.00000000000E+00  0.00000000000E+00 -0.17870701436E+04  0.17870701436E+04  0.25500000920E-02 0.  1.
    10030    2    1    2    0    0  0.00000000000E+00  0.00000000000E+00 -0.25534925759E+03  0.33187910296E+04  0.33089531056E+04 0.  0.
        2    1    3    3  502    0  0.67285919504E+03 -0.12258191480E+04 -0.10145663851E+04  0.17276333609E+04  0.25500000920E-02 0.  1.
       -2    1    3    3    0  502 -0.67285919504E+03  0.12258191480E+04  0.75921712754E+03  0.15911576687E+04  0.25500000920E-02 0. -1.
</event>
<event>
 5   0  0.1116462E-06  0.3300632E+04  0.7818609E-02  0.8162735E-01
       -2   -1    0    0    0  501  0.00000000000E+00  0.00000000000E+00  0.13278989573E+04  0.13278989573E+04  0.25500000920E-02 0.  1.
        2   -1    0    0  501    0  0.00000000000E+00  0.00000000000E+00 -0.20510163633E+04  0.20510163633E+04  0.25500000920E-02 0. -1.
    10030    2    1    2    0    0  0.00000000000E+00  0.00000000000E+00 -0.72311740603E+03  0.33789153206E+04  0.33006317518E+04 0.  0.
        1    1    3    3  502    0  0.50669671206E+03  0.13520462771E+04 -0.11797466947E+04  0.18645570404E+04  0.50400001928E-02 0.  1.
       -1    1    3    3    0  502 -0.50669671206E+03 -0.13520462771E+04  0.45662928864E+03  0.15143582802E+04  0.50400001928E-02 0. -1.
</event>
<event>
 5   0  0.3674967E-07  0.3369869E+04  0.7818609E-02  0.8145341E-01
        1   -1    0    0  501    0  0.00000000000E+00  0.00000000000E+00  0.18326837710E+04  0.18326837710E+04  0.50400001928E-02 0. -1.
       -1   -1    0    0    0  501  0.00000000000E+00  0.00000000000E+00 -0.15490967191E+04  0.15490967191E+04  0.50400001928E-02 0.  1.
    10030    2    1    2    0    0  0.00000000000E+00  0.00000000000E+00  0.28358705193E+03  0.33817804901E+04  0.33698690876E+04 0.  0.
        2    1    3    3  502    0 -0.16501250031E+04  0.49479084405E+02 -0.19650888134E+03  0.16625211115E+04  0.25500000920E-02 0. -1.
       -2    1    3    3    0  502  0.16501250031E+04 -0.49479084405E+02  0.48009593327E+03  0.17192593786E+04  0.25500000920E-02 0.  1.
</event>
<event>
 5   0  0.3709747E-07  0.3297797E+04  0.7818609E-02  0.8163456E-01
       -1   -1    0    0    0  501  0.00000000000E+00  0.00000000000E+00  0.11359742522E+04  0.11359742522E+04  0.50400001928E-02 0. -1.
        1   -1    0    0  501    0  0.00000000000E+00  0.00000000000E+00 -0.23934229402E+04  0.23934229402E+04  0.50400001928E-02 0.  1.
    10030    2    1    2    0    0  0.00000000000E+00  0.00000000000E+00 -0.12574486880E+04  0.35293971924E+04  0.32977973466E+04 0.  0.
        4    1    3    3  502    0 -0.11911870377E+04  0.11400529418E+04 -0.64452437693E+03  0.17703278098E+04  0.12699999809E+01 0.  1.
       -4    1    3    3    0  502  0.11911870377E+04 -0.11400529418E+04 -0.61292431104E+03  0.17590693826E+04  0.12699999809E+01 0. -1.
</event>
<event>
 5   0  0.1146799E-06  0.3242354E+04  0.7818609E-02  0.8177720E-01
        2   -1    0    0  501    0  0.00000000000E+00  0.00000000000E+00  0.14312349090E+04  0.14312349090E+04  0.25500000920E-02 0. -1.
       -2   -1    0    0    0  501  0.00000000000E+00  0.00000000000E+00 -0.18363272007E+04  0.18363272007E+04  0.25500000920E-02 0.  1.
    10030    2    1    2    0    0  0.00000000000E+00  0.00000000000E+00 -0.40509229163E+03  0.32675621097E+04  0.32423544495E+04 0.  0.
        5    1    3    3  502    0  0.42615081055E+03  0.21034165037E+03 -0.17645463434E+04  0.18274282506E+04  0.46999998093E+01 0.  1.
       -5    1    3    3    0  502 -0.42615081055E+03 -0.21034165037E+03  0.13594540518E+04  0.14401338591E+04  0.46999998093E+01 0. -1.
</event>
<event>
 5   0  0.3796529E-07  0.3318105E+04  0.7818609E-02  0.8158304E-01
        1   -1    0    0  501    0  0.00000000000E+00  0.00000000000E+00  0.10929605155E+04  0.10929605155E+04  0.50400001928E-02 0.  1.
       -1   -1    0    0    0  501  0.00000000000E+00  0.00000000000E+00 -0.25183481739E+04  0.25183481739E+04  0.50400001928E-02 0. -1.
    10030    2    1    2    0    0  0.00000000000E+00  0.00000000000E+00 -0.14253876583E+04  0.36113086894E+04  0.33181049522E+04 0.  0.
        5    1    3    3  502    0  0.15510951443E+04 -0.37920409011E+03 -0.12027495190E+04  0.19990798844E+04  0.46999998093E+01 0.  1.
       -5    1    3    3    0  502 -0.15510951443E+04  0.37920409011E+03 -0.22263813930E+03  0.16122288050E+04  0.46999998093E+01 0. -1.
</event>
<event>
 5   0  0.3749685E-07  0.3304649E+04  0.7818609E-02  0.8161713E-01
        1   -1    0    0  501    0  0.00000000000E+00  0.00000000000E+00  0.10843642486E+04  0.10843642486E+04  0.50400001928E-02 0. -1.
       -1   -1    0    0    0  501  0.00000000000E+00  0.00000000000E+00 -0.25177672048E+04  0.25177672048E+04  0.50400001928E-02 0.  1.
    10030    2    1    2    0    0  0.00000000000E+00  0.00000000000E+00 -0.14334029562E+04  0.36021314534E+04  0.33046492964E+04 0.  0.
        3    1    3    3  502    0  0.11097738381E+04 -0.49283947700E+03  0.50474672337E+03  0.13150125425E+04  0.10100000352E+00 0. -1.
       -3    1    3    3    0  502 -0.11097738381E+04  0.49283947700E+03 -0.19381496796E+04  0.22871189109E+04  0.10100000352E+00 0.  1.
</event>
<event>
 5   0  0.1129434E-06  0.3301447E+04  0.7818609E-02  0.8162527E-01
        2   -1    0    0  501    0  0.00000000000E+00  0.00000000000E+00  0.19648777740E+04  0.19648777740E+04  0.25500000920E-02 0. -1.
       -2   -1    0    0    0  501  0.00000000000E+00  0.00000000000E+00 -0.13867980666E+04  0.13867980666E+04  0.25500000920E-02 0.  1.
    10030    2    1    2    0    0  0.00000000000E+00  0.00000000000E+00  0.57807970739E+03  0.33516758406E+04  0.33014473784E+04 0.  0.
        3    1    3    3  502    0 -0.45126556619E+03  0.17022733585E+03 -0.13136712215E+04  0.13994106065E+04  0.10100000352E+00 0.  1.
       -3    1    3    3    0  502  0.45126556619E+03 -0.17022733585E+03  0.18917509289E+04  0.19522652341E+04  0.10100000352E+00 0. -1.
</event>
<event>
 5   0  0.1146799E-06  0.3128086E+04  0.7818609E-02  0.8208072E-01
       -2   -1    0    0    0  501  0.00000000000E+00  0.00000000000E+00  0.13549080430E+04  0.13549080430E+04  0.25500000920E-02 0.  1.
        2   -1    0    0  501    0  0.00000000000E+00  0.00000000000E+00 -0.18054584238E+04  0.18054584238E+04  0.25500000920E-02 0. -1.
    10030    2    1    2    0    0  0.00000000000E+00  0.00000000000E+00 -0.45055038082E+03  0.31603664668E+04  0.31280857659E+04 0.  0.
        5    1    3    3  502    0  0.12935223012E+04 -0.58797118087E+03 -0.88570127984E+03  0.16743353608E+04  0.46999998093E+01 0. -1.
       -5    1    3    3    0  502 -0.12935223012E+04  0.58797118087E+03  0.43515089902E+03  0.14860311060E+04  0.46999998093E+01 0.  1.
</event>
<event>
 5   0  0.3796529E-07  0.3289721E+04  0.7818609E-02  0.8165516E-01
       -1   -1    0    0    0  501  0.00000000000E+00  0.00000000000E+00  0.13581299626E+04  0.13581299626E+04  0.50400001928E-02 0. -1.
        1   -1    0    0  501    0  0.00000000000E+00  0.00000000000E+00 -0.19921257554E+04  0.19921257554E+04  0.50400001928E-02 0.  1.
    10030    2    1    2    0    0  0.00000000000E+00  0.00000000000E+00 -0.63399579280E+03  0.33502557181E+04  0.32897207649E+04 0.  0.
        5    1    3    3  502    0  0.75462174524E+03  0.48913561089E+03 -0.17195978124E+04  0.19405531043E+04  0.46999998093E+01 0.  1.
       -5    1    3    3    0  502 -0.75462174524E+03 -0.48913561089E+03  0.10856020196E+04  0.14097026138E+04  0.46999998093E+01 0. -1.
</event>
<event>
 5   0  0.3674967E-07  0.3326498E+04  0.7818609E-02  0.8156186E-01
       -1   -1    0    0    0  501  0.00000000000E+00  0.00000000000E+00  0.16218125880E+04  0.16218125880E+04  0.50400001928E-02 0.  1.
        1   -1    0    0  501    0  0.00000000000E+00  0.00000000000E+00 -0.17057441181E+04  0.17057441181E+04  0.50400001928E-02 0. -1.
    10030    2    1    2    0    0  0.00000000000E+00  0.00000000000E+00 -0.83931530101E+02  0.33275567062E+04  0.33264980281E+04 0.  0.
        2    1    3    3  502    0  0.53090855652E+03 -0.11357492538E+04  0.10513628784E+04  0.16362011383E+04  0.25500000920E-02 0.  1.
       -2    1    3    3    0  502 -0.53090855652E+03  0.11357492538E+04 -0.11352944085E+04  0.16913555679E+04  0.25500000920E-02 0. -1.
</event>
<event>
 5   0  0.1120545E-06  0.3305134E+04  0.7818609E-02  0.8161590E-01
        2   -1    0    0  501    0  0.00000000000E+00  0.00000000000E+00  0.17696725109E+04  0.17696725110E+04  0.25500000920E-02 0.  1.
       -2   -1    0    0    0  501  0.00000000000E+00  0.00000000000E+00 -0.15432110220E+04  0.15432110220E+04  0.25500000920E-02 0. -1.
    10030    2    1    2    0    0  0.00000000000E+00  0.00000000000E+00  0.22646148894E+03  0.33128835330E+04  0.33051342631E+04 0.  0.
        4    1    3    3  502    0 -0.14291734749E+04  0.62994280126E+03  0.65450774865E+03  0.16934422813E+04  0.12699999809E+01 0.  1.
       -4    1    3    3    0  502  0.14291734749E+04 -0.62994280126E+03 -0.42804625971E+03  0.16194412517E+04  0.12699999809E+01 0. -1.
</event>
<event>
 5   0  0.1146799E-06  0.3298643E+04  0.7818609E-02  0.8163241E-01
        2   -1    0    0  501    0  0.00000000000E+00  0.00000000000E+00  0.92397539969E+03  0.92397539969E+03  0.25500000920E-02 0.  1.
       -2   -1    0    0    0  501  0.00000000000E+00  0.00000000000E+00 -0.29440844461E+04  0.29440844461E+04  0.25500000920E-02 0. -1.
    10030    2    1    2    0    0  0.00000000000E+00  0.00000000000E+00 -0.20201090464E+04  0.38680598457E+04  0.32986431167E+04 0.  0.
        5    1    3    3  502    0  0.10194847841E+04  0.85723098299E+03  0.13049415741E+03  0.13383740128E+04  0.46999998093E+01 0.  1.
       -5    1    3    3    0  502 -0.10194847841E+04 -0.85723098299E+03 -0.21506032038E+04  0.25296858329E+04  0.46999998093E+01 0. -1.
</event>
<event>
 5   0  0.3757406E-07  0.3247474E+04  0.7818609E-02  0.8176391E-01
        1   -1    0    0  501    0  0.00000000000E+00  0.00000000000E+00  0.23221540367E+04  0.23221540367E+04  0.50400001928E-02 0. -1.
       -1   -1    0    0    0  501  0.00000000000E+00  0.00000000000E+00 -0.11353773926E+04  0.11353773926E+04  0.50400001928E-02 0.  1.
    10030    2    1    2    0    0  0.00000000000E+00  0.00000000000E+00  0.11867766440E+04  0.34575314293E+04  0.32474735999E+04 0.  0.
        1    1    3    3  502    0  0.14414568913E+03  0.85716712456E+03 -0.86682329171E+03  0.12275569552E+04  0.50400001928E-02 0.  1.
       -1    1    3    3    0  502 -0.14414568913E+03 -0.85716712456E+03  0.20535999357E+04  0.22299744741E+04  0.50400001928E-02 0. -1.
</event>
<event>
 5   0  0.1126221E-06  0.3305969E+04  0.7818609E-02  0.8161378E-01
        2   -1    0    0  501    0  0.00000000000E+00  0.00000000000E+00  0.17291903017E+04  0.17291903017E+04  0.25500000920E-02 0. -1.
       -2   -1    0    0    0  501  0.00000000000E+00  0.00000000000E+00 -0.15801370815E+04  0.15801370815E+04  0.25500000920E-02 0.  1.
    10030    2    1    2    0    0  0.00000000000E+00  0.00000000000E+00  0.14905322025E+03  0.33093273832E+04  0.33059689754E+04 0.  0.
        2    1    3    3  502    0  0.11479840586E+04  0.97413610977E+03  0.75753137228E+03  0.16854264562E+04  0.25500000920E-02 0. -1.
       -2    1    3    3    0  502 -0.11479840586E+04 -0.97413610977E+03 -0.60847815203E+03  0.16239009270E+04  0.25500000920E-02 0.  1.
</event>
<event>
 5   0  0.3674967E-07  0.3311320E+04  0.7818609E-02  0.8160021E-01
       -1   -1    0    0    0  501  0.00000000000E+00  0.00000000000E+00  0.12737882100E+04  0.12737882100E+04  0.50400001928E-02 0.  1.
        1   -1    0    0  501    0  0.00000000000E+00  0.00000000000E+00 -0.21520140070E+04  0.21520140070E+04  0.50400001928E-02 0. -1.
    10030    2    1    2    0    0  0.00000000000E+00  0.00000000000E+00 -0.87822579703E+03  0.34258022170E+04  0.33113200206E+04 0.  0.
        2    1    3    3  502    0 -0.15353023159E+04 -0.29082323893E+03  0.12705352472E+03  0.15677608094E+04  0.25500000920E-02 0.  1.
       -2    1    3    3    0  502  0.15353023159E+04  0.29082323893E+03 -0.10052793218E+04  0.18580414075E+04  0.25500000920E-02 0. -1.
</event>
<event>
 5   0  0.1116462E-06  0.3267779E+04  0.7818609E-02  0.8171143E-01
        2   -1    0    0  501    0  0.00000000000E+00  0.00000000000E+00  0.27176460113E+04  0.27176460113E+04  0.25500000920E-02 0.  1.
       -2   -1    0    0    0  501  0.00000000000E+00  0.00000000000E+00 -0.98231889661E+03  0.98231889662E+03  0.25500000920E-02 0. -1.
    10030    2    1    2    0    0  0.00000000000E+00  0.00000000000E+00  0.17353271147E+04  0.36999649079E+04  0.32677790814E+04 0.  0.
        1    1    3    3  502    0 -0.54951807486E+03 -0.14760506396E+04  0.13597713426E+04  0.20807868006E+04  0.50400001928E-02 0.  1.
       -1    1    3    3    0  502  0.54951807486E+03  0.14760506396E+04  0.37555577209E+03  0.16191781073E+04  0.50400001928E-02 0. -1.
</event>
<event>
 5   0  0.3749685E-07  0.3202890E+04  0.7818609E-02  0.8188054E-01
       -1   -1    0    0    0  501  0.00000000000E+00  0.00000000000E+00  0.10536143898E+04  0.10536143898E+04  0.50400001928E-02 0.  1.
        1   -1    0    0  501    0  0.00000000000E+00  0.00000000000E+00 -0.24341220526E+04  0.24341220526E+04  0.50400001928E-02 0. -1.
    10030    2    1    2    0    0  0.00000000000E+00  0.00000000000E+00 -0.13805076628E+04  0.34877364424E+04  0.32028899582E+04 0.  0.
        3    1    3    3  502    0  0.86185096189E+03  0.70511701815E+02  0.77753376508E+03  0.11628919755E+04  0.10100000352E+00 0.  1.
       -3    1    3    3    0  502 -0.86185096189E+03 -0.70511701815E+02 -0.21580414279E+04  0.23248444669E+04  0.10100000352E+00 0. -1.
</event>
<event>
 5   0  0.3749685E-07  0.3302709E+04  0.7818609E-02  0.8162206E-01
        1   -1    0    0  501    0  0.00000000000E+00  0.00000000000E+00  0.17828373127E+04  0.17828373127E+04  0.50400001928E-02 0.  1.
       -1   -1    0    0    0  501  0.00000000000E+00  0.00000000000E+00 -0.15295688646E+04  0.15295688646E+04  0.50400001928E-02 0. -1.
    10030    2    1    2    0    0  0.00000000000E+00  0.00000000000E+00  0.25326844812E+03  0.33124061773E+04  0.33027094599E+04 0.  0.
        3    1    3    3  502    0  0.37138565397E+03  0.12279697102E+04  0.11694636652E+04  0.17359384170E+04  0.10100000352E+00 0.  1.
       -3    1    3    3    0  502 -0.37138565397E+03 -0.12279697102E+04 -0.91619521713E+03  0.15764677603E+04  0.10100000352E+00 0. -1.
</event>
<event>
 5   0  0.1120545E-06  0.3286501E+04  0.7818609E-02  0.8166339E-01
       -2   -1    0    0    0  501  0.00000000000E+00  0.00000000000E+00  0.19555859802E+04  0.19555859802E+04  0.25500000920E-02 0.  1.
        2   -1    0    0  501    0  0.00000000000E+00  0.00000000000E+00 -0.13807993663E+04  0.13807993663E+04  0.25500000920E-02 0. -1.
    10030    2    1    2    0    0  0.00000000000E+00  0.00000000000E+00  0.57478661397E+03  0.33363853465E+04  0.32865008031E+04 0.  0.
        4    1    3    3  502    0 -0.22398524586E+03  0.17189084009E+03  0.19307773043E+04  0.19513119851E+04  0.12699999809E+01 0.  1.
       -4    1    3    3    0  502  0.22398524586E+03 -0.17189084009E+03 -0.13559906904E+04  0.13850733614E+04  0.12699999809E+01 0. -1.
</event>
<event>
 5   0  0.1116462E-06  0.3309333E+04  0.7818609E-02  0.8160525E-01
       -2   -1    0    0    0  501  0.00000000000E+00  0.00000000000E+00  0.16219486138E+04  0.16219486138E+04  0.25500000920E-02 0.  1.
        2   -1    0    0  501    0  0.00000000000E+00  0.00000000000E+00 -0.16880447708E+04  0.16880447708E+04  0.25500000920E-02 0. -1.
    10030    2    1    2    0    0  0.00000000000E+00  0.00000000000E+00 -0.66096156978E+02  0.33099933846E+04  0.33093333928E+04 0.  0.
        1    1    3    3  502    0 -0.14040475659E+03 -0.15965390606E+04  0.37846004034E+03  0.16467794236E+04  0.50400001928E-02 0.  1.
       -1    1    3    3    0  502  0.14040475659E+03  0.15965390606E+04 -0.44455619732E+03  0.16632139611E+04  0.50400001928E-02 0. -1.
</event>
<event>
 5   0  0.3674967E-07  0.3341304E+04  0.7818609E-02  0.8152464E-01
       -1   -1    0    0    0  501  0.00000000000E+00  0.00000000000E+00  0.18793737967E+04  0.18793737968E+04  0.50400001928E-02 0.  1.
        1   -1    0    0  501    0  0.00000000000E+00  0.00000000000E+00 -0.14851107531E+04  0.14851107531E+04  0.50400001928E-02 0. -1.
    10030    2    1    2    0    0  0.00000000000E+00  0.00000000000E+00  0.39426304362E+03  0.33644845499E+04  0.33413040776E+04 0.  0.
        2    1    3    3  502    0 -0.49158392212E+03  0.14911637052E+04  0.77192820958E+03  0.17495991280E+04  0.25500000920E-02 0.  1.
       -2    1    3    3    0  502  0.49158392212E+03 -0.14911637052E+04 -0.37766516595E+03  0.16148854218E+04  0.25500000920E-02 0. -1.
</event>
<event>
 5   0  0.3709747E-07  0.3312507E+04  0.7818609E-02  0.8159720E-01
        1   -1    0    0  501    0  0.00000000000E+00  0.00000000000E+00  0.18234146293E+04  0.18234146293E+04  0.50400001928E-02 0. -1.
       -1   -1    0    0    0  501  0.00000000000E+00  0.00000000000E+00 -0.15044166460E+04  0.15044166460E+04  0.50400001928E-02 0.  1.
    10030    2    1    2    0    0  0.00000000000E+00  0.00000000000E+00  0.31899798335E+03  0.33278312753E+04  0.33125067975E+04 0.  0.
        4    1    3    3  502    0 -0.15839208609E+04  0.41904427265E+03 -0.84048420083E+02  0.16405697626E+04  0.12699999809E+01 0.  1.
       -4    1    3    3    0  502  0.15839208609E+04 -0.41904427265E+03  0.40304640343E+03  0.16872615127E+04  0.12699999809E+01 0. -1.
</event>
<event>
 5   0  0.3796529E-07  0.3294451E+04  0.7818609E-02  0.8164309E-01
        1   -1    0    0  501    0  0.00000000000E+00  0.00000000000E+00  0.26633624828E+04  0.26633624828E+04  0.50400001928E-02 0. -1.
       -1   -1    0    0    0  501  0.00000000000E+00  0.00000000000E+00 -0.10187689778E+04  0.10187689778E+04  0.50400001928E-02 0.  1.
    10030    2    1    2    0    0  0.00000000000E+00  0.00000000000E+00  0.16445935049E+04  0.36821314606E+04  0.32944505303E+04 0.  0.
        5    1    3    3  502    0  0.15464056512E+04 -0.42586875548E+03  0.40321357118E+03  0.16538857001E+04  0.46999998093E+01 0.  1.
       -5    1    3    3    0  502 -0.15464056512E+04  0.42586875548E+03  0.12413799338E+04  0.20282457605E+04  0.46999998093E+01 0. -1.
</event>
<event>
 5   0  0.1126221E-06  0.3303678E+04  0.7818609E-02  0.8161960E-01
       -2   -1    0    0    0  501  0.00000000000E+00  0.00000000000E+00  0.18420890272E+04  0.18420890272E+04  0.25500000920E-02 0.  1.
        2   -1    0    0  501    0  0.00000000000E+00  0.00000000000E+00 -0.14812380065E+04  0.14812380065E+04  0.25500000920E-02 0. -1.
    10030    2    1    2    0    0  0.00000000000E+00  0.00000000000E+00  0.36085102077E+03  0.33233270337E+04  0.33036781190E+04 0.  0.
        2    1    3    3  502    0 -0.39601188656E+03 -0.59975011447E+03 -0.13157153904E+04  0.14992106599E+04  0.25500000920E-02 0. -1.
       -2    1    3    3    0  502  0.39601188656E+03  0.59975011447E+03  0.16765664112E+04  0.18241163738E+04  0.25500000920E-02 0.  1.
</event>
<event>
 5   0  0.3709747E-07  0.3286575E+04  0.7818609E-02  0.8166320E-01
        1   -1    0    0  501    0  0.00000000000E+00  0.00000000000E+00  0.92467591679E+03  0.92467591680E+03  0.50400001928E-02 0. -1.
       -1   -1    0    0    0  501  0.00000000000E+00  0.00000000000E+00 -0.29203679682E+04  0.29203679682E+04  0.50400001928E-02 0.  1.
    10030    2    1    2    0    0  0.00000000000E+00  0.00000000000E+00 -0.19956920514E+04  0.38450438850E+04  0.32865750734E+04 0.  0.
        4    1    3    3  502    0  0.41435175146E+03  0.52624115339E+03  0.75773249533E+03  0.10113245141E+04  0.12699999809E+01 0. -1.
       -4    1    3    3    0  502 -0.41435175146E+03 -0.52624115339E+03 -0.27534245467E+04  0.28337193709E+04  0.12699999809E+01 0.  1.
</event>
<event>
 5   0  0.1146799E-06  0.3304164E+04  0.7818609E-02  0.8161837E-01
       -2   -1    0    0    0  501  0.00000000000E+00  0.00000000000E+00  0.13671471141E+04  0.13671471141E+04  0.25500000920E-02 0. -1.
        2   -1    0    0  501    0  0.00000000000E+00  0.00000000000E+00 -0.19964020695E+04  0.19964020696E+04  0.25500000920E-02 0.  1.
    10030    2    1    2    0    0  0.00000000000E+00  0.00000000000E+00 -0.62925495548E+03  0.33635491836E+04  0.33041642380E+04 0.  0.
        5    1    3    3  502    0 -0.78716642842E+03  0.11552639261E+04  0.58158611454E+03  0.15141103736E+04  0.46999998093E+01 0. -1.
       -5    1    3    3    0  502  0.78716642842E+03 -0.11552639261E+04 -0.12108410700E+04  0.18494388100E+04  0.46999998093E+01 0.  1.
</event>
<event>
 5   0  0.3796529E-07  0.3324557E+04  0.7818609E-02  0.8156675E-01
        1   -1    0    0  501    0  0.00000000000E+00  0.00000000000E+00  0.17120641021E+04  0.17120641021E+04  0.50400001928E-02 0.  1.
       -1   -1    0    0    0  501  0.00000000000E+00  0.00000000000E+00 -0.16139410579E+04  0.16139410579E+04  0.50400001928E-02 0. -1.
    10030    2    1    2    0    0  0.00000000000E+00  0.00000000000E+00  0.98123044204E+02  0.33260051600E+04  0.33245574431E+04 0.  0.
        5    1    3    3  502    0  0.61249886727E+03 -0.67341575131E+03 -0.13424089208E+04  0.16219517370E+04  0.46999998093E+01 0. -1.
       -5    1    3    3    0  502 -0.61249886727E+03  0.67341575131E+03  0.14405319650E+04  0.17040534230E+04  0.46999998093E+01 0.  1.
</event>
<event>
 5   0  0.3757406E-07  0.3285597E+04  0.7818609E-02  0.8166570E-01
        1   -1    0    0  501    0  0.00000000000E+00  0.00000000000E+00  0.19631319040E+04  0.19631319040E+04  0.50400001928E-02 0.  1.
       -1   -1    0    0    0  501  0.00000000000E+00  0.00000000000E+00 -0.13747352778E+04  0.13747352778E+04  0.50400001928E-02 0. -1.
    10030    2    1    2    0    0  0.00000000000E+00  0.00000000000E+00  0.58839662619E+03  0.33378671818E+04  0.32855968610E+04 0.  0.
        1    1    3    3  502    0 -0.10316192968E+04 -0.83460742316E+03  0.12780990332E+04  0.18423748432E+04  0.50400001928E-02 0.  1.
       -1    1    3    3    0  502  0.10316192968E+04  0.83460742316E+03 -0.68970240697E+03  0.14954923385E+04  0.50400001928E-02 0. -1.
</event>
<event>
 5   0  0.1126221E-06  0.3306307E+04  0.7818609E-02  0.8161292E-01
        2   -1    0    0  501    0  0.00000000000E+00  0.00000000000E+00  0.13983993618E+04  0.13983993618E+04  0.25500000920E-02 0. -1.
       -2   -1    0    0    0  501  0.00000000000E+00  0.00000000000E+00 -0.19543178635E+04  0.19543178635E+04  0.25500000920E-02 0.  1.
    10030    2    1    2    0    0  0.00000000000E+00  0.00000000000E+00 -0.55591850167E+03  0.33527172252E+04  0.33063072168E+04 0.  0.
        2    1    3    3  502    0 -0.10905499615E+04  0.21248575706E+03  0.96334252189E+03  0.14705367150E+04  0.25500000920E-02 0. -1.
       -2    1    3    3    0  502  0.10905499615E+04 -0.21248575706E+03 -0.15192610236E+04  0.18821805103E+04  0.25500000920E-02 0.  1.
</event>
<event>
 5   0  0.3796529E-07  0.3286341E+04  0.7818609E-02  0.8166380E-01
        1   -1    0    0  501    0  0.00000000000E+00  0.00000000000E+00  0.19886491366E+04  0.19886491366E+04  0.50400001928E-02 0. -1.
       -1   -1    0    0    0  501  0.00000000000E+00  0.00000000000E+00 -0.13577100431E+04  0.13577100431E+04  0.50400001928E-02 0.  1.
    10030    2    1    2    0    0  0.00000000000E+00  0.00000000000E+00  0.63093909344E+03  0.33463591797E+04  0.32863407644E+04 0.  0.
        5    1    3    3  502    0 -0.14253293203E+04 -0.39100386089E+02  0.11470197305E+04  0.18299641700E+04  0.46999998093E+01 0. -1.
       -5    1    3    3    0  502  0.14253293203E+04  0.39100386089E+02 -0.51608063704E+03  0.15163950097E+04  0.46999998093E+01 0.  1.
</event>
<event>
 5   0  0.1116462E-06  0.3289896E+04  0.7818609E-02  0.8165471E-01
       -2   -1    0    0    0  501  0.00000000000E+00  0.00000000000E+00  0.12290491596E+04  0.12290491597E+04  0.25500000920E-02 0.  1.
        2   -1    0    0  501    0  0.00000000000E+00  0.00000000000E+00 -0.22015835408E+04  0.22015835408E+04  0.25500000920E-02 0. -1.
    10030    2    1    2    0    0  0.00000000000E+00  0.00000000000E+00 -0.97253438114E+03  0.34306327004E+04  0.32898962906E+04 0.  0.
        1    1    3    3  502    0  0.65413973043E+03 -0.14746054717E+04 -0.82173454676E+03  0.18104164574E+04  0.50400001928E-02 0. -1.
       -1    1    3    3    0  502 -0.65413973043E+03  0.14746054717E+04 -0.15079983439E+03  0.16202162430E+04  0.50400001928E-02 0.  1.
</event>
<event>
 5   0  0.3757406E-07  0.3312490E+04  0.7818609E-02  0.8159725E-01
        1   -1    0    0  501    0  0.00000000000E+00  0.00000000000E+00  0.28622957054E+04  0.28622957054E+04  0.50400001928E-02 0.  1.
       -1   -1    0    0    0  501  0.00000000000E+00  0.00000000000E+00 -0.95837328500E+03  0.95837328501E+03  0.50400001928E-02 0. -1.
    10030    2    1    2    0    0  0.00000000000E+00  0.00000000000E+00  0.19039224204E+04  0.38206689904E+04  0.33124901436E+04 0.  0.
        1    1    3    3  502    0  0.53371094667E+03 -0.84147688759E+03 -0.57395528974E+03  0.11499371294E+04  0.50400001928E-02 0. -1.
       -1    1    3    3    0  502 -0.53371094667E+03  0.84147688759E+03  0.24778777101E+04  0.26707318610E+04  0.50400001928E-02 0.  1.
</event>
<event>
 5   0  0.3674967E-07  0.3293862E+04  0.7818609E-02  0.8164459E-01
        1   -1    0    0  501    0  0.00000000000E+00  0.00000000000E+00  0.20999567837E+04  0.20999567837E+04  0.50400001928E-02 0.  1.
       -1   -1    0    0    0  501  0.00000000000E+00  0.00000000000E+00 -0.12916372847E+04  0.12916372847E+04  0.50400001928E-02 0. -1.
    10030    2    1    2    0    0  0.00000000000E+00  0.00000000000E+00  0.80831949898E+03  0.33915940685E+04  0.32938624611E+04 0.  0.
        2    1    3    3  502    0 -0.69526470571E+03  0.55596800946E+03 -0.10225527658E+04  0.13557682683E+04  0.25500000920E-02 0. -1.
       -2    1    3    3    0  502  0.69526470571E+03 -0.55596800946E+03  0.18308722648E+04  0.20358258001E+04  0.25500000920E-02 0.  1.
</event>
<event>
 5   0  0.1120545E-06  0.3297022E+04  0.7818609E-02  0.8163653E-01
        2   -1    0    0  501    0  0.00000000000E+00  0.00000000000E+00  0.17333265685E+04  0.17333265685E+04  0.25500000920E-02 0.  1.
       -2   -1    0    0    0  501  0.00000000000E+00  0.00000000000E+00 -0.15678460641E+04  0.15678460641E+04  0.25500000920E-02 0. -1.
    10030    2    1    2    0    0  0.00000000000E+00  0.00000000000E+00  0.16548050432E+03  0.33011726326E+04  0.32970224374E+04 0.  0.
        4    1    3    3  502    0 -0.11086837393E+03 -0.73023921986E+03  0.15583818649E+04  0.17245569763E+04  0.12699999809E+01 0.  1.
       -4    1    3    3    0  502  0.11086837393E+03  0.73023921986E+03 -0.13929013606E+04  0.15766156563E+04  0.12699999809E+01 0. -1.
</event>
<event>
 5   0  0.1126221E-06  0.3297865E+04  0.7818609E-02  0.8163439E-01
       -2   -1    0    0    0  501  0.00000000000E+00  0.00000000000E+00  0.11554780008E+04  0.11554780008E+04  0.25500000920E-02 0. -1.
        2   -1    0    0  501    0  0.00000000000E+00  0.00000000000E+00 -0.23531200978E+04  0.23531200978E+04  0.25500000920E-02 0.  1.
    10030    2    1    2    0    0  0.00000000000E+00  0.00000000000E+00 -0.11976420970E+04  0.35085980987E+04  0.32978650708E+04 0.  0.
        2    1    3    3  502    0 -0.11514988052E+04  0.29040652617E+03  0.61826039261E+03  0.13388544962E+04  0.25500000920E-02 0. -1.
       -2    1    3    3    0  502  0.11514988052E+04 -0.29040652617E+03 -0.18159024896E+04  0.21697436025E+04  0.25500000920E-02 0.  1.
</event>
<event>
 5   0  0.1120545E-06  0.3319907E+04  0.7818609E-02  0.8157849E-01
       -2   -1    0    0    0  501  0.00000000000E+00  0.00000000000E+00  0.16414094347E+04  0.16414094347E+04  0.25500000920E-02 0. -1.
        2   -1    0    0  501    0  0.00000000000E+00  0.00000000000E+00 -0.16787068497E+04  0.16787068497E+04  0.25500000920E-02 0.  1.
    10030    2    1    2    0    0  0.00000000000E+00  0.00000000000E+00 -0.37297414989E+02  0.33201162845E+04  0.33199067826E+04 0.  0.
        4    1    3    3  502    0  0.32016694753E+03  0.14715129173E+04 -0.71696672130E+03  0.16679028846E+04  0.12699999809E+01 0. -1.
       -4    1    3    3    0  502 -0.32016694753E+03 -0.14715129173E+04  0.67966930631E+03  0.16522133999E+04  0.12699999809E+01 0.  1.
</event>
<event>
 5   0  0.3674967E-07  0.3321749E+04  0.7818609E-02  0.8157383E-01
        1   -1    0    0  501    0  0.00000000000E+00  0.00000000000E+00  0.16680987654E+04  0.16680987654E+04  0.50400001928E-02 0.  1.
       -1   -1    0    0    0  501  0.00000000000E+00  0.00000000000E+00 -0.16536812935E+04  0.16536812935E+04  0.50400001928E-02 0. -1.
    10030    2    1    2    0    0  0.00000000000E+00  0.00000000000E+00  0.14417471853E+02  0.33217800589E+04  0.33217487708E+04 0.  0.
        2    1    3    3  502    0  0.46858525555E+03 -0.59860810035E+03  0.14839080972E+04  0.16672993254E+04  0.25500000920E-02 0.  1.
       -2    1    3    3    0  502 -0.46858525555E+03  0.59860810035E+03 -0.14694906254E+04  0.16544807335E+04  0.25500000920E-02 0. -1.
</event>
<event>
 5   0  0.1116462E-06  0.3316192E+04  0.7818609E-02  0.8158788E-01
       -2   -1    0    0    0  501  0.00000000000E+00  0.00000000000E+00  0.14155779670E+04  0.14155779670E+04  0.25500000920E-02 0.  1.
        2   -1    0    0  501    0  0.00000000000E+00  0.00000000000E+00 -0.19421620591E+04  0.19421620591E+04  0.25500000920E-02 0. -1.
    10030    2    1    2    0    0  0.00000000000E+00  0.00000000000E+00 -0.52658409212E+03  0.33577400262E+04  0.33161916828E+04 0.  0.
        1    1    3    3  502    0 -0.88523900232E+03  0.11549987732E+04 -0.10679892230E+04  0.18050682086E+04  0.50400001928E-02 0. -1.
       -1    1    3    3    0  502  0.88523900232E+03 -0.11549987732E+04  0.54140513084E+03  0.15526718176E+04  0.50400001928E-02 0.  1.
</event>
<event>
 5   0  0.3709747E-07  0.3305506E+04  0.7818609E-02  0.8161496E-01
        1   -1    0    0  501    0  0.00000000000E+00  0.00000000000E+00  0.18620523473E+04  0.18620523473E+04  0.50400001928E-02 0.  1.
       -1   -1    0    0    0  501  0.00000000000E+00  0.00000000000E+00 -0.14669789848E+04  0.14669789848E+04  0.50400001928E-02 0. -1.
    10030    2    1    2    0    0  0.00000000000E+00  0.00000000000E+00  0.39507336248E+03  0.33290313321E+04  0.33055055058E+04 0.  0.
        4    1    3    3  502    0  0.13792097950E+04 -0.58093105743E+03  0.90387663507E+03  0.17483406808E+04  0.12699999809E+01 0.  1.
       -4    1    3    3    0  502 -0.13792097950E+04  0.58093105743E+03 -0.50880327259E+03  0.15806906513E+04  0.12699999809E+01 0. -1.
</event>
<event>
 5   0  0.3674967E-07  0.3281954E+04  0.7818609E-02  0.8167502E-01
       -1   -1    0    0    0  501  0.00000000000E+00  0.00000000000E+00  0.88558804506E+03  0.88558804508E+03  0.50400001928E-02 0.  1.
        1   -1    0    0  501    0  0.00000000000E+00  0.00000000000E+00 -0.30406977480E+04  0.30406977480E+04  0.50400001928E-02 0. -1.
    10030    2    1    2    0    0  0.00000000000E+00  0.00000000000E+00 -0.21551097029E+04  0.39262857931E+04  0.32819540364E+04 0.  0.
        2    1    3    3  502    0  0.42631204272E+03  0.14269997133E+04 -0.25327394763E+03  0.15107011061E+04  0.25500000920E-02 0.  1.
       -2    1    3    3    0  502 -0.42631204272E+03 -0.14269997133E+04 -0.19018357553E+04  0.24155846869E+04  0.25500000920E-02 0. -1.
</event>
<event>
 5   0  0.3757406E-07  0.3286040E+04  0.7818609E-02  0.8166457E-01
       -1   -1    0    0    0  501  0.00000000000E+00  0.00000000000E+00  0.23511382437E+04  0.23511382437E+04  0.50400001928E-02 0.  1.
        1   -1    0    0  501    0  0.00000000000E+00  0.00000000000E+00 -0.11481737407E+04  0.11481737407E+04  0.50400001928E-02 0. -1.
    10030    2    1    2    0    0  0.00000000000E+00  0.00000000000E+00  0.12029645029E+04  0.34993119844E+04  0.32860402872E+04 0.  0.
        1    1    3    3  502    0 -0.10702426743E+04 -0.12299004358E+04  0.38470012552E+03  0.16751324277E+04  0.50400001928E-02 0. -1.
       -1    1    3    3    0  502  0.10702426743E+04  0.12299004358E+04  0.81826437742E+03  0.18241795567E+04  0.50400001928E-02 0.  1.
</event>
<event>
 5   0  0.1116462E-06  0.3301464E+04  0.7818609E-02  0.8162523E-01
       -2   -1    0    0    0  501  0.00000000000E+00  0.00000000000E+00  0.11529577164E+04  0.11529577164E+04  0.25500000920E-02 0.  1.
        2   -1    0    0  501    0  0.00000000000E+00  0.00000000000E+00 -0.23634131089E+04  0.23634131089E+04  0.25500000920E-02 0. -1.
    10030    2    1    2    0    0  0.00000000000E+00  0.00000000000E+00 -0.12104553924E+04  0.35163708253E+04  0.33014635427E+04 0.  0.
        1    1    3    3  502    0 -0.60663719695E+03  0.10307522100E+04 -0.18170303660E+04  0.21753294367E+04  0.50400001928E-02 0. -1.
       -1    1    3    3    0  502  0.60663719695E+03 -0.10307522100E+04  0.60657497359E+03  0.13410413886E+04  0.50400001928E-02 0.  1.
</event>
<event>
 5   0  0.3749685E-07  0.3349314E+04  0.7818609E-02  0.8150460E-01
       -1   -1    0    0    0  501  0.00000000000E+00  0.00000000000E+00  0.11948820532E+04  0.11948820532E+04  0.50400001928E-02 0. -1.
        1   -1    0    0  501    0  0.00000000000E+00  0.00000000000E+00 -0.23470732903E+04  0.23470732903E+04  0.50400001928E-02 0.  1.
    10030    2    1    2    0    0  0.00000000000E+00  0.00000000000E+00 -0.11521912371E+04  0.35419553435E+04  0.33493138116E+04 0.  0.
        3    1    3    3  502    0 -0.33912068764E+03  0.75715192284E+03 -0.21144803707E+04  0.22714112624E+04  0.10100000352E+00 0.  1.
       -3    1    3    3    0  502  0.33912068764E+03 -0.75715192284E+03  0.96228913357E+03  0.12705440810E+04  0.10100000352E+00 0. -1.
</event>
<event>
 5   0  0.3796529E-07  0.3243921E+04  0.7818609E-02  0.8177313E-01
        1   -1    0    0  501    0  0.00000000000E+00  0.00000000000E+00  0.21981160616E+04  0.21981160616E+04  0.50400001928E-02 0. -1.
       -1   -1    0    0    0  501  0.00000000000E+00  0.00000000000E+00 -0.11968231906E+04  0.11968231906E+04  0.50400001928E-02 0.  1.
    10030    2    1    2    0    0  0.00000000000E+00  0.00000000000E+00  0.10012928710E+04  0.33949392522E+04  0.32439212556E+04 0.  0.
        5    1    3    3  502    0 -0.15661122125E+04  0.42033213936E+03  0.53906536132E+03  0.17088007851E+04  0.46999998093E+01 0. -1.
       -5    1    3    3    0  502  0.15661122125E+04 -0.42033213936E+03  0.46222750970E+03  0.16861384671E+04  0.46999998093E+01 0.  1.
</event>
<event>
 5   0  0.3749685E-07  0.3267032E+04  0.7818609E-02  0.8171335E-01
        1   -1    0    0  501    0  0.00000000000E+00  0.00000000000E+00  0.20596731402E+04  0.20596731402E+04  0.50400001928E-02 0. -1.
       -1   -1    0    0    0  501  0.00000000000E+00  0.00000000000E+00 -0.12955332936E+04  0.12955332936E+04  0.50400001928E-02 0.  1.
    10030    2    1    2    0    0  0.00000000000E+00  0.00000000000E+00  0.76413984668E+03  0.33552064338E+04  0.32670323702E+04 0.  0.
        3    1    3    3  502    0 -0.12373715151E+04 -0.90387987707E+03 -0.19914419395E+03  0.15452331600E+04  0.10100000352E+00 0. -1.
       -3    1    3    3    0  502  0.12373715151E+04  0.90387987707E+03  0.96328404063E+03  0.18099732738E+04  0.10100000352E+00 0.  1.
</event>
<event>
 5   0  0.1126221E-06  0.3294207E+04  0.7818609E-02  0.8164371E-01
        2   -1    0    0  501    0  0.00000000000E+00  0.00000000000E+00  0.19426330941E+04  0.19426330941E+04  0.25500000920E-02 0. -1.
       -2   -1    0    0    0  501  0.00000000000E+00  0.00000000000E+00 -0.13965323090E+04  0.13965323090E+04  0.25500000920E-02 0.  1.
    10030    2    1    2    0    0  0.00000000000E+00  0.00000000000E+00  0.54610078513E+03  0.33391654031E+04  0.32942069640E+04 0.  0.
        2    1    3    3  502    0  0.20287975004E+03 -0.12737361811E+04  0.13114264088E+04  0.18394029678E+04  0.25500000920E-02 0. -1.
       -2    1    3    3    0  502 -0.20287975004E+03  0.12737361811E+04 -0.76532562368E+03  0.14997624353E+04  0.25500000920E-02 0.  1.
</event>
<event>
 5   0  0.1126221E-06  0.3376139E+04  0.7818609E-02  0.8143788E-01
        2   -1    0    0  501    0  0.00000000000E+00  0.00000000000E+00  0.19553487057E+04  0.19553487057E+04  0.25500000920E-02 0. -1.
       -2   -1    0    0    0  501  0.00000000000E+00  0.00000000000E+00 -0.14573248719E+04  0.14573248719E+04  0.25500000920E-02 0.  1.
    10030    2    1    2    0    0  0.00000000000E+00  0.00000000000E+00  0.49802383379E+03  0.34126735776E+04  0.33761388017E+04 0.  0.
        2    1    3    3  502    0  0.10418741874E+02  0.11433764562E+04  0.15042877805E+04  0.18895237488E+04  0.25500000920E-02 0. -1.
       -2    1    3    3    0  502 -0.10418741874E+02 -0.11433764562E+04 -0.10062639467E+04  0.15231498289E+04  0.25500000920E-02 0.  1.
</event>
<event>
 5   0  0.1120545E-06  0.3305342E+04  0.7818609E-02  0.8161538E-01
       -2   -1    0    0    0  501  0.00000000000E+00  0.00000000000E+00  0.20435231389E+04  0.20435231389E+04  0.25500000920E-02 0. -1.
        2   -1    0    0  501    0  0.00000000000E+00  0.00000000000E+00 -0.13365743914E+04  0.13365743914E+04  0.25500000920E-02 0.  1.
    10030    2    1    2    0    0  0.00000000000E+00  0.00000000000E+00  0.70694874755E+03  0.33800975303E+04  0.33053415532E+04 0.  0.
        4    1    3    3  502    0  0.97214189518E+03  0.12257368273E+03 -0.10075032035E+04  0.14053997617E+04  0.12699999809E+01 0.  1.
       -4    1    3    3    0  502 -0.97214189518E+03 -0.12257368273E+03  0.17144519511E+04  0.19746977687E+04  0.12699999809E+01 0. -1.
</event>
<event>
 5   0  0.3749685E-07  0.3266029E+04  0.7818609E-02  0.8171594E-01
        1   -1    0    0  501    0  0.00000000000E+00  0.00000000000E+00  0.22605558787E+04  0.22605558787E+04  0.50400001928E-02 0.  1.
       -1   -1    0    0    0  501  0.00000000000E+00  0.00000000000E+00 -0.11796813437E+04  0.11796813437E+04  0.50400001928E-02 0. -1.
    10030    2    1    2    0    0  0.00000000000E+00  0.00000000000E+00  0.10808745350E+04  0.34402372224E+04  0.32660285342E+04 0.  0.
        3    1    3    3  502    0 -0.61257256933E+03  0.15006976292E+04  0.33136312769E+03  0.16544304336E+04  0.10100000352E+00 0. -1.
       -3    1    3    3    0  502  0.61257256933E+03 -0.15006976292E+04  0.74951140731E+03  0.17858067888E+04  0.10100000352E+00 0.  1.
</event>
<event>
 5   0  0.3709747E-07  0.3224489E+04  0.7818609E-02  0.8182380E-01
        1   -1    0    0  501    0  0.00000000000E+00  0.00000000000E+00  0.13289654454E+04  0.13289654455E+04  0.50400001928E-02 0.  1.
       -1   -1    0    0    0  501  0.00000000000E+00  0.00000000000E+00 -0.19559064808E+04  0.19559064808E+04  0.50400001928E-02 0. -1.
    10030    2    1    2    0    0  0.00000000000E+00  0.00000000000E+00 -0.62694103538E+03  0.32848719263E+04  0.32244888758E+04 0.  0.
        4    1    3    3  502    0 -0.55218064987E+03 -0.15132872546E+04 -0.38095858260E+03  0.16553165376E+04  0.12699999809E+01 0. -1.
       -4    1    3    3    0  502  0.55218064987E+03  0.15132872546E+04 -0.24598245278E+03  0.16295553887E+04  0.12699999809E+01 0.  1.
</event>
<event>
 5   0  0.1146799E-06  0.3290873E+04  0.7818609E-02  0.8165222E-01
       -2   -1    0    0    0  501  0.00000000000E+00  0.00000000000E+00  0.10866646336E+04  0.10866646336E+04  0.25500000920E-02 0. -1.
        2   -1    0    0  501    0  0.00000000000E+00  0.00000000000E+00 -0.24915329287E+04  0.24915329287E+04  0.25500000920E-02 0.  1.
    10030    2    1    2    0    0  0.00000000000E+00  0.00000000000E+00 -0.14048682951E+04  0.35781975622E+04  0.32908726605E+04 0.  0.
        5    1    3    3  502    0  0.78870606830E+03 -0.13054902247E+04 -0.31222629704E+02  0.15255683963E+04  0.46999998093E+01 0.  1.
       -5    1    3    3    0  502 -0.78870606830E+03  0.13054902247E+04 -0.13736456654E+04  0.20526291660E+04  0.46999998093E+01 0. -1.
</event>
<event>
 5   0  0.3796529E-07  0.3362854E+04  0.7818609E-02  0.8147084E-01
        1   -1    0    0  501    0  0.00000000000E+00  0.00000000000E+00  0.24720237321E+04  0.24720237321E+04  0.50400001928E-02 0. -1.
       -1   -1    0    0    0  501  0.00000000000E+00  0.00000000000E+00 -0.11436768398E+04  0.11436768398E+04  0.50400001928E-02 0.  1.
    10030    2    1    2    0    0  0.00000000000E+00  0.00000000000E+00  0.13283468922E+04  0.36157005719E+04  0.33628537226E+04 0.  0.
        5    1    3    3  502    0 -0.16353118409E+04 -0.59248238320E+02  0.24856206064E+03  0.16551617319E+04  0.46999998093E+01 0.  1.
       -5    1    3    3    0  502  0.16353118409E+04  0.59248238320E+02  0.10797848316E+04  0.19605388400E+04  0.46999998093E+01 0. -1.
</event>
<event>
 5   0  0.3674967E-07  0.3249570E+04  0.7818609E-02  0.8175847E-01
       -1   -1    0    0    0  501  0.00000000000E+00  0.00000000000E+00  0.12753858159E+04  0.12753858159E+04  0.50400001928E-02 0. -1.
        1   -1    0    0  501    0  0.00000000000E+00  0.00000000000E+00 -0.20699043462E+04  0.20699043462E+04  0.50400001928E-02 0.  1.
    10030    2    1    2    0    0  0.00000000000E+00  0.00000000000E+00 -0.79451853030E+03  0.33452901622E+04  0.32495702138E+04 0.  0.
        2    1    3    3  502    0  0.15141022092E+04 -0.52152216056E+03 -0.11451320634E+03  0.16054918680E+04  0.25500000920E-02 0.  1.
       -2    1    3    3    0  502 -0.15141022092E+04  0.52152216056E+03 -0.68000532396E+03  0.17397982942E+04  0.25500000920E-02 0. -1.
</event>
<event>
 5   0  0.1129434E-06  0.3308354E+04  0.7818609E-02  0.8160773E-01
       -2   -1    0    0    0  501  0.00000000000E+00  0.00000000000E+00  0.12029444213E+04  0.12029444213E+04  0.25500000920E-02 0. -1.
        2   -1    0    0  501    0  0.00000000000E+00  0.00000000000E+00 -0.22746694414E+04  0.22746694414E+04  0.25500000920E-02 0.  1.
    10030    2    1    2    0    0  0.00000000000E+00  0.00000000000E+00 -0.10717250201E+04  0.34776138627E+04  0.33083536176E+04 0.  0.
        3    1    3    3  502    0 -0.15528974273E+04 -0.10597780279E+03 -0.11244934038E+04  0.19202101812E+04  0.10100000352E+00 0. -1.
       -3    1    3    3    0  502  0.15528974273E+04  0.10597780279E+03  0.52768383745E+02  0.15574036815E+04  0.10100000352E+00 0.  1.
</event>
<event>
 5   0  0.3749685E-07  0.3263418E+04  0.7818609E-02  0.8172267E-01
        1   -1    0    0  501    0  0.00000000000E+00  0.00000000000E+00  0.16441228369E+04  0.16441228369E+04  0.50400001928E-02 0. -1.
       -1   -1    0    0    0  501  0.00000000000E+00  0.00000000000E+00 -0.16193885313E+04  0.16193885313E+04  0.50400001928E-02 0.  1.
    10030    2    1    2    0    0  0.00000000000E+00  0.00000000000E+00  0.24734305555E+02  0.32635113682E+04  0.32634176357E+04 0.  0.
        3    1    3    3  502    0  0.47414580125E+03  0.15305036591E+04 -0.29621579320E+03  0.16294169195E+04  0.10100000352E+00 0.  1.
       -3    1    3    3    0  502 -0.47414580125E+03 -0.15305036591E+04  0.32095009875E+03  0.16340944487E+04  0.10100000352E+00 0. -1.
</event>
<event>
 5   0  0.3749685E-07  0.3266142E+04  0.7818609E-02  0.8171564E-01
        1   -1    0    0  501    0  0.00000000000E+00  0.00000000000E+00  0.18560212889E+04  0.18560212889E+04  0.50400001928E-02 0. -1.
       -1   -1    0    0    0  501  0.00000000000E+00  0.00000000000E+00 -0.14369024700E+04  0.14369024700E+04  0.50400001928E-02 0.  1.
    10030    2    1    2    0    0  0.00000000000E+00  0.00000000000E+00  0.41911881892E+03  0.32929237589E+04  0.32661424184E+04 0.  0.
        3    1    3    3  502    0  0.60700170038E+02 -0.10461461833E+04 -0.10532344289E+04  0.14857352119E+04  0.10100000352E+00 0.  1.
       -3    1    3    3    0  502 -0.60700170038E+02  0.10461461833E+04  0.14723532479E+04  0.18071885469E+04  0.10100000352E+00 0. -1.
</event>
<event>
 5   0  0.3749685E-07  0.3317571E+04  0.7818609E-02  0.8158439E-01
        1   -1    0    0  501    0  0.00000000000E+00  0.00000000000E+00  0.99159643428E+03  0.99159643429E+03  0.50400001928E-02 0.  1.
       -1   -1    0    0    0  501  0.00000000000E+00  0.00000000000E+00 -0.27748881073E+04  0.27748881073E+04  0.50400001928E-02 0. -1.
    10030    2    1    2    0    0  0.00000000000E+00  0.00000000000E+00 -0.17832916731E+04  0.37664845416E+04  0.33175708901E+04 0.  0.
        3    1    3    3  502    0 -0.14951773647E+04 -0.67217144162E+03 -0.60398464733E+03  0.17470452952E+04  0.10100000352E+00 0.  1.
       -3    1    3    3    0  502  0.14951773647E+04  0.67217144162E+03 -0.11793070257E+04  0.20194392464E+04  0.10100000352E+00 0. -1.
</event>
<event>
 5   0  0.3674967E-07  0.3357805E+04  0.7818609E-02  0.8148341E-01
        1   -1    0    0  501    0  0.00000000000E+00  0.00000000000E+00  0.14366411599E+04  0.14366411599E+04  0.50400001928E-02 0. -1.
       -1   -1    0    0    0  501  0.00000000000E+00  0.00000000000E+00 -0.19620164065E+04  0.19620164065E+04  0.50400001928E-02 0.  1.
    10030    2    1    2    0    0  0.00000000000E+00  0.00000000000E+00 -0.52537524663E+03  0.33986575664E+04  0.33578049532E+04 0.  0.
        2    1    3    3  502    0 -0.16171554811E+04  0.37049392504E+03 -0.21536798460E+01  0.16590546214E+04  0.25500000920E-02 0. -1.
       -2    1    3    3    0  502  0.16171554811E+04 -0.37049392504E+03 -0.52322156678E+03  0.17396029450E+04  0.25500000920E-02 0.  1.
</event>
<event>
 5   0  0.3709747E-07  0.3171027E+04  0.7818609E-02  0.8196511E-01
       -1   -1    0    0    0  501  0.00000000000E+00  0.00000000000E+00  0.11261583799E+04  0.11261583799E+04  0.50400001928E-02 0. -1.
        1   -1    0    0  501    0  0.00000000000E+00  0.00000000000E+00 -0.22322380407E+04  0.22322380407E+04  0.50400001928E-02 0.  1.
    10030    2    1    2    0    0  0.00000000000E+00  0.00000000000E+00 -0.11060796608E+04  0.33583964206E+04  0.31710273259E+04 0.  0.
        4    1    3    3  502    0  0.17240218843E+03 -0.58110983840E+02 -0.22211460363E+04  0.22285849161E+04  0.12699999809E+01 0.  1.
       -4    1    3    3    0  502 -0.17240218843E+03  0.58110983840E+02  0.11150663755E+04  0.11298115045E+04  0.12699999809E+01 0. -1.
</event>
<event>
 5   0  0.3709747E-07  0.3322679E+04  0.7818609E-02  0.8157149E-01
        1   -1    0    0  501    0  0.00000000000E+00  0.00000000000E+00  0.16030630390E+04  0.16030630390E+04  0.50400001928E-02 0. -1.
       -1   -1    0    0    0  501  0.00000000000E+00  0.00000000000E+00 -0.17217340647E+04  0.17217340647E+04  0.50400001928E-02 0.  1.
    10030    2    1    2    0    0  0.00000000000E+00  0.00000000000E+00 -0.11867102568E+03  0.33247971037E+04  0.33226785833E+04 0.  0.
        4    1    3    3  502    0 -0.12107028332E+03  0.70430369516E+03 -0.15600733891E+04  0.17159639567E+04  0.12699999809E+01 0.  1.
       -4    1    3    3    0  502  0.12107028332E+03 -0.70430369516E+03  0.14414023634E+04  0.16088331469E+04  0.12699999809E+01 0. -1.
</event>
<event>
 5   0  0.1129434E-06  0.3271536E+04  0.7818609E-02  0.8170176E-01
       -2   -1    0    0    0  501  0.00000000000E+00  0.00000000000E+00  0.10111331184E+04  0.10111331184E+04  0.25500000920E-02 0. -1.
        2   -1    0    0  501    0  0.00000000000E+00  0.00000000000E+00 -0.26462764247E+04  0.26462764247E+04  0.25500000920E-02 0.  1.
    10030    2    1    2    0    0  0.00000000000E+00  0.00000000000E+00 -0.16351433063E+04  0.36574095431E+04  0.32715364790E+04 0.  0.
        3    1    3    3  502    0  0.63415448963E+03 -0.80488480526E+03 -0.22430092450E+04  0.24659849857E+04  0.10100000352E+00 0.  1.
       -3    1    3    3    0  502 -0.63415448963E+03  0.80488480526E+03  0.60786593864E+03  0.11914245574E+04  0.10100000352E+00 0. -1.
</event>
<event>
 5   0  0.1120545E-06  0.3287744E+04  0.7818609E-02  0.8166021E-01
       -2   -1    0    0    0  501  0.00000000000E+00  0.00000000000E+00  0.10848776027E+04  0.10848776027E+04  0.25500000920E-02 0.  1.
        2   -1    0    0  501    0  0.00000000000E+00  0.00000000000E+00 -0.24908932835E+04  0.24908932835E+04  0.25500000920E-02 0. -1.
    10030    2    1    2    0    0  0.00000000000E+00  0.00000000000E+00 -0.14060156808E+04  0.35757708862E+04  0.32877435022E+04 0.  0.
        4    1    3    3  502    0 -0.27231528295E+03 -0.58233964532E+03 -0.23485091168E+04  0.24349069305E+04  0.12699999809E+01 0. -1.
       -4    1    3    3    0  502  0.27231528295E+03  0.58233964532E+03  0.94249343593E+03  0.11408639557E+04  0.12699999809E+01 0.  1.
</event>
<event>
 5   0  0.1120545E-06  0.3281015E+04  0.7818609E-02  0.8167743E-01
        2   -1    0    0  501    0  0.00000000000E+00  0.00000000000E+00  0.21201852130E+04  0.21201852130E+04  0.25500000920E-02 0. -1.
       -2   -1    0    0    0  501  0.00000000000E+00  0.00000000000E+00 -0.12693538706E+04  0.12693538706E+04  0.25500000920E-02 0.  1.
    10030    2    1    2    0    0  0.00000000000E+00  0.00000000000E+00  0.85083134241E+03  0.33895390835E+04  0.32810152736E+04 0.  0.
        4    1    3    3  502    0  0.78175471887E+03  0.83159164497E+03 -0.79194040025E+03  0.13891926846E+04  0.12699999809E+01 0.  1.
       -4    1    3    3    0  502 -0.78175471887E+03 -0.83159164497E+03  0.16427717427E+04  0.20003463990E+04  0.12699999809E+01 0. -1.
</event>
<event>
 5   0  0.3796529E-07  0.3265152E+04  0.7818609E-02  0.8171820E-01
        1   -1    0    0  501    0  0.00000000000E+00  0.00000000000E+00  0.28002551466E+04  0.28002551466E+04  0.50400001928E-02 0.  1.
       -1   -1    0    0    0  501  0.00000000000E+00  0.00000000000E+00 -0.95180761033E+03  0.95180761034E+03  0.50400001928E-02 0. -1.
    10030    2    1    2    0    0  0.00000000000E+00  0.00000000000E+00  0.18484475363E+04  0.37520627569E+04  0.32651518552E+04 0.  0.
        5    1    3    3  502    0 -0.38254477613E+03  0.15821244539E+04  0.77967254364E+03  0.18048184558E+04  0.46999998093E+01 0. -1.
       -5    1    3    3    0  502  0.38254477613E+03 -0.15821244539E+04  0.10687749926E+04  0.19472443011E+04  0.46999998093E+01 0.  1.
</event>
<event>
 5   0  0.3749685E-07  0.3355969E+04  0.7818609E-02  0.8148798E-01
       -1   -1    0    0    0  501  0.00000000000E+00  0.00000000000E+00  0.20613632072E+04  0.20613632072E+04  0.50400001928E-02 0.  1.
        1   -1    0    0  501    0  0.00000000000E+00  0.00000000000E+00 -0.13659074196E+04  0.13659074196E+04  0.50400001928E-02 0. -1.
    10030    2    1    2    0    0  0.00000000000E+00  0.00000000000E+00  0.69545578754E+03  0.34272706268E+04  0.33559685929E+04 0.  0.
        3    1    3    3  502    0  0.67190008722E+03 -0.74705201784E+03 -0.10247355560E+04  0.14351374201E+04  0.10100000352E+00 0. -1.
       -3    1    3    3    0  502 -0.67190008722E+03  0.74705201784E+03  0.17201913436E+04  0.19921332067E+04  0.10100000352E+00 0.  1.
</event>
<event>
 5   0  0.1120545E-06  0.3259343E+04  0.7818609E-02  0.8173318E-01
        2   -1    0    0  501    0  0.00000000000E+00  0.00000000000E+00  0.17931745093E+04  0.17931745093E+04  0.25500000920E-02 0. -1.
       -2   -1    0    0    0  501  0.00000000000E+00  0.00000000000E+00 -0.14810766193E+04  0.14810766193E+04  0.25500000920E-02 0.  1.
    10030    2    1    2    0    0  0.00000000000E+00  0.00000000000E+00  0.31209788997E+03  0.32742511286E+04  0.32593427804E+04 0.  0.
        4    1    3    3  502    0 -0.64084335804E+03 -0.56382195279E+03  0.15506538279E+04  0.17700577140E+04  0.12699999809E+01 0. -1.
       -4    1    3    3    0  502  0.64084335804E+03  0.56382195279E+03 -0.12385559380E+04  0.15041934145E+04  0.12699999809E+01 0.  1.
</event>
<event>
 5   0  0.1146799E-06  0.3305650E+04  0.7818609E-02  0.8161459E-01
       -2   -1    0    0    0  501  0.00000000000E+00  0.00000000000E+00  0.22425265259E+04  0.22425265259E+04  0.25500000920E-02 0.  1.
        2   -1    0    0  501    0  0.00000000000E+00  0.00000000000E+00 -0.12181931426E+04  0.12181931426E+04  0.25500000920E-02 0. -1.
    10030    2    1    2    0    0  0.00000000000E+00  0.00000000000E+00  0.10243333833E+04  0.34607196686E+04  0.33056499730E+04 0.  0.
        5    1    3    3  502    0  0.42104977619E+03  0.10663925188E+04  0.17585321880E+04  0.20992697455E+04  0.46999998093E+01 0.  1.
       -5    1    3    3    0  502 -0.42104977619E+03 -0.10663925188E+04 -0.73419880470E+03  0.13614499231E+04  0.46999998093E+01 0. -1.
</event>
<event>
 5   0  0.3796529E-07  0.3284691E+04  0.7818609E-02  0.8166802E-01
       -1   -1    0    0    0  501  0.00000000000E+00  0.00000000000E+00  0.18737582073E+04  0.18737582074E+04  0.50400001928E-02 0.  1.
        1   -1    0    0  501    0  0.00000000000E+00  0.00000000000E+00 -0.14395129898E+04  0.14395129898E+04  0.50400001928E-02 0. -1.
    10030    2    1    2    0    0  0.00000000000E+00  0.00000000000E+00  0.43424521754E+03  0.33132711972E+04  0.32846913275E+04 0.  0.
        5    1    3    3  502    0  0.16194414414E+03 -0.19779245862E+02 -0.14313120134E+04  0.14405878293E+04  0.46999998093E+01 0. -1.
       -5    1    3    3    0  502 -0.16194414414E+03  0.19779245862E+02  0.18655572309E+04  0.18726833678E+04  0.46999998093E+01 0.  1.
</event>
<event>
 5   0  0.3749685E-07  0.3290405E+04  0.7818609E-02  0.8165341E-01
       -1   -1    0    0    0  501  0.00000000000E+00  0.00000000000E+00  0.25583490952E+04  0.25583490952E+04  0.50400001928E-02 0. -1.
        1   -1    0    0  501    0  0.00000000000E+00  0.00000000000E+00 -0.10579832699E+04  0.10579832699E+04  0.50400001928E-02 0.  1.
    10030    2    1    2    0    0  0.00000000000E+00  0.00000000000E+00  0.15003658253E+04  0.36163323651E+04  0.32904045595E+04 0.  0.
        3    1    3    3  502    0  0.14039382376E+04 -0.12374799324E+03  0.16829777089E+04  0.21951697245E+04  0.10100000352E+00 0. -1.
       -3    1    3    3    0  502 -0.14039382376E+04  0.12374799324E+03 -0.18261188357E+03  0.14211626406E+04  0.10100000352E+00 0.  1.
</event>
<event>
 5   0  0.1126221E-06  0.3301450E+04  0.7818609E-02  0.8162526E-01
       -2   -1    0    0    0  501  0.00000000000E+00  0.00000000000E+00  0.11371329717E+04  0.11371329717E+04  0.25500000920E-02 0.  1.
        2   -1    0    0  501    0  0.00000000000E+00  0.00000000000E+00 -0.23962842350E+04  0.23962842350E+04  0.25500000920E-02 0. -1.
    10030    2    1    2    0    0  0.00000000000E+00  0.00000000000E+00 -0.12591512632E+04  0.35334172067E+04  0.33014504771E+04 0.  0.
        2    1    3    3  502    0  0.37677909033E+03  0.12569394510E+04 -0.17014603472E+04  0.21486801948E+04  0.25500000920E-02 0. -1.
       -2    1    3    3    0  502 -0.37677909033E+03 -0.12569394510E+04  0.44230908403E+03  0.13847370119E+04  0.25500000920E-02 0.  1.
</event>
<event>
 5   0  0.1146799E-06  0.3319237E+04  0.7818609E-02  0.8158018E-01
        2   -1    0    0  501    0  0.00000000000E+00  0.00000000000E+00  0.21777081354E+04  0.21777081354E+04  0.25500000920E-02 0. -1.
       -2   -1    0    0    0  501  0.00000000000E+00  0.00000000000E+00 -0.12647850832E+04  0.12647850832E+04  0.25500000920E-02 0.  1.
    10030    2    1    2    0    0  0.00000000000E+00  0.00000000000E+00  0.91292305221E+03  0.34424932186E+04  0.33192365178E+04 0.  0.
        5    1    3    3  502    0 -0.11644695097E+04  0.11755823037E+04  0.32393671886E+03  0.16861020371E+04  0.46999998093E+01 0. -1.
       -5    1    3    3    0  502  0.11644695097E+04 -0.11755823037E+04  0.58898633335E+03  0.17563911815E+04  0.46999998093E+01 0.  1.
</event>
<event>
 5   0  0.1116462E-06  0.3287063E+04  0.7818609E-02  0.8166195E-01
        2   -1    0    0  501    0  0.00000000000E+00  0.00000000000E+00  0.17472598517E+04  0.17472598517E+04  0.25500000920E-02 0. -1.
       -2   -1    0    0    0  501  0.00000000000E+00  0.00000000000E+00 -0.15459613765E+04  0.15459613765E+04  0.25500000920E-02 0.  1.
    10030    2    1    2    0    0  0.00000000000E+00  0.00000000000E+00  0.20129847520E+03  0.32932212282E+04  0.32870632762E+04 0.  0.
        1    1    3    3  502    0 -0.93426187087E+03  0.84809285191E+02 -0.12513819230E+04  0.15639675749E+04  0.50400001928E-02 0.  1.
       -1    1    3    3    0  502  0.93426187087E+03 -0.84809285191E+02  0.14526803982E+04  0.17292536533E+04  0.50400001928E-02 0. -1.
</event>
<event>
 5   0  0.1120545E-06  0.3260812E+04  0.7818609E-02  0.8172939E-01
        2   -1    0    0  501    0  0.00000000000E+00  0.00000000000E+00  0.26599792247E+04  0.26599792247E+04  0.25500000920E-02 0. -1.
       -2   -1    0    0    0  501  0.00000000000E+00  0.00000000000E+00 -0.99934004265E+03  0.99934004265E+03  0.25500000920E-02 0.  1.
    10030    2    1    2    0    0  0.00000000000E+00  0.00000000000E+00  0.16606391821E+04  0.36593192674E+04  0.32608120166E+04 0.  0.
        4    1    3    3  502    0  0.38419020463E+03  0.70670435942E+03  0.24217988363E+04  0.25518903545E+04  0.12699999809E+01 0. -1.
       -4    1    3    3    0  502 -0.38419020463E+03 -0.70670435942E+03 -0.76115965423E+03  0.11074289129E+04  0.12699999809E+01 0.  1.
</event>
<event>
 5   0  0.1146799E-06  0.3281441E+04  0.7818609E-02  0.8167634E-01
        2   -1    0    0  501    0  0.00000000000E+00  0.00000000000E+00  0.17112423006E+04  0.17112423006E+04  0.25500000920E-02 0.  1.
       -2   -1    0    0    0  501  0.00000000000E+00  0.00000000000E+00 -0.15731044892E+04  0.15731044892E+04  0.25500000920E-02 0. -1.
    10030    2    1    2    0    0  0.00000000000E+00  0.00000000000E+00  0.13813781142E+03  0.32843467898E+04  0.32814405039E+04 0.  0.
        5    1    3    3  502    0  0.12111523065E+04 -0.27213589999E+03  0.11428625121E+04  0.16873365607E+04  0.46999998093E+01 0.  1.
       -5    1    3    3    0  502 -0.12111523065E+04  0.27213589999E+03 -0.10047247007E+04  0.15970102291E+04  0.46999998093E+01 0. -1.
</event>
<event>
 5   0  0.1129434E-06  0.3261400E+04  0.7818609E-02  0.8172787E-01
        2   -1    0    0  501    0  0.00000000000E+00  0.00000000000E+00  0.19767454754E+04  0.19767454754E+04  0.25500000920E-02 0. -1.
       -2   -1    0    0    0  501  0.00000000000E+00  0.00000000000E+00 -0.13452325451E+04  0.13452325451E+04  0.25500000920E-02 0.  1.
    10030    2    1    2    0    0  0.00000000000E+00  0.00000000000E+00  0.63151293033E+03  0.33219780205E+04  0.32613999122E+04 0.  0.
        3    1    3    3  502    0  0.74048791859E+03  0.13992054870E+04  0.71428330744E+03  0.17367495518E+04  0.10100000352E+00 0. -1.
       -3    1    3    3    0  502 -0.74048791859E+03 -0.13992054870E+04 -0.82770377111E+02  0.15852284687E+04  0.10100000352E+00 0.  1.
</event>
<event>
 5   0  0.3709747E-07  0.3306068E+04  0.7818609E-02  0.8161353E-01
       -1   -1    0    0    0  501  0.00000000000E+00  0.00000000000E+00  0.23667173774E+04  0.23667173774E+04  0.50400001928E-02 0.  1.
        1   -1    0    0  501    0  0.00000000000E+00  0.00000000000E+00 -0.11545615471E+04  0.11545615471E+04  0.50400001928E-02 0. -1.
    10030    2    1    2    0    0  0.00000000000E+00  0.00000000000E+00  0.12121558303E+04  0.35212789245E+04  0.33060676803E+04 0.  0.
        4    1    3    3  502    0  0.95486887570E+03 -0.79114736049E+03  0.17703161186E+04  0.21614137708E+04  0.12699999809E+01 0.  1.
       -4    1    3    3    0  502 -0.95486887570E+03  0.79114736049E+03 -0.55816028834E+03  0.13598651537E+04  0.12699999809E+01 0. -1.
</event>
<event>
 5   0  0.1146799E-06  0.3277726E+04  0.7818609E-02  0.8168586E-01
        2   -1    0    0  501    0  0.00000000000E+00  0.00000000000E+00  0.20585111809E+04  0.20585111809E+04  0.25500000920E-02 0. -1.
       -2   -1    0    0    0  501  0.00000000000E+00  0.00000000000E+00 -0.13047642917E+04  0.13047642917E+04  0.25500000920E-02 0.  1.
    10030    2    1    2    0    0  0.00000000000E+00  0.00000000000E+00  0.75374688915E+03  0.33632754726E+04  0.32777259696E+04 0.  0.
        5    1    3    3  502    0  0.91524325485E+03  0.13216916412E+04  0.50272351258E+02  0.16084428523E+04  0.46999998093E+01 0. -1.
       -5    1    3    3    0  502 -0.91524325485E+03 -0.13216916412E+04  0.70347453789E+03  0.17548326203E+04  0.46999998093E+01 0.  1.
</event>
<event>
 5   0  0.3796529E-07  0.3301778E+04  0.7818609E-02  0.8162443E-01
        1   -1    0    0  501    0  0.00000000000E+00  0.00000000000E+00  0.16807282005E+04  0.16807282005E+04  0.50400001928E-02 0.  1.
       -1   -1    0    0    0  501  0.00000000000E+00  0.00000000000E+00 -0.16215799652E+04  0.16215799652E+04  0.50400001928E-02 0. -1.
    10030    2    1    2    0    0  0.00000000000E+00  0.00000000000E+00  0.59148235310E+02  0.33023081657E+04  0.33017784159E+04 0.  0.
        5    1    3    3  502    0  0.67311807621E+03  0.20220948243E+03  0.15236131283E+04  0.16779140842E+04  0.46999998093E+01 0.  1.
       -5    1    3    3    0  502 -0.67311807621E+03 -0.20220948243E+03 -0.14644648930E+04  0.16243940815E+04  0.46999998093E+01 0. -1.
</event>
<event>
 5   0  0.3796529E-07  0.3298407E+04  0.7818609E-02  0.8163301E-01
        1   -1    0    0  501    0  0.00000000000E+00  0.00000000000E+00  0.16835466162E+04  0.16835466162E+04  0.50400001928E-02 0.  1.
       -1   -1    0    0    0  501  0.00000000000E+00  0.00000000000E+00 -0.16155612249E+04  0.16155612249E+04  0.50400001928E-02 0. -1.
    10030    2    1    2    0    0  0.00000000000E+00  0.00000000000E+00  0.67985391277E+02  0.32991078411E+04  0.32984072723E+04 0.  0.
        5    1    3    3  502    0  0.29303986654E+03 -0.56425487273E+03  0.15560236972E+04  0.16809187253E+04  0.46999998093E+01 0.  1.
       -5    1    3    3    0  502 -0.29303986654E+03  0.56425487273E+03 -0.14880383059E+04  0.16181891158E+04  0.46999998093E+01 0. -1.
</event>
<event>
 5   0  0.3796529E-07  0.3325673E+04  0.7818609E-02  0.8156393E-01
       -1   -1    0    0    0  501  0.00000000000E+00  0.00000000000E+00  0.12365063948E+04  0.12365063948E+04  0.50400001928E-02 0. -1.
        1   -1    0    0  501    0  0.00000000000E+00  0.00000000000E+00 -0.22361594627E+04  0.22361594627E+04  0.50400001928E-02 0.  1.
    10030    2    1    2    0    0  0.00000000000E+00  0.00000000000E+00 -0.99965306792E+03  0.34726658575E+04  0.33256731502E+04 0.  0.
        5    1    3    3  502    0  0.32014761210E+03 -0.21279643808E+03 -0.21891160747E+04  0.22226173976E+04  0.46999998093E+01 0.  1.
       -5    1    3    3    0  502 -0.32014761210E+03  0.21279643808E+03  0.11894630068E+04  0.12500484599E+04  0.46999998093E+01 0. -1.
</event>
<event>
 5   0  0.3757406E-07  0.3289327E+04  0.7818609E-02  0.8165617E-01
       -1   -1    0    0    0  501  0.00000000000E+00  0.00000000000E+00  0.13294769787E+04  0.13294769787E+04  0.50400001928E-02 0. -1.
        1   -1    0    0  501    0  0.00000000000E+00  0.00000000000E+00 -0.20345726418E+04  0.20345726418E+04  0.50400001928E-02 0.  1.
    10030    2    1    2    0    0  0.00000000000E+00  0.00000000000E+00 -0.70509566310E+03  0.33640496205E+04  0.32893266720E+04 0.  0.
        1    1    3    3  502    0  0.75227838004E+03 -0.69844594385E+03  0.96162055915E+03  0.14065786851E+04  0.50400001928E-02 0. -1.
       -1    1    3    3    0  502 -0.75227838004E+03  0.69844594385E+03 -0.16667162222E+04  0.19574709354E+04  0.50400001928E-02 0.  1.
</event>
<event>
 5   0  0.1129434E-06  0.3359813E+04  0.7818609E-02  0.8147841E-01
       -2   -1    0    0    0  501  0.00000000000E+00  0.00000000000E+00  0.15829532294E+04  0.15829532294E+04  0.25500000920E-02 0.  1.
        2   -1    0    0  501    0  0.00000000000E+00  0.00000000000E+00 -0.17827978924E+04  0.17827978924E+04  0.25500000920E-02 0. -1.
    10030    2    1    2    0    0  0.00000000000E+00  0.00000000000E+00 -0.19984466300E+03  0.33657511217E+04  0.33598129001E+04 0.  0.
        3    1    3    3  502    0  0.84358613098E+03  0.36279671517E+03  0.13092716565E+04  0.15992033321E+04  0.10100000352E+00 0.  1.
       -3    1    3    3    0  502 -0.84358613098E+03 -0.36279671517E+03 -0.15091163195E+04  0.17665477896E+04  0.10100000352E+00 0. -1.
</event>
<event>
 5   0  0.3674967E-07  0.3210325E+04  0.7818609E-02  0.8186096E-01
        1   -1    0    0  501    0  0.00000000000E+00  0.00000000000E+00  0.25863138177E+04  0.25863138177E+04  0.50400001928E-02 0. -1.
       -1   -1    0    0    0  501  0.00000000000E+00  0.00000000000E+00 -0.99622382434E+03  0.99622382435E+03  0.50400001928E-02 0.  1.
    10030    2    1    2    0    0  0.00000000000E+00  0.00000000000E+00  0.15900899934E+04  0.35825376421E+04  0.32103254928E+04 0.  0.
        2    1    3    3  502    0  0.15333708176E+04 -0.33584217586E+03  0.11693956344E+04  0.19574223308E+04  0.25500000920E-02 0. -1.
       -2    1    3    3    0  502 -0.15333708176E+04  0.33584217586E+03  0.42069435899E+03  0.16251153113E+04  0.25500000920E-02 0.  1.
</event>
<event>
 5   0  0.3709747E-07  0.3222819E+04  0.7818609E-02  0.8182817E-01
        1   -1    0    0  501    0  0.00000000000E+00  0.00000000000E+00  0.17798908160E+04  0.17798908160E+04  0.50400001928E-02 0. -1.
       -1   -1    0    0    0  501  0.00000000000E+00  0.00000000000E+00 -0.14588759059E+04  0.14588759059E+04  0.50400001928E-02 0.  1.
    10030    2    1    2    0    0  0.00000000000E+00  0.00000000000E+00  0.32101491006E+03  0.32387667219E+04  0.32228185345E+04 0.  0.
        4    1    3    3  502    0 -0.15502103921E+04  0.37038093995E+03  0.39896611877E+03  0.16430185262E+04  0.12699999809E+01 0. -1.
       -4    1    3    3    0  502  0.15502103921E+04 -0.37038093995E+03 -0.77951208710E+02  0.15957481958E+04  0.12699999809E+01 0.  1.
</event>
<event>
 5   0  0.1120545E-06  0.3300775E+04  0.7818609E-02  0.8162698E-01
       -2   -1    0    0    0  501  0.00000000000E+00  0.00000000000E+00  0.20362799903E+04  0.20362799903E+04  0.25500000920E-02 0.  1.
        2   -1    0    0  501    0  0.00000000000E+00  0.00000000000E+00 -0.13376249209E+04  0.13376249209E+04  0.25500000920E-02 0. -1.
    10030    2    1    2    0    0  0.00000000000E+00  0.00000000000E+00  0.69865506942E+03  0.33739049112E+04  0.33007749763E+04 0.  0.
        4    1    3    3  502    0 -0.21343558416E+02 -0.10042636068E+04  0.16878345681E+04  0.19641252714E+04  0.12699999809E+01 0.  1.
       -4    1    3    3    0  502  0.21343558416E+02  0.10042636068E+04 -0.98917949869E+03  0.14097796399E+04  0.12699999809E+01 0. -1.
</event>
<event>
 5   0  0.1126221E-06  0.3280098E+04  0.7818609E-02  0.8167978E-01
       -2   -1    0    0    0  501  0.00000000000E+00  0.00000000000E+00  0.18034150203E+04  0.18034150203E+04  0.25500000920E-02 0. -1.
        2   -1    0    0  501    0  0.00000000000E+00  0.00000000000E+00 -0.14914815371E+04  0.14914815371E+04  0.25500000920E-02 0.  1.
    10030    2    1    2    0    0  0.00000000000E+00  0.00000000000E+00  0.31193348315E+03  0.32948965574E+04  0.32800976854E+04 0.  0.
        2    1    3    3  502    0 -0.26447532711E+03  0.12714441810E+04 -0.85017232338E+03  0.15521953754E+04  0.25500000920E-02 0.  1.
       -2    1    3    3    0  502  0.26447532711E+03 -0.12714441810E+04  0.11621058065E+04  0.17427011820E+04  0.25500000920E-02 0. -1.
</event>
<event>
 5   0  0.3757406E-07  0.3378702E+04  0.7818609E-02  0.8143153E-01
       -1   -1    0    0    0  501  0.00000000000E+00  0.00000000000E+00  0.10395629414E+04  0.10395629414E+04  0.50400001928E-02 0. -1.
        1   -1    0    0  501    0  0.00000000000E+00  0.00000000000E+00 -0.27452944198E+04  0.27452944198E+04  0.50400001928E-02 0.  1.
    10030    2    1    2    0    0  0.00000000000E+00  0.00000000000E+00 -0.17057314785E+04  0.37848573612E+04  0.33787017282E+04 0.  0.
        1    1    3    3  502    0  0.90183058098E+03 -0.49618068641E+03  0.64772004134E+03  0.12161557969E+04  0.50400001928E-02 0. -1.
       -1    1    3    3    0  502 -0.90183058098E+03  0.49618068641E+03 -0.23534515198E+04  0.25687015643E+04  0.50400001928E-02 0.  1.
</event>
<event>
 5   0  0.1146799E-06  0.3332693E+04  0.7818609E-02  0.8154626E-01
       -2   -1    0    0    0  501  0.00000000000E+00  0.00000000000E+00  0.15886959086E+04  0.15886959086E+04  0.25500000920E-02 0.  1.
        2   -1    0    0  501    0  0.00000000000E+00  0.00000000000E+00 -0.17477922958E+04  0.17477922958E+04  0.25500000920E-02 0. -1.
    10030    2    1    2    0    0  0.00000000000E+00  0.00000000000E+00 -0.15909638722E+03  0.33364882044E+04  0.33326928868E+04 0.  0.
        5    1    3    3  502    0 -0.79577953464E+03 -0.84991891306E+03 -0.12729884497E+04  0.17251518511E+04  0.46999998093E+01 0. -1.
       -5    1    3    3    0  502  0.79577953464E+03  0.84991891306E+03  0.11138920624E+04  0.16113363532E+04  0.46999998093E+01 0.  1.
</event>
<event>
 5   0  0.3749685E-07  0.3307109E+04  0.7818609E-02  0.8161089E-01
       -1   -1    0    0    0  501  0.00000000000E+00  0.00000000000E+00  0.21975105673E+04  0.21975105674E+04  0.50400001928E-02 0.  1.
        1   -1    0    0  501    0  0.00000000000E+00  0.00000000000E+00 -0.12442453565E+04  0.12442453566E+04  0.50400001928E-02 0. -1.
    10030    2    1    2    0    0  0.00000000000E+00  0.00000000000E+00  0.95326521080E+03  0.34417559239E+04  0.33071089002E+04 0.  0.
        3    1    3    3  502    0 -0.16432582920E+04 -0.16615353241E+03  0.55948222382E+03  0.17438248707E+04  0.10100000352E+00 0.  1.
       -3    1    3    3    0  502  0.16432582920E+04  0.16615353241E+03  0.39378298699E+03  0.16979310532E+04  0.10100000352E+00 0. -1.
</event>
<event>
 5   0  0.1120545E-06  0.3305675E+04  0.7818609E-02  0.8161453E-01
       -2   -1    0    0    0  501  0.00000000000E+00  0.00000000000E+00  0.11734661501E+04  0.11734661501E+04  0.25500000920E-02 0. -1.
        2   -1    0    0  501    0  0.00000000000E+00  0.00000000000E+00 -0.23280358478E+04  0.23280358478E+04  0.25500000920E-02 0.  1.
    10030    2    1    2    0    0  0.00000000000E+00  0.00000000000E+00 -0.11545696977E+04  0.35015019979E+04  0.33056746747E+04 0.  0.
        4    1    3    3  502    0  0.55486784664E+03  0.15568286853E+04 -0.59487487270E+03  0.17565510552E+04  0.12699999809E+01 0.  1.
       -4    1    3    3    0  502 -0.55486784664E+03 -0.15568286853E+04 -0.55969482496E+03  0.17449509427E+04  0.12699999809E+01 0. -1.
</event>
<event>
 5   0  0.3674967E-07  0.3294216E+04  0.7818609E-02  0.8164369E-01
        1   -1    0    0  501    0  0.00000000000E+00  0.00000000000E+00  0.15688003642E+04  0.15688003642E+04  0.50400001928E-02 0. -1.
       -1   -1    0    0    0  501  0.00000000000E+00  0.00000000000E+00 -0.17293245028E+04  0.17293245028E+04  0.50400001928E-02 0.  1.
    10030    2    1    2    0    0  0.00000000000E+00  0.00000000000E+00 -0.16052413861E+03  0.32981248670E+04  0.32942160888E+04 0.  0.
        2    1    3    3  502    0  0.17480365596E+03 -0.58270815837E+03 -0.16127185843E+04  0.17236491372E+04  0.25500000920E-02 0.  1.
       -2    1    3    3    0  502 -0.17480365596E+03  0.58270815837E+03  0.14521944457E+04  0.15744757299E+04  0.25500000920E-02 0. -1.
</event>
<event>
 5   0  0.3749685E-07  0.3275835E+04  0.7818609E-02  0.8169071E-01
       -1   -1    0    0    0  501  0.00000000000E+00  0.00000000000E+00  0.12378318033E+04  0.12378318033E+04  0.50400001928E-02 0.  1.
        1   -1    0    0  501    0  0.00000000000E+00  0.00000000000E+00 -0.21673170001E+04  0.21673170001E+04  0.50400001928E-02 0. -1.
    10030    2    1    2    0    0  0.00000000000E+00  0.00000000000E+00 -0.92948519683E+03  0.34051488034E+04  0.32758351060E+04 0.  0.
        3    1    3    3  502    0 -0.92599306770E+03  0.17591721187E+03  0.92767441384E+03  0.13224938016E+04  0.10100000352E+00 0.  1.
       -3    1    3    3    0  502  0.92599306770E+03 -0.17591721187E+03 -0.18571596107E+04  0.20826550018E+04  0.10100000352E+00 0. -1.
</event>
<event>
 5   0  0.3757406E-07  0.3294157E+04  0.7818609E-02  0.8164384E-01
        1   -1    0    0  501    0  0.00000000000E+00  0.00000000000E+00  0.14151233307E+04  0.14151233307E+04  0.50400001928E-02 0. -1.
       -1   -1    0    0    0  501  0.00000000000E+00  0.00000000000E+00 -0.19170536090E+04  0.19170536090E+04  0.50400001928E-02 0.  1.
    10030    2    1    2    0    0  0.00000000000E+00  0.00000000000E+00 -0.50193027830E+03  0.33321769398E+04  0.32941568198E+04 0.  0.
        1    1    3    3  502    0  0.10947374225E+04  0.12303274078E+04 -0.27795139218E+03  0.16701534453E+04  0.50400001928E-02 0. -1.
       -1    1    3    3    0  502 -0.10947374225E+04 -0.12303274078E+04 -0.22397888612E+03  0.16620234944E+04  0.50400001928E-02 0.  1.
</event>
<event>
 5   0  0.3749685E-07  0.3428027E+04  0.7818609E-02  0.8131062E-01
       -1   -1    0    0    0  501  0.00000000000E+00  0.00000000000E+00  0.13526327782E+04  0.13526327783E+04  0.50400001928E-02 0.  1.
        1   -1    0    0  501    0  0.00000000000E+00  0.00000000000E+00 -0.21719443316E+04  0.21719443316E+04  0.50400001928E-02 0. -1.
    10030    2    1    2    0    0  0.00000000000E+00  0.00000000000E+00 -0.81931155332E+03  0.35245771098E+04  0.34280274768E+04 0.  0.
        3    1    3    3  502    0 -0.67813363356E+03 -0.13944425883E+04  0.34133236511E+03  0.15877163320E+04  0.10100000352E+00 0.  1.
       -3    1    3    3    0  502  0.67813363356E+03  0.13944425883E+04 -0.11606439184E+04  0.19368607778E+04  0.10100000352E+00 0. -1.
</event>
<event>
 5   0  0.1120545E-06  0.3278013E+04  0.7818609E-02  0.8168513E-01
       -2   -1    0    0    0  501  0.00000000000E+00  0.00000000000E+00  0.17587059507E+04  0.17587059507E+04  0.25500000920E-02 0. -1.
        2   -1    0    0  501    0  0.00000000000E+00  0.00000000000E+00 -0.15274534942E+04  0.15274534942E+04  0.25500000920E-02 0.  1.
    10030    2    1    2    0    0  0.00000000000E+00  0.00000000000E+00  0.23125245652E+03  0.32861594450E+04  0.32780125380E+04 0.  0.
        4    1    3    3  502    0  0.12453624254E+04  0.15767141642E+03 -0.94082022232E+03  0.15687358445E+04  0.12699999809E+01 0.  1.
       -4    1    3    3    0  502 -0.12453624254E+04 -0.15767141642E+03  0.11720726788E+04  0.17174236005E+04  0.12699999809E+01 0. -1.
</event>
<event>
 5   0  0.1116462E-06  0.3289284E+04  0.7818609E-02  0.8165628E-01
       -2   -1    0    0    0  501  0.00000000000E+00  0.00000000000E+00  0.19336316305E+04  0.19336316305E+04  0.25500000920E-02 0. -1.
        2   -1    0    0  501    0  0.00000000000E+00  0.00000000000E+00 -0.13988428274E+04  0.13988428274E+04  0.25500000920E-02 0.  1.
    10030    2    1    2    0    0  0.00000000000E+00  0.00000000000E+00  0.53478880309E+03  0.33324744579E+04  0.32892836528E+04 0.  0.
        1    1    3    3  502    0 -0.50987433211E+03  0.45594564101E+03 -0.12479012469E+04  0.14230656289E+04  0.50400001928E-02 0.  1.
       -1    1    3    3    0  502  0.50987433211E+03 -0.45594564101E+03  0.17826900499E+04  0.19094088290E+04  0.50400001928E-02 0. -1.
</event>
<event>
 5   0  0.3674967E-07  0.3287752E+04  0.7818609E-02  0.8166019E-01
        1   -1    0    0  501    0  0.00000000000E+00  0.00000000000E+00  0.25458083178E+04  0.25458083178E+04  0.50400001928E-02 0. -1.
       -1   -1    0    0    0  501  0.00000000000E+00  0.00000000000E+00 -0.10614812120E+04  0.10614812120E+04  0.50400001928E-02 0.  1.
    10030    2    1    2    0    0  0.00000000000E+00  0.00000000000E+00  0.14843271059E+04  0.36072895298E+04  0.32877516321E+04 0.  0.
        2    1    3    3  502    0  0.36552545219E+03  0.26574328582E+02 -0.10160862539E+04  0.10801603244E+04  0.25500000920E-02 0.  1.
       -2    1    3    3    0  502 -0.36552545219E+03 -0.26574328582E+02  0.25004133597E+04  0.25271292054E+04  0.25500000920E-02 0. -1.
</event>
<event>
 5   0  0.3674967E-07  0.3160317E+04  0.7818609E-02  0.8199377E-01
        1   -1    0    0  501    0  0.00000000000E+00  0.00000000000E+00  0.16299896204E+04  0.16299896205E+04  0.50400001928E-02 0. -1.
       -1   -1    0    0    0  501  0.00000000000E+00  0.00000000000E+00 -0.15318509060E+04  0.15318509061E+04  0.50400001928E-02 0.  1.
    10030    2    1    2    0    0  0.00000000000E+00  0.00000000000E+00  0.98138714402E+02  0.31618405265E+04  0.31603171214E+04 0.  0.
        2    1    3    3  502    0 -0.47625875764E+03  0.15420112860E+03 -0.14504194985E+04  0.15343784129E+04  0.25500000920E-02 0.  1.
       -2    1    3    3    0  502  0.47625875764E+03 -0.15420112860E+03  0.15485582129E+04  0.16274621136E+04  0.25500000920E-02 0. -1.
</event>
<event>
 5   0  0.3573375E-07  0.3308606E+04  0.7818609E-02  0.8160709E-01
        3   -1    0    0  501    0  0.00000000000E+00  0.00000000000E+00  0.18255746481E+04  0.18255746509E+04  0.10100000352E+00 0. -1.
       -3   -1    0    0    0  501  0.00000000000E+00  0.00000000000E+00 -0.14991000563E+04  0.14991000597E+04  0.10100000352E+00 0.  1.
    10030    2    1    2    0    0  0.00000000000E+00  0.00000000000E+00  0.32647459183E+03  0.33246747105E+04  0.33086063942E+04 0.  0.
        3    1    3    3  502    0  0.92554052610E+02  0.14959910821E+04  0.86675419466E+03  0.17314209235E+04  0.10100000352E+00 0. -1.
       -3    1    3    3    0  502 -0.92554052610E+02 -0.14959910821E+04 -0.54027960283E+03  0.15932537870E+04  0.10100000352E+00 0.  1.
</event>
<event>
 5   0  0.1120545E-06  0.3287254E+04  0.7818609E-02  0.8166146E-01
       -2   -1    0    0    0  501  0.00000000000E+00  0.00000000000E+00  0.12924285053E+04  0.12924285053E+04  0.25500000920E-02 0.  1.
        2   -1    0    0  501    0  0.00000000000E+00  0.00000000000E+00 -0.20902588251E+04  0.20902588251E+04  0.25500000920E-02 0. -1.
    10030    2    1    2    0    0  0.00000000000E+00  0.00000000000E+00 -0.79783031980E+03  0.33826873304E+04  0.32872542275E+04 0.  0.
        4    1    3    3  502    0 -0.41149941283E+03  0.10932102860E+04  0.79097071343E+03  0.14107008111E+04  0.12699999809E+01 0. -1.
       -4    1    3    3    0  502  0.41149941283E+03 -0.10932102860E+04 -0.15888010332E+04  0.19719865193E+04  0.12699999809E+01 0.  1.
</event>
<event>
 5   0  0.3749685E-07  0.3291657E+04  0.7818609E-02  0.8165021E-01
       -1   -1    0    0    0  501  0.00000000000E+00  0.00000000000E+00  0.19261905803E+04  0.19261905803E+04  0.50400001928E-02 0.  1.
        1   -1    0    0  501    0  0.00000000000E+00  0.00000000000E+00 -0.14062741932E+04  0.14062741932E+04  0.50400001928E-02 0. -1.
    10030    2    1    2    0    0  0.00000000000E+00  0.00000000000E+00  0.51991638706E+03  0.33324647735E+04  0.32916573966E+04 0.  0.
        3    1    3    3  502    0 -0.76299558191E+03  0.14525911235E+04  0.39027406343E+03  0.16865636913E+04  0.10100000352E+00 0. -1.
       -3    1    3    3    0  502  0.76299558191E+03 -0.14525911235E+04  0.12964232363E+03  0.16459010822E+04  0.10100000352E+00 0.  1.
</event>
<event>
 5   0  0.1120545E-06  0.3316464E+04  0.7818609E-02  0.8158719E-01
       -2   -1    0    0    0  501  0.00000000000E+00  0.00000000000E+00  0.17247251999E+04  0.17247251999E+04  0.25500000920E-02 0.  1.
        2   -1    0    0  501    0  0.00000000000E+00  0.00000000000E+00 -0.15943018687E+04  0.15943018687E+04  0.25500000920E-02 0. -1.
    10030    2    1    2    0    0  0.00000000000E+00  0.00000000000E+00  0.13042333120E+03  0.33190270685E+04  0.33164635436E+04 0.  0.
        4    1    3    3  502    0 -0.40235335576E+03  0.16078177206E+04  0.11783510652E+03  0.16615814067E+04  0.12699999809E+01 0.  1.
       -4    1    3    3    0  502  0.40235335576E+03 -0.16078177206E+04  0.12588224674E+02  0.16574456619E+04  0.12699999809E+01 0. -1.
</event>
<event>
 5   0  0.3749685E-07  0.3309545E+04  0.7818609E-02  0.8160471E-01
        1   -1    0    0  501    0  0.00000000000E+00  0.00000000000E+00  0.27004830823E+04  0.27004830823E+04  0.50400001928E-02 0. -1.
       -1   -1    0    0    0  501  0.00000000000E+00  0.00000000000E+00 -0.10139932345E+04  0.10139932345E+04  0.50400001928E-02 0.  1.
    10030    2    1    2    0    0  0.00000000000E+00  0.00000000000E+00  0.16864898478E+04  0.37144763168E+04  0.33095447272E+04 0.  0.
        3    1    3    3  502    0 -0.51443624984E+03  0.15630658247E+04  0.10391015327E+04  0.19461632596E+04  0.10100000352E+00 0. -1.
       -3    1    3    3    0  502  0.51443624984E+03 -0.15630658247E+04  0.64738831513E+03  0.17683130572E+04  0.10100000352E+00 0.  1.
</event>
<event>
 5   0  0.3749685E-07  0.3295071E+04  0.7818609E-02  0.8164151E-01
       -1   -1    0    0    0  501  0.00000000000E+00  0.00000000000E+00  0.18358731980E+04  0.18358731980E+04  0.50400001928E-02 0.  1.
        1   -1    0    0  501    0  0.00000000000E+00  0.00000000000E+00 -0.14785188983E+04  0.14785188983E+04  0.50400001928E-02 0. -1.
    10030    2    1    2    0    0  0.00000000000E+00  0.00000000000E+00  0.35735429970E+03  0.33143920962E+04  0.32950709965E+04 0.  0.
        3    1    3    3  502    0  0.11036799543E+04 -0.11937568885E+04  0.44709060790E+03  0.16861361073E+04  0.10100000352E+00 0.  1.
       -3    1    3    3    0  502 -0.11036799543E+04  0.11937568885E+04 -0.89736308203E+02  0.16282559890E+04  0.10100000352E+00 0. -1.
</event>
<event>
 5   0  0.1120545E-06  0.3299410E+04  0.7818609E-02  0.8163045E-01
        2   -1    0    0  501    0  0.00000000000E+00  0.00000000000E+00  0.24169436149E+04  0.24169436149E+04  0.25500000920E-02 0. -1.
       -2   -1    0    0    0  501  0.00000000000E+00  0.00000000000E+00 -0.11260201595E+04  0.11260201595E+04  0.25500000920E-02 0.  1.
    10030    2    1    2    0    0  0.00000000000E+00  0.00000000000E+00  0.12909234554E+04  0.35429637744E+04  0.32994103926E+04 0.  0.
        4    1    3    3  502    0  0.45636239075E+03 -0.11883086436E+04  0.17722954579E+04  0.21820579431E+04  0.12699999809E+01 0. -1.
       -4    1    3    3    0  502 -0.45636239075E+03  0.11883086436E+04 -0.48137200247E+03  0.13609058313E+04  0.12699999809E+01 0.  1.
</event>
<event>
 5   0  0.1116462E-06  0.3296966E+04  0.7818609E-02  0.8163668E-01
        2   -1    0    0  501    0  0.00000000000E+00  0.00000000000E+00  0.18269051216E+04  0.18269051216E+04  0.25500000920E-02 0.  1.
       -2   -1    0    0    0  501  0.00000000000E+00  0.00000000000E+00 -0.14874862468E+04  0.14874862468E+04  0.25500000920E-02 0. -1.
    10030    2    1    2    0    0  0.00000000000E+00  0.00000000000E+00  0.33941887481E+03  0.33143913684E+04  0.32969660250E+04 0.  0.
        1    1    3    3  502    0  0.16095697082E+04  0.31416008077E+03  0.33818109398E+03  0.16744484627E+04  0.50400001928E-02 0. -1.
       -1    1    3    3    0  502 -0.16095697082E+04 -0.31416008077E+03  0.12377808231E+01  0.16399429057E+04  0.50400001928E-02 0.  1.
</event>
<event>
 5   0  0.1120545E-06  0.3400934E+04  0.7818609E-02  0.8137677E-01
        2   -1    0    0  501    0  0.00000000000E+00  0.00000000000E+00  0.16112648871E+04  0.16112648871E+04  0.25500000920E-02 0. -1.
       -2   -1    0    0    0  501  0.00000000000E+00  0.00000000000E+00 -0.17946075655E+04  0.17946075655E+04  0.25500000920E-02 0.  1.
    10030    2    1    2    0    0  0.00000000000E+00  0.00000000000E+00 -0.18334267845E+03  0.34058724526E+04  0.34009340814E+04 0.  0.
        4    1    3    3  502    0 -0.47520933229E+03 -0.12116735356E+04 -0.11876140443E+04  0.17619322908E+04  0.12699999809E+01 0.  1.
       -4    1    3    3    0  502  0.47520933229E+03  0.12116735356E+04  0.10042713658E+04  0.16439401618E+04  0.12699999809E+01 0. -1.
</event>
<event>
 5   0  0.1120545E-06  0.3325641E+04  0.7818609E-02  0.8156402E-01
        2   -1    0    0  501    0  0.00000000000E+00  0.00000000000E+00  0.25521313405E+04  0.25521313405E+04  0.25500000920E-02 0.  1.
       -2   -1    0    0    0  501  0.00000000000E+00  0.00000000000E+00 -0.10833971162E+04  0.10833971162E+04  0.25500000920E-02 0. -1.
    10030    2    1    2    0    0  0.00000000000E+00  0.00000000000E+00  0.14687342243E+04  0.36355284567E+04  0.33256408311E+04 0.  0.
        4    1    3    3  502    0 -0.50842707333E+03  0.50146474072E+03 -0.90722770927E+03  0.11545686227E+04  0.12699999809E+01 0. -1.
       -4    1    3    3    0  502  0.50842707333E+03 -0.50146474072E+03  0.23759619336E+04  0.24809598340E+04  0.12699999809E+01 0.  1.
</event>
<event>
 5   0  0.3757406E-07  0.3288508E+04  0.7818609E-02  0.8165826E-01
       -1   -1    0    0    0  501  0.00000000000E+00  0.00000000000E+00  0.14703722546E+04  0.14703722546E+04  0.50400001928E-02 0. -1.
        1   -1    0    0  501    0  0.00000000000E+00  0.00000000000E+00 -0.18386988376E+04  0.18386988376E+04  0.50400001928E-02 0.  1.
    10030    2    1    2    0    0  0.00000000000E+00  0.00000000000E+00 -0.36832658307E+03  0.33090710922E+04  0.32885083277E+04 0.  0.
        1    1    3    3  502    0  0.66078507654E+03 -0.13747500613E+03 -0.16928835796E+04  0.18224684110E+04  0.50400001928E-02 0.  1.
       -1    1    3    3    0  502 -0.66078507654E+03  0.13747500613E+03  0.13245569966E+04  0.14866026812E+04  0.50400001928E-02 0. -1.
</event>
<event>
 5   0  0.3749685E-07  0.3141687E+04  0.7818609E-02  0.8204390E-01
        1   -1    0    0  501    0  0.00000000000E+00  0.00000000000E+00  0.19438753649E+04  0.19438753649E+04  0.50400001928E-02 0.  1.
       -1   -1    0    0    0  501  0.00000000000E+00  0.00000000000E+00 -0.12693964899E+04  0.12693964899E+04  0.50400001928E-02 0. -1.
    10030    2    1    2    0    0  0.00000000000E+00  0.00000000000E+00  0.67447887503E+03  0.32132718548E+04  0.31416865311E+04 0.  0.
        3    1    3    3  502    0 -0.99171662993E+03 -0.33141643826E+03  0.15362172448E+04  0.18583062619E+04  0.10100000352E+00 0.  1.
       -3    1    3    3    0  502  0.99171662993E+03  0.33141643826E+03 -0.86173836979E+03  0.13549655928E+04  0.10100000352E+00 0. -1.
</event>
<event>
 5   0  0.1126221E-06  0.3291651E+04  0.7818609E-02  0.8165023E-01
       -2   -1    0    0    0  501  0.00000000000E+00  0.00000000000E+00  0.15246262459E+04  0.15246262459E+04  0.25500000920E-02 0. -1.
        2   -1    0    0  501    0  0.00000000000E+00  0.00000000000E+00 -0.17766589010E+04  0.17766589010E+04  0.25500000920E-02 0.  1.
    10030    2    1    2    0    0  0.00000000000E+00  0.00000000000E+00 -0.25203265505E+03  0.33012851469E+04  0.32916505225E+04 0.  0.
        2    1    3    3  502    0 -0.43660655172E+03 -0.42349172690E+01 -0.17175124901E+04  0.17721434392E+04  0.25500000920E-02 0.  1.
       -2    1    3    3    0  502  0.43660655172E+03  0.42349172690E+01  0.14654798350E+04  0.15291417077E+04  0.25500000920E-02 0. -1.
</event>
<event>
 5   0  0.3674967E-07  0.3241893E+04  0.7818609E-02  0.8177840E-01
       -1   -1    0    0    0  501  0.00000000000E+00  0.00000000000E+00  0.23750515920E+04  0.23750515920E+04  0.50400001928E-02 0.  1.
        1   -1    0    0  501    0  0.00000000000E+00  0.00000000000E+00 -0.11062779575E+04  0.11062779575E+04  0.50400001928E-02 0. -1.
    10030    2    1    2    0    0  0.00000000000E+00  0.00000000000E+00  0.12687736344E+04  0.34813295495E+04  0.32418927954E+04 0.  0.
        2    1    3    3  502    0  0.32558848514E+03 -0.21639805888E+03  0.23236671776E+04  0.23563244967E+04  0.25500000920E-02 0.  1.
       -2    1    3    3    0  502 -0.32558848514E+03  0.21639805888E+03 -0.10548935431E+04  0.11250050528E+04  0.25500000920E-02 0. -1.
</event>
<event>
 5   0  0.3709747E-07  0.3316531E+04  0.7818609E-02  0.8158702E-01
        1   -1    0    0  501    0  0.00000000000E+00  0.00000000000E+00  0.20129124343E+04  0.20129124343E+04  0.50400001928E-02 0. -1.
       -1   -1    0    0    0  501  0.00000000000E+00  0.00000000000E+00 -0.13661026993E+04  0.13661026993E+04  0.50400001928E-02 0.  1.
    10030    2    1    2    0    0  0.00000000000E+00  0.00000000000E+00  0.64680973509E+03  0.33790151336E+04  0.33165313868E+04 0.  0.
        4    1    3    3  502    0 -0.26551255091E+03 -0.14930966396E+03  0.19841620934E+04  0.20074090555E+04  0.12699999809E+01 0. -1.
       -4    1    3    3    0  502  0.26551255091E+03  0.14930966396E+03 -0.13373523583E+04  0.13716060781E+04  0.12699999809E+01 0.  1.
</event>
<event>
 5   0  0.3709747E-07  0.3296689E+04  0.7818609E-02  0.8163738E-01
        1   -1    0    0  501    0  0.00000000000E+00  0.00000000000E+00  0.20815274298E+04  0.20815274298E+04  0.50400001928E-02 0. -1.
       -1   -1    0    0    0  501  0.00000000000E+00  0.00000000000E+00 -0.13053102053E+04  0.13053102053E+04  0.50400001928E-02 0.  1.
    10030    2    1    2    0    0  0.00000000000E+00  0.00000000000E+00  0.77621722449E+03  0.33868376350E+04  0.32966886396E+04 0.  0.
        4    1    3    3  502    0  0.24799795043E+03 -0.67008258946E+03 -0.11379483554E+04  0.13436672701E+04  0.12699999809E+01 0.  1.
       -4    1    3    3    0  502 -0.24799795043E+03  0.67008258946E+03  0.19141655799E+04  0.20431703650E+04  0.12699999809E+01 0. -1.
</event>
<event>
 5   0  0.1126221E-06  0.3300402E+04  0.7818609E-02  0.8162793E-01
       -2   -1    0    0    0  501  0.00000000000E+00  0.00000000000E+00  0.13411392687E+04  0.13411392687E+04  0.25500000920E-02 0.  1.
        2   -1    0    0  501    0  0.00000000000E+00  0.00000000000E+00 -0.20304845474E+04  0.20304845474E+04  0.25500000920E-02 0. -1.
    10030    2    1    2    0    0  0.00000000000E+00  0.00000000000E+00 -0.68934527864E+03  0.33716238161E+04  0.33004015277E+04 0.  0.
        2    1    3    3  502    0 -0.15179848544E+04 -0.39960411568E+03  0.17543202454E+03  0.15794739196E+04  0.25500000920E-02 0.  1.
       -2    1    3    3    0  502  0.15179848544E+04  0.39960411568E+03 -0.86477730318E+03  0.17921498965E+04  0.25500000920E-02 0. -1.
</event>
<event>
 5   0  0.3757406E-07  0.3193602E+04  0.7818609E-02  0.8190509E-01
       -1   -1    0    0    0  501  0.00000000000E+00  0.00000000000E+00  0.15679033433E+04  0.15679033433E+04  0.50400001928E-02 0. -1.
        1   -1    0    0  501    0  0.00000000000E+00  0.00000000000E+00 -0.16262312660E+04  0.16262312660E+04  0.50400001928E-02 0.  1.
    10030    2    1    2    0    0  0.00000000000E+00  0.00000000000E+00 -0.58327922753E+02  0.31941346093E+04  0.31936020033E+04 0.  0.
        1    1    3    3  502    0  0.31607169543E+03  0.50821474020E+03  0.14514848681E+04  0.15700292549E+04  0.50400001928E-02 0. -1.
       -1    1    3    3    0  502 -0.31607169543E+03 -0.50821474020E+03 -0.15098127909E+04  0.16241053544E+04  0.50400001928E-02 0.  1.
</event>
<event>
 5   0  0.1126221E-06  0.3295342E+04  0.7818609E-02  0.8164082E-01
        2   -1    0    0  501    0  0.00000000000E+00  0.00000000000E+00  0.29302980730E+04  0.29302980730E+04  0.25500000920E-02 0. -1.
       -2   -1    0    0    0  501  0.00000000000E+00  0.00000000000E+00 -0.92646536453E+03  0.92646536453E+03  0.25500000920E-02 0.  1.
    10030    2    1    2    0    0  0.00000000000E+00  0.00000000000E+00  0.20038327084E+04  0.38567634375E+04  0.32953419685E+04 0.  0.
        2    1    3    3  502    0 -0.80229040655E+03  0.14365131930E+04  0.90002289786E+03  0.18754416191E+04  0.25500000920E-02 0. -1.
       -2    1    3    3    0  502  0.80229040655E+03 -0.14365131930E+04  0.11038098106E+04  0.19813218184E+04  0.25500000920E-02 0.  1.
</event>
<event>
 5   0  0.1126221E-06  0.3307261E+04  0.7818609E-02  0.8161050E-01
       -2   -1    0    0    0  501  0.00000000000E+00  0.00000000000E+00  0.14193326382E+04  0.14193326382E+04  0.25500000920E-02 0. -1.
        2   -1    0    0  501    0  0.00000000000E+00  0.00000000000E+00 -0.19266054828E+04  0.19266054828E+04  0.25500000920E-02 0.  1.
    10030    2    1    2    0    0  0.00000000000E+00  0.00000000000E+00 -0.50727284461E+03  0.33459381210E+04  0.33072611283E+04 0.  0.
        2    1    3    3  502    0  0.11328669518E+04  0.12035605580E+04 -0.20256342490E+03  0.16652259572E+04  0.25500000920E-02 0. -1.
       -2    1    3    3    0  502 -0.11328669518E+04 -0.12035605580E+04 -0.30470941972E+03  0.16807121639E+04  0.25500000920E-02 0.  1.
</event>
<event>
 5   0  0.1126221E-06  0.3287043E+04  0.7818609E-02  0.8166200E-01
        2   -1    0    0  501    0  0.00000000000E+00  0.00000000000E+00  0.11868712858E+04  0.11868712858E+04  0.25500000920E-02 0. -1.
       -2   -1    0    0    0  501  0.00000000000E+00  0.00000000000E+00 -0.22758686613E+04  0.22758686613E+04  0.25500000920E-02 0.  1.
    10030    2    1    2    0    0  0.00000000000E+00  0.00000000000E+00 -0.10889973754E+04  0.34627399471E+04  0.32870431481E+04 0.  0.
        2    1    3    3  502    0 -0.84601028904E+03 -0.86783703583E+03  0.62492178759E+03  0.13635988305E+04  0.25500000920E-02 0. -1.
       -2    1    3    3    0  502  0.84601028904E+03  0.86783703583E+03 -0.17139191630E+04  0.20991411166E+04  0.25500000920E-02 0.  1.
</event>
<event>
 5   0  0.1116462E-06  0.3294132E+04  0.7818609E-02  0.8164390E-01
        2   -1    0    0  501    0  0.00000000000E+00  0.00000000000E+00  0.16381687029E+04  0.16381687029E+04  0.25500000920E-02 0.  1.
       -2   -1    0    0    0  501  0.00000000000E+00  0.00000000000E+00 -0.16560114871E+04  0.16560114871E+04  0.25500000920E-02 0. -1.
    10030    2    1    2    0    0  0.00000000000E+00  0.00000000000E+00 -0.17842784194E+02  0.32941801899E+04  0.32941318672E+04 0.  0.
        1    1    3    3  502    0  0.16245781465E+04 -0.51111491519E+02  0.25746504318E+03  0.16456472244E+04  0.50400001928E-02 0.  1.
       -1    1    3    3    0  502 -0.16245781465E+04  0.51111491519E+02 -0.27530782737E+03  0.16485329655E+04  0.50400001928E-02 0. -1.
</event>
<event>
 5   0  0.3674967E-07  0.3216951E+04  0.7818609E-02  0.8184355E-01
       -1   -1    0    0    0  501  0.00000000000E+00  0.00000000000E+00  0.16932217661E+04  0.16932217661E+04  0.50400001928E-02 0. -1.
        1   -1    0    0  501    0  0.00000000000E+00  0.00000000000E+00 -0.15279709635E+04  0.15279709635E+04  0.50400001928E-02 0.  1.
    10030    2    1    2    0    0  0.00000000000E+00  0.00000000000E+00  0.16525080259E+03  0.32211927295E+04  0.32169511611E+04 0.  0.
        2    1    3    3  502    0 -0.31541442394E+02 -0.15705399732E+04  0.42891808924E+03  0.16283615683E+04  0.25500000920E-02 0. -1.
       -2    1    3    3    0  502  0.31541442394E+02  0.15705399732E+04 -0.26366728665E+03  0.15928311612E+04  0.25500000920E-02 0.  1.
</event>
<event>
 5   0  0.1120545E-06  0.3312672E+04  0.7818609E-02  0.8159678E-01
        2   -1    0    0  501    0  0.00000000000E+00  0.00000000000E+00  0.26741100425E+04  0.26741100425E+04  0.25500000920E-02 0. -1.
       -2   -1    0    0    0  501  0.00000000000E+00  0.00000000000E+00 -0.10259297072E+04  0.10259297072E+04  0.25500000920E-02 0.  1.
    10030    2    1    2    0    0  0.00000000000E+00  0.00000000000E+00  0.16481803353E+04  0.37000397498E+04  0.33126719928E+04 0.  0.
        4    1    3    3  502    0 -0.69599153325E+03  0.39142859497E+03  0.24449269135E+04  0.25720205646E+04  0.12699999809E+01 0. -1.
       -4    1    3    3    0  502  0.69599153325E+03 -0.39142859497E+03 -0.79674657823E+03  0.11280191852E+04  0.12699999809E+01 0.  1.
</event>
<event>
 5   0  0.1146799E-06  0.3270901E+04  0.7818609E-02  0.8170339E-01
       -2   -1    0    0    0  501  0.00000000000E+00  0.00000000000E+00  0.13505042563E+04  0.13505042563E+04  0.25500000920E-02 0. -1.
        2   -1    0    0  501    0  0.00000000000E+00  0.00000000000E+00 -0.19805185770E+04  0.19805185770E+04  0.25500000920E-02 0.  1.
    10030    2    1    2    0    0  0.00000000000E+00  0.00000000000E+00 -0.63001432073E+03  0.33310228333E+04  0.32709012629E+04 0.  0.
        5    1    3    3  502    0 -0.47047773142E+03 -0.53221053456E+03 -0.18152030812E+04  0.19492515653E+04  0.46999998093E+01 0.  1.
       -5    1    3    3    0  502  0.47047773142E+03  0.53221053456E+03  0.11851887605E+04  0.13817712679E+04  0.46999998093E+01 0. -1.
</event>
<event>
 5   0  0.3796529E-07  0.3292138E+04  0.7818609E-02  0.8164899E-01
       -1   -1    0    0    0  501  0.00000000000E+00  0.00000000000E+00  0.17124141151E+04  0.17124141152E+04  0.50400001928E-02 0.  1.
        1   -1    0    0  501    0  0.00000000000E+00  0.00000000000E+00 -0.15822940185E+04  0.15822940186E+04  0.50400001928E-02 0. -1.
    10030    2    1    2    0    0  0.00000000000E+00  0.00000000000E+00  0.13012009660E+03  0.32947081337E+04  0.32921376713E+04 0.  0.
        5    1    3    3  502    0 -0.23865589475E+03  0.11028743137E+04 -0.11343046985E+04  0.15999867583E+04  0.46999998093E+01 0. -1.
       -5    1    3    3    0  502  0.23865589475E+03 -0.11028743137E+04  0.12644247951E+04  0.16947213754E+04  0.46999998093E+01 0.  1.
</event>
<event>
 5   0  0.1146799E-06  0.3281280E+04  0.7818609E-02  0.8167675E-01
       -2   -1    0    0    0  501  0.00000000000E+00  0.00000000000E+00  0.96679027639E+03  0.96679027639E+03  0.25500000920E-02 0.  1.
        2   -1    0    0  501    0  0.00000000000E+00  0.00000000000E+00 -0.27841608134E+04  0.27841608134E+04  0.25500000920E-02 0. -1.
    10030    2    1    2    0    0  0.00000000000E+00  0.00000000000E+00 -0.18173705370E+04  0.37509510898E+04  0.32812799955E+04 0.  0.
        5    1    3    3  502    0 -0.61034405401E+03  0.10559162917E+04 -0.21631173121E+04  0.24832594861E+04  0.46999998093E+01 0. -1.
       -5    1    3    3    0  502  0.61034405401E+03 -0.10559162917E+04  0.34574677515E+03  0.12676916036E+04  0.46999998093E+01 0.  1.
</event>
<event>
 5   0  0.3796529E-07  0.3459607E+04  0.7818609E-02  0.8123430E-01
       -1   -1    0    0    0  501  0.00000000000E+00  0.00000000000E+00  0.12443425961E+04  0.12443425961E+04  0.50400001928E-02 0. -1.
        1   -1    0    0  501    0  0.00000000000E+00  0.00000000000E+00 -0.24046601132E+04  0.24046601132E+04  0.50400001928E-02 0.  1.
    10030    2    1    2    0    0  0.00000000000E+00  0.00000000000E+00 -0.11603175171E+04  0.36490027094E+04  0.34596074969E+04 0.  0.
        5    1    3    3  502    0 -0.13492810881E+04 -0.16109442900E+02 -0.17217122041E+04  0.21874949080E+04  0.46999998093E+01 0.  1.
       -5    1    3    3    0  502  0.13492810881E+04  0.16109442900E+02  0.56139468701E+03  0.14615078014E+04  0.46999998093E+01 0. -1.
</event>
<event>
 5   0  0.1146799E-06  0.3342623E+04  0.7818609E-02  0.8152134E-01
       -2   -1    0    0    0  501  0.00000000000E+00  0.00000000000E+00  0.11812114629E+04  0.11812114629E+04  0.25500000920E-02 0.  1.
        2   -1    0    0  501    0  0.00000000000E+00  0.00000000000E+00 -0.23647610704E+04  0.23647610704E+04  0.25500000920E-02 0. -1.
    10030    2    1    2    0    0  0.00000000000E+00  0.00000000000E+00 -0.11835496075E+04  0.35459725334E+04  0.33426234508E+04 0.  0.
        5    1    3    3  502    0  0.10259495518E+04  0.65135005521E+03 -0.18089330074E+04  0.21792407147E+04  0.46999998093E+01 0. -1.
       -5    1    3    3    0  502 -0.10259495518E+04 -0.65135005521E+03  0.62538339991E+03  0.13667318187E+04  0.46999998093E+01 0.  1.
</event>
<event>
 5   0  0.1126221E-06  0.3291553E+04  0.7818609E-02  0.8165048E-01
       -2   -1    0    0    0  501  0.00000000000E+00  0.00000000000E+00  0.14019665538E+04  0.14019665538E+04  0.25500000920E-02 0. -1.
        2   -1    0    0  501    0  0.00000000000E+00  0.00000000000E+00 -0.19319860450E+04  0.19319860450E+04  0.25500000920E-02 0.  1.
    10030    2    1    2    0    0  0.00000000000E+00  0.00000000000E+00 -0.53001949120E+03  0.33339525988E+04  0.32915527141E+04 0.  0.
        2    1    3    3  502    0 -0.14946520495E+04 -0.68663945022E+03 -0.20842117528E+03  0.16579800571E+04  0.25500000920E-02 0.  1.
       -2    1    3    3    0  502  0.14946520495E+04  0.68663945022E+03 -0.32159831592E+03  0.16759725416E+04  0.25500000920E-02 0. -1.
</event>
<event>
 5   0  0.3757406E-07  0.3292360E+04  0.7818609E-02  0.8164842E-01
        1   -1    0    0  501    0  0.00000000000E+00  0.00000000000E+00  0.12975455577E+04  0.12975455577E+04  0.50400001928E-02 0. -1.
       -1   -1    0    0    0  501  0.00000000000E+00  0.00000000000E+00 -0.20884880868E+04  0.20884880868E+04  0.50400001928E-02 0.  1.
    10030    2    1    2    0    0  0.00000000000E+00  0.00000000000E+00 -0.79094252903E+03  0.33860336445E+04  0.32923599070E+04 0.  0.
        1    1    3    3  502    0 -0.10978499084E+04  0.11792273763E+04 -0.74280309141E+03  0.17741499539E+04  0.50400001928E-02 0.  1.
       -1    1    3    3    0  502  0.10978499084E+04 -0.11792273763E+04 -0.48139437621E+02  0.16118836906E+04  0.50400001928E-02 0. -1.
</event>
<event>
 5   0  0.3749685E-07  0.3281355E+04  0.7818609E-02  0.8167656E-01
        1   -1    0    0  501    0  0.00000000000E+00  0.00000000000E+00  0.23348592250E+04  0.23348592250E+04  0.50400001928E-02 0. -1.
       -1   -1    0    0    0  501  0.00000000000E+00  0.00000000000E+00 -0.11528843993E+04  0.11528843993E+04  0.50400001928E-02 0.  1.
    10030    2    1    2    0    0  0.00000000000E+00  0.00000000000E+00  0.11819748257E+04  0.34877436243E+04  0.32813550708E+04 0.  0.
        3    1    3    3  502    0  0.99707679898E+02  0.21771882068E+02 -0.11495072905E+04  0.11540288807E+04  0.10100000352E+00 0.  1.
       -3    1    3    3    0  502 -0.99707679898E+02 -0.21771882068E+02  0.23314821163E+04  0.23337147437E+04  0.10100000352E+00 0. -1.
</event>
<event>
 5   0  0.1120545E-06  0.3298372E+04  0.7818609E-02  0.8163310E-01
        2   -1    0    0  501    0  0.00000000000E+00  0.00000000000E+00  0.21379338050E+04  0.21379338050E+04  0.25500000920E-02 0. -1.
       -2   -1    0    0    0  501  0.00000000000E+00  0.00000000000E+00 -0.12721697528E+04  0.12721697528E+04  0.25500000920E-02 0.  1.
    10030    2    1    2    0    0  0.00000000000E+00  0.00000000000E+00  0.86576405219E+03  0.34101035579E+04  0.32983721563E+04 0.  0.
        4    1    3    3  502    0  0.16149637824E+04 -0.29260234808E+03  0.26588980041E+03  0.16626554518E+04  0.12699999809E+01 0. -1.
       -4    1    3    3    0  502 -0.16149637824E+04  0.29260234808E+03  0.59987425178E+03  0.17474481061E+04  0.12699999809E+01 0.  1.
</event>
<event>
 5   0  0.1120545E-06  0.3288444E+04  0.7818609E-02  0.8165842E-01
       -2   -1    0    0    0  501  0.00000000000E+00  0.00000000000E+00  0.14751034893E+04  0.14751034893E+04  0.25500000920E-02 0. -1.
        2   -1    0    0  501    0  0.00000000000E+00  0.00000000000E+00 -0.18327295564E+04  0.18327295564E+04  0.25500000920E-02 0.  1.
    10030    2    1    2    0    0  0.00000000000E+00  0.00000000000E+00 -0.35762606713E+03  0.33078330457E+04  0.32884438652E+04 0.  0.
        4    1    3    3  502    0  0.17546780196E+03 -0.13630364251E+04  0.72917578245E+03  0.15557493951E+04  0.12699999809E+01 0. -1.
       -4    1    3    3    0  502 -0.17546780196E+03  0.13630364251E+04 -0.10868018496E+04  0.17520836506E+04  0.12699999809E+01 0.  1.
</event>
<event>
 5   0  0.1116462E-06  0.3289272E+04  0.7818609E-02  0.8165630E-01
       -2   -1    0    0    0  501  0.00000000000E+00  0.00000000000E+00  0.87270396580E+03  0.87270396581E+03  0.25500000920E-02 0. -1.
        2   -1    0    0  501    0  0.00000000000E+00  0.00000000000E+00 -0.30993650160E+04  0.30993650160E+04  0.25500000920E-02 0.  1.
    10030    2    1    2    0    0  0.00000000000E+00  0.00000000000E+00 -0.22266610502E+04  0.39720689818E+04  0.32892723456E+04 0.  0.
        1    1    3    3  502    0  0.89559058259E+03  0.11639378737E+04 -0.21939754665E+03  0.14849138523E+04  0.50400001928E-02 0.  1.
       -1    1    3    3    0  502 -0.89559058259E+03 -0.11639378737E+04 -0.20072635035E+04  0.24871551295E+04  0.50400001928E-02 0. -1.
</event>
<event>
 5   0  0.3674967E-07  0.3273092E+04  0.7818609E-02  0.8169776E-01
       -1   -1    0    0    0  501  0.00000000000E+00  0.00000000000E+00  0.13994851602E+04  0.13994851602E+04  0.50400001928E-02 0. -1.
        1   -1    0    0  501    0  0.00000000000E+00  0.00000000000E+00 -0.19137634575E+04  0.19137634575E+04  0.50400001928E-02 0.  1.
    10030    2    1    2    0    0  0.00000000000E+00  0.00000000000E+00 -0.51427829729E+03  0.33132486177E+04  0.32730924575E+04 0.  0.
        2    1    3    3  502    0  0.12469565859E+04  0.10063426797E+03 -0.13251931013E+04  0.18224063046E+04  0.25500000920E-02 0.  1.
       -2    1    3    3    0  502 -0.12469565859E+04 -0.10063426797E+03  0.81091480405E+03  0.14908423131E+04  0.25500000920E-02 0. -1.
</event>
<event>
 5   0  0.3749685E-07  0.3304657E+04  0.7818609E-02  0.8161711E-01
       -1   -1    0    0    0  501  0.00000000000E+00  0.00000000000E+00  0.95330766813E+03  0.95330766815E+03  0.50400001928E-02 0.  1.
        1   -1    0    0  501    0  0.00000000000E+00  0.00000000000E+00 -0.28639124677E+04  0.28639124677E+04  0.50400001928E-02 0. -1.
    10030    2    1    2    0    0  0.00000000000E+00  0.00000000000E+00 -0.19106047996E+04  0.38172201359E+04  0.33046571480E+04 0.  0.
        3    1    3    3  502    0  0.13018115375E+04  0.99093800491E+03 -0.68808056517E+03  0.17748595108E+04  0.10100000352E+00 0.  1.
       -3    1    3    3    0  502 -0.13018115375E+04 -0.99093800491E+03 -0.12225242344E+04  0.20423606251E+04  0.10100000352E+00 0. -1.
</event>
<event>
 5   0  0.3757406E-07  0.3362132E+04  0.7818609E-02  0.8147263E-01
        1   -1    0    0  501    0  0.00000000000E+00  0.00000000000E+00  0.19813315763E+04  0.19813315763E+04  0.50400001928E-02 0.  1.
       -1   -1    0    0    0  501  0.00000000000E+00  0.00000000000E+00 -0.14263048767E+04  0.14263048768E+04  0.50400001928E-02 0. -1.
    10030    2    1    2    0    0  0.00000000000E+00  0.00000000000E+00  0.55502669960E+03  0.34076364531E+04  0.33621319961E+04 0.  0.
        1    1    3    3  502    0 -0.54823316995E+03  0.13485615451E+04 -0.57458223435E+03  0.15650311798E+04  0.50400001928E-02 0. -1.
       -1    1    3    3    0  502  0.54823316995E+03 -0.13485615451E+04  0.11296089340E+04  0.18426052733E+04  0.50400001928E-02 0.  1.
</event>
<event>
 5   0  0.1126221E-06  0.3292486E+04  0.7818609E-02  0.8164810E-01
       -2   -1    0    0    0  501  0.00000000000E+00  0.00000000000E+00  0.19852039722E+04  0.19852039722E+04  0.25500000920E-02 0.  1.
        2   -1    0    0  501    0  0.00000000000E+00  0.00000000000E+00 -0.13651577917E+04  0.13651577917E+04  0.25500000920E-02 0. -1.
    10030    2    1    2    0    0  0.00000000000E+00  0.00000000000E+00  0.62004618048E+03  0.33503617638E+04  0.32924863982E+04 0.  0.
        2    1    3    3  502    0 -0.58152365119E+03 -0.11039261043E+03 -0.12531305530E+04  0.13858904965E+04  0.25500000920E-02 0. -1.
       -2    1    3    3    0  502  0.58152365119E+03  0.11039261043E+03  0.18731767335E+04  0.19644712673E+04  0.25500000920E-02 0.  1.
</event>
<event>
 5   0  0.3796529E-07  0.3312844E+04  0.7818609E-02  0.8159635E-01
        1   -1    0    0  501    0  0.00000000000E+00  0.00000000000E+00  0.17147917135E+04  0.17147917135E+04  0.50400001928E-02 0.  1.
       -1   -1    0    0    0  501  0.00000000000E+00  0.00000000000E+00 -0.16000390061E+04  0.16000390061E+04  0.50400001928E-02 0. -1.
    10030    2    1    2    0    0  0.00000000000E+00  0.00000000000E+00  0.11475270740E+03  0.33148307195E+04  0.33128438713E+04 0.  0.
        5    1    3    3  502    0  0.24886487191E+03 -0.16140703658E+04 -0.21947472941E+03  0.16478313375E+04  0.46999998093E+01 0. -1.
       -5    1    3    3    0  502 -0.24886487191E+03  0.16140703658E+04  0.33422743680E+03  0.16669993820E+04  0.46999998093E+01 0.  1.
</event>
<event>
 5   0  0.3749685E-07  0.3303883E+04  0.7818609E-02  0.8161908E-01
       -1   -1    0    0    0  501  0.00000000000E+00  0.00000000000E+00  0.10896129594E+04  0.10896129594E+04  0.50400001928E-02 0. -1.
        1   -1    0    0  501    0  0.00000000000E+00  0.00000000000E+00 -0.25044778182E+04  0.25044778182E+04  0.50400001928E-02 0.  1.
    10030    2    1    2    0    0  0.00000000000E+00  0.00000000000E+00 -0.14148648588E+04  0.35940907776E+04  0.33038834648E+04 0.  0.
        3    1    3    3  502    0  0.75796851725E+03  0.14571048563E+04 -0.89970808202E+03  0.18727374291E+04  0.10100000352E+00 0. -1.
       -3    1    3    3    0  502 -0.75796851725E+03 -0.14571048563E+04 -0.51515677676E+03  0.17213533485E+04  0.10100000352E+00 0.  1.
</event>
<event>
 5   0  0.3674967E-07  0.3308935E+04  0.7818609E-02  0.8160626E-01
        1   -1    0    0  501    0  0.00000000000E+00  0.00000000000E+00  0.14565937735E+04  0.14565937736E+04  0.50400001928E-02 0.  1.
       -1   -1    0    0    0  501  0.00000000000E+00  0.00000000000E+00 -0.18792217983E+04  0.18792217983E+04  0.50400001928E-02 0. -1.
    10030    2    1    2    0    0  0.00000000000E+00  0.00000000000E+00 -0.42262802474E+03  0.33358155719E+04  0.33089350375E+04 0.  0.
        2    1    3    3  502    0 -0.13033212962E+04 -0.40342654462E+03 -0.11547924478E+04  0.17874409013E+04  0.25500000920E-02 0. -1.
       -2    1    3    3    0  502  0.13033212962E+04  0.40342654462E+03  0.73216442303E+03  0.15483746706E+04  0.25500000920E-02 0.  1.
</event>
<event>
 5   0  0.1126221E-06  0.3303713E+04  0.7818609E-02  0.8161951E-01
       -2   -1    0    0    0  501  0.00000000000E+00  0.00000000000E+00  0.16396476936E+04  0.16396476936E+04  0.25500000920E-02 0.  1.
        2   -1    0    0  501    0  0.00000000000E+00  0.00000000000E+00 -0.16641561986E+04  0.16641561986E+04  0.25500000920E-02 0. -1.
    10030    2    1    2    0    0  0.00000000000E+00  0.00000000000E+00 -0.24508504933E+02  0.33038038922E+04  0.33037129856E+04 0.  0.
        2    1    3    3  502    0  0.58829802233E+03 -0.24098286030E+03  0.15124065277E+04  0.16405916028E+04  0.25500000920E-02 0.  1.
       -2    1    3    3    0  502 -0.58829802233E+03  0.24098286030E+03 -0.15369150327E+04  0.16632122894E+04  0.25500000920E-02 0. -1.
</event>
<event>
 5   0  0.1129434E-06  0.3276655E+04  0.7818609E-02  0.8168861E-01
        2   -1    0    0  501    0  0.00000000000E+00  0.00000000000E+00  0.13933756668E+04  0.13933756668E+04  0.25500000920E-02 0. -1.
       -2   -1    0    0    0  501  0.00000000000E+00  0.00000000000E+00 -0.19263416993E+04  0.19263416993E+04  0.25500000920E-02 0.  1.
    10030    2    1    2    0    0  0.00000000000E+00  0.00000000000E+00 -0.53296603250E+03  0.33197173661E+04  0.32766553983E+04 0.  0.
        3    1    3    3  502    0  0.12617330621E+04  0.75054467961E+03  0.47028096207E+03  0.15415744645E+04  0.10100000352E+00 0. -1.
       -3    1    3    3    0  502 -0.12617330621E+04 -0.75054467961E+03 -0.10032469946E+04  0.17781429016E+04  0.10100000352E+00 0.  1.
</event>
<event>
 5   0  0.3796529E-07  0.3248959E+04  0.7818609E-02  0.8176005E-01
        1   -1    0    0  501    0  0.00000000000E+00  0.00000000000E+00  0.25208228538E+04  0.25208228538E+04  0.50400001928E-02 0.  1.
       -1   -1    0    0    0  501  0.00000000000E+00  0.00000000000E+00 -0.10468543266E+04  0.10468543266E+04  0.50400001928E-02 0. -1.
    10030    2    1    2    0    0  0.00000000000E+00  0.00000000000E+00  0.14739685272E+04  0.35676771804E+04  0.32489594095E+04 0.  0.
        5    1    3    3  502    0  0.59382110562E+03  0.35226439497E+03 -0.87770533256E+03  0.11167374133E+04  0.46999998093E+01 0. -1.
       -5    1    3    3    0  502 -0.59382110562E+03 -0.35226439497E+03  0.23516738597E+04  0.24509397671E+04  0.46999998093E+01 0.  1.
</event>
<event>
 5   0  0.3757406E-07  0.3308689E+04  0.7818609E-02  0.8160688E-01
       -1   -1    0    0    0  501  0.00000000000E+00  0.00000000000E+00  0.18605515645E+04  0.18605515645E+04  0.50400001928E-02 0.  1.
        1   -1    0    0  501    0  0.00000000000E+00  0.00000000000E+00 -0.14709917859E+04  0.14709917859E+04  0.50400001928E-02 0. -1.
    10030    2    1    2    0    0  0.00000000000E+00  0.00000000000E+00  0.38955977861E+03  0.33315433504E+04  0.33086892079E+04 0.  0.
        1    1    3    3  502    0 -0.35205476245E+03 -0.62751042345E+03  0.16947487866E+04  0.18411641255E+04  0.50400001928E-02 0.  1.
       -1    1    3    3    0  502  0.35205476245E+03  0.62751042345E+03 -0.13051890080E+04  0.14903792249E+04  0.50400001928E-02 0. -1.
</event>
<event>
 5   0  0.3796529E-07  0.3275540E+04  0.7818609E-02  0.8169147E-01
        1   -1    0    0  501    0  0.00000000000E+00  0.00000000000E+00  0.18828590511E+04  0.18828590511E+04  0.50400001928E-02 0.  1.
       -1   -1    0    0    0  501  0.00000000000E+00  0.00000000000E+00 -0.14245842192E+04  0.14245842192E+04  0.50400001928E-02 0. -1.
    10030    2    1    2    0    0  0.00000000000E+00  0.00000000000E+00  0.45827483193E+03  0.33074432703E+04  0.32755404386E+04 0.  0.
        5    1    3    3  502    0 -0.99222936053E+03 -0.11798974147E+04  0.78732550178E+03  0.17310634156E+04  0.46999998093E+01 0.  1.
       -5    1    3    3    0  502  0.99222936053E+03  0.11798974147E+04 -0.32905066985E+03  0.15763798547E+04  0.46999998093E+01 0. -1.
</event>
<event>
 5   0  0.1146799E-06  0.3277650E+04  0.7818609E-02  0.8168606E-01
       -2   -1    0    0    0  501  0.00000000000E+00  0.00000000000E+00  0.16599486499E+04  0.16599486499E+04  0.25500000920E-02 0. -1.
        2   -1    0    0  501    0  0.00000000000E+00  0.00000000000E+00 -0.16179697666E+04  0.16179697666E+04  0.25500000920E-02 0.  1.
    10030    2    1    2    0    0  0.00000000000E+00  0.00000000000E+00  0.41978883264E+02  0.32779184165E+04  0.32776496028E+04 0.  0.
        5    1    3    3  502    0  0.85694020272E+03  0.50938972956E+03 -0.12798478899E+04  0.16222999472E+04  0.46999998093E+01 0.  1.
       -5    1    3    3    0  502 -0.85694020272E+03 -0.50938972956E+03  0.13218267731E+04  0.16556184693E+04  0.46999998093E+01 0. -1.
</event>
<event>
 5   0  0.1126221E-06  0.3299610E+04  0.7818609E-02  0.8162995E-01
        2   -1    0    0  501    0  0.00000000000E+00  0.00000000000E+00  0.20587118672E+04  0.20587118672E+04  0.25500000920E-02 0.  1.
       -2   -1    0    0    0  501  0.00000000000E+00  0.00000000000E+00 -0.13221165974E+04  0.13221165974E+04  0.25500000920E-02 0. -1.
    10030    2    1    2    0    0  0.00000000000E+00  0.00000000000E+00  0.73659526981E+03  0.33808284645E+04  0.32996103581E+04 0.  0.
        2    1    3    3  502    0  0.52315865869E+03  0.15621626733E+04  0.45884670862E+03  0.17101425385E+04  0.25500000920E-02 0. -1.
       -2    1    3    3    0  502 -0.52315865869E+03 -0.15621626733E+04  0.27774856118E+03  0.16706859260E+04  0.25500000920E-02 0.  1.
</event>
<event>
 5   0  0.1126221E-06  0.3377452E+04  0.7818609E-02  0.8143463E-01
       -2   -1    0    0    0  501  0.00000000000E+00  0.00000000000E+00  0.21090488495E+04  0.21090488495E+04  0.25500000920E-02 0. -1.
        2   -1    0    0  501    0  0.00000000000E+00  0.00000000000E+00 -0.13521716757E+04  0.13521716757E+04  0.25500000920E-02 0.  1.
    10030    2    1    2    0    0  0.00000000000E+00  0.00000000000E+00  0.75687717376E+03  0.34612205252E+04  0.33774523635E+04 0.  0.
        2    1    3    3  502    0  0.84387089779E+03  0.50628014938E+03  0.17848310452E+04  0.20381510105E+04  0.25500000920E-02 0. -1.
       -2    1    3    3    0  502 -0.84387089779E+03 -0.50628014938E+03 -0.10279538714E+04  0.14230695147E+04  0.25500000920E-02 0.  1.
</event>
<event>
 5   0  0.1146799E-06  0.3302549E+04  0.7818609E-02  0.8162247E-01
       -2   -1    0    0    0  501  0.00000000000E+00  0.00000000000E+00  0.10798891437E+04  0.10798891437E+04  0.25500000920E-02 0.  1.
        2   -1    0    0  501    0  0.00000000000E+00  0.00000000000E+00 -0.25249890048E+04  0.25249890048E+04  0.25500000920E-02 0. -1.
    10030    2    1    2    0    0  0.00000000000E+00  0.00000000000E+00 -0.14450998611E+04  0.36048781484E+04  0.33025494480E+04 0.  0.
        5    1    3    3  502    0 -0.13228859494E+04 -0.63947282472E+03  0.99907599374E+02  0.14727377048E+04  0.46999998093E+01 0.  1.
       -5    1    3    3    0  502  0.13228859494E+04  0.63947282472E+03 -0.15450074605E+04  0.21321404437E+04  0.46999998093E+01 0. -1.
</event>
<event>
 5   0  0.1116462E-06  0.3286239E+04  0.7818609E-02  0.8166406E-01
       -2   -1    0    0    0  501  0.00000000000E+00  0.00000000000E+00  0.15267534006E+04  0.15267534006E+04  0.25500000920E-02 0.  1.
        2   -1    0    0  501    0  0.00000000000E+00  0.00000000000E+00 -0.17683543433E+04  0.17683543434E+04  0.25500000920E-02 0. -1.
    10030    2    1    2    0    0  0.00000000000E+00  0.00000000000E+00 -0.24160094273E+03  0.32951077440E+04  0.32862385837E+04 0.  0.
        1    1    3    3  502    0  0.78355706011E+03  0.52520722156E+02  0.13263969134E+04  0.15414437598E+04  0.50400001928E-02 0.  1.
       -1    1    3    3    0  502 -0.78355706011E+03 -0.52520722156E+02 -0.15679978561E+04  0.17536639842E+04  0.50400001928E-02 0. -1.
</event>
<event>
 5   0  0.1126221E-06  0.3430373E+04  0.7818609E-02  0.8130492E-01
       -2   -1    0    0    0  501  0.00000000000E+00  0.00000000000E+00  0.28109516462E+04  0.28109516462E+04  0.25500000920E-02 0. -1.
        2   -1    0    0  501    0  0.00000000000E+00  0.00000000000E+00 -0.10465724157E+04  0.10465724157E+04  0.25500000920E-02 0.  1.
    10030    2    1    2    0    0  0.00000000000E+00  0.00000000000E+00  0.17643792305E+04  0.38575240618E+04  0.34303728396E+04 0.  0.
        2    1    3    3  502    0 -0.10686754387E+04  0.65411481285E+03 -0.43495501261E+03  0.13263179275E+04  0.25500000920E-02 0.  1.
       -2    1    3    3    0  502  0.10686754387E+04 -0.65411481285E+03  0.21993342431E+04  0.25312061344E+04  0.25500000920E-02 0. -1.
</event>
<event>
 5   0  0.1116462E-06  0.3301506E+04  0.7818609E-02  0.8162512E-01
       -2   -1    0    0    0  501  0.00000000000E+00  0.00000000000E+00  0.29513797325E+04  0.29513797325E+04  0.25500000920E-02 0.  1.
        2   -1    0    0  501    0  0.00000000000E+00  0.00000000000E+00 -0.92329230291E+03  0.92329230291E+03  0.25500000920E-02 0. -1.
    10030    2    1    2    0    0  0.00000000000E+00  0.00000000000E+00  0.20280874296E+04  0.38746720354E+04  0.33015064380E+04 0.  0.
        1    1    3    3  502    0  0.44659215585E+03  0.82441510279E+03  0.26085443393E+04  0.27719322477E+04  0.50400001928E-02 0.  1.
       -1    1    3    3    0  502 -0.44659215585E+03 -0.82441510279E+03 -0.58045690974E+03  0.11027397877E+04  0.50400001928E-02 0. -1.
</event>
<event>
 5   0  0.3709747E-07  0.3315843E+04  0.7818609E-02  0.8158876E-01
        1   -1    0    0  501    0  0.00000000000E+00  0.00000000000E+00  0.16395339804E+04  0.16395339804E+04  0.50400001928E-02 0. -1.
       -1   -1    0    0    0  501  0.00000000000E+00  0.00000000000E+00 -0.16765150462E+04  0.16765150463E+04  0.50400001928E-02 0.  1.
    10030    2    1    2    0    0  0.00000000000E+00  0.00000000000E+00 -0.36981065844E+02  0.33160490267E+04  0.33158428111E+04 0.  0.
        4    1    3    3  502    0  0.14762905168E+04 -0.71223536283E+03 -0.26748166269E+03  0.16608012990E+04  0.12699999809E+01 0. -1.
       -4    1    3    3    0  502 -0.14762905168E+04  0.71223536283E+03  0.23050059685E+03  0.16552477277E+04  0.12699999809E+01 0.  1.
</event>
<event>
 5   0  0.3757406E-07  0.3261874E+04  0.7818609E-02  0.8172665E-01
        1   -1    0    0  501    0  0.00000000000E+00  0.00000000000E+00  0.20134124240E+04  0.20134124240E+04  0.50400001928E-02 0. -1.
       -1   -1    0    0    0  501  0.00000000000E+00  0.00000000000E+00 -0.13211177098E+04  0.13211177098E+04  0.50400001928E-02 0.  1.
    10030    2    1    2    0    0  0.00000000000E+00  0.00000000000E+00  0.69229471425E+03  0.33345301338E+04  0.32618735785E+04 0.  0.
        1    1    3    3  502    0  0.10723666694E+04  0.45981881866E+03  0.15110699252E+04  0.19091191525E+04  0.50400001928E-02 0. -1.
       -1    1    3    3    0  502 -0.10723666694E+04 -0.45981881866E+03 -0.81877521095E+03  0.14254109813E+04  0.50400001928E-02 0.  1.
</event>
<event>
 5   0  0.3709747E-07  0.3283717E+04  0.7818609E-02  0.8167051E-01
        1   -1    0    0  501    0  0.00000000000E+00  0.00000000000E+00  0.15777593552E+04  0.15777593552E+04  0.50400001928E-02 0.  1.
       -1   -1    0    0    0  501  0.00000000000E+00  0.00000000000E+00 -0.17085614430E+04  0.17085614430E+04  0.50400001928E-02 0. -1.
    10030    2    1    2    0    0  0.00000000000E+00  0.00000000000E+00 -0.13080208784E+03  0.32863207982E+04  0.32837166752E+04 0.  0.
        4    1    3    3  502    0  0.80635894623E+03  0.42478272090E+03 -0.14321495071E+04  0.16975596996E+04  0.12699999809E+01 0. -1.
       -4    1    3    3    0  502 -0.80635894623E+03 -0.42478272090E+03  0.13013474192E+04  0.15887610986E+04  0.12699999809E+01 0.  1.
</event>
<event>
 5   0  0.1120545E-06  0.3316871E+04  0.7818609E-02  0.8158616E-01
        2   -1    0    0  501    0  0.00000000000E+00  0.00000000000E+00  0.18063351460E+04  0.18063351460E+04  0.25500000920E-02 0.  1.
       -2   -1    0    0    0  501  0.00000000000E+00  0.00000000000E+00 -0.15226451789E+04  0.15226451789E+04  0.25500000920E-02 0. -1.
    10030    2    1    2    0    0  0.00000000000E+00  0.00000000000E+00  0.28368996707E+03  0.33289803250E+04  0.33168705140E+04 0.  0.
        4    1    3    3  502    0 -0.56964046317E+03  0.24382519297E+03  0.16857932530E+04  0.17960627736E+04  0.12699999809E+01 0.  1.
       -4    1    3    3    0  502  0.56964046317E+03 -0.24382519297E+03 -0.14021032859E+04  0.15329175514E+04  0.12699999809E+01 0. -1.
</event>
<event>
 5   0  0.3796529E-07  0.3304171E+04  0.7818609E-02  0.8161835E-01
        1   -1    0    0  501    0  0.00000000000E+00  0.00000000000E+00  0.26470090394E+04  0.26470090394E+04  0.50400001928E-02 0.  1.
       -1   -1    0    0    0  501  0.00000000000E+00  0.00000000000E+00 -0.10311211441E+04  0.10311211441E+04  0.50400001928E-02 0. -1.
    10030    2    1    2    0    0  0.00000000000E+00  0.00000000000E+00  0.16158878953E+04  0.36781301835E+04  0.33041712965E+04 0.  0.
        5    1    3    3  502    0 -0.95241155337E+03 -0.77680406705E+03  0.20369106939E+04  0.23789786864E+04  0.46999998093E+01 0.  1.
       -5    1    3    3    0  502  0.95241155337E+03  0.77680406705E+03 -0.42102279852E+03  0.12991514971E+04  0.46999998093E+01 0. -1.
</event>
<event>
 5   0  0.3674967E-07  0.3315937E+04  0.7818609E-02  0.8158852E-01
        1   -1    0    0  501    0  0.00000000000E+00  0.00000000000E+00  0.20219460325E+04  0.20219460325E+04  0.50400001928E-02 0.  1.
       -1   -1    0    0    0  501  0.00000000000E+00  0.00000000000E+00 -0.13595116899E+04  0.13595116899E+04  0.50400001928E-02 0. -1.
    10030    2    1    2    0    0  0.00000000000E+00  0.00000000000E+00  0.66243434261E+03  0.33814577223E+04  0.33159368314E+04 0.  0.
        2    1    3    3  502    0  0.16234796949E+04 -0.30211616304E+01 -0.11828160354E+02  0.16235255934E+04  0.25500000920E-02 0.  1.
       -2    1    3    3    0  502 -0.16234796949E+04  0.30211616304E+01  0.67426250297E+03  0.17579321289E+04  0.25500000920E-02 0. -1.
</event>
<event>
 5   0  0.3709747E-07  0.3273947E+04  0.7818609E-02  0.8169556E-01
        1   -1    0    0  501    0  0.00000000000E+00  0.00000000000E+00  0.19879480995E+04  0.19879480995E+04  0.50400001928E-02 0. -1.
       -1   -1    0    0    0  501  0.00000000000E+00  0.00000000000E+00 -0.13479635390E+04  0.13479635390E+04  0.50400001928E-02 0.  1.
    10030    2    1    2    0    0  0.00000000000E+00  0.00000000000E+00  0.63998456055E+03  0.33359116385E+04  0.32739465821E+04 0.  0.
        4    1    3    3  502    0  0.46937280111E+03 -0.60772575030E+03  0.17930511229E+04  0.19505577039E+04  0.12699999809E+01 0. -1.
       -4    1    3    3    0  502 -0.46937280111E+03  0.60772575030E+03 -0.11530665624E+04  0.13853539346E+04  0.12699999809E+01 0.  1.
</event>
<event>
 5   0  0.3757406E-07  0.3304924E+04  0.7818609E-02  0.8161644E-01
       -1   -1    0    0    0  501  0.00000000000E+00  0.00000000000E+00  0.12457792827E+04  0.12457792827E+04  0.50400001928E-02 0.  1.
        1   -1    0    0  501    0  0.00000000000E+00  0.00000000000E+00 -0.21919057776E+04  0.21919057776E+04  0.50400001928E-02 0. -1.
    10030    2    1    2    0    0  0.00000000000E+00  0.00000000000E+00 -0.94612649495E+03  0.34376850603E+04  0.33049240883E+04 0.  0.
        1    1    3    3  502    0 -0.23521704427E+03  0.73208337442E+03 -0.19944733605E+04  0.21375680365E+04  0.50400001928E-02 0. -1.
       -1    1    3    3    0  502  0.23521704427E+03 -0.73208337442E+03  0.10483468656E+04  0.13001170238E+04  0.50400001928E-02 0.  1.
</event>
<event>
 5   0  0.1129434E-06  0.3304023E+04  0.7818609E-02  0.8161873E-01
        2   -1    0    0  501    0  0.00000000000E+00  0.00000000000E+00  0.21770200256E+04  0.21770200256E+04  0.25500000920E-02 0. -1.
       -2   -1    0    0    0  501  0.00000000000E+00  0.00000000000E+00 -0.12536134143E+04  0.12536134143E+04  0.25500000920E-02 0.  1.
    10030    2    1    2    0    0  0.00000000000E+00  0.00000000000E+00  0.92340661134E+03  0.34306334399E+04  0.33040227040E+04 0.  0.
        3    1    3    3  502    0  0.35297329657E+03  0.15136437518E+04  0.10430086364E+04  0.18717837967E+04  0.10100000352E+00 0.  1.
       -3    1    3    3    0  502 -0.35297329657E+03 -0.15136437518E+04 -0.11960202508E+03  0.15588496432E+04  0.10100000352E+00 0. -1.
</event>
<event>
 5   0  0.3674967E-07  0.3291910E+04  0.7818609E-02  0.8164957E-01
        1   -1    0    0  501    0  0.00000000000E+00  0.00000000000E+00  0.13644422346E+04  0.13644422346E+04  0.50400001928E-02 0.  1.
       -1   -1    0    0    0  501  0.00000000000E+00  0.00000000000E+00 -0.19855495096E+04  0.19855495096E+04  0.50400001928E-02 0. -1.
    10030    2    1    2    0    0  0.00000000000E+00  0.00000000000E+00 -0.62110727497E+03  0.33499917442E+04  0.32919098468E+04 0.  0.
        2    1    3    3  502    0  0.94367472840E+03  0.13432078912E+04 -0.18827460441E+03  0.16523246529E+04  0.25500000920E-02 0.  1.
       -2    1    3    3    0  502 -0.94367472840E+03 -0.13432078912E+04 -0.43283267056E+03  0.16976670913E+04  0.25500000920E-02 0. -1.
</event>
<event>
 5   0  0.1129434E-06  0.3321165E+04  0.7818609E-02  0.8157531E-01
        2   -1    0    0  501    0  0.00000000000E+00  0.00000000000E+00  0.15771471091E+04  0.15771471091E+04  0.25500000920E-02 0. -1.
       -2   -1    0    0    0  501  0.00000000000E+00  0.00000000000E+00 -0.17484319543E+04  0.17484319543E+04  0.25500000920E-02 0.  1.
    10030    2    1    2    0    0  0.00000000000E+00  0.00000000000E+00 -0.17128484516E+03  0.33255790634E+04  0.33211650981E+04 0.  0.
        3    1    3    3  502    0 -0.12000004677E+04 -0.10160216029E+03 -0.12304949249E+04  0.17217554681E+04  0.10100000352E+00 0.  1.
       -3    1    3    3    0  502  0.12000004677E+04  0.10160216029E+03  0.10592100798E+04  0.16038235953E+04  0.10100000352E+00 0. -1.
</event>
<event>
 5   0  0.3573375E-07  0.3282349E+04  0.7818609E-02  0.8167401E-01
       -3   -1    0    0    0  501  0.00000000000E+00  0.00000000000E+00  0.12370167180E+04  0.12370167222E+04  0.10100000352E+00 0. -1.
        3   -1    0    0  501    0  0.00000000000E+00  0.00000000000E+00 -0.21773785906E+04  0.21773785929E+04  0.10100000352E+00 0.  1.
    10030    2    1    2    0    0  0.00000000000E+00  0.00000000000E+00 -0.94036187250E+03  0.34143953151E+04  0.32823489937E+04 0.  0.
        2    1    3    3  502    0  0.81404396069E+03 -0.81301213643E+03  0.74728612276E+03  0.13718938928E+04  0.25500000920E-02 0. -1.
       -2    1    3    3    0  502 -0.81404396069E+03  0.81301213643E+03 -0.16876479953E+04  0.20425014222E+04  0.25500000920E-02 0.  1.
</event>
<event>
 5   0  0.1129434E-06  0.3312704E+04  0.7818609E-02  0.8159670E-01
       -2   -1    0    0    0  501  0.00000000000E+00  0.00000000000E+00  0.15766109280E+04  0.15766109280E+04  0.25500000920E-02 0. -1.
        2   -1    0    0  501    0  0.00000000000E+00  0.00000000000E+00 -0.17401260772E+04  0.17401260772E+04  0.25500000920E-02 0.  1.
    10030    2    1    2    0    0  0.00000000000E+00  0.00000000000E+00 -0.16351514928E+03  0.33167370052E+04  0.33127039043E+04 0.  0.
        3    1    3    3  502    0 -0.34174980792E+03 -0.60472005044E+03 -0.15872579204E+04  0.17325896764E+04  0.10100000352E+00 0.  1.
       -3    1    3    3    0  502  0.34174980792E+03  0.60472005044E+03  0.14237427712E+04  0.15841473288E+04  0.10100000352E+00 0. -1.
</event>
<event>
 5   0  0.3749685E-07  0.3430489E+04  0.7818609E-02  0.8130464E-01
        1   -1    0    0  501    0  0.00000000000E+00  0.00000000000E+00  0.26196169144E+04  0.26196169144E+04  0.50400001928E-02 0. -1.
       -1   -1    0    0    0  501  0.00000000000E+00  0.00000000000E+00 -0.11230894231E+04  0.11230894231E+04  0.50400001928E-02 0.  1.
    10030    2    1    2    0    0  0.00000000000E+00  0.00000000000E+00  0.14965274912E+04  0.37427063375E+04  0.34304892066E+04 0.  0.
        3    1    3    3  502    0 -0.15839543795E+04  0.11178179300E+02  0.14662026530E+04  0.21584222613E+04  0.10100000352E+00 0. -1.
       -3    1    3    3    0  502  0.15839543795E+04 -0.11178179300E+02  0.30324838237E+02  0.15842840762E+04  0.10100000352E+00 0.  1.
</event>
<event>
 5   0  0.3796529E-07  0.3298870E+04  0.7818609E-02  0.8163183E-01
       -1   -1    0    0    0  501  0.00000000000E+00  0.00000000000E+00  0.10539533420E+04  0.10539533420E+04  0.50400001928E-02 0. -1.
        1   -1    0    0  501    0  0.00000000000E+00  0.00000000000E+00 -0.25813625796E+04  0.25813625796E+04  0.50400001928E-02 0.  1.
    10030    2    1    2    0    0  0.00000000000E+00  0.00000000000E+00 -0.15274092375E+04  0.36353159216E+04  0.32988699385E+04 0.  0.
        5    1    3    3  502    0  0.13591710313E+03  0.78210787041E+03 -0.23570010827E+04  0.24870951678E+04  0.46999998093E+01 0.  1.
       -5    1    3    3    0  502 -0.13591710313E+03 -0.78210787041E+03  0.82959184516E+03  0.11482207538E+04  0.46999998093E+01 0. -1.
</event>
<event>
 5   0  0.1146799E-06  0.3261479E+04  0.7818609E-02  0.8172767E-01
       -2   -1    0    0    0  501  0.00000000000E+00  0.00000000000E+00  0.29226356726E+04  0.29226356726E+04  0.25500000920E-02 0. -1.
        2   -1    0    0  501    0  0.00000000000E+00  0.00000000000E+00 -0.90990190939E+03  0.90990190940E+03  0.25500000920E-02 0.  1.
    10030    2    1    2    0    0  0.00000000000E+00  0.00000000000E+00  0.20127337632E+04  0.38325375820E+04  0.32614792834E+04 0.  0.
        5    1    3    3  502    0  0.93498365598E+03  0.20280357664E+03  0.25581849351E+04  0.27312370787E+04  0.46999998093E+01 0. -1.
       -5    1    3    3    0  502 -0.93498365598E+03 -0.20280357664E+03 -0.54545117192E+03  0.11013005033E+04  0.46999998093E+01 0.  1.
</event>
<event>
 5   0  0.3749685E-07  0.3300798E+04  0.7818609E-02  0.8162692E-01
       -1   -1    0    0    0  501  0.00000000000E+00  0.00000000000E+00  0.15129414815E+04  0.15129414815E+04  0.50400001928E-02 0. -1.
        1   -1    0    0  501    0  0.00000000000E+00  0.00000000000E+00 -0.18003455447E+04  0.18003455447E+04  0.50400001928E-02 0.  1.
    10030    2    1    2    0    0  0.00000000000E+00  0.00000000000E+00 -0.28740406312E+03  0.33132870262E+04  0.33007983614E+04 0.  0.
        3    1    3    3  502    0 -0.88558092849E+03  0.13896408546E+04 -0.51363985940E+02  0.16486338450E+04  0.10100000352E+00 0. -1.
       -3    1    3    3    0  502  0.88558092849E+03 -0.13896408546E+04 -0.23604007718E+03  0.16646531812E+04  0.10100000352E+00 0.  1.
</event>
<event>
 5   0  0.3674967E-07  0.2996679E+04  0.7818609E-02  0.8244680E-01
       -1   -1    0    0    0  501  0.00000000000E+00  0.00000000000E+00  0.13328633894E+04  0.13328633894E+04  0.50400001928E-02 0.  1.
        1   -1    0    0  501    0  0.00000000000E+00  0.00000000000E+00 -0.16843593237E+04  0.16843593237E+04  0.50400001928E-02 0. -1.
    10030    2    1    2    0    0  0.00000000000E+00  0.00000000000E+00 -0.35149593426E+03  0.30172227131E+04  0.29966787463E+04 0.  0.
        2    1    3    3  502    0 -0.12215702761E+04 -0.74162257542E+03 -0.62914934790E+03  0.15614310378E+04  0.25500000920E-02 0. -1.
       -2    1    3    3    0  502  0.12215702761E+04  0.74162257542E+03  0.27765341364E+03  0.14557916753E+04  0.25500000920E-02 0.  1.
</event>
<event>
 5   0  0.1126221E-06  0.3260074E+04  0.7818609E-02  0.8173130E-01
        2   -1    0    0  501    0  0.00000000000E+00  0.00000000000E+00  0.22059917561E+04  0.22059917561E+04  0.25500000920E-02 0.  1.
       -2   -1    0    0    0  501  0.00000000000E+00  0.00000000000E+00 -0.12044560700E+04  0.12044560700E+04  0.25500000920E-02 0. -1.
    10030    2    1    2    0    0  0.00000000000E+00  0.00000000000E+00  0.10015356861E+04  0.34104478261E+04  0.32600737176E+04 0.  0.
        2    1    3    3  502    0 -0.36325233952E+03  0.10011261576E+04  0.17917120257E+04  0.20843315064E+04  0.25500000920E-02 0.  1.
       -2    1    3    3    0  502  0.36325233952E+03 -0.10011261576E+04 -0.79017633962E+03  0.13261163197E+04  0.25500000920E-02 0. -1.
</event>
<event>
 5   0  0.1126221E-06  0.3299486E+04  0.7818609E-02  0.8163026E-01
        2   -1    0    0  501    0  0.00000000000E+00  0.00000000000E+00  0.12527360459E+04  0.12527360459E+04  0.25500000920E-02 0. -1.
       -2   -1    0    0    0  501  0.00000000000E+00  0.00000000000E+00 -0.21725666019E+04  0.21725666019E+04  0.25500000920E-02 0.  1.
    10030    2    1    2    0    0  0.00000000000E+00  0.00000000000E+00 -0.91983055605E+03  0.34253026478E+04  0.32994863202E+04 0.  0.
        2    1    3    3  502    0 -0.89800069390E+03 -0.10913207967E+03 -0.18921378473E+04  0.20972602819E+04  0.25500000920E-02 0.  1.
       -2    1    3    3    0  502  0.89800069390E+03  0.10913207967E+03  0.97230729124E+03  0.13280423659E+04  0.25500000920E-02 0. -1.
</event>
<event>
 5   0  0.1120545E-06  0.3299055E+04  0.7818609E-02  0.8163136E-01
        2   -1    0    0  501    0  0.00000000000E+00  0.00000000000E+00  0.20511398342E+04  0.20511398342E+04  0.25500000920E-02 0.  1.
       -2   -1    0    0    0  501  0.00000000000E+00  0.00000000000E+00 -0.13265509697E+04  0.13265509697E+04  0.25500000920E-02 0. -1.
    10030    2    1    2    0    0  0.00000000000E+00  0.00000000000E+00  0.72458886451E+03  0.33776908039E+04  0.32990553412E+04 0.  0.
        4    1    3    3  502    0 -0.29700442627E+03  0.16088700785E+04  0.14688619212E+03  0.16426356032E+04  0.12699999809E+01 0. -1.
       -4    1    3    3    0  502  0.29700442627E+03 -0.16088700785E+04  0.57770267239E+03  0.17350552006E+04  0.12699999809E+01 0.  1.
</event>
<event>
 5   0  0.1116462E-06  0.3288249E+04  0.7818609E-02  0.8165892E-01
       -2   -1    0    0    0  501  0.00000000000E+00  0.00000000000E+00  0.20058778076E+04  0.20058778076E+04  0.25500000920E-02 0. -1.
        2   -1    0    0  501    0  0.00000000000E+00  0.00000000000E+00 -0.13476119283E+04  0.13476119283E+04  0.25500000920E-02 0.  1.
    10030    2    1    2    0    0  0.00000000000E+00  0.00000000000E+00  0.65826587922E+03  0.33534897359E+04  0.32882486890E+04 0.  0.
        1    1    3    3  502    0  0.10068223522E+04 -0.11179160902E+04 -0.34713541559E+03  0.15439982611E+04  0.50400001928E-02 0.  1.
       -1    1    3    3    0  502 -0.10068223522E+04  0.11179160902E+04  0.10054012948E+04  0.18094914748E+04  0.50400001928E-02 0. -1.
</event>
<event>
 5   0  0.3674967E-07  0.3255075E+04  0.7818609E-02  0.8174421E-01
        1   -1    0    0  501    0  0.00000000000E+00  0.00000000000E+00  0.14861621495E+04  0.14861621495E+04  0.50400001928E-02 0.  1.
       -1   -1    0    0    0  501  0.00000000000E+00  0.00000000000E+00 -0.17823619710E+04  0.17823619710E+04  0.50400001928E-02 0. -1.
    10030    2    1    2    0    0  0.00000000000E+00  0.00000000000E+00 -0.29619982151E+03  0.32685241205E+04  0.32550753589E+04 0.  0.
        2    1    3    3  502    0 -0.79920043468E+03  0.19678212846E+03 -0.15579787986E+04  0.17620279447E+04  0.25500000920E-02 0. -1.
       -2    1    3    3    0  502  0.79920043468E+03 -0.19678212846E+03  0.12617789771E+04  0.15064961759E+04  0.25500000920E-02 0.  1.
</event>
<event>
 5   0  0.1120545E-06  0.3303765E+04  0.7818609E-02  0.8161938E-01
        2   -1    0    0  501    0  0.00000000000E+00  0.00000000000E+00  0.15327703360E+04  0.15327703360E+04  0.25500000920E-02 0. -1.
       -2   -1    0    0    0  501  0.00000000000E+00  0.00000000000E+00 -0.17802514030E+04  0.17802514030E+04  0.25500000920E-02 0.  1.
    10030    2    1    2    0    0  0.00000000000E+00  0.00000000000E+00 -0.24748106702E+03  0.33130217390E+04  0.33037654524E+04 0.  0.
        4    1    3    3  502    0  0.15736877090E+04 -0.18829927217E+03  0.34314451425E+03  0.16216347899E+04  0.12699999809E+01 0. -1.
       -4    1    3    3    0  502 -0.15736877090E+04  0.18829927217E+03 -0.59062558127E+03  0.16913869491E+04  0.12699999809E+01 0.  1.
</event>
<event>
 5   0  0.1129434E-06  0.3294220E+04  0.7818609E-02  0.8164368E-01
        2   -1    0    0  501    0  0.00000000000E+00  0.00000000000E+00  0.18733152325E+04  0.18733152325E+04  0.25500000920E-02 0. -1.
       -2   -1    0    0    0  501  0.00000000000E+00  0.00000000000E+00 -0.14482193611E+04  0.14482193611E+04  0.25500000920E-02 0.  1.
    10030    2    1    2    0    0  0.00000000000E+00  0.00000000000E+00  0.42509587138E+03  0.33215345935E+04  0.32942200224E+04 0.  0.
        3    1    3    3  502    0 -0.21561640468E+03 -0.88699876394E+03 -0.11698468320E+04  0.14838459697E+04  0.10100000352E+00 0.  1.
       -3    1    3    3    0  502  0.21561640468E+03  0.88699876394E+03  0.15949427034E+04  0.18376886239E+04  0.10100000352E+00 0. -1.
</event>
<event>
 5   0  0.3749685E-07  0.3310313E+04  0.7818609E-02  0.8160276E-01
        1   -1    0    0  501    0  0.00000000000E+00  0.00000000000E+00  0.15813520945E+04  0.15813520945E+04  0.50400001928E-02 0. -1.
       -1   -1    0    0    0  501  0.00000000000E+00  0.00000000000E+00 -0.17324056322E+04  0.17324056322E+04  0.50400001928E-02 0.  1.
    10030    2    1    2    0    0  0.00000000000E+00  0.00000000000E+00 -0.15105353774E+03  0.33137577267E+04  0.33103131422E+04 0.  0.
        3    1    3    3  502    0 -0.84068754768E+03  0.14250925398E+04 -0.11914922652E+03  0.16588673390E+04  0.10100000352E+00 0.  1.
       -3    1    3    3    0  502  0.84068754768E+03 -0.14250925398E+04 -0.31904311220E+02  0.16548903877E+04  0.10100000352E+00 0. -1.
</event>
<event>
 5   0  0.1146799E-06  0.3255511E+04  0.7818609E-02  0.8174309E-01
        2   -1    0    0  501    0  0.00000000000E+00  0.00000000000E+00  0.24422996611E+04  0.24422996611E+04  0.25500000920E-02 0. -1.
       -2   -1    0    0    0  501  0.00000000000E+00  0.00000000000E+00 -0.10848740303E+04  0.10848740303E+04  0.25500000920E-02 0.  1.
    10030    2    1    2    0    0  0.00000000000E+00  0.00000000000E+00  0.13574256309E+04  0.35271736914E+04  0.32555106982E+04 0.  0.
        5    1    3    3  502    0 -0.11801555175E+04 -0.19400668692E+03 -0.51758146712E+03  0.13031954209E+04  0.46999998093E+01 0.  1.
       -5    1    3    3    0  502  0.11801555175E+04  0.19400668692E+03  0.18750070980E+04  0.22239782705E+04  0.46999998093E+01 0. -1.
</event>
<event>
 5   0  0.3709747E-07  0.3284705E+04  0.7818609E-02  0.8166798E-01
        1   -1    0    0  501    0  0.00000000000E+00  0.00000000000E+00  0.17291131189E+04  0.17291131189E+04  0.50400001928E-02 0.  1.
       -1   -1    0    0    0  501  0.00000000000E+00  0.00000000000E+00 -0.15599451202E+04  0.15599451202E+04  0.50400001928E-02 0. -1.
    10030    2    1    2    0    0  0.00000000000E+00  0.00000000000E+00  0.16916799868E+03  0.32890582391E+04  0.32847049012E+04 0.  0.
        4    1    3    3  502    0  0.34013745985E+03  0.13328218451E+04  0.98310955002E+03  0.16907434940E+04  0.12699999809E+01 0. -1.
       -4    1    3    3    0  502 -0.34013745985E+03 -0.13328218451E+04 -0.81394155135E+03  0.15983147450E+04  0.12699999809E+01 0.  1.
</event>
<event>
 5   0  0.1116462E-06  0.3294808E+04  0.7818609E-02  0.8164218E-01
       -2   -1    0    0    0  501  0.00000000000E+00  0.00000000000E+00  0.11680334346E+04  0.11680334346E+04  0.25500000920E-02 0.  1.
        2   -1    0    0  501    0  0.00000000000E+00  0.00000000000E+00 -0.23235124029E+04  0.23235124029E+04  0.25500000920E-02 0. -1.
    10030    2    1    2    0    0  0.00000000000E+00  0.00000000000E+00 -0.11554789682E+04  0.34915458375E+04  0.32948081415E+04 0.  0.
        1    1    3    3  502    0 -0.12817318456E+04  0.23324440690E+03 -0.16462632292E+04  0.20993861239E+04  0.50400001928E-02 0. -1.
       -1    1    3    3    0  502  0.12817318456E+04 -0.23324440690E+03  0.49078426097E+03  0.13921597136E+04  0.50400001928E-02 0.  1.
</event>
<event>
 5   0  0.1126221E-06  0.3275454E+04  0.7818609E-02  0.8169169E-01
        2   -1    0    0  501    0  0.00000000000E+00  0.00000000000E+00  0.14336249077E+04  0.14336249077E+04  0.25500000920E-02 0. -1.
       -2   -1    0    0    0  501  0.00000000000E+00  0.00000000000E+00 -0.18708861773E+04  0.18708861773E+04  0.25500000920E-02 0.  1.
    10030    2    1    2    0    0  0.00000000000E+00  0.00000000000E+00 -0.43726126953E+03  0.33045110850E+04  0.32754535706E+04 0.  0.
        2    1    3    3  502    0 -0.31496603531E+03  0.11137449573E+04 -0.13875801566E+04  0.18069339015E+04  0.25500000920E-02 0.  1.
       -2    1    3    3    0  502  0.31496603531E+03 -0.11137449573E+04  0.95031888710E+03  0.14975771835E+04  0.25500000920E-02 0. -1.
</event>
<event>
 5   0  0.3796529E-07  0.3287901E+04  0.7818609E-02  0.8165981E-01
        1   -1    0    0  501    0  0.00000000000E+00  0.00000000000E+00  0.14163797286E+04  0.14163797286E+04  0.50400001928E-02 0. -1.
       -1   -1    0    0    0  501  0.00000000000E+00  0.00000000000E+00 -0.19080857629E+04  0.19080857629E+04  0.50400001928E-02 0.  1.
    10030    2    1    2    0    0  0.00000000000E+00  0.00000000000E+00 -0.49170603432E+03  0.33244654915E+04  0.32879014553E+04 0.  0.
        5    1    3    3  502    0  0.58904368654E+03  0.15040943305E+04 -0.55466672720E+03  0.17079079273E+04  0.46999998093E+01 0.  1.
       -5    1    3    3    0  502 -0.58904368654E+03 -0.15040943305E+04  0.62960692878E+02  0.16165575643E+04  0.46999998093E+01 0. -1.
</event>
<event>
 5   0  0.1120545E-06  0.3207359E+04  0.7818609E-02  0.8186876E-01
       -2   -1    0    0    0  501  0.00000000000E+00  0.00000000000E+00  0.16134584398E+04  0.16134584398E+04  0.25500000920E-02 0.  1.
        2   -1    0    0  501    0  0.00000000000E+00  0.00000000000E+00 -0.15939600093E+04  0.15939600093E+04  0.25500000920E-02 0. -1.
    10030    2    1    2    0    0  0.00000000000E+00  0.00000000000E+00  0.19498430525E+02  0.32074184491E+04  0.32073591815E+04 0.  0.
        4    1    3    3  502    0  0.50891461300E+03 -0.11530888566E+04  0.10013211785E+04  0.16097371555E+04  0.12699999809E+01 0.  1.
       -4    1    3    3    0  502 -0.50891461300E+03  0.11530888566E+04 -0.98182274801E+03  0.15976812936E+04  0.12699999809E+01 0. -1.
</event>
<event>
 5   0  0.1146799E-06  0.3305596E+04  0.7818609E-02  0.8161473E-01
        2   -1    0    0  501    0  0.00000000000E+00  0.00000000000E+00  0.18836015271E+04  0.18836015271E+04  0.25500000920E-02 0.  1.
       -2   -1    0    0    0  501  0.00000000000E+00  0.00000000000E+00 -0.14502755132E+04  0.14502755132E+04  0.25500000920E-02 0. -1.
    10030    2    1    2    0    0  0.00000000000E+00  0.00000000000E+00  0.43332601393E+03  0.33338770403E+04  0.33055959653E+04 0.  0.
        5    1    3    3  502    0  0.37990282684E+03  0.22935588294E+03 -0.13890602528E+04  0.14582320648E+04  0.46999998093E+01 0. -1.
       -5    1    3    3    0  502 -0.37990282684E+03 -0.22935588294E+03  0.18223862668E+04  0.18756449755E+04  0.46999998093E+01 0.  1.
</event>
<event>
 5   0  0.3709747E-07  0.3222172E+04  0.7818609E-02  0.8182986E-01
       -1   -1    0    0    0  501  0.00000000000E+00  0.00000000000E+00  0.20312607692E+04  0.20312607692E+04  0.50400001928E-02 0.  1.
        1   -1    0    0  501    0  0.00000000000E+00  0.00000000000E+00 -0.12778260936E+04  0.12778260936E+04  0.50400001928E-02 0. -1.
    10030    2    1    2    0    0  0.00000000000E+00  0.00000000000E+00  0.75343467559E+03  0.33090868628E+04  0.32221719469E+04 0.  0.
        4    1    3    3  502    0 -0.11437143847E+04 -0.11052680530E+04  0.64034446435E+03  0.17145677906E+04  0.12699999809E+01 0.  1.
       -4    1    3    3    0  502  0.11437143847E+04  0.11052680530E+04  0.11309021124E+03  0.15945190722E+04  0.12699999809E+01 0. -1.
</event>
<event>
 5   0  0.1129434E-06  0.2969153E+04  0.7818609E-02  0.8252595E-01
       -2   -1    0    0    0  501  0.00000000000E+00  0.00000000000E+00  0.15392351462E+04  0.15392351462E+04  0.25500000920E-02 0.  1.
        2   -1    0    0  501    0  0.00000000000E+00  0.00000000000E+00 -0.14318589586E+04  0.14318589586E+04  0.25500000920E-02 0. -1.
    10030    2    1    2    0    0  0.00000000000E+00  0.00000000000E+00  0.10737618760E+03  0.29710941048E+04  0.29691531678E+04 0.  0.
        3    1    3    3  502    0  0.50300604652E+01  0.75933061544E+03  0.13302019578E+04  0.15316806272E+04  0.10100000352E+00 0.  1.
       -3    1    3    3    0  502 -0.50300604652E+01 -0.75933061544E+03 -0.12228257702E+04  0.14394134776E+04  0.10100000352E+00 0. -1.
</event>
<event>
 5   0  0.3573375E-07  0.3299728E+04  0.7818609E-02  0.8162965E-01
        3   -1    0    0  501    0  0.00000000000E+00  0.00000000000E+00  0.24573395370E+04  0.24573395391E+04  0.10100000352E+00 0. -1.
       -3   -1    0    0    0  501  0.00000000000E+00  0.00000000000E+00 -0.11077229034E+04  0.11077229080E+04  0.10100000352E+00 0.  1.
    10030    2    1    2    0    0  0.00000000000E+00  0.00000000000E+00  0.13496166336E+04  0.35650624471E+04  0.32997280485E+04 0.  0.
        1    1    3    3  502    0  0.11372910504E+04  0.11334732437E+04  0.26502227063E+03  0.16273995611E+04  0.50400001928E-02 0.  1.
       -1    1    3    3    0  502 -0.11372910504E+04 -0.11334732437E+04  0.10845943630E+04  0.19376628860E+04  0.50400001928E-02 0. -1.
</event>
<event>
 5   0  0.3749685E-07  0.3318667E+04  0.7818609E-02  0.8158162E-01
       -1   -1    0    0    0  501  0.00000000000E+00  0.00000000000E+00  0.89001713970E+03  0.89001713971E+03  0.50400001928E-02 0.  1.
        1   -1    0    0  501    0  0.00000000000E+00  0.00000000000E+00 -0.30936349760E+04  0.30936349761E+04  0.50400001928E-02 0. -1.
    10030    2    1    2    0    0  0.00000000000E+00  0.00000000000E+00 -0.22036178364E+04  0.39836521158E+04  0.33186672944E+04 0.  0.
        3    1    3    3  502    0 -0.15235411165E+04 -0.19852594764E+03 -0.18541284814E+04  0.24079830816E+04  0.10100000352E+00 0. -1.
       -3    1    3    3    0  502  0.15235411165E+04  0.19852594764E+03 -0.34948935496E+03  0.15756690341E+04  0.10100000352E+00 0.  1.
</event>
<event>
 5   0  0.3749685E-07  0.3279680E+04  0.7818609E-02  0.8168085E-01
        1   -1    0    0  501    0  0.00000000000E+00  0.00000000000E+00  0.19276952031E+04  0.19276952031E+04  0.50400001928E-02 0.  1.
       -1   -1    0    0    0  501  0.00000000000E+00  0.00000000000E+00 -0.13949692528E+04  0.13949692528E+04  0.50400001928E-02 0. -1.
    10030    2    1    2    0    0  0.00000000000E+00  0.00000000000E+00  0.53272595031E+03  0.33226644559E+04  0.32796801899E+04 0.  0.
        3    1    3    3  502    0 -0.15223880966E+04 -0.57447654809E+03  0.60259450442E+02  0.16282874539E+04  0.10100000352E+00 0.  1.
       -3    1    3    3    0  502  0.15223880966E+04  0.57447654809E+03  0.47246649987E+03  0.16943770019E+04  0.10100000352E+00 0. -1.
</event>
<event>
 5   0  0.3757406E-07  0.3301367E+04  0.7818609E-02  0.8162548E-01
       -1   -1    0    0    0  501  0.00000000000E+00  0.00000000000E+00  0.15676727145E+04  0.15676727145E+04  0.50400001928E-02 0. -1.
        1   -1    0    0  501    0  0.00000000000E+00  0.00000000000E+00 -0.17380898775E+04  0.17380898775E+04  0.50400001928E-02 0.  1.
    10030    2    1    2    0    0  0.00000000000E+00  0.00000000000E+00 -0.17041716293E+03  0.33057625920E+04  0.33013670358E+04 0.  0.
        1    1    3    3  502    0  0.12767462722E+04  0.11777107604E+03 -0.11262104863E+04  0.17065465506E+04  0.50400001928E-02 0.  1.
       -1    1    3    3    0  502 -0.12767462722E+04 -0.11777107604E+03  0.95579332334E+03  0.15992160414E+04  0.50400001928E-02 0. -1.
</event>
<event>
 5   0  0.1129434E-06  0.3312898E+04  0.7818609E-02  0.8159621E-01
       -2   -1    0    0    0  501  0.00000000000E+00  0.00000000000E+00  0.12376087042E+04  0.12376087042E+04  0.25500000920E-02 0.  1.
        2   -1    0    0  501    0  0.00000000000E+00  0.00000000000E+00 -0.22170363569E+04  0.22170363569E+04  0.25500000920E-02 0. -1.
    10030    2    1    2    0    0  0.00000000000E+00  0.00000000000E+00 -0.97942765275E+03  0.34546450611E+04  0.33128981227E+04 0.  0.
        3    1    3    3  502    0 -0.74520486747E+03  0.14658503414E+04 -0.28174142122E+03  0.16683601998E+04  0.10100000352E+00 0.  1.
       -3    1    3    3    0  502  0.74520486747E+03 -0.14658503414E+04 -0.69768623153E+03  0.17862848613E+04  0.10100000352E+00 0. -1.
</event>
<event>
 5   0  0.1129434E-06  0.3317545E+04  0.7818609E-02  0.8158445E-01
       -2   -1    0    0    0  501  0.00000000000E+00  0.00000000000E+00  0.13818002914E+04  0.13818002914E+04  0.25500000920E-02 0. -1.
        2   -1    0    0  501    0  0.00000000000E+00  0.00000000000E+00 -0.19912614384E+04  0.19912614384E+04  0.25500000920E-02 0.  1.
    10030    2    1    2    0    0  0.00000000000E+00  0.00000000000E+00 -0.60946114700E+03  0.33730617299E+04  0.33175446559E+04 0.  0.
        3    1    3    3  502    0  0.38928268830E+03  0.86253030973E+03  0.10804281737E+04  0.14362536668E+04  0.10100000352E+00 0. -1.
       -3    1    3    3    0  502 -0.38928268830E+03 -0.86253030973E+03 -0.16898893207E+04  0.19368080631E+04  0.10100000352E+00 0.  1.
</event>
<event>
 5   0  0.1146799E-06  0.3338825E+04  0.7818609E-02  0.8153086E-01
       -2   -1    0    0    0  501  0.00000000000E+00  0.00000000000E+00  0.17650664854E+04  0.17650664854E+04  0.25500000920E-02 0. -1.
        2   -1    0    0  501    0  0.00000000000E+00  0.00000000000E+00 -0.15789424591E+04  0.15789424591E+04  0.25500000920E-02 0.  1.
    10030    2    1    2    0    0  0.00000000000E+00  0.00000000000E+00  0.18612402630E+03  0.33440089446E+04  0.33388251928E+04 0.  0.
        5    1    3    3  502    0  0.13560027321E+04 -0.74948861445E+03  0.71566992637E+03  0.17066581749E+04  0.46999998093E+01 0. -1.
       -5    1    3    3    0  502 -0.13560027321E+04  0.74948861445E+03 -0.52954590007E+03  0.16373507696E+04  0.46999998093E+01 0.  1.
</event>
<event>
 5   0  0.3709747E-07  0.3271411E+04  0.7818609E-02  0.8170208E-01
       -1   -1    0    0    0  501  0.00000000000E+00  0.00000000000E+00  0.12512032758E+04  0.12512032758E+04  0.50400001928E-02 0.  1.
        1   -1    0    0  501    0  0.00000000000E+00  0.00000000000E+00 -0.21383678248E+04  0.21383678248E+04  0.50400001928E-02 0. -1.
    10030    2    1    2    0    0  0.00000000000E+00  0.00000000000E+00 -0.88716454904E+03  0.33895711006E+04  0.32714112106E+04 0.  0.
        4    1    3    3  502    0 -0.63927475386E+03 -0.47062750662E+02 -0.20028101515E+04  0.21028878309E+04  0.12699999809E+01 0. -1.
       -4    1    3    3    0  502  0.63927475386E+03  0.47062750662E+02  0.11156456024E+04  0.12866832697E+04  0.12699999809E+01 0.  1.
</event>
<event>
 5   0  0.3757406E-07  0.3311991E+04  0.7818609E-02  0.8159851E-01
       -1   -1    0    0    0  501  0.00000000000E+00  0.00000000000E+00  0.10588994166E+04  0.10588994166E+04  0.50400001928E-02 0.  1.
        1   -1    0    0  501    0  0.00000000000E+00  0.00000000000E+00 -0.25897836058E+04  0.25897836058E+04  0.50400001928E-02 0. -1.
    10030    2    1    2    0    0  0.00000000000E+00  0.00000000000E+00 -0.15308841892E+04  0.36486830225E+04  0.33119905491E+04 0.  0.
        1    1    3    3  502    0  0.51742897762E+03 -0.14834216458E+04 -0.18872845144E+03  0.15823687795E+04  0.50400001928E-02 0. -1.
       -1    1    3    3    0  502 -0.51742897762E+03  0.14834216458E+04 -0.13421557378E+04  0.20663142429E+04  0.50400001928E-02 0.  1.
</event>
<event>
 5   0  0.1126221E-06  0.3305705E+04  0.7818609E-02  0.8161445E-01
       -2   -1    0    0    0  501  0.00000000000E+00  0.00000000000E+00  0.11521044266E+04  0.11521044266E+04  0.25500000920E-02 0.  1.
        2   -1    0    0  501    0  0.00000000000E+00  0.00000000000E+00 -0.23712441081E+04  0.23712441081E+04  0.25500000920E-02 0. -1.
    10030    2    1    2    0    0  0.00000000000E+00  0.00000000000E+00 -0.12191396815E+04  0.35233485347E+04  0.33057046652E+04 0.  0.
        2    1    3    3  502    0 -0.12609382076E+04 -0.81050411310E+02 -0.17452692996E+04  0.21546459711E+04  0.25500000920E-02 0. -1.
       -2    1    3    3    0  502  0.12609382076E+04  0.81050411310E+02  0.52612961807E+03  0.13687025636E+04  0.25500000920E-02 0.  1.
</event>
<event>
 5   0  0.1129434E-06  0.3274364E+04  0.7818609E-02  0.8169449E-01
        2   -1    0    0  501    0  0.00000000000E+00  0.00000000000E+00  0.14334956249E+04  0.14334956249E+04  0.25500000920E-02 0.  1.
       -2   -1    0    0    0  501  0.00000000000E+00  0.00000000000E+00 -0.18698099772E+04  0.18698099772E+04  0.25500000920E-02 0. -1.
    10030    2    1    2    0    0  0.00000000000E+00  0.00000000000E+00 -0.43631435231E+03  0.33033056021E+04  0.32743637071E+04 0.  0.
        3    1    3    3  502    0  0.54936415012E+03  0.15364700361E+04 -0.35284102887E+03  0.16694424048E+04  0.10100000352E+00 0. -1.
       -3    1    3    3    0  502 -0.54936415012E+03 -0.15364700361E+04 -0.83473323442E+02  0.16338631972E+04  0.10100000352E+00 0.  1.
</event>
<event>
 5   0  0.3757406E-07  0.3287134E+04  0.7818609E-02  0.8166177E-01
        1   -1    0    0  501    0  0.00000000000E+00  0.00000000000E+00  0.17558156709E+04  0.17558156709E+04  0.50400001928E-02 0.  1.
       -1   -1    0    0    0  501  0.00000000000E+00  0.00000000000E+00 -0.15384942778E+04  0.15384942778E+04  0.50400001928E-02 0. -1.
    10030    2    1    2    0    0  0.00000000000E+00  0.00000000000E+00  0.21732139309E+03  0.32943099486E+04  0.32871339264E+04 0.  0.
        1    1    3    3  502    0 -0.65860310392E+03  0.12292270554E+04 -0.76303992967E+03  0.15896500044E+04  0.50400001928E-02 0. -1.
       -1    1    3    3    0  502  0.65860310392E+03 -0.12292270554E+04  0.98036132276E+03  0.17046599442E+04  0.50400001928E-02 0.  1.
</event>
<event>
 5   0  0.1146799E-06  0.3282430E+04  0.7818609E-02  0.8167381E-01
       -2   -1    0    0    0  501  0.00000000000E+00  0.00000000000E+00  0.12706837220E+04  0.12706837220E+04  0.25500000920E-02 0. -1.
        2   -1    0    0  501    0  0.00000000000E+00  0.00000000000E+00 -0.21197931240E+04  0.21197931240E+04  0.25500000920E-02 0.  1.
    10030    2    1    2    0    0  0.00000000000E+00  0.00000000000E+00 -0.84910940203E+03  0.33904768460E+04  0.32824299638E+04 0.  0.
        5    1    3    3  502    0 -0.15188254279E+04  0.21345900039E+03 -0.10278780878E+04  0.18463344439E+04  0.46999998093E+01 0.  1.
       -5    1    3    3    0  502  0.15188254279E+04 -0.21345900039E+03  0.17876868576E+03  0.15441424022E+04  0.46999998093E+01 0. -1.
</event>
<event>
 5   0  0.3757406E-07  0.3307845E+04  0.7818609E-02  0.8160902E-01
        1   -1    0    0  501    0  0.00000000000E+00  0.00000000000E+00  0.15890608129E+04  0.15890608129E+04  0.50400001928E-02 0. -1.
       -1   -1    0    0    0  501  0.00000000000E+00  0.00000000000E+00 -0.17214316199E+04  0.17214316199E+04  0.50400001928E-02 0.  1.
    10030    2    1    2    0    0  0.00000000000E+00  0.00000000000E+00 -0.13237080695E+03  0.33104924328E+04  0.33078449355E+04 0.  0.
        1    1    3    3  502    0 -0.96926926696E+03 -0.11770733742E+04 -0.70738132915E+03  0.16808845841E+04  0.50400001928E-02 0.  1.
       -1    1    3    3    0  502  0.96926926696E+03  0.11770733742E+04  0.57501052220E+03  0.16296078488E+04  0.50400001928E-02 0. -1.
</event>
<event>
 5   0  0.3796529E-07  0.3309424E+04  0.7818609E-02  0.8160502E-01
        1   -1    0    0  501    0  0.00000000000E+00  0.00000000000E+00  0.17266383175E+04  0.17266383175E+04  0.50400001928E-02 0. -1.
       -1   -1    0    0    0  501  0.00000000000E+00  0.00000000000E+00 -0.15857820002E+04  0.15857820002E+04  0.50400001928E-02 0.  1.
    10030    2    1    2    0    0  0.00000000000E+00  0.00000000000E+00  0.14085631730E+03  0.33124203176E+04  0.33094240977E+04 0.  0.
        5    1    3    3  502    0  0.28092833329E+03  0.10804844387E+04 -0.11520221535E+04  0.16042270671E+04  0.46999998093E+01 0.  1.
       -5    1    3    3    0  502 -0.28092833329E+03 -0.10804844387E+04  0.12928784708E+04  0.17081932505E+04  0.46999998093E+01 0. -1.
</event>
<event>
 5   0  0.1126221E-06  0.3308539E+04  0.7818609E-02  0.8160726E-01
        2   -1    0    0  501    0  0.00000000000E+00  0.00000000000E+00  0.21243523702E+04  0.21243523702E+04  0.25500000920E-02 0.  1.
       -2   -1    0    0    0  501  0.00000000000E+00  0.00000000000E+00 -0.12882080329E+04  0.12882080329E+04  0.25500000920E-02 0. -1.
    10030    2    1    2    0    0  0.00000000000E+00  0.00000000000E+00  0.83614433735E+03  0.34125604031E+04  0.33085391266E+04 0.  0.
        2    1    3    3  502    0  0.11470113589E+04 -0.11741188590E+04  0.20564145864E+03  0.16542305045E+04  0.25500000920E-02 0. -1.
       -2    1    3    3    0  502 -0.11470113589E+04  0.11741188590E+04  0.63050287870E+03  0.17583298987E+04  0.25500000920E-02 0.  1.
</event>
<event>
 5   0  0.3757406E-07  0.3588422E+04  0.7818609E-02  0.8093149E-01
        1   -1    0    0  501    0  0.00000000000E+00  0.00000000000E+00  0.28334827349E+04  0.28334827349E+04  0.50400001928E-02 0. -1.
       -1   -1    0    0    0  501  0.00000000000E+00  0.00000000000E+00 -0.11361259312E+04  0.11361259312E+04  0.50400001928E-02 0.  1.
    10030    2    1    2    0    0  0.00000000000E+00  0.00000000000E+00  0.16973568038E+04  0.39696086661E+04  0.35884220547E+04 0.  0.
        1    1    3    3  502    0 -0.16487134688E+04  0.65660597844E+03  0.55640478524E+03  0.18598316585E+04  0.50400001928E-02 0.  1.
       -1    1    3    3    0  502  0.16487134688E+04 -0.65660597844E+03  0.11409520185E+04  0.21097770076E+04  0.50400001928E-02 0. -1.
</event>
<event>
 5   0  0.3674967E-07  0.3313228E+04  0.7818609E-02  0.8159538E-01
        1   -1    0    0  501    0  0.00000000000E+00  0.00000000000E+00  0.11439441990E+04  0.11439441990E+04  0.50400001928E-02 0.  1.
       -1   -1    0    0    0  501  0.00000000000E+00  0.00000000000E+00 -0.23990418645E+04  0.23990418645E+04  0.50400001928E-02 0. -1.
    10030    2    1    2    0    0  0.00000000000E+00  0.00000000000E+00 -0.12550976655E+04  0.35429860636E+04  0.33132280478E+04 0.  0.
        2    1    3    3  502    0  0.22153911951E+03 -0.70526834413E+03 -0.22128829119E+04  0.23330953260E+04  0.25500000920E-02 0. -1.
       -2    1    3    3    0  502 -0.22153911951E+03  0.70526834413E+03  0.95778524634E+03  0.12098907376E+04  0.25500000920E-02 0.  1.
</event>
<event>
 5   0  0.1146799E-06  0.3209228E+04  0.7818609E-02  0.8186384E-01
        2   -1    0    0  501    0  0.00000000000E+00  0.00000000000E+00  0.15387812700E+04  0.15387812700E+04  0.25500000920E-02 0. -1.
       -2   -1    0    0    0  501  0.00000000000E+00  0.00000000000E+00 -0.16732636517E+04  0.16732636517E+04  0.25500000920E-02 0.  1.
    10030    2    1    2    0    0  0.00000000000E+00  0.00000000000E+00 -0.13448238174E+03  0.32120449217E+04  0.32092284226E+04 0.  0.
        5    1    3    3  502    0 -0.10935791141E+04 -0.11662474205E+04  0.69686595572E+02  0.16002895476E+04  0.46999998093E+01 0. -1.
       -5    1    3    3    0  502  0.10935791141E+04  0.11662474205E+04 -0.20416897732E+03  0.16117553741E+04  0.46999998093E+01 0.  1.
</event>
<event>
 5   0  0.1120545E-06  0.3318039E+04  0.7818609E-02  0.8158320E-01
       -2   -1    0    0    0  501  0.00000000000E+00  0.00000000000E+00  0.23163993097E+04  0.23163993097E+04  0.25500000920E-02 0.  1.
        2   -1    0    0  501    0  0.00000000000E+00  0.00000000000E+00 -0.11882003687E+04  0.11882003687E+04  0.25500000920E-02 0. -1.
    10030    2    1    2    0    0  0.00000000000E+00  0.00000000000E+00  0.11281989410E+04  0.35045996784E+04  0.33180394897E+04 0.  0.
        4    1    3    3  502    0  0.94243638415E+03  0.27537250113E+03 -0.84837472054E+03  0.12975968680E+04  0.12699999809E+01 0. -1.
       -4    1    3    3    0  502 -0.94243638415E+03 -0.27537250113E+03  0.19765736615E+04  0.22070028104E+04  0.12699999809E+01 0.  1.
</event>
<event>
 5   0  0.3674967E-07  0.3293722E+04  0.7818609E-02  0.8164495E-01
       -1   -1    0    0    0  501  0.00000000000E+00  0.00000000000E+00  0.13609307119E+04  0.13609307120E+04  0.50400001928E-02 0. -1.
        1   -1    0    0  501    0  0.00000000000E+00  0.00000000000E+00 -0.19928648153E+04  0.19928648153E+04  0.50400001928E-02 0.  1.
    10030    2    1    2    0    0  0.00000000000E+00  0.00000000000E+00 -0.63193410339E+03  0.33537955273E+04  0.32937218656E+04 0.  0.
        2    1    3    3  502    0  0.14783794474E+04  0.76649697182E+02 -0.10507023781E+04  0.18153392118E+04  0.25500000920E-02 0.  1.
       -2    1    3    3    0  502 -0.14783794474E+04 -0.76649697182E+02  0.41876827469E+03  0.15384563155E+04  0.25500000920E-02 0. -1.
</event>
<event>
 5   0  0.3749685E-07  0.3211050E+04  0.7818609E-02  0.8185905E-01
        1   -1    0    0  501    0  0.00000000000E+00  0.00000000000E+00  0.25456339902E+04  0.25456339902E+04  0.50400001928E-02 0.  1.
       -1   -1    0    0    0  501  0.00000000000E+00  0.00000000000E+00 -0.10126008248E+04  0.10126008248E+04  0.50400001928E-02 0. -1.
    10030    2    1    2    0    0  0.00000000000E+00  0.00000000000E+00  0.15330331654E+04  0.35582348150E+04  0.32110503442E+04 0.  0.
        3    1    3    3  502    0 -0.82456895943E+02  0.40170273152E+03 -0.95358928324E+03  0.10380254118E+04  0.10100000352E+00 0. -1.
       -3    1    3    3    0  502  0.82456895943E+02 -0.40170273152E+03  0.24866224486E+04  0.25202094033E+04  0.10100000352E+00 0.  1.
</event>
<event>
 5   0  0.3674967E-07  0.3317653E+04  0.7818609E-02  0.8158418E-01
        1   -1    0    0  501    0  0.00000000000E+00  0.00000000000E+00  0.13295574145E+04  0.13295574145E+04  0.50400001928E-02 0.  1.
       -1   -1    0    0    0  501  0.00000000000E+00  0.00000000000E+00 -0.20696402742E+04  0.20696402742E+04  0.50400001928E-02 0. -1.
    10030    2    1    2    0    0  0.00000000000E+00  0.00000000000E+00 -0.74008285969E+03  0.33991976887E+04  0.33176531295E+04 0.  0.
        2    1    3    3  502    0 -0.11566841580E+04 -0.10708905494E+04 -0.89944324935E+03  0.18148616941E+04  0.25500000920E-02 0. -1.
       -2    1    3    3    0  502  0.11566841580E+04  0.10708905494E+04  0.15936038966E+03  0.15843359946E+04  0.25500000920E-02 0.  1.
</event>
<event>
 5   0  0.1129434E-06  0.3299603E+04  0.7818609E-02  0.8162996E-01
       -2   -1    0    0    0  501  0.00000000000E+00  0.00000000000E+00  0.97702551395E+03  0.97702551395E+03  0.25500000920E-02 0.  1.
        2   -1    0    0  501    0  0.00000000000E+00  0.00000000000E+00 -0.27858480634E+04  0.27858480634E+04  0.25500000920E-02 0. -1.
    10030    2    1    2    0    0  0.00000000000E+00  0.00000000000E+00 -0.18088225495E+04  0.37628735774E+04  0.32996027858E+04 0.  0.
        3    1    3    3  502    0 -0.13429193941E+04  0.59705035968E+03 -0.17592891877E+04  0.22923786963E+04  0.10100000352E+00 0. -1.
       -3    1    3    3    0  502  0.13429193941E+04 -0.59705035968E+03 -0.49533361800E+02  0.14704948811E+04  0.10100000352E+00 0.  1.
</event>
<event>
 5   0  0.3573375E-07  0.3276717E+04  0.7818609E-02  0.8168845E-01
        3   -1    0    0  501    0  0.00000000000E+00  0.00000000000E+00  0.12243377838E+04  0.12243377879E+04  0.10100000352E+00 0.  1.
       -3   -1    0    0    0  501  0.00000000000E+00  0.00000000000E+00 -0.21923836423E+04  0.21923836446E+04  0.10100000352E+00 0. -1.
    10030    2    1    2    0    0  0.00000000000E+00  0.00000000000E+00 -0.96804585852E+03  0.34167214325E+04  0.32767167353E+04 0.  0.
        3    1    3    3  502    0 -0.79821365979E+03 -0.14219923955E+04 -0.31911797869E+03  0.16616388639E+04  0.10100000352E+00 0.  1.
       -3    1    3    3    0  502  0.79821365979E+03  0.14219923955E+04 -0.64892787984E+03  0.17550825687E+04  0.10100000352E+00 0. -1.
</event>
<event>
 5   0  0.3709747E-07  0.3270735E+04  0.7818609E-02  0.8170382E-01
       -1   -1    0    0    0  501  0.00000000000E+00  0.00000000000E+00  0.17778320314E+04  0.17778320314E+04  0.50400001928E-02 0. -1.
        1   -1    0    0  501    0  0.00000000000E+00  0.00000000000E+00 -0.15043189098E+04  0.15043189098E+04  0.50400001928E-02 0.  1.
    10030    2    1    2    0    0  0.00000000000E+00  0.00000000000E+00  0.27351312161E+03  0.32821509412E+04  0.32707346840E+04 0.  0.
        4    1    3    3  502    0 -0.18679551501E+02 -0.38701544961E+03  0.17311051201E+04  0.17739381144E+04  0.12699999809E+01 0. -1.
       -4    1    3    3    0  502  0.18679551501E+02  0.38701544961E+03 -0.14575919985E+04  0.15082128268E+04  0.12699999809E+01 0.  1.
</event>
<event>
 5   0  0.3749685E-07  0.3295314E+04  0.7818609E-02  0.8164089E-01
        1   -1    0    0  501    0  0.00000000000E+00  0.00000000000E+00  0.27683772333E+04  0.27683772333E+04  0.50400001928E-02 0.  1.
       -1   -1    0    0    0  501  0.00000000000E+00  0.00000000000E+00 -0.98063727685E+03  0.98063727686E+03  0.50400001928E-02 0. -1.
    10030    2    1    2    0    0  0.00000000000E+00  0.00000000000E+00  0.17877399564E+04  0.37490145101E+04  0.32953141952E+04 0.  0.
        3    1    3    3  502    0  0.16357284962E+04 -0.13539749153E+03  0.10580814790E+04  0.19528124898E+04  0.10100000352E+00 0.  1.
       -3    1    3    3    0  502 -0.16357284962E+04  0.13539749153E+03  0.72965847736E+03  0.17962020203E+04  0.10100000352E+00 0. -1.
</event>
<event>
 5   0  0.1116462E-06  0.3323151E+04  0.7818609E-02  0.8157030E-01
       -2   -1    0    0    0  501  0.00000000000E+00  0.00000000000E+00  0.15470058417E+04  0.15470058417E+04  0.25500000920E-02 0.  1.
        2   -1    0    0  501    0  0.00000000000E+00  0.00000000000E+00 -0.17846299688E+04  0.17846299688E+04  0.25500000920E-02 0. -1.
    10030    2    1    2    0    0  0.00000000000E+00  0.00000000000E+00 -0.23762412716E+03  0.33316358105E+04  0.33231509066E+04 0.  0.
        1    1    3    3  502    0 -0.51958825874E+03  0.35168837498E+03  0.14236793728E+04  0.15558019245E+04  0.50400001928E-02 0.  1.
       -1    1    3    3    0  502  0.51958825874E+03 -0.35168837498E+03 -0.16613035000E+04  0.17758338860E+04  0.50400001928E-02 0. -1.
</event>
<event>
 5   0  0.3757406E-07  0.3264481E+04  0.7818609E-02  0.8171993E-01
        1   -1    0    0  501    0  0.00000000000E+00  0.00000000000E+00  0.15503504688E+04  0.15503504688E+04  0.50400001928E-02 0. -1.
       -1   -1    0    0    0  501  0.00000000000E+00  0.00000000000E+00 -0.17184555783E+04  0.17184555783E+04  0.50400001928E-02 0.  1.
    10030    2    1    2    0    0  0.00000000000E+00  0.00000000000E+00 -0.16810510943E+03  0.32688060471E+04  0.32644806089E+04 0.  0.
        1    1    3    3  502    0  0.68855595342E+02  0.69046268917E+03 -0.15634161537E+04  0.17104823553E+04  0.50400001928E-02 0.  1.
       -1    1    3    3    0  502 -0.68855595342E+02 -0.69046268917E+03  0.13953110443E+04  0.15583236918E+04  0.50400001928E-02 0. -1.
</event>
<event>
 5   0  0.1129434E-06  0.3270768E+04  0.7818609E-02  0.8170374E-01
        2   -1    0    0  501    0  0.00000000000E+00  0.00000000000E+00  0.21141201716E+04  0.21141201716E+04  0.25500000920E-02 0.  1.
       -2   -1    0    0    0  501  0.00000000000E+00  0.00000000000E+00 -0.12650560786E+04  0.12650560786E+04  0.25500000920E-02 0. -1.
    10030    2    1    2    0    0  0.00000000000E+00  0.00000000000E+00  0.84906409296E+03  0.33791762502E+04  0.32707678450E+04 0.  0.
        3    1    3    3  502    0  0.11212579005E+04  0.40638587898E+03 -0.73153408766E+03  0.13991107510E+04  0.10100000352E+00 0. -1.
       -3    1    3    3    0  502 -0.11212579005E+04 -0.40638587898E+03  0.15805981806E+04  0.19800654991E+04  0.10100000352E+00 0.  1.
</event>
<event>
 5   0  0.1129434E-06  0.3282162E+04  0.7818609E-02  0.8167449E-01
        2   -1    0    0  501    0  0.00000000000E+00  0.00000000000E+00  0.15070579695E+04  0.15070579695E+04  0.25500000920E-02 0.  1.
       -2   -1    0    0    0  501  0.00000000000E+00  0.00000000000E+00 -0.17870229079E+04  0.17870229079E+04  0.25500000920E-02 0. -1.
    10030    2    1    2    0    0  0.00000000000E+00  0.00000000000E+00 -0.27996493839E+03  0.32940808774E+04  0.32821621624E+04 0.  0.
        3    1    3    3  502    0  0.58448572529E+03 -0.12998910194E+04  0.67648683553E+03  0.15776484635E+04  0.10100000352E+00 0.  1.
       -3    1    3    3    0  502 -0.58448572529E+03  0.12998910194E+04 -0.95645177392E+03  0.17164324139E+04  0.10100000352E+00 0. -1.
</event>
<event>
 5   0  0.1120545E-06  0.3337042E+04  0.7818609E-02  0.8153534E-01
       -2   -1    0    0    0  501  0.00000000000E+00  0.00000000000E+00  0.10003234675E+04  0.10003234675E+04  0.25500000920E-02 0. -1.
        2   -1    0    0  501    0  0.00000000000E+00  0.00000000000E+00 -0.27830614976E+04  0.27830614976E+04  0.25500000920E-02 0.  1.
    10030    2    1    2    0    0  0.00000000000E+00  0.00000000000E+00 -0.17827380301E+04  0.37833849651E+04  0.33370416404E+04 0.  0.
        4    1    3    3  502    0 -0.12427325203E+04 -0.82260495574E+03 -0.40753289679E+02  0.14908807711E+04  0.12699999809E+01 0. -1.
       -4    1    3    3    0  502  0.12427325203E+04  0.82260495574E+03 -0.17419847405E+04  0.22925041939E+04  0.12699999809E+01 0.  1.
</event>
<event>
 5   0  0.3796529E-07  0.3303347E+04  0.7818609E-02  0.8162044E-01
       -1   -1    0    0    0  501  0.00000000000E+00  0.00000000000E+00  0.15342677804E+04  0.15342677804E+04  0.50400001928E-02 0.  1.
        1   -1    0    0  501    0  0.00000000000E+00  0.00000000000E+00 -0.17780628625E+04  0.17780628625E+04  0.50400001928E-02 0. -1.
    10030    2    1    2    0    0  0.00000000000E+00  0.00000000000E+00 -0.24379508208E+03  0.33123306429E+04  0.33033465222E+04 0.  0.
        5    1    3    3  502    0  0.47427801685E+03  0.14383492882E+03  0.14579427514E+04  0.15398854764E+04  0.46999998093E+01 0.  1.
       -5    1    3    3    0  502 -0.47427801685E+03 -0.14383492882E+03 -0.17017378335E+04  0.17724451664E+04  0.46999998093E+01 0. -1.
</event>
<event>
 5   0  0.1120545E-06  0.3270486E+04  0.7818609E-02  0.8170446E-01
        2   -1    0    0  501    0  0.00000000000E+00  0.00000000000E+00  0.21658009345E+04  0.21658009345E+04  0.25500000920E-02 0. -1.
       -2   -1    0    0    0  501  0.00000000000E+00  0.00000000000E+00 -0.12346559878E+04  0.12346559878E+04  0.25500000920E-02 0.  1.
    10030    2    1    2    0    0  0.00000000000E+00  0.00000000000E+00  0.93114494663E+03  0.34004569223E+04  0.32704856473E+04 0.  0.
        4    1    3    3  502    0  0.16179466365E+04 -0.23702564211E+03  0.47515873843E+03  0.17028534620E+04  0.12699999809E+01 0.  1.
       -4    1    3    3    0  502 -0.16179466365E+04  0.23702564211E+03  0.45598620820E+03  0.16976034603E+04  0.12699999809E+01 0. -1.
</event>
<event>
 5   0  0.3796529E-07  0.3308098E+04  0.7818609E-02  0.8160838E-01
       -1   -1    0    0    0  501  0.00000000000E+00  0.00000000000E+00  0.15771285563E+04  0.15771285563E+04  0.50400001928E-02 0.  1.
        1   -1    0    0  501    0  0.00000000000E+00  0.00000000000E+00 -0.17347207593E+04  0.17347207593E+04  0.50400001928E-02 0. -1.
    10030    2    1    2    0    0  0.00000000000E+00  0.00000000000E+00 -0.15759220299E+03  0.33118493157E+04  0.33080977294E+04 0.  0.
        5    1    3    3  502    0  0.59278240730E+03  0.15404853121E+04 -0.18554524613E+03  0.16610042467E+04  0.46999998093E+01 0. -1.
       -5    1    3    3    0  502 -0.59278240730E+03 -0.15404853121E+04  0.27953043142E+02  0.16508450690E+04  0.46999998093E+01 0.  1.
</event>
<event>
 5   0  0.1116462E-06  0.3296266E+04  0.7818609E-02  0.8163846E-01
        2   -1    0    0  501    0  0.00000000000E+00  0.00000000000E+00  0.12974115555E+04  0.12974115555E+04  0.25500000920E-02 0. -1.
       -2   -1    0    0    0  501  0.00000000000E+00  0.00000000000E+00 -0.20936634091E+04  0.20936634091E+04  0.25500000920E-02 0.  1.
    10030    2    1    2    0    0  0.00000000000E+00  0.00000000000E+00 -0.79625185360E+03  0.33910749646E+04  0.32962664336E+04 0.  0.
        1    1    3    3  502    0  0.13656059548E+04  0.12396150153E+03 -0.13388091987E+04  0.19164175297E+04  0.50400001928E-02 0.  1.
       -1    1    3    3    0  502 -0.13656059548E+04 -0.12396150153E+03  0.54255734506E+03  0.14746574349E+04  0.50400001928E-02 0. -1.
</event>
<event>
 5   0  0.3674967E-07  0.3302691E+04  0.7818609E-02  0.8162211E-01
       -1   -1    0    0    0  501  0.00000000000E+00  0.00000000000E+00  0.14745771348E+04  0.14745771348E+04  0.50400001928E-02 0.  1.
        1   -1    0    0  501    0  0.00000000000E+00  0.00000000000E+00 -0.18493048372E+04  0.18493048373E+04  0.50400001928E-02 0. -1.
    10030    2    1    2    0    0  0.00000000000E+00  0.00000000000E+00 -0.37472770247E+03  0.33238819720E+04  0.33026914044E+04 0.  0.
        2    1    3    3  502    0 -0.97512800657E+03 -0.13350451132E+03  0.11471320281E+04  0.15114926310E+04  0.25500000920E-02 0.  1.
       -2    1    3    3    0  502  0.97512800657E+03  0.13350451132E+03 -0.15218597306E+04  0.18123893410E+04  0.25500000920E-02 0. -1.
</event>
<event>
 5   0  0.1146799E-06  0.3340962E+04  0.7818609E-02  0.8152550E-01
        2   -1    0    0  501    0  0.00000000000E+00  0.00000000000E+00  0.20840469640E+04  0.20840469640E+04  0.25500000920E-02 0. -1.
       -2   -1    0    0    0  501  0.00000000000E+00  0.00000000000E+00 -0.13389844276E+04  0.13389844276E+04  0.25500000920E-02 0.  1.
    10030    2    1    2    0    0  0.00000000000E+00  0.00000000000E+00  0.74506253641E+03  0.34230313915E+04  0.33409617963E+04 0.  0.
        5    1    3    3  502    0  0.20188739916E+03  0.27694620976E+03 -0.13025697939E+04  0.13469104955E+04  0.46999998093E+01 0.  1.
       -5    1    3    3    0  502 -0.20188739916E+03 -0.27694620976E+03  0.20476323303E+04  0.20761208960E+04  0.46999998093E+01 0. -1.
</event>
<event>
 5   0  0.3749685E-07  0.3294227E+04  0.7818609E-02  0.8164366E-01
        1   -1    0    0  501    0  0.00000000000E+00  0.00000000000E+00  0.14616547095E+04  0.14616547095E+04  0.50400001928E-02 0. -1.
       -1   -1    0    0    0  501  0.00000000000E+00  0.00000000000E+00 -0.18561043043E+04  0.18561043043E+04  0.50400001928E-02 0.  1.
    10030    2    1    2    0    0  0.00000000000E+00  0.00000000000E+00 -0.39444959484E+03  0.33177590138E+04  0.32942274346E+04 0.  0.
        3    1    3    3  502    0  0.14871220037E+04  0.61426452475E+03 -0.55206358171E+03  0.17010664211E+04  0.10100000352E+00 0.  1.
       -3    1    3    3    0  502 -0.14871220037E+04 -0.61426452475E+03  0.15761398687E+03  0.16166925927E+04  0.10100000352E+00 0. -1.
</event>
<event>
 5   0  0.3749685E-07  0.3105606E+04  0.7818609E-02  0.8214201E-01
        1   -1    0    0  501    0  0.00000000000E+00  0.00000000000E+00  0.23551218761E+04  0.23551218761E+04  0.50400001928E-02 0.  1.
       -1   -1    0    0    0  501  0.00000000000E+00  0.00000000000E+00 -0.10238101874E+04  0.10238101874E+04  0.50400001928E-02 0. -1.
    10030    2    1    2    0    0  0.00000000000E+00  0.00000000000E+00  0.13313116886E+04  0.33789320635E+04  0.31056063945E+04 0.  0.
        3    1    3    3  502    0 -0.11092404334E+03 -0.14375464985E+04  0.12928951913E+04  0.19366006466E+04  0.10100000352E+00 0.  1.
       -3    1    3    3    0  502  0.11092404334E+03  0.14375464985E+04  0.38416497384E+02  0.14423314169E+04  0.10100000352E+00 0. -1.
</event>
<event>
 5   0  0.3749685E-07  0.3308639E+04  0.7818609E-02  0.8160701E-01
       -1   -1    0    0    0  501  0.00000000000E+00  0.00000000000E+00  0.18882829734E+04  0.18882829734E+04  0.50400001928E-02 0. -1.
        1   -1    0    0  501    0  0.00000000000E+00  0.00000000000E+00 -0.14493451473E+04  0.14493451473E+04  0.50400001928E-02 0.  1.
    10030    2    1    2    0    0  0.00000000000E+00  0.00000000000E+00  0.43893782606E+03  0.33376281207E+04  0.33086394570E+04 0.  0.
        3    1    3    3  502    0 -0.53370725692E+03 -0.83876682469E+03  0.15533249729E+04  0.18442320093E+04  0.10100000352E+00 0. -1.
       -3    1    3    3    0  502  0.53370725692E+03  0.83876682469E+03 -0.11143871469E+04  0.14933961114E+04  0.10100000352E+00 0.  1.
</event>
<event>
 5   0  0.3709747E-07  0.3098408E+04  0.7818609E-02  0.8216175E-01
        1   -1    0    0  501    0  0.00000000000E+00  0.00000000000E+00  0.19850497554E+04  0.19850497554E+04  0.50400001928E-02 0.  1.
       -1   -1    0    0    0  501  0.00000000000E+00  0.00000000000E+00 -0.12090542838E+04  0.12090542838E+04  0.50400001928E-02 0. -1.
    10030    2    1    2    0    0  0.00000000000E+00  0.00000000000E+00  0.77599547168E+03  0.31941040392E+04  0.30984079204E+04 0.  0.
        4    1    3    3  502    0  0.14599686165E+03  0.75508271932E+03  0.17743630400E+04  0.19338642164E+04  0.12699999809E+01 0.  1.
       -4    1    3    3    0  502 -0.14599686165E+03 -0.75508271932E+03 -0.99836756836E+03  0.12602398228E+04  0.12699999809E+01 0. -1.
</event>
<event>
 5   0  0.3796529E-07  0.3344130E+04  0.7818609E-02  0.8151756E-01
        1   -1    0    0  501    0  0.00000000000E+00  0.00000000000E+00  0.18478560079E+04  0.18478560079E+04  0.50400001928E-02 0. -1.
       -1   -1    0    0    0  501  0.00000000000E+00  0.00000000000E+00 -0.15129975806E+04  0.15129975806E+04  0.50400001928E-02 0.  1.
    10030    2    1    2    0    0  0.00000000000E+00  0.00000000000E+00  0.33485842732E+03  0.33608535885E+04  0.33441301824E+04 0.  0.
        5    1    3    3  502    0  0.13903982624E+04  0.85902694893E+02  0.10968202530E+04  0.17730266096E+04  0.46999998093E+01 0.  1.
       -5    1    3    3    0  502 -0.13903982624E+04 -0.85902694893E+02 -0.76196182570E+03  0.15878269789E+04  0.46999998093E+01 0. -1.
</event>
<event>
 5   0  0.1146799E-06  0.3286501E+04  0.7818609E-02  0.8166339E-01
       -2   -1    0    0    0  501  0.00000000000E+00  0.00000000000E+00  0.26053226294E+04  0.26053226294E+04  0.25500000920E-02 0.  1.
        2   -1    0    0  501    0  0.00000000000E+00  0.00000000000E+00 -0.10364444268E+04  0.10364444268E+04  0.25500000920E-02 0. -1.
    10030    2    1    2    0    0  0.00000000000E+00  0.00000000000E+00  0.15688782026E+04  0.36417670562E+04  0.32865009474E+04 0.  0.
        5    1    3    3  502    0  0.16304062847E+04 -0.13009160430E+03  0.60887784626E+03  0.17452515006E+04  0.46999998093E+01 0.  1.
       -5    1    3    3    0  502 -0.16304062847E+04  0.13009160430E+03  0.96000035630E+03  0.18965155556E+04  0.46999998093E+01 0. -1.
</event>
<event>
 5   0  0.3573375E-07  0.3287324E+04  0.7818609E-02  0.8166128E-01
        3   -1    0    0  501    0  0.00000000000E+00  0.00000000000E+00  0.13253410936E+04  0.13253410975E+04  0.10100000352E+00 0.  1.
       -3   -1    0    0    0  501  0.00000000000E+00  0.00000000000E+00 -0.20384369926E+04  0.20384369951E+04  0.10100000352E+00 0. -1.
    10030    2    1    2    0    0  0.00000000000E+00  0.00000000000E+00 -0.71309589898E+03  0.33637780926E+04  0.32873237284E+04 0.  0.
        1    1    3    3  502    0  0.14964318632E+04  0.15623430796E+03 -0.10336836777E+04  0.18254367767E+04  0.50400001928E-02 0. -1.
       -1    1    3    3    0  502 -0.14964318632E+04 -0.15623430796E+03  0.32058777869E+03  0.15383413159E+04  0.50400001928E-02 0.  1.
</event>
<event>
 5   0  0.1116462E-06  0.3306321E+04  0.7818609E-02  0.8161289E-01
       -2   -1    0    0    0  501  0.00000000000E+00  0.00000000000E+00  0.15928668416E+04  0.15928668416E+04  0.25500000920E-02 0.  1.
        2   -1    0    0  501    0  0.00000000000E+00  0.00000000000E+00 -0.17157368657E+04  0.17157368657E+04  0.25500000920E-02 0. -1.
    10030    2    1    2    0    0  0.00000000000E+00  0.00000000000E+00 -0.12287002405E+03  0.33086037073E+04  0.33063214377E+04 0.  0.
        1    1    3    3  502    0  0.24122118896E+02  0.12591212065E+04  0.10102721640E+04  0.16145023799E+04  0.50400001928E-02 0.  1.
       -1    1    3    3    0  502 -0.24122118896E+02 -0.12591212065E+04 -0.11331421881E+04  0.16941013275E+04  0.50400001928E-02 0. -1.
</event>
<event>
 5   0  0.3757406E-07  0.3297591E+04  0.7818609E-02  0.8163509E-01
       -1   -1    0    0    0  501  0.00000000000E+00  0.00000000000E+00  0.15594175856E+04  0.15594175856E+04  0.50400001928E-02 0.  1.
        1   -1    0    0  501    0  0.00000000000E+00  0.00000000000E+00 -0.17432965934E+04  0.17432965934E+04  0.50400001928E-02 0. -1.
    10030    2    1    2    0    0  0.00000000000E+00  0.00000000000E+00 -0.18387900784E+03  0.33027141790E+04  0.32975914633E+04 0.  0.
        1    1    3    3  502    0  0.16815485789E+03 -0.13513044292E+04  0.83914311356E+03  0.15995189532E+04  0.50400001928E-02 0.  1.
       -1    1    3    3    0  502 -0.16815485789E+03  0.13513044292E+04 -0.10230221214E+04  0.17031952259E+04  0.50400001928E-02 0. -1.
</event>
<event>
 5   0  0.1120545E-06  0.3306170E+04  0.7818609E-02  0.8161327E-01
       -2   -1    0    0    0  501  0.00000000000E+00  0.00000000000E+00  0.24003703938E+04  0.24003703938E+04  0.25500000920E-02 0.  1.
        2   -1    0    0  501    0  0.00000000000E+00  0.00000000000E+00 -0.11384452555E+04  0.11384452555E+04  0.25500000920E-02 0. -1.
    10030    2    1    2    0    0  0.00000000000E+00  0.00000000000E+00  0.12619251383E+04  0.35388156493E+04  0.33061701628E+04 0.  0.
        4    1    3    3  502    0  0.11149598335E+04 -0.12139593479E+04  0.76574360830E+03  0.18174701140E+04  0.12699999809E+01 0.  1.
       -4    1    3    3    0  502 -0.11149598335E+04  0.12139593479E+04  0.49618152999E+03  0.17213455354E+04  0.12699999809E+01 0. -1.
</event>
<event>
 5   0  0.1129434E-06  0.3298735E+04  0.7818609E-02  0.8163217E-01
       -2   -1    0    0    0  501  0.00000000000E+00  0.00000000000E+00  0.16378133451E+04  0.16378133451E+04  0.25500000920E-02 0.  1.
        2   -1    0    0  501    0  0.00000000000E+00  0.00000000000E+00 -0.16610033765E+04  0.16610033765E+04  0.25500000920E-02 0. -1.
    10030    2    1    2    0    0  0.00000000000E+00  0.00000000000E+00 -0.23190031393E+02  0.32988167216E+04  0.32987352099E+04 0.  0.
        3    1    3    3  502    0 -0.11038545673E+04 -0.10722893503E+04  0.58181170087E+03  0.16452368285E+04  0.10100000352E+00 0.  1.
       -3    1    3    3    0  502  0.11038545673E+04  0.10722893503E+04 -0.60500173227E+03  0.16535798931E+04  0.10100000352E+00 0. -1.
</event>
<event>
 5   0  0.3749685E-07  0.3299094E+04  0.7818609E-02  0.8163126E-01
        1   -1    0    0  501    0  0.00000000000E+00  0.00000000000E+00  0.13318299051E+04  0.13318299051E+04  0.50400001928E-02 0. -1.
       -1   -1    0    0    0  501  0.00000000000E+00  0.00000000000E+00 -0.20430571486E+04  0.20430571486E+04  0.50400001928E-02 0.  1.
    10030    2    1    2    0    0  0.00000000000E+00  0.00000000000E+00 -0.71122724347E+03  0.33748870538E+04  0.32990935776E+04 0.  0.
        3    1    3    3  502    0 -0.15861875607E+04  0.41634774165E+03 -0.53765752984E+03  0.17258076513E+04  0.10100000352E+00 0.  1.
       -3    1    3    3    0  502  0.15861875607E+04 -0.41634774165E+03 -0.17356971362E+03  0.16490794024E+04  0.10100000352E+00 0. -1.
</event>
<event>
 5   0  0.3796529E-07  0.3076572E+04  0.7818609E-02  0.8222197E-01
       -1   -1    0    0    0  501  0.00000000000E+00  0.00000000000E+00  0.13321978946E+04  0.13321978946E+04  0.50400001928E-02 0.  1.
        1   -1    0    0  501    0  0.00000000000E+00  0.00000000000E+00 -0.17762551455E+04  0.17762551455E+04  0.50400001928E-02 0. -1.
    10030    2    1    2    0    0  0.00000000000E+00  0.00000000000E+00 -0.44405725092E+03  0.31084530401E+04  0.30765717057E+04 0.  0.
        5    1    3    3  502    0 -0.10356503392E+04 -0.45642157229E+03 -0.12746543469E+04  0.17045990938E+04  0.46999998093E+01 0. -1.
       -5    1    3    3    0  502  0.10356503392E+04  0.45642157229E+03  0.83059709595E+03  0.14038539463E+04  0.46999998093E+01 0.  1.
</event>
<event>
 5   0  0.3709747E-07  0.3292501E+04  0.7818609E-02  0.8164806E-01
       -1   -1    0    0    0  501  0.00000000000E+00  0.00000000000E+00  0.10598499905E+04  0.10598499905E+04  0.50400001928E-02 0. -1.
        1   -1    0    0  501    0  0.00000000000E+00  0.00000000000E+00 -0.25570989256E+04  0.25570989256E+04  0.50400001928E-02 0.  1.
    10030    2    1    2    0    0  0.00000000000E+00  0.00000000000E+00 -0.14972489350E+04  0.36169489161E+04  0.32925013422E+04 0.  0.
        4    1    3    3  502    0  0.52474127259E+02 -0.49252387852E+03 -0.24733016467E+04  0.25224107424E+04  0.12699999809E+01 0.  1.
       -4    1    3    3    0  502 -0.52474127259E+02  0.49252387852E+03  0.97605271162E+03  0.10945381737E+04  0.12699999809E+01 0. -1.
</event>
<event>
 5   0  0.1146799E-06  0.3261386E+04  0.7818609E-02  0.8172791E-01
        2   -1    0    0  501    0  0.00000000000E+00  0.00000000000E+00  0.23490211383E+04  0.23490211383E+04  0.25500000920E-02 0. -1.
       -2   -1    0    0    0  501  0.00000000000E+00  0.00000000000E+00 -0.11320290436E+04  0.11320290436E+04  0.25500000920E-02 0.  1.
    10030    2    1    2    0    0  0.00000000000E+00  0.00000000000E+00  0.12169920947E+04  0.34810501819E+04  0.32613863019E+04 0.  0.
        5    1    3    3  502    0 -0.87910367441E+03 -0.10312250101E+04 -0.35973470663E+03  0.14020269045E+04  0.46999998093E+01 0.  1.
       -5    1    3    3    0  502  0.87910367441E+03  0.10312250101E+04  0.15767268013E+04  0.20790232774E+04  0.46999998093E+01 0. -1.
</event>
<event>
 5   0  0.1126221E-06  0.3266065E+04  0.7818609E-02  0.8171584E-01
        2   -1    0    0  501    0  0.00000000000E+00  0.00000000000E+00  0.20489587953E+04  0.20489587953E+04  0.25500000920E-02 0.  1.
       -2   -1    0    0    0  501  0.00000000000E+00  0.00000000000E+00 -0.13015369222E+04  0.13015369222E+04  0.25500000920E-02 0. -1.
    10030    2    1    2    0    0  0.00000000000E+00  0.00000000000E+00  0.74742187311E+03  0.33504957174E+04  0.32660652315E+04 0.  0.
        2    1    3    3  502    0  0.10984627366E+04  0.42423113928E+03 -0.78699885134E+03  0.14163190443E+04  0.25500000920E-02 0. -1.
       -2    1    3    3    0  502 -0.10984627366E+04 -0.42423113928E+03  0.15344207244E+04  0.19341766731E+04  0.25500000920E-02 0.  1.
</event>
<event>
 5   0  0.1129434E-06  0.3278803E+04  0.7818609E-02  0.8168310E-01
        2   -1    0    0  501    0  0.00000000000E+00  0.00000000000E+00  0.19536070166E+04  0.19536070166E+04  0.25500000920E-02 0. -1.
       -2   -1    0    0    0  501  0.00000000000E+00  0.00000000000E+00 -0.13757303738E+04  0.13757303738E+04  0.25500000920E-02 0.  1.
    10030    2    1    2    0    0  0.00000000000E+00  0.00000000000E+00  0.57787664278E+03  0.33293373904E+04  0.32788025321E+04 0.  0.
        3    1    3    3  502    0 -0.22933500626E+02 -0.83380489091E+03 -0.11441538628E+04  0.14159253559E+04  0.10100000352E+00 0.  1.
       -3    1    3    3    0  502  0.22933500626E+02  0.83380489091E+03  0.17220305055E+04  0.19134120345E+04  0.10100000352E+00 0. -1.
</event>
<event>
 5   0  0.1126221E-06  0.3234161E+04  0.7818609E-02  0.8179853E-01
       -2   -1    0    0    0  501  0.00000000000E+00  0.00000000000E+00  0.14648607875E+04  0.14648607875E+04  0.25500000920E-02 0.  1.
        2   -1    0    0  501    0  0.00000000000E+00  0.00000000000E+00 -0.17851176117E+04  0.17851176117E+04  0.25500000920E-02 0. -1.
    10030    2    1    2    0    0  0.00000000000E+00  0.00000000000E+00 -0.32025682418E+03  0.32499783993E+04  0.32341606581E+04 0.  0.
        2    1    3    3  502    0  0.82153577882E+03 -0.12775980846E+04 -0.71761272864E+03  0.16799243822E+04  0.25500000920E-02 0. -1.
       -2    1    3    3    0  502 -0.82153577882E+03  0.12775980846E+04  0.39735590446E+03  0.15700540171E+04  0.25500000920E-02 0.  1.
</event>
<event>
 5   0  0.1129434E-06  0.3289722E+04  0.7818609E-02  0.8165516E-01
       -2   -1    0    0    0  501  0.00000000000E+00  0.00000000000E+00  0.16737592056E+04  0.16737592056E+04  0.25500000920E-02 0.  1.
        2   -1    0    0  501    0  0.00000000000E+00  0.00000000000E+00 -0.16164613955E+04  0.16164613955E+04  0.25500000920E-02 0. -1.
    10030    2    1    2    0    0  0.00000000000E+00  0.00000000000E+00  0.57297810157E+02  0.32902206011E+04  0.32897216546E+04 0.  0.
        3    1    3    3  502    0  0.92245384873E+03  0.58525235863E+03  0.12585206148E+04  0.16665279999E+04  0.10100000352E+00 0.  1.
       -3    1    3    3    0  502 -0.92245384873E+03 -0.58525235863E+03 -0.12012228047E+04  0.16236926011E+04  0.10100000352E+00 0. -1.
</event>
<event>
 5   0  0.1146799E-06  0.3306327E+04  0.7818609E-02  0.8161287E-01
        2   -1    0    0  501    0  0.00000000000E+00  0.00000000000E+00  0.22842640918E+04  0.22842640918E+04  0.25500000920E-02 0.  1.
       -2   -1    0    0    0  501  0.00000000000E+00  0.00000000000E+00 -0.11964245119E+04  0.11964245119E+04  0.25500000920E-02 0. -1.
    10030    2    1    2    0    0  0.00000000000E+00  0.00000000000E+00  0.10878395800E+04  0.34806886037E+04  0.33063269959E+04 0.  0.
        5    1    3    3  502    0 -0.86337651387E+03 -0.47018834599E+03  0.19430809899E+04  0.21776321794E+04  0.46999998093E+01 0.  1.
       -5    1    3    3    0  502  0.86337651387E+03  0.47018834599E+03 -0.85524140998E+03  0.13030564242E+04  0.46999998093E+01 0. -1.
</event>
<event>
 5   0  0.1120545E-06  0.3287074E+04  0.7818609E-02  0.8166192E-01
        2   -1    0    0  501    0  0.00000000000E+00  0.00000000000E+00  0.19488131727E+04  0.19488131727E+04  0.25500000920E-02 0. -1.
       -2   -1    0    0    0  501  0.00000000000E+00  0.00000000000E+00 -0.13860811494E+04  0.13860811494E+04  0.25500000920E-02 0.  1.
    10030    2    1    2    0    0  0.00000000000E+00  0.00000000000E+00  0.56273202327E+03  0.33348943221E+04  0.32870735935E+04 0.  0.
        4    1    3    3  502    0 -0.21163401848E+03 -0.64347404965E+03 -0.12378715299E+04  0.14110901275E+04  0.12699999809E+01 0.  1.
       -4    1    3    3    0  502  0.21163401848E+03  0.64347404965E+03  0.18006035532E+04  0.19238041946E+04  0.12699999809E+01 0. -1.
</event>
<event>
 5   0  0.1120545E-06  0.3288064E+04  0.7818609E-02  0.8165939E-01
       -2   -1    0    0    0  501  0.00000000000E+00  0.00000000000E+00  0.15232846351E+04  0.15232846351E+04  0.25500000920E-02 0. -1.
        2   -1    0    0  501    0  0.00000000000E+00  0.00000000000E+00 -0.17743503534E+04  0.17743503534E+04  0.25500000920E-02 0.  1.
    10030    2    1    2    0    0  0.00000000000E+00  0.00000000000E+00 -0.25106571832E+03  0.32976349885E+04  0.32880636433E+04 0.  0.
        4    1    3    3  502    0  0.13304312457E+04 -0.84749349246E+03 -0.59007282405E+03  0.16841852837E+04  0.12699999809E+01 0.  1.
       -4    1    3    3    0  502 -0.13304312457E+04  0.84749349246E+03  0.33900710573E+03  0.16134497048E+04  0.12699999809E+01 0. -1.
</event>
<event>
 5   0  0.3757406E-07  0.3287805E+04  0.7818609E-02  0.8166005E-01
       -1   -1    0    0    0  501  0.00000000000E+00  0.00000000000E+00  0.13594105540E+04  0.13594105540E+04  0.50400001928E-02 0.  1.
        1   -1    0    0  501    0  0.00000000000E+00  0.00000000000E+00 -0.19879314166E+04  0.19879314166E+04  0.50400001928E-02 0. -1.
    10030    2    1    2    0    0  0.00000000000E+00  0.00000000000E+00 -0.62852086259E+03  0.33473419705E+04  0.32878047072E+04 0.  0.
        1    1    3    3  502    0 -0.62517656527E+03  0.36905776409E+03  0.11873600944E+04  0.13917159785E+04  0.50400001928E-02 0.  1.
       -1    1    3    3    0  502  0.62517656527E+03 -0.36905776409E+03 -0.18158809570E+04  0.19556259921E+04  0.50400001928E-02 0. -1.
</event>
<event>
 5   0  0.1126221E-06  0.3268602E+04  0.7818609E-02  0.8170931E-01
       -2   -1    0    0    0  501  0.00000000000E+00  0.00000000000E+00  0.21584730826E+04  0.21584730826E+04  0.25500000920E-02 0. -1.
        2   -1    0    0  501    0  0.00000000000E+00  0.00000000000E+00 -0.12374210495E+04  0.12374210495E+04  0.25500000920E-02 0.  1.
    10030    2    1    2    0    0  0.00000000000E+00  0.00000000000E+00  0.92105203307E+03  0.33958941322E+04  0.32686021644E+04 0.  0.
        2    1    3    3  502    0 -0.31244905742E+03 -0.14673554274E+04 -0.21293375729E+03  0.15152878106E+04  0.25500000920E-02 0.  1.
       -2    1    3    3    0  502  0.31244905742E+03  0.14673554274E+04  0.11339857904E+04  0.18806063216E+04  0.25500000920E-02 0. -1.
</event>
<event>
 5   0  0.3796529E-07  0.3308573E+04  0.7818609E-02  0.8160717E-01
       -1   -1    0    0    0  501  0.00000000000E+00  0.00000000000E+00  0.14537042561E+04  0.14537042561E+04  0.50400001928E-02 0.  1.
        1   -1    0    0  501    0  0.00000000000E+00  0.00000000000E+00 -0.18825448538E+04  0.18825448538E+04  0.50400001928E-02 0. -1.
    10030    2    1    2    0    0  0.00000000000E+00  0.00000000000E+00 -0.42884059771E+03  0.33362491099E+04  0.33085727838E+04 0.  0.
        5    1    3    3  502    0  0.15534625461E+04  0.16938029160E+03 -0.76182954387E+03  0.17384883977E+04  0.46999998093E+01 0.  1.
       -5    1    3    3    0  502 -0.15534625461E+04 -0.16938029160E+03  0.33298894617E+03  0.15977607122E+04  0.46999998093E+01 0. -1.
</event>
<event>
 5   0  0.3757406E-07  0.3296240E+04  0.7818609E-02  0.8163853E-01
        1   -1    0    0  501    0  0.00000000000E+00  0.00000000000E+00  0.86658562650E+03  0.86658562651E+03  0.50400001928E-02 0. -1.
       -1   -1    0    0    0  501  0.00000000000E+00  0.00000000000E+00 -0.31344843397E+04  0.31344843397E+04  0.50400001928E-02 0.  1.
    10030    2    1    2    0    0  0.00000000000E+00  0.00000000000E+00 -0.22678987132E+04  0.40010699662E+04  0.32962397215E+04 0.  0.
        1    1    3    3  502    0  0.42203447071E+03  0.15795537937E+04 -0.88167210764E+03  0.18575384214E+04  0.50400001928E-02 0. -1.
       -1    1    3    3    0  502 -0.42203447071E+03 -0.15795537937E+04 -0.13862266056E+04  0.21435315448E+04  0.50400001928E-02 0.  1.
</event>
<event>
 5   0  0.3796529E-07  0.3345312E+04  0.7818609E-02  0.8151460E-01
       -1   -1    0    0    0  501  0.00000000000E+00  0.00000000000E+00  0.14801405211E+04  0.14801405211E+04  0.50400001928E-02 0. -1.
        1   -1    0    0  501    0  0.00000000000E+00  0.00000000000E+00 -0.18902114703E+04  0.18902114703E+04  0.50400001928E-02 0.  1.
    10030    2    1    2    0    0  0.00000000000E+00  0.00000000000E+00 -0.41007094915E+03  0.33703519914E+04  0.33453122967E+04 0.  0.
        5    1    3    3  502    0  0.19071733088E+03 -0.15908608508E+04 -0.68878058884E+03  0.17440332957E+04  0.46999998093E+01 0.  1.
       -5    1    3    3    0  502 -0.19071733088E+03  0.15908608508E+04  0.27870963968E+03  0.16263186957E+04  0.46999998093E+01 0. -1.
</event>
<event>
 5   0  0.1116462E-06  0.3271910E+04  0.7818609E-02  0.8170080E-01
       -2   -1    0    0    0  501  0.00000000000E+00  0.00000000000E+00  0.15818872669E+04  0.15818872669E+04  0.25500000920E-02 0. -1.
        2   -1    0    0  501    0  0.00000000000E+00  0.00000000000E+00 -0.16918703310E+04  0.16918703310E+04  0.25500000920E-02 0.  1.
    10030    2    1    2    0    0  0.00000000000E+00  0.00000000000E+00 -0.10998306412E+03  0.32737575979E+04  0.32719096160E+04 0.  0.
        1    1    3    3  502    0  0.13319979306E+04 -0.94681379715E+03  0.20372190714E+02  0.16343469276E+04  0.50400001928E-02 0.  1.
       -1    1    3    3    0  502 -0.13319979306E+04  0.94681379715E+03 -0.13035525483E+03  0.16394106703E+04  0.50400001928E-02 0. -1.
</event>
<event>
 5   0  0.1129434E-06  0.3297886E+04  0.7818609E-02  0.8163433E-01
       -2   -1    0    0    0  501  0.00000000000E+00  0.00000000000E+00  0.16470695262E+04  0.16470695262E+04  0.25500000920E-02 0.  1.
        2   -1    0    0  501    0  0.00000000000E+00  0.00000000000E+00 -0.16508188381E+04  0.16508188381E+04  0.25500000920E-02 0. -1.
    10030    2    1    2    0    0  0.00000000000E+00  0.00000000000E+00 -0.37493119057E+01  0.32978883643E+04  0.32978862331E+04 0.  0.
        3    1    3    3  502    0 -0.51001116072E+03 -0.14164515982E+04 -0.67460600079E+03  0.16497089987E+04  0.10100000352E+00 0. -1.
       -3    1    3    3    0  502  0.51001116072E+03  0.14164515982E+04  0.67085668888E+03  0.16481793656E+04  0.10100000352E+00 0.  1.
</event>
<event>
 5   0  0.1146799E-06  0.3296285E+04  0.7818609E-02  0.8163841E-01
        2   -1    0    0  501    0  0.00000000000E+00  0.00000000000E+00  0.24779999612E+04  0.24779999612E+04  0.25500000920E-02 0. -1.
       -2   -1    0    0    0  501  0.00000000000E+00  0.00000000000E+00 -0.10961957507E+04  0.10961957507E+04  0.25500000920E-02 0.  1.
    10030    2    1    2    0    0  0.00000000000E+00  0.00000000000E+00  0.13818042105E+04  0.35741957118E+04  0.32962845918E+04 0.  0.
        5    1    3    3  502    0  0.70415640639E+03  0.81934697554E+03 -0.65869861838E+03  0.12653346083E+04  0.46999998093E+01 0.  1.
       -5    1    3    3    0  502 -0.70415640639E+03 -0.81934697554E+03  0.20405028289E+04  0.23088611036E+04  0.46999998093E+01 0. -1.
</event>
<event>
 5   0  0.3796529E-07  0.3283128E+04  0.7818609E-02  0.8167202E-01
        1   -1    0    0  501    0  0.00000000000E+00  0.00000000000E+00  0.21856720088E+04  0.21856720088E+04  0.50400001928E-02 0. -1.
       -1   -1    0    0    0  501  0.00000000000E+00  0.00000000000E+00 -0.12329080696E+04  0.12329080697E+04  0.50400001928E-02 0.  1.
    10030    2    1    2    0    0  0.00000000000E+00  0.00000000000E+00  0.95276393918E+03  0.34185800785E+04  0.32831281774E+04 0.  0.
        5    1    3    3  502    0 -0.13525014207E+04 -0.29619129755E+03 -0.44188694965E+03  0.14533669681E+04  0.46999998093E+01 0.  1.
       -5    1    3    3    0  502  0.13525014207E+04  0.29619129755E+03  0.13946508888E+04  0.19652131104E+04  0.46999998093E+01 0. -1.
</event>
<event>
 5   0  0.1129434E-06  0.3301882E+04  0.7818609E-02  0.8162417E-01
       -2   -1    0    0    0  501  0.00000000000E+00  0.00000000000E+00  0.15589475475E+04  0.15589475475E+04  0.25500000920E-02 0. -1.
        2   -1    0    0  501    0  0.00000000000E+00  0.00000000000E+00 -0.17483627029E+04  0.17483627029E+04  0.25500000920E-02 0.  1.
    10030    2    1    2    0    0  0.00000000000E+00  0.00000000000E+00 -0.18941515540E+03  0.33073102504E+04  0.33018817350E+04 0.  0.
        3    1    3    3  502    0 -0.79440123582E+03 -0.53906037259E+03 -0.14400264332E+04  0.17307037722E+04  0.10100000352E+00 0.  1.
       -3    1    3    3    0  502  0.79440123582E+03  0.53906037259E+03  0.12506112778E+04  0.15766064782E+04  0.10100000352E+00 0. -1.
</event>
<event>
 5   0  0.1120545E-06  0.3301349E+04  0.7818609E-02  0.8162552E-01
        2   -1    0    0  501    0  0.00000000000E+00  0.00000000000E+00  0.21720234172E+04  0.21720234172E+04  0.25500000920E-02 0. -1.
       -2   -1    0    0    0  501  0.00000000000E+00  0.00000000000E+00 -0.12544648352E+04  0.12544648352E+04  0.25500000920E-02 0.  1.
    10030    2    1    2    0    0  0.00000000000E+00  0.00000000000E+00  0.91755858195E+03  0.34264882524E+04  0.33013494199E+04 0.  0.
        4    1    3    3  502    0 -0.94958624792E+03  0.10716414586E+04 -0.39369170445E+03  0.14849660700E+04  0.12699999809E+01 0.  1.
       -4    1    3    3    0  502  0.94958624792E+03 -0.10716414586E+04  0.13112502864E+04  0.19415221823E+04  0.12699999809E+01 0. -1.
</event>
<event>
 5   0  0.1146799E-06  0.3304596E+04  0.7818609E-02  0.8161727E-01
       -2   -1    0    0    0  501  0.00000000000E+00  0.00000000000E+00  0.11789275714E+04  0.11789275714E+04  0.25500000920E-02 0.  1.
        2   -1    0    0  501    0  0.00000000000E+00  0.00000000000E+00 -0.23157396567E+04  0.23157396567E+04  0.25500000920E-02 0. -1.
    10030    2    1    2    0    0  0.00000000000E+00  0.00000000000E+00 -0.11368120853E+04  0.34946672280E+04  0.33045963925E+04 0.  0.
        5    1    3    3  502    0  0.48848254900E+03  0.14974173581E+04 -0.10963108035E+04  0.19190605548E+04  0.46999998093E+01 0. -1.
       -5    1    3    3    0  502 -0.48848254900E+03 -0.14974173581E+04 -0.40501281849E+02  0.15756066733E+04  0.46999998093E+01 0.  1.
</event>
<event>
 5   0  0.3796529E-07  0.3330721E+04  0.7818609E-02  0.8155122E-01
       -1   -1    0    0    0  501  0.00000000000E+00  0.00000000000E+00  0.12432000761E+04  0.12432000761E+04  0.50400001928E-02 0.  1.
        1   -1    0    0  501    0  0.00000000000E+00  0.00000000000E+00 -0.22308761255E+04  0.22308761255E+04  0.50400001928E-02 0. -1.
    10030    2    1    2    0    0  0.00000000000E+00  0.00000000000E+00 -0.98767604937E+03  0.34740762016E+04  0.33307208643E+04 0.  0.
        5    1    3    3  502    0  0.71249789728E+03  0.53154453904E+02 -0.20628857270E+04  0.21831166397E+04  0.46999998093E+01 0. -1.
       -5    1    3    3    0  502 -0.71249789728E+03 -0.53154453904E+02  0.10752096777E+04  0.12909595619E+04  0.46999998093E+01 0.  1.
</event>
<event>
 5   0  0.1129434E-06  0.3286674E+04  0.7818609E-02  0.8166294E-01
        2   -1    0    0  501    0  0.00000000000E+00  0.00000000000E+00  0.16604183058E+04  0.16604183058E+04  0.25500000920E-02 0.  1.
       -2   -1    0    0    0  501  0.00000000000E+00  0.00000000000E+00 -0.16264315951E+04  0.16264315951E+04  0.25500000920E-02 0. -1.
    10030    2    1    2    0    0  0.00000000000E+00  0.00000000000E+00  0.33986710745E+02  0.32868499009E+04  0.32866741814E+04 0.  0.
        3    1    3    3  502    0  0.69098673634E+03  0.11266679932E+04  0.99362805094E+03  0.16535235561E+04  0.10100000352E+00 0.  1.
       -3    1    3    3    0  502 -0.69098673634E+03 -0.11266679932E+04 -0.95964134019E+03  0.16333263448E+04  0.10100000352E+00 0. -1.
</event>
<event>
 5   0  0.1116462E-06  0.3284417E+04  0.7818609E-02  0.8166872E-01
        2   -1    0    0  501    0  0.00000000000E+00  0.00000000000E+00  0.23893128391E+04  0.23893128391E+04  0.25500000920E-02 0. -1.
       -2   -1    0    0    0  501  0.00000000000E+00  0.00000000000E+00 -0.11287130929E+04  0.11287130930E+04  0.25500000920E-02 0.  1.
    10030    2    1    2    0    0  0.00000000000E+00  0.00000000000E+00  0.12605997461E+04  0.35180259320E+04  0.32844169556E+04 0.  0.
        1    1    3    3  502    0 -0.16128970971E+04  0.64018313816E+02  0.95397382918E+03  0.18749937219E+04  0.50400001928E-02 0. -1.
       -1    1    3    3    0  502  0.16128970971E+04 -0.64018313816E+02  0.30662591695E+03  0.16430322101E+04  0.50400001928E-02 0.  1.
</event>
<event>
 5   0  0.1120545E-06  0.3275038E+04  0.7818609E-02  0.8169276E-01
       -2   -1    0    0    0  501  0.00000000000E+00  0.00000000000E+00  0.13733029344E+04  0.13733029344E+04  0.25500000920E-02 0. -1.
        2   -1    0    0  501    0  0.00000000000E+00  0.00000000000E+00 -0.19525684150E+04  0.19525684150E+04  0.25500000920E-02 0.  1.
    10030    2    1    2    0    0  0.00000000000E+00  0.00000000000E+00 -0.57926548061E+03  0.33258713495E+04  0.32750376695E+04 0.  0.
        4    1    3    3  502    0 -0.12634642459E+04 -0.54243913609E+03  0.61348754492E+03  0.15056396308E+04  0.12699999809E+01 0. -1.
       -4    1    3    3    0  502  0.12634642459E+04  0.54243913609E+03 -0.11927530255E+04  0.18202317187E+04  0.12699999809E+01 0.  1.
</event>
<event>
 5   0  0.1116462E-06  0.3300957E+04  0.7818609E-02  0.8162652E-01
        2   -1    0    0  501    0  0.00000000000E+00  0.00000000000E+00  0.23600840404E+04  0.23600840404E+04  0.25500000920E-02 0. -1.
       -2   -1    0    0    0  501  0.00000000000E+00  0.00000000000E+00 -0.11542294931E+04  0.11542294931E+04  0.25500000920E-02 0.  1.
    10030    2    1    2    0    0  0.00000000000E+00  0.00000000000E+00  0.12058545472E+04  0.35143135335E+04  0.33009565921E+04 0.  0.
        1    1    3    3  502    0 -0.58951923972E+03  0.43257668470E+02  0.22435273635E+04  0.23200903410E+04  0.50400001928E-02 0. -1.
       -1    1    3    3    0  502  0.58951923972E+03 -0.43257668470E+02 -0.10376728162E+04  0.11942231925E+04  0.50400001928E-02 0.  1.
</event>
<event>
 5   0  0.1129434E-06  0.3313577E+04  0.7818609E-02  0.8159449E-01
       -2   -1    0    0    0  501  0.00000000000E+00  0.00000000000E+00  0.19637717793E+04  0.19637717793E+04  0.25500000920E-02 0.  1.
        2   -1    0    0  501    0  0.00000000000E+00  0.00000000000E+00 -0.13977940068E+04  0.13977940068E+04  0.25500000920E-02 0. -1.
    10030    2    1    2    0    0  0.00000000000E+00  0.00000000000E+00  0.56597777249E+03  0.33615657862E+04  0.33135771752E+04 0.  0.
        3    1    3    3  502    0  0.13745985885E+04 -0.30510549357E+03 -0.60277556003E+03  0.15316491203E+04  0.10100000352E+00 0. -1.
       -3    1    3    3    0  502 -0.13745985885E+04  0.30510549357E+03  0.11687533325E+04  0.18299166659E+04  0.10100000352E+00 0.  1.
</event>
<event>
 5   0  0.1126221E-06  0.3325072E+04  0.7818609E-02  0.8156545E-01
       -2   -1    0    0    0  501  0.00000000000E+00  0.00000000000E+00  0.17888374888E+04  0.17888374888E+04  0.25500000920E-02 0. -1.
        2   -1    0    0  501    0  0.00000000000E+00  0.00000000000E+00 -0.15451519466E+04  0.15451519466E+04  0.25500000920E-02 0.  1.
    10030    2    1    2    0    0  0.00000000000E+00  0.00000000000E+00  0.24368554229E+03  0.33339894354E+04  0.33250718657E+04 0.  0.
        2    1    3    3  502    0  0.64763909422E+03 -0.15041477722E+04 -0.16550706273E+03  0.16459919517E+04  0.25500000920E-02 0. -1.
       -2    1    3    3    0  502 -0.64763909422E+03  0.15041477722E+04  0.40919260502E+03  0.16879974837E+04  0.25500000920E-02 0.  1.
</event>
<event>
 5   0  0.1116462E-06  0.3303080E+04  0.7818609E-02  0.8162112E-01
        2   -1    0    0  501    0  0.00000000000E+00  0.00000000000E+00  0.24160839458E+04  0.24160839458E+04  0.25500000920E-02 0.  1.
       -2   -1    0    0    0  501  0.00000000000E+00  0.00000000000E+00 -0.11289280939E+04  0.11289280939E+04  0.25500000920E-02 0. -1.
    10030    2    1    2    0    0  0.00000000000E+00  0.00000000000E+00  0.12871558520E+04  0.35450120397E+04  0.33030804069E+04 0.  0.
        1    1    3    3  502    0  0.63596719193E+03 -0.13466999654E+04  0.14096743563E+04  0.20506674175E+04  0.50400001928E-02 0.  1.
       -1    1    3    3    0  502 -0.63596719193E+03  0.13466999654E+04 -0.12251850437E+03  0.14943446222E+04  0.50400001928E-02 0. -1.
</event>
<event>
 5   0  0.1126221E-06  0.3255579E+04  0.7818609E-02  0.8174291E-01
        2   -1    0    0  501    0  0.00000000000E+00  0.00000000000E+00  0.17188635991E+04  0.17188635991E+04  0.25500000920E-02 0.  1.
       -2   -1    0    0    0  501  0.00000000000E+00  0.00000000000E+00 -0.15415411481E+04  0.15415411481E+04  0.25500000920E-02 0. -1.
    10030    2    1    2    0    0  0.00000000000E+00  0.00000000000E+00  0.17732245100E+03  0.32604047472E+04  0.32555791903E+04 0.  0.
        2    1    3    3  502    0 -0.13598560581E+04  0.31787948118E+03 -0.74890556442E+03  0.15846499323E+04  0.25500000920E-02 0. -1.
       -2    1    3    3    0  502  0.13598560581E+04 -0.31787948118E+03  0.92622801541E+03  0.16757548150E+04  0.25500000920E-02 0.  1.
</event>
<event>
 5   0  0.3757406E-07  0.3253329E+04  0.7818609E-02  0.8174873E-01
       -1   -1    0    0    0  501  0.00000000000E+00  0.00000000000E+00  0.13040070966E+04  0.13040070967E+04  0.50400001928E-02 0.  1.
        1   -1    0    0  501    0  0.00000000000E+00  0.00000000000E+00 -0.20291593373E+04  0.20291593373E+04  0.50400001928E-02 0. -1.
    10030    2    1    2    0    0  0.00000000000E+00  0.00000000000E+00 -0.72515224064E+03  0.33331664340E+04  0.32533294798E+04 0.  0.
        1    1    3    3  502    0 -0.12317803877E+04  0.58202486565E+03 -0.12732085895E+04  0.18646972891E+04  0.50400001928E-02 0. -1.
       -1    1    3    3    0  502  0.12317803877E+04 -0.58202486565E+03  0.54805634885E+03  0.14684691448E+04  0.50400001928E-02 0.  1.
</event>
<event>
 5   0  0.3674967E-07  0.3302481E+04  0.7818609E-02  0.8162264E-01
       -1   -1    0    0    0  501  0.00000000000E+00  0.00000000000E+00  0.16881180933E+04  0.16881180933E+04  0.50400001928E-02 0. -1.
        1   -1    0    0  501    0  0.00000000000E+00  0.00000000000E+00 -0.16151686991E+04  0.16151686991E+04  0.50400001928E-02 0.  1.
    10030    2    1    2    0    0  0.00000000000E+00  0.00000000000E+00  0.72949394185E+02  0.33032867923E+04  0.33024811912E+04 0.  0.
        2    1    3    3  502    0 -0.16380017732E+03  0.43311273085E+03 -0.15488972311E+04  0.16166322303E+04  0.25500000920E-02 0.  1.
       -2    1    3    3    0  502  0.16380017732E+03 -0.43311273085E+03  0.16218466253E+04  0.16866545620E+04  0.25500000920E-02 0. -1.
</event>
<event>
 5   0  0.3709747E-07  0.3183047E+04  0.7818609E-02  0.8193309E-01
       -1   -1    0    0    0  501  0.00000000000E+00  0.00000000000E+00  0.32580889530E+04  0.32580889530E+04  0.50400001928E-02 0. -1.
        1   -1    0    0  501    0  0.00000000000E+00  0.00000000000E+00 -0.77743335399E+03  0.77743335401E+03  0.50400001928E-02 0.  1.
    10030    2    1    2    0    0  0.00000000000E+00  0.00000000000E+00  0.24806555990E+04  0.40355223070E+04  0.31830469820E+04 0.  0.
        4    1    3    3  502    0 -0.10120009031E+04 -0.11426253760E+04  0.66881513893E+03  0.16664494834E+04  0.12699999809E+01 0. -1.
       -4    1    3    3    0  502  0.10120009031E+04  0.11426253760E+04  0.18118404601E+04  0.23690728236E+04  0.12699999809E+01 0.  1.
</event>
<event>
 5   0  0.3573375E-07  0.3288155E+04  0.7818609E-02  0.8165916E-01
       -3   -1    0    0    0  501  0.00000000000E+00  0.00000000000E+00  0.24507033039E+04  0.24507033060E+04  0.10100000352E+00 0.  1.
        3   -1    0    0  501    0  0.00000000000E+00  0.00000000000E+00 -0.11029447417E+04  0.11029447463E+04  0.10100000352E+00 0. -1.
    10030    2    1    2    0    0  0.00000000000E+00  0.00000000000E+00  0.13477585623E+04  0.35536480523E+04  0.32881547010E+04 0.  0.
        2    1    3    3  502    0  0.22028478430E+03  0.27177422394E+03 -0.10622530755E+04  0.11183774905E+04  0.25500000920E-02 0. -1.
       -2    1    3    3    0  502 -0.22028478430E+03 -0.27177422394E+03  0.24100116377E+04  0.24352705618E+04  0.25500000920E-02 0.  1.
</event>
<event>
 5   0  0.1129434E-06  0.3293296E+04  0.7818609E-02  0.8164603E-01
        2   -1    0    0  501    0  0.00000000000E+00  0.00000000000E+00  0.30671698823E+04  0.30671698823E+04  0.25500000920E-02 0.  1.
       -2   -1    0    0    0  501  0.00000000000E+00  0.00000000000E+00 -0.88402337500E+03  0.88402337501E+03  0.25500000920E-02 0. -1.
    10030    2    1    2    0    0  0.00000000000E+00  0.00000000000E+00  0.21831465073E+04  0.39511932573E+04  0.32932961428E+04 0.  0.
        3    1    3    3  502    0  0.12384930519E+04 -0.87807090646E+03  0.32656077624E+03  0.15529055049E+04  0.10100000352E+00 0. -1.
       -3    1    3    3    0  502 -0.12384930519E+04  0.87807090646E+03  0.18565857311E+04  0.23982877524E+04  0.10100000352E+00 0.  1.
</event>
<event>
 5   0  0.1129434E-06  0.3293594E+04  0.7818609E-02  0.8164527E-01
       -2   -1    0    0    0  501  0.00000000000E+00  0.00000000000E+00  0.15905112382E+04  0.15905112382E+04  0.25500000920E-02 0. -1.
        2   -1    0    0  501    0  0.00000000000E+00  0.00000000000E+00 -0.17050743526E+04  0.17050743526E+04  0.25500000920E-02 0.  1.
    10030    2    1    2    0    0  0.00000000000E+00  0.00000000000E+00 -0.11456311434E+03  0.32955855908E+04  0.32935937332E+04 0.  0.
        3    1    3    3  502    0 -0.39046438109E+03 -0.13706292978E+04  0.76835551113E+03  0.16190915066E+04  0.10100000352E+00 0. -1.
       -3    1    3    3    0  502  0.39046438109E+03  0.13706292978E+04 -0.88291862546E+03  0.16764940842E+04  0.10100000352E+00 0.  1.
</event>
<event>
 5   0  0.3749685E-07  0.3326338E+04  0.7818609E-02  0.8156226E-01
        1   -1    0    0  501    0  0.00000000000E+00  0.00000000000E+00  0.21399985584E+04  0.21399985584E+04  0.50400001928E-02 0.  1.
       -1   -1    0    0    0  501  0.00000000000E+00  0.00000000000E+00 -0.12925852656E+04  0.12925852656E+04  0.50400001928E-02 0. -1.
    10030    2    1    2    0    0  0.00000000000E+00  0.00000000000E+00  0.84741329282E+03  0.34325838240E+04  0.33263376888E+04 0.  0.
        3    1    3    3  502    0  0.83224578216E+03  0.19412146635E+03  0.18961001986E+04  0.20797865657E+04  0.10100000352E+00 0.  1.
       -3    1    3    3    0  502 -0.83224578216E+03 -0.19412146635E+03 -0.10486869057E+04  0.13527972583E+04  0.10100000352E+00 0. -1.
</event>
<event>
 5   0  0.3709747E-07  0.3312250E+04  0.7818609E-02  0.8159785E-01
       -1   -1    0    0    0  501  0.00000000000E+00  0.00000000000E+00  0.11262457618E+04  0.11262457618E+04  0.50400001928E-02 0.  1.
        1   -1    0    0  501    0  0.00000000000E+00  0.00000000000E+00 -0.24353031406E+04  0.24353031406E+04  0.50400001928E-02 0. -1.
    10030    2    1    2    0    0  0.00000000000E+00  0.00000000000E+00 -0.13090573788E+04  0.35615489023E+04  0.33122498944E+04 0.  0.
        4    1    3    3  502    0 -0.12566001643E+04  0.10511257657E+04 -0.39370441156E+03  0.16849077497E+04  0.12699999809E+01 0. -1.
       -4    1    3    3    0  502  0.12566001643E+04 -0.10511257657E+04 -0.91535296727E+03  0.18766411527E+04  0.12699999809E+01 0.  1.
</event>
<event>
 5   0  0.3796529E-07  0.3308626E+04  0.7818609E-02  0.8160704E-01
       -1   -1    0    0    0  501  0.00000000000E+00  0.00000000000E+00  0.16615115932E+04  0.16615115932E+04  0.50400001928E-02 0. -1.
        1   -1    0    0  501    0  0.00000000000E+00  0.00000000000E+00 -0.16471451091E+04  0.16471451091E+04  0.50400001928E-02 0.  1.
    10030    2    1    2    0    0  0.00000000000E+00  0.00000000000E+00  0.14366484113E+02  0.33086567023E+04  0.33086255119E+04 0.  0.
        5    1    3    3  502    0  0.14358232544E+04  0.80174173019E+03  0.18704706415E+03  0.16551093360E+04  0.46999998093E+01 0. -1.
       -5    1    3    3    0  502 -0.14358232544E+04 -0.80174173019E+03 -0.17268058004E+03  0.16535473663E+04  0.46999998093E+01 0.  1.
</event>
<event>
 5   0  0.1120545E-06  0.3308212E+04  0.7818609E-02  0.8160809E-01
        2   -1    0    0  501    0  0.00000000000E+00  0.00000000000E+00  0.19716178782E+04  0.19716178782E+04  0.25500000920E-02 0.  1.
       -2   -1    0    0    0  501  0.00000000000E+00  0.00000000000E+00 -0.13877268109E+04  0.13877268109E+04  0.25500000920E-02 0. -1.
    10030    2    1    2    0    0  0.00000000000E+00  0.00000000000E+00  0.58389106737E+03  0.33593446891E+04  0.33082122002E+04 0.  0.
        4    1    3    3  502    0  0.11543732451E+04  0.21347162519E+03  0.14752538743E+04  0.18853443532E+04  0.12699999809E+01 0.  1.
       -4    1    3    3    0  502 -0.11543732451E+04 -0.21347162519E+03 -0.89136280693E+03  0.14740003359E+04  0.12699999809E+01 0. -1.
</event>
<event>
 5   0  0.1120545E-06  0.3342154E+04  0.7818609E-02  0.8152251E-01
        2   -1    0    0  501    0  0.00000000000E+00  0.00000000000E+00  0.27128498738E+04  0.27128498739E+04  0.25500000920E-02 0. -1.
       -2   -1    0    0    0  501  0.00000000000E+00  0.00000000000E+00 -0.10293596939E+04  0.10293596939E+04  0.25500000920E-02 0.  1.
    10030    2    1    2    0    0  0.00000000000E+00  0.00000000000E+00  0.16834901800E+04  0.37422095677E+04  0.33421539855E+04 0.  0.
        4    1    3    3  502    0  0.10150953352E+04  0.13222112601E+04  0.97344934705E+03  0.19303539572E+04  0.12699999809E+01 0.  1.
       -4    1    3    3    0  502 -0.10150953352E+04 -0.13222112601E+04  0.71004083292E+03  0.18118556105E+04  0.12699999809E+01 0. -1.
</event>
<event>
 5   0  0.1129434E-06  0.3294645E+04  0.7818609E-02  0.8164259E-01
        2   -1    0    0  501    0  0.00000000000E+00  0.00000000000E+00  0.19869498215E+04  0.19869498215E+04  0.25500000920E-02 0.  1.
       -2   -1    0    0    0  501  0.00000000000E+00  0.00000000000E+00 -0.13657473979E+04  0.13657473979E+04  0.25500000920E-02 0. -1.
    10030    2    1    2    0    0  0.00000000000E+00  0.00000000000E+00  0.62120242353E+03  0.33526972194E+04  0.32946450786E+04 0.  0.
        3    1    3    3  502    0  0.37667826800E+03  0.91398798462E+03  0.16515492839E+04  0.19248053410E+04  0.10100000352E+00 0.  1.
       -3    1    3    3    0  502 -0.37667826800E+03 -0.91398798462E+03 -0.10303468603E+04  0.14278918784E+04  0.10100000352E+00 0. -1.
</event>
<event>
 5   0  0.3757406E-07  0.3284471E+04  0.7818609E-02  0.8166858E-01
       -1   -1    0    0    0  501  0.00000000000E+00  0.00000000000E+00  0.15922985696E+04  0.15922985696E+04  0.50400001928E-02 0. -1.
        1   -1    0    0  501    0  0.00000000000E+00  0.00000000000E+00 -0.16937387743E+04  0.16937387744E+04  0.50400001928E-02 0.  1.
    10030    2    1    2    0    0  0.00000000000E+00  0.00000000000E+00 -0.10144020475E+03  0.32860373440E+04  0.32844712376E+04 0.  0.
        1    1    3    3  502    0  0.94749620602E+03  0.89484498713E+03  0.94897665146E+03  0.16121579626E+04  0.50400001928E-02 0. -1.
       -1    1    3    3    0  502 -0.94749620602E+03 -0.89484498713E+03 -0.10504168562E+04  0.16738793813E+04  0.50400001928E-02 0.  1.
</event>
<event>
 5   0  0.1120545E-06  0.3291671E+04  0.7818609E-02  0.8165018E-01
       -2   -1    0    0    0  501  0.00000000000E+00  0.00000000000E+00  0.13346193374E+04  0.13346193374E+04  0.25500000920E-02 0.  1.
        2   -1    0    0  501    0  0.00000000000E+00  0.00000000000E+00 -0.20296239048E+04  0.20296239048E+04  0.25500000920E-02 0. -1.
    10030    2    1    2    0    0  0.00000000000E+00  0.00000000000E+00 -0.69500456739E+03  0.33642432423E+04  0.32916714971E+04 0.  0.
        4    1    3    3  502    0 -0.83652915410E+03  0.29064955036E+03 -0.17653566003E+04  0.19750300570E+04  0.12699999809E+01 0. -1.
       -4    1    3    3    0  502  0.83652915410E+03 -0.29064955036E+03  0.10703520330E+04  0.13892131853E+04  0.12699999809E+01 0.  1.
</event>
<event>
 5   0  0.3709747E-07  0.3378361E+04  0.7818609E-02  0.8143238E-01
       -1   -1    0    0    0  501  0.00000000000E+00  0.00000000000E+00  0.20725925829E+04  0.20725925829E+04  0.50400001928E-02 0. -1.
        1   -1    0    0  501    0  0.00000000000E+00  0.00000000000E+00 -0.13766964557E+04  0.13766964557E+04  0.50400001928E-02 0.  1.
    10030    2    1    2    0    0  0.00000000000E+00  0.00000000000E+00  0.69589612725E+03  0.34492890386E+04  0.33783610600E+04 0.  0.
        4    1    3    3  502    0  0.14526403261E+04  0.78687796656E+03  0.70746061043E+03  0.17971763907E+04  0.12699999809E+01 0.  1.
       -4    1    3    3    0  502 -0.14526403261E+04 -0.78687796656E+03 -0.11564483180E+02  0.16521126479E+04  0.12699999809E+01 0. -1.
</event>
<event>
 5   0  0.1116462E-06  0.3295870E+04  0.7818609E-02  0.8163947E-01
        2   -1    0    0  501    0  0.00000000000E+00  0.00000000000E+00  0.17681288453E+04  0.17681288453E+04  0.25500000920E-02 0. -1.
       -2   -1    0    0    0  501  0.00000000000E+00  0.00000000000E+00 -0.15359118205E+04  0.15359118205E+04  0.25500000920E-02 0.  1.
    10030    2    1    2    0    0  0.00000000000E+00  0.00000000000E+00  0.23221702482E+03  0.33040406658E+04  0.32958701392E+04 0.  0.
        1    1    3    3  502    0 -0.13395520224E+04  0.31102248372E+03  0.10264099090E+04  0.17159988075E+04  0.50400001928E-02 0. -1.
       -1    1    3    3    0  502  0.13395520224E+04 -0.31102248372E+03 -0.79419288423E+03  0.15880418582E+04  0.50400001928E-02 0.  1.
</event>
<event>
 5   0  0.1146799E-06  0.3295885E+04  0.7818609E-02  0.8163943E-01
       -2   -1    0    0    0  501  0.00000000000E+00  0.00000000000E+00  0.15504819744E+04  0.15504819744E+04  0.25500000920E-02 0. -1.
        2   -1    0    0  501    0  0.00000000000E+00  0.00000000000E+00 -0.17515293188E+04  0.17515293188E+04  0.25500000920E-02 0.  1.
    10030    2    1    2    0    0  0.00000000000E+00  0.00000000000E+00 -0.20104734440E+03  0.33020112932E+04  0.32958850929E+04 0.  0.
        5    1    3    3  502    0  0.15817004295E+04 -0.79474747068E+02 -0.55700207213E+03  0.16787989404E+04  0.46999998093E+01 0.  1.
       -5    1    3    3    0  502 -0.15817004295E+04  0.79474747068E+02  0.35595472773E+03  0.16232123528E+04  0.46999998093E+01 0. -1.
</event>
<event>
 5   0  0.3757406E-07  0.3255134E+04  0.7818609E-02  0.8174406E-01
        1   -1    0    0  501    0  0.00000000000E+00  0.00000000000E+00  0.17472024179E+04  0.17472024180E+04  0.50400001928E-02 0. -1.
       -1   -1    0    0    0  501  0.00000000000E+00  0.00000000000E+00 -0.15161237086E+04  0.15161237086E+04  0.50400001928E-02 0.  1.
    10030    2    1    2    0    0  0.00000000000E+00  0.00000000000E+00  0.23107870936E+03  0.32633261266E+04  0.32551344117E+04 0.  0.
        1    1    3    3  502    0 -0.14167482402E+04  0.96678430424E+02  0.91280964770E+03  0.16881184046E+04  0.50400001928E-02 0. -1.
       -1    1    3    3    0  502  0.14167482402E+04 -0.96678430424E+02 -0.68173093834E+03  0.15752077220E+04  0.50400001928E-02 0.  1.
</event>
<event>
 5   0  0.3757406E-07  0.3308230E+04  0.7818609E-02  0.8160804E-01
       -1   -1    0    0    0  501  0.00000000000E+00  0.00000000000E+00  0.16906809633E+04  0.16906809633E+04  0.50400001928E-02 0. -1.
        1   -1    0    0  501    0  0.00000000000E+00  0.00000000000E+00 -0.16183399024E+04  0.16183399024E+04  0.50400001928E-02 0.  1.
    10030    2    1    2    0    0  0.00000000000E+00  0.00000000000E+00  0.72341060897E+02  0.33090208656E+04  0.33082300192E+04 0.  0.
        1    1    3    3  502    0  0.11701564671E+04  0.19001774124E+03  0.11900162185E+04  0.16797355446E+04  0.50400001928E-02 0. -1.
       -1    1    3    3    0  502 -0.11701564671E+04 -0.19001774124E+03 -0.11176751576E+04  0.16292853211E+04  0.50400001928E-02 0.  1.
</event>
<event>
 5   0  0.3709747E-07  0.3409423E+04  0.7818609E-02  0.8135597E-01
       -1   -1    0    0    0  501  0.00000000000E+00  0.00000000000E+00  0.18563346425E+04  0.18563346425E+04  0.50400001928E-02 0.  1.
        1   -1    0    0  501    0  0.00000000000E+00  0.00000000000E+00 -0.15654732047E+04  0.15654732047E+04  0.50400001928E-02 0. -1.
    10030    2    1    2    0    0  0.00000000000E+00  0.00000000000E+00  0.29086143783E+03  0.34218078472E+04  0.34094234948E+04 0.  0.
        4    1    3    3  502    0  0.34252162180E+03  0.44845776115E+03 -0.14690158184E+04  0.15736723015E+04  0.12699999809E+01 0. -1.
       -4    1    3    3    0  502 -0.34252162180E+03 -0.44845776115E+03  0.17598772563E+04  0.18481355456E+04  0.12699999809E+01 0.  1.
</event>
<event>
 5   0  0.1120545E-06  0.3300186E+04  0.7818609E-02  0.8162848E-01
        2   -1    0    0  501    0  0.00000000000E+00  0.00000000000E+00  0.23221160217E+04  0.23221160217E+04  0.25500000920E-02 0.  1.
       -2   -1    0    0    0  501  0.00000000000E+00  0.00000000000E+00 -0.11725539725E+04  0.11725539725E+04  0.25500000920E-02 0. -1.
    10030    2    1    2    0    0  0.00000000000E+00  0.00000000000E+00  0.11495620492E+04  0.34946699942E+04  0.33001856710E+04 0.  0.
        4    1    3    3  502    0  0.16441995306E+02 -0.79041929590E+03 -0.95894191440E+03  0.12428210694E+04  0.12699999809E+01 0. -1.
       -4    1    3    3    0  502 -0.16441995306E+02  0.79041929590E+03  0.21085039636E+04  0.22518489248E+04  0.12699999809E+01 0.  1.
</event>
<event>
 5   0  0.3757406E-07  0.3287329E+04  0.7818609E-02  0.8166127E-01
       -1   -1    0    0    0  501  0.00000000000E+00  0.00000000000E+00  0.14703842938E+04  0.14703842939E+04  0.50400001928E-02 0. -1.
        1   -1    0    0  501    0  0.00000000000E+00  0.00000000000E+00 -0.18373653286E+04  0.18373653286E+04  0.50400001928E-02 0.  1.
    10030    2    1    2    0    0  0.00000000000E+00  0.00000000000E+00 -0.36698103477E+03  0.33077496225E+04  0.32873290808E+04 0.  0.
        1    1    3    3  502    0  0.42098442509E+03 -0.15536360680E+04 -0.51815272620E+03  0.16910041885E+04  0.50400001928E-02 0. -1.
       -1    1    3    3    0  502 -0.42098442509E+03  0.15536360680E+04  0.15117169143E+03  0.16167454340E+04  0.50400001928E-02 0.  1.
</event>
<event>
 5   0  0.1116462E-06  0.3236273E+04  0.7818609E-02  0.8179303E-01
        2   -1    0    0  501    0  0.00000000000E+00  0.00000000000E+00  0.23768580091E+04  0.23768580091E+04  0.25500000920E-02 0. -1.
       -2   -1    0    0    0  501  0.00000000000E+00  0.00000000000E+00 -0.11016080068E+04  0.11016080068E+04  0.25500000920E-02 0.  1.
    10030    2    1    2    0    0  0.00000000000E+00  0.00000000000E+00  0.12752500022E+04  0.34784660159E+04  0.32362730502E+04 0.  0.
        1    1    3    3  502    0  0.11049022572E+04  0.11254623797E+04  0.10264891557E+04  0.18817955662E+04  0.50400001928E-02 0. -1.
       -1    1    3    3    0  502 -0.11049022572E+04 -0.11254623797E+04  0.24876084650E+03  0.15966704497E+04  0.50400001928E-02 0.  1.
</event>
<event>
 5   0  0.3573375E-07  0.3310591E+04  0.7818609E-02  0.8160206E-01
        3   -1    0    0  501    0  0.00000000000E+00  0.00000000000E+00  0.17885038060E+04  0.17885038088E+04  0.10100000352E+00 0. -1.
       -3   -1    0    0    0  501  0.00000000000E+00  0.00000000000E+00 -0.15320081336E+04  0.15320081369E+04  0.10100000352E+00 0.  1.
    10030    2    1    2    0    0  0.00000000000E+00  0.00000000000E+00  0.25649567241E+03  0.33205119458E+04  0.33105905141E+04 0.  0.
        4    1    3    3  502    0 -0.14676232091E+04 -0.40983057857E+03  0.77680906095E+03  0.17103546174E+04  0.12699999809E+01 0. -1.
       -4    1    3    3    0  502  0.14676232091E+04  0.40983057857E+03 -0.52031338854E+03  0.16101573284E+04  0.12699999809E+01 0.  1.
</event>
<event>
 5   0  0.1129434E-06  0.3326173E+04  0.7818609E-02  0.8156267E-01
       -2   -1    0    0    0  501  0.00000000000E+00  0.00000000000E+00  0.11759518846E+04  0.11759518846E+04  0.25500000920E-02 0. -1.
        2   -1    0    0  501    0  0.00000000000E+00  0.00000000000E+00 -0.23520149304E+04  0.23520149304E+04  0.25500000920E-02 0.  1.
    10030    2    1    2    0    0  0.00000000000E+00  0.00000000000E+00 -0.11760630458E+04  0.35279668151E+04  0.33261728098E+04 0.  0.
        3    1    3    3  502    0 -0.77468993583E+03 -0.13924041925E+04 -0.82767457267E+02  0.15955514389E+04  0.10100000352E+00 0.  1.
       -3    1    3    3    0  502  0.77468993583E+03  0.13924041925E+04 -0.10932955885E+04  0.19324153762E+04  0.10100000352E+00 0. -1.
</event>
<event>
 5   0  0.3757406E-07  0.3270850E+04  0.7818609E-02  0.8170352E-01
       -1   -1    0    0    0  501  0.00000000000E+00  0.00000000000E+00  0.10464040289E+04  0.10464040290E+04  0.50400001928E-02 0.  1.
        1   -1    0    0  501    0  0.00000000000E+00  0.00000000000E+00 -0.25560062972E+04  0.25560062972E+04  0.50400001928E-02 0. -1.
    10030    2    1    2    0    0  0.00000000000E+00  0.00000000000E+00 -0.15096022682E+04  0.36024103261E+04  0.32708502182E+04 0.  0.
        1    1    3    3  502    0 -0.10738280969E+04  0.11229152563E+04 -0.19259628237E+03  0.15656113127E+04  0.50400001928E-02 0.  1.
       -1    1    3    3    0  502  0.10738280969E+04 -0.11229152563E+04 -0.13170059859E+04  0.20367990135E+04  0.50400001928E-02 0. -1.
</event>
<event>
 5   0  0.3573375E-07  0.3298188E+04  0.7818609E-02  0.8163357E-01
       -3   -1    0    0    0  501  0.00000000000E+00  0.00000000000E+00  0.32679116215E+04  0.32679116231E+04  0.10100000352E+00 0.  1.
        3   -1    0    0  501    0  0.00000000000E+00  0.00000000000E+00 -0.83218622508E+03  0.83218623121E+03  0.10100000352E+00 0. -1.
    10030    2    1    2    0    0  0.00000000000E+00  0.00000000000E+00  0.24357253964E+04  0.41000978543E+04  0.32981880189E+04 0.  0.
        4    1    3    3  502    0 -0.56549014831E+03  0.60248603328E+03 -0.55627247293E+03  0.99609698583E+03  0.12699999809E+01 0. -1.
       -4    1    3    3    0  502  0.56549014831E+03 -0.60248603328E+03  0.29919978694E+04  0.31040008684E+04  0.12699999809E+01 0.  1.
</event>
<event>
 5   0  0.1146799E-06  0.3298195E+04  0.7818609E-02  0.8163355E-01
       -2   -1    0    0    0  501  0.00000000000E+00  0.00000000000E+00  0.13011539798E+04  0.13011539798E+04  0.25500000920E-02 0.  1.
        2   -1    0    0  501    0  0.00000000000E+00  0.00000000000E+00 -0.20900855624E+04  0.20900855624E+04  0.25500000920E-02 0. -1.
    10030    2    1    2    0    0  0.00000000000E+00  0.00000000000E+00 -0.78893158265E+03  0.33912395422E+04  0.32981953536E+04 0.  0.
        5    1    3    3  502    0  0.55586176610E+03 -0.15088362882E+04 -0.18174678767E+02  0.16080801151E+04  0.46999998093E+01 0. -1.
       -5    1    3    3    0  502 -0.55586176610E+03  0.15088362882E+04 -0.77075690388E+03  0.17831594271E+04  0.46999998093E+01 0.  1.
</event>
<event>
 5   0  0.3757406E-07  0.3313093E+04  0.7818609E-02  0.8159572E-01
       -1   -1    0    0    0  501  0.00000000000E+00  0.00000000000E+00  0.16925975334E+04  0.16925975334E+04  0.50400001928E-02 0.  1.
        1   -1    0    0  501    0  0.00000000000E+00  0.00000000000E+00 -0.16212629862E+04  0.16212629862E+04  0.50400001928E-02 0. -1.
    10030    2    1    2    0    0  0.00000000000E+00  0.00000000000E+00  0.71334547231E+02  0.33138605196E+04  0.33130926527E+04 0.  0.
        1    1    3    3  502    0  0.13854188599E+04  0.11511990932E+03 -0.86537874412E+03  0.16375342383E+04  0.50400001928E-02 0. -1.
       -1    1    3    3    0  502 -0.13854188599E+04 -0.11511990932E+03  0.93671329135E+03  0.16763262812E+04  0.50400001928E-02 0.  1.
</event>
<event>
 5   0  0.3796529E-07  0.3274423E+04  0.7818609E-02  0.8169434E-01
       -1   -1    0    0    0  501  0.00000000000E+00  0.00000000000E+00  0.13554232825E+04  0.13554232825E+04  0.50400001928E-02 0.  1.
        1   -1    0    0  501    0  0.00000000000E+00  0.00000000000E+00 -0.19775829044E+04  0.19775829044E+04  0.50400001928E-02 0. -1.
    10030    2    1    2    0    0  0.00000000000E+00  0.00000000000E+00 -0.62215962187E+03  0.33330061869E+04  0.32744232541E+04 0.  0.
        5    1    3    3  502    0  0.15059094757E+04  0.63886420973E+03 -0.37958164430E+03  0.16792900708E+04  0.46999998093E+01 0. -1.
       -5    1    3    3    0  502 -0.15059094757E+04 -0.63886420973E+03 -0.24257797757E+03  0.16537161161E+04  0.46999998093E+01 0.  1.
</event>
<event>
 5   0  0.3749685E-07  0.3293628E+04  0.7818609E-02  0.8164519E-01
        1   -1    0    0  501    0  0.00000000000E+00  0.00000000000E+00  0.95323979973E+03  0.95323979974E+03  0.50400001928E-02 0. -1.
       -1   -1    0    0    0  501  0.00000000000E+00  0.00000000000E+00 -0.28450302558E+04  0.28450302558E+04  0.50400001928E-02 0.  1.
    10030    2    1    2    0    0  0.00000000000E+00  0.00000000000E+00 -0.18917904561E+04  0.37982700555E+04  0.32936278304E+04 0.  0.
        3    1    3    3  502    0 -0.82587198234E+03  0.81966922649E+03  0.39802352971E+03  0.12297743340E+04  0.10100000352E+00 0. -1.
       -3    1    3    3    0  502  0.82587198234E+03 -0.81966922649E+03 -0.22898139858E+04  0.25684957216E+04  0.10100000352E+00 0.  1.
</event>
<event>
 5   0  0.1120545E-06  0.3281726E+04  0.7818609E-02  0.8167561E-01
       -2   -1    0    0    0  501  0.00000000000E+00  0.00000000000E+00  0.21121056224E+04  0.21121056224E+04  0.25500000920E-02 0. -1.
        2   -1    0    0  501    0  0.00000000000E+00  0.00000000000E+00 -0.12747619322E+04  0.12747619322E+04  0.25500000920E-02 0.  1.
    10030    2    1    2    0    0  0.00000000000E+00  0.00000000000E+00  0.83734369019E+03  0.33868675545E+04  0.32817262799E+04 0.  0.
        4    1    3    3  502    0  0.45414854686E+03  0.69820139229E+03  0.18777179946E+04  0.20541573861E+04  0.12699999809E+01 0. -1.
       -4    1    3    3    0  502 -0.45414854686E+03 -0.69820139229E+03 -0.10403743044E+04  0.13327101684E+04  0.12699999809E+01 0.  1.
</event>
<event>
 5   0  0.3674967E-07  0.3303252E+04  0.7818609E-02  0.8162068E-01
       -1   -1    0    0    0  501  0.00000000000E+00  0.00000000000E+00  0.12956626654E+04  0.12956626654E+04  0.50400001928E-02 0. -1.
        1   -1    0    0  501    0  0.00000000000E+00  0.00000000000E+00 -0.21053850612E+04  0.21053850612E+04  0.50400001928E-02 0.  1.
    10030    2    1    2    0    0  0.00000000000E+00  0.00000000000E+00 -0.80972239572E+03  0.34010477266E+04  0.33032522278E+04 0.  0.
        2    1    3    3  502    0 -0.11403090557E+04  0.70269086056E+03 -0.13997980416E+04  0.19373987058E+04  0.25500000920E-02 0.  1.
       -2    1    3    3    0  502  0.11403090557E+04 -0.70269086056E+03  0.59007564587E+03  0.14636490208E+04  0.25500000920E-02 0. -1.
</event>
<event>
 5   0  0.1116462E-06  0.3302430E+04  0.7818609E-02  0.8162277E-01
       -2   -1    0    0    0  501  0.00000000000E+00  0.00000000000E+00  0.12204614629E+04  0.12204614629E+04  0.25500000920E-02 0. -1.
        2   -1    0    0  501    0  0.00000000000E+00  0.00000000000E+00 -0.22340001136E+04  0.22340001136E+04  0.25500000920E-02 0.  1.
    10030    2    1    2    0    0  0.00000000000E+00  0.00000000000E+00 -0.10135386507E+04  0.34544615764E+04  0.33024300427E+04 0.  0.
        1    1    3    3  502    0 -0.38429253547E+03 -0.23552695615E+03 -0.21684061902E+04  0.22147548636E+04  0.50400001928E-02 0.  1.
       -1    1    3    3    0  502  0.38429253547E+03  0.23552695615E+03  0.11548675396E+04  0.12397067129E+04  0.50400001928E-02 0. -1.
</event>
<event>
 5   0  0.1120545E-06  0.3049250E+04  0.7818609E-02  0.8229806E-01
        2   -1    0    0  501    0  0.00000000000E+00  0.00000000000E+00  0.24871400731E+04  0.24871400731E+04  0.25500000920E-02 0. -1.
       -2   -1    0    0    0  501  0.00000000000E+00  0.00000000000E+00 -0.93459982304E+03  0.93459982305E+03  0.25500000920E-02 0.  1.
    10030    2    1    2    0    0  0.00000000000E+00  0.00000000000E+00  0.15525402500E+04  0.34217398961E+04  0.30492495288E+04 0.  0.
        4    1    3    3  502    0  0.78558059388E+03  0.50535125992E+03  0.21284413738E+04  0.23243883195E+04  0.12699999809E+01 0. -1.
       -4    1    3    3    0  502 -0.78558059388E+03 -0.50535125992E+03 -0.57590112377E+03  0.10973515766E+04  0.12699999809E+01 0.  1.
</event>
<event>
 5   0  0.1120545E-06  0.3293515E+04  0.7818609E-02  0.8164547E-01
       -2   -1    0    0    0  501  0.00000000000E+00  0.00000000000E+00  0.12150902424E+04  0.12150902424E+04  0.25500000920E-02 0. -1.
        2   -1    0    0  501    0  0.00000000000E+00  0.00000000000E+00 -0.22317771774E+04  0.22317771774E+04  0.25500000920E-02 0.  1.
    10030    2    1    2    0    0  0.00000000000E+00  0.00000000000E+00 -0.10166869350E+04  0.34468674198E+04  0.32935152475E+04 0.  0.
        4    1    3    3  502    0  0.13766625167E+03 -0.15380493552E+03 -0.22181837658E+04  0.22277676690E+04  0.12699999809E+01 0.  1.
       -4    1    3    3    0  502 -0.13766625167E+03  0.15380493552E+03  0.12014968308E+04  0.12190997508E+04  0.12699999809E+01 0. -1.
</event>
<event>
 5   0  0.1126221E-06  0.3311005E+04  0.7818609E-02  0.8160101E-01
        2   -1    0    0  501    0  0.00000000000E+00  0.00000000000E+00  0.19798759027E+04  0.19798759027E+04  0.25500000920E-02 0.  1.
       -2   -1    0    0    0  501  0.00000000000E+00  0.00000000000E+00 -0.13842731171E+04  0.13842731171E+04  0.25500000920E-02 0. -1.
    10030    2    1    2    0    0  0.00000000000E+00  0.00000000000E+00  0.59560278564E+03  0.33641490198E+04  0.33110052777E+04 0.  0.
        2    1    3    3  502    0  0.49678512018E+03  0.72952952155E+03 -0.11252790738E+04  0.14301264882E+04  0.25500000920E-02 0. -1.
       -2    1    3    3    0  502 -0.49678512018E+03 -0.72952952155E+03  0.17208818594E+04  0.19340225315E+04  0.25500000920E-02 0.  1.
</event>
<event>
 5   0  0.1129434E-06  0.3333882E+04  0.7818609E-02  0.8154327E-01
       -2   -1    0    0    0  501  0.00000000000E+00  0.00000000000E+00  0.24911065072E+04  0.24911065072E+04  0.25500000920E-02 0. -1.
        2   -1    0    0  501    0  0.00000000000E+00  0.00000000000E+00 -0.11154446743E+04  0.11154446743E+04  0.25500000920E-02 0.  1.
    10030    2    1    2    0    0  0.00000000000E+00  0.00000000000E+00  0.13756618329E+04  0.36065511816E+04  0.33338815136E+04 0.  0.
        3    1    3    3  502    0  0.51404606252E+03 -0.36263472734E+03 -0.98210141504E+03  0.11663063489E+04  0.10100000352E+00 0.  1.
       -3    1    3    3    0  502 -0.51404606252E+03  0.36263472734E+03  0.23577632479E+04  0.24402448327E+04  0.10100000352E+00 0. -1.
</event>
<event>
 5   0  0.3749685E-07  0.3296594E+04  0.7818609E-02  0.8163763E-01
        1   -1    0    0  501    0  0.00000000000E+00  0.00000000000E+00  0.10226207105E+04  0.10226207105E+04  0.50400001928E-02 0.  1.
       -1   -1    0    0    0  501  0.00000000000E+00  0.00000000000E+00 -0.26567838890E+04  0.26567838890E+04  0.50400001928E-02 0. -1.
    10030    2    1    2    0    0  0.00000000000E+00  0.00000000000E+00 -0.16341631784E+04  0.36794045995E+04  0.32965935317E+04 0.  0.
        3    1    3    3  502    0 -0.10013125846E+04 -0.69517966160E+03  0.42125225556E+03  0.12897112572E+04  0.10100000352E+00 0.  1.
       -3    1    3    3    0  502  0.10013125846E+04  0.69517966160E+03 -0.20554154340E+04  0.23896933423E+04  0.10100000352E+00 0. -1.
</event>
<event>
 5   0  0.3709747E-07  0.3262492E+04  0.7818609E-02  0.8172505E-01
        1   -1    0    0  501    0  0.00000000000E+00  0.00000000000E+00  0.14796937592E+04  0.14796937592E+04  0.50400001928E-02 0. -1.
       -1   -1    0    0    0  501  0.00000000000E+00  0.00000000000E+00 -0.17983208499E+04  0.17983208499E+04  0.50400001928E-02 0.  1.
    10030    2    1    2    0    0  0.00000000000E+00  0.00000000000E+00 -0.31862709070E+03  0.32780146092E+04  0.32624923839E+04 0.  0.
        4    1    3    3  502    0  0.15447412121E+04 -0.35804418718E+03 -0.54394221715E+03  0.16763936891E+04  0.12699999809E+01 0.  1.
       -4    1    3    3    0  502 -0.15447412121E+04  0.35804418718E+03  0.22531512645E+03  0.16016209201E+04  0.12699999809E+01 0. -1.
</event>
<event>
 5   0  0.1129434E-06  0.3312046E+04  0.7818609E-02  0.8159837E-01
       -2   -1    0    0    0  501  0.00000000000E+00  0.00000000000E+00  0.10339627712E+04  0.10339627712E+04  0.25500000920E-02 0.  1.
        2   -1    0    0  501    0  0.00000000000E+00  0.00000000000E+00 -0.26523313869E+04  0.26523313869E+04  0.25500000920E-02 0. -1.
    10030    2    1    2    0    0  0.00000000000E+00  0.00000000000E+00 -0.16183686158E+04  0.36862941581E+04  0.33120458396E+04 0.  0.
        3    1    3    3  502    0  0.41317192867E+03 -0.75772860808E+03  0.76386481322E+03  0.11525420379E+04  0.10100000352E+00 0.  1.
       -3    1    3    3    0  502 -0.41317192867E+03  0.75772860808E+03 -0.23822334290E+04  0.25337521202E+04  0.10100000352E+00 0. -1.
</event>
<event>
 5   0  0.1126221E-06  0.3305182E+04  0.7818609E-02  0.8161578E-01
       -2   -1    0    0    0  501  0.00000000000E+00  0.00000000000E+00  0.17340094050E+04  0.17340094050E+04  0.25500000920E-02 0.  1.
        2   -1    0    0  501    0  0.00000000000E+00  0.00000000000E+00 -0.15749951534E+04  0.15749951534E+04  0.25500000920E-02 0. -1.
    10030    2    1    2    0    0  0.00000000000E+00  0.00000000000E+00  0.15901425162E+03  0.33090045584E+04  0.33051816343E+04 0.  0.
        2    1    3    3  502    0 -0.43091161067E+02 -0.65652592283E+03 -0.14382190328E+04  0.15815679314E+04  0.25500000920E-02 0. -1.
       -2    1    3    3    0  502  0.43091161067E+02  0.65652592283E+03  0.15972332844E+04  0.17274366270E+04  0.25500000920E-02 0.  1.
</event>
<event>
 5   0  0.3757406E-07  0.3315448E+04  0.7818609E-02  0.8158976E-01
       -1   -1    0    0    0  501  0.00000000000E+00  0.00000000000E+00  0.15748164015E+04  0.15748164015E+04  0.50400001928E-02 0. -1.
        1   -1    0    0  501    0  0.00000000000E+00  0.00000000000E+00 -0.17449960083E+04  0.17449960083E+04  0.50400001928E-02 0.  1.
    10030    2    1    2    0    0  0.00000000000E+00  0.00000000000E+00 -0.17017960683E+03  0.33198124098E+04  0.33154476829E+04 0.  0.
        1    1    3    3  502    0 -0.13676305383E+04  0.73705427513E+03 -0.66411229575E+03  0.16895879483E+04  0.50400001928E-02 0. -1.
       -1    1    3    3    0  502  0.13676305383E+04 -0.73705427513E+03  0.49393268892E+03  0.16302244615E+04  0.50400001928E-02 0.  1.
</event>
<event>
 5   0  0.1116462E-06  0.3220312E+04  0.7818609E-02  0.8183473E-01
        2   -1    0    0  501    0  0.00000000000E+00  0.00000000000E+00  0.17801874085E+04  0.17801874085E+04  0.25500000920E-02 0. -1.
       -2   -1    0    0    0  501  0.00000000000E+00  0.00000000000E+00 -0.14563646862E+04  0.14563646862E+04  0.25500000920E-02 0.  1.
    10030    2    1    2    0    0  0.00000000000E+00  0.00000000000E+00  0.32382272230E+03  0.32365520948E+04  0.32203118338E+04 0.  0.
        1    1    3    3  502    0 -0.10682916543E+04 -0.11026583404E+04 -0.32581896825E+03  0.15694777712E+04  0.50400001928E-02 0.  1.
       -1    1    3    3    0  502  0.10682916543E+04  0.11026583404E+04  0.64964169055E+03  0.16670743236E+04  0.50400001928E-02 0. -1.
</event>
<event>
 5   0  0.3674967E-07  0.3316751E+04  0.7818609E-02  0.8158646E-01
       -1   -1    0    0    0  501  0.00000000000E+00  0.00000000000E+00  0.93961414171E+03  0.93961414173E+03  0.50400001928E-02 0.  1.
        1   -1    0    0  501    0  0.00000000000E+00  0.00000000000E+00 -0.29269558663E+04  0.29269558663E+04  0.50400001928E-02 0. -1.
    10030    2    1    2    0    0  0.00000000000E+00  0.00000000000E+00 -0.19873417246E+04  0.38665700080E+04  0.33167508946E+04 0.  0.
        2    1    3    3  502    0 -0.14152482702E+04  0.40700223119E+03 -0.18827423076E+04  0.23902504219E+04  0.25500000920E-02 0. -1.
       -2    1    3    3    0  502  0.14152482702E+04 -0.40700223119E+03 -0.10459941697E+03  0.14763195861E+04  0.25500000920E-02 0.  1.
</event>
<event>
 5   0  0.1146799E-06  0.3264967E+04  0.7818609E-02  0.8171867E-01
       -2   -1    0    0    0  501  0.00000000000E+00  0.00000000000E+00  0.10225168389E+04  0.10225168389E+04  0.25500000920E-02 0.  1.
        2   -1    0    0  501    0  0.00000000000E+00  0.00000000000E+00 -0.26063157983E+04  0.26063157983E+04  0.25500000920E-02 0. -1.
    10030    2    1    2    0    0  0.00000000000E+00  0.00000000000E+00 -0.15837989594E+04  0.36288326372E+04  0.32649666407E+04 0.  0.
        5    1    3    3  502    0 -0.88016258198E+03  0.96522391667E+03  0.29631657896E+03  0.13394659328E+04  0.46999998093E+01 0.  1.
       -5    1    3    3    0  502  0.88016258198E+03 -0.96522391667E+03 -0.18801155383E+04  0.22893667045E+04  0.46999998093E+01 0. -1.
</event>
<event>
 5   0  0.3674967E-07  0.3300240E+04  0.7818609E-02  0.8162834E-01
        1   -1    0    0  501    0  0.00000000000E+00  0.00000000000E+00  0.32712815858E+04  0.32712815858E+04  0.50400001928E-02 0. -1.
       -1   -1    0    0    0  501  0.00000000000E+00  0.00000000000E+00 -0.83236381100E+03  0.83236381101E+03  0.50400001928E-02 0.  1.
    10030    2    1    2    0    0  0.00000000000E+00  0.00000000000E+00  0.24389177748E+04  0.41036453968E+04  0.33002402383E+04 0.  0.
        2    1    3    3  502    0 -0.18408162409E+03 -0.14944522137E+03  0.32499890093E+04  0.32586267781E+04  0.25500000920E-02 0. -1.
       -2    1    3    3    0  502  0.18408162409E+03  0.14944522137E+03 -0.81107123450E+03  0.84501861870E+03  0.25500000920E-02 0.  1.
</event>
<event>
 5   0  0.3749685E-07  0.3264411E+04  0.7818609E-02  0.8172010E-01
       -1   -1    0    0    0  501  0.00000000000E+00  0.00000000000E+00  0.94528526177E+03  0.94528526178E+03  0.50400001928E-02 0. -1.
        1   -1    0    0  501    0  0.00000000000E+00  0.00000000000E+00 -0.28182978882E+04  0.28182978882E+04  0.50400001928E-02 0.  1.
    10030    2    1    2    0    0  0.00000000000E+00  0.00000000000E+00 -0.18730126265E+04  0.37635831500E+04  0.32644114061E+04 0.  0.
        3    1    3    3  502    0 -0.16271414359E+04  0.11659676902E+03 -0.99871437364E+03  0.19127504985E+04  0.10100000352E+00 0. -1.
       -3    1    3    3    0  502  0.16271414359E+04 -0.11659676902E+03 -0.87429825284E+03  0.18508326516E+04  0.10100000352E+00 0.  1.
</event>
<event>
 5   0  0.3796529E-07  0.3312956E+04  0.7818609E-02  0.8159607E-01
        1   -1    0    0  501    0  0.00000000000E+00  0.00000000000E+00  0.17485903968E+04  0.17485903968E+04  0.50400001928E-02 0. -1.
       -1   -1    0    0    0  501  0.00000000000E+00  0.00000000000E+00 -0.15692175223E+04  0.15692175223E+04  0.50400001928E-02 0.  1.
    10030    2    1    2    0    0  0.00000000000E+00  0.00000000000E+00  0.17937287450E+03  0.33178079192E+04  0.33129555929E+04 0.  0.
        5    1    3    3  502    0  0.12788902129E+04  0.10527742600E+04  0.88016402352E+02  0.16588136714E+04  0.46999998093E+01 0. -1.
       -5    1    3    3    0  502 -0.12788902129E+04 -0.10527742600E+04  0.91356472149E+02  0.16589942478E+04  0.46999998093E+01 0.  1.
</event>
<event>
 5   0  0.1116462E-06  0.3276802E+04  0.7818609E-02  0.8168823E-01
        2   -1    0    0  501    0  0.00000000000E+00  0.00000000000E+00  0.33613474061E+04  0.33613474061E+04  0.25500000920E-02 0. -1.
       -2   -1    0    0    0  501  0.00000000000E+00  0.00000000000E+00 -0.79859577870E+03  0.79859577871E+03  0.25500000920E-02 0.  1.
    10030    2    1    2    0    0  0.00000000000E+00  0.00000000000E+00  0.25627516274E+04  0.41599431848E+04  0.32768020076E+04 0.  0.
        1    1    3    3  502    0  0.61343509815E+03 -0.12094829833E+04  0.11424772672E+03  0.13609571080E+04  0.50400001928E-02 0.  1.
       -1    1    3    3    0  502 -0.61343509815E+03  0.12094829833E+04  0.24485039006E+04  0.27989860768E+04  0.50400001928E-02 0. -1.
</event>
<event>
 5   0  0.3749685E-07  0.3299482E+04  0.7818609E-02  0.8163027E-01
        1   -1    0    0  501    0  0.00000000000E+00  0.00000000000E+00  0.85643027170E+03  0.85643027172E+03  0.50400001928E-02 0.  1.
       -1   -1    0    0    0  501  0.00000000000E+00  0.00000000000E+00 -0.31778955388E+04  0.31778955388E+04  0.50400001928E-02 0. -1.
    10030    2    1    2    0    0  0.00000000000E+00  0.00000000000E+00 -0.23214652671E+04  0.40343258105E+04  0.32994823471E+04 0.  0.
        3    1    3    3  502    0 -0.22170187325E+03 -0.15678176565E+04 -0.59451930417E+03  0.16913477283E+04  0.10100000352E+00 0.  1.
       -3    1    3    3    0  502  0.22170187325E+03  0.15678176565E+04 -0.17269459629E+04  0.23429780822E+04  0.10100000352E+00 0. -1.
</event>
<event>
 5   0  0.1126221E-06  0.3304875E+04  0.7818609E-02  0.8161656E-01
        2   -1    0    0  501    0  0.00000000000E+00  0.00000000000E+00  0.21206282280E+04  0.21206282280E+04  0.25500000920E-02 0.  1.
       -2   -1    0    0    0  501  0.00000000000E+00  0.00000000000E+00 -0.12876135488E+04  0.12876135488E+04  0.25500000920E-02 0. -1.
    10030    2    1    2    0    0  0.00000000000E+00  0.00000000000E+00  0.83301467919E+03  0.34082417768E+04  0.33048749679E+04 0.  0.
        2    1    3    3  502    0  0.77245145925E+03  0.26806341209E+03 -0.10643757927E+04  0.13421755019E+04  0.25500000920E-02 0. -1.
       -2    1    3    3    0  502 -0.77245145925E+03 -0.26806341209E+03  0.18973904719E+04  0.20660662750E+04  0.25500000920E-02 0.  1.
</event>
<event>
 5   0  0.3709747E-07  0.3349446E+04  0.7818609E-02  0.8150427E-01
       -1   -1    0    0    0  501  0.00000000000E+00  0.00000000000E+00  0.13724260217E+04  0.13724260217E+04  0.50400001928E-02 0. -1.
        1   -1    0    0  501    0  0.00000000000E+00  0.00000000000E+00 -0.20436056441E+04  0.20436056441E+04  0.50400001928E-02 0.  1.
    10030    2    1    2    0    0  0.00000000000E+00  0.00000000000E+00 -0.67117962243E+03  0.34160316658E+04  0.33494462611E+04 0.  0.
        4    1    3    3  502    0 -0.11015333462E+04  0.34842414354E+03 -0.15720947328E+04  0.19509634949E+04  0.12699999809E+01 0.  1.
       -4    1    3    3    0  502  0.11015333462E+04 -0.34842414354E+03  0.90091511035E+03  0.14650681710E+04  0.12699999809E+01 0. -1.
</event>
<event>
 5   0  0.3796529E-07  0.3299510E+04  0.7818609E-02  0.8163020E-01
       -1   -1    0    0    0  501  0.00000000000E+00  0.00000000000E+00  0.13924748098E+04  0.13924748098E+04  0.50400001928E-02 0.  1.
        1   -1    0    0  501    0  0.00000000000E+00  0.00000000000E+00 -0.19545711487E+04  0.19545711487E+04  0.50400001928E-02 0. -1.
    10030    2    1    2    0    0  0.00000000000E+00  0.00000000000E+00 -0.56209633888E+03  0.33470459585E+04  0.32995097142E+04 0.  0.
        5    1    3    3  502    0  0.35614681001E+03 -0.11211243640E+04 -0.14543925251E+04  0.18705721309E+04  0.46999998093E+01 0. -1.
       -5    1    3    3    0  502 -0.35614681001E+03  0.11211243640E+04  0.89229618618E+03  0.14764738276E+04  0.46999998093E+01 0.  1.
</event>
<event>
 5   0  0.1146799E-06  0.3298026E+04  0.7818609E-02  0.8163398E-01
        2   -1    0    0  501    0  0.00000000000E+00  0.00000000000E+00  0.26029860637E+04  0.26029860637E+04  0.25500000920E-02 0.  1.
       -2   -1    0    0    0  501  0.00000000000E+00  0.00000000000E+00 -0.10446633971E+04  0.10446633971E+04  0.25500000920E-02 0. -1.
    10030    2    1    2    0    0  0.00000000000E+00  0.00000000000E+00  0.15583226666E+04  0.36476494608E+04  0.32980262363E+04 0.  0.
        5    1    3    3  502    0  0.52930767662E+03  0.11629413464E+04 -0.37375670150E+03  0.13312833484E+04  0.46999998093E+01 0. -1.
       -5    1    3    3    0  502 -0.52930767662E+03 -0.11629413464E+04  0.19320793681E+04  0.23163661124E+04  0.46999998093E+01 0.  1.
</event>
<event>
 5   0  0.3796529E-07  0.3261228E+04  0.7818609E-02  0.8172832E-01
        1   -1    0    0  501    0  0.00000000000E+00  0.00000000000E+00  0.13148516520E+04  0.13148516520E+04  0.50400001928E-02 0.  1.
       -1   -1    0    0    0  501  0.00000000000E+00  0.00000000000E+00 -0.20222065964E+04  0.20222065965E+04  0.50400001928E-02 0. -1.
    10030    2    1    2    0    0  0.00000000000E+00  0.00000000000E+00 -0.70735494448E+03  0.33370582484E+04  0.32612277958E+04 0.  0.
        5    1    3    3  502    0 -0.16318827822E+03 -0.12040288929E+04 -0.14664205635E+04  0.19043968463E+04  0.46999998093E+01 0. -1.
       -5    1    3    3    0  502  0.16318827822E+03  0.12040288929E+04  0.75906561904E+03  0.14326614021E+04  0.46999998093E+01 0.  1.
</event>
<event>
 5   0  0.3674967E-07  0.3294091E+04  0.7818609E-02  0.8164401E-01
       -1   -1    0    0    0  501  0.00000000000E+00  0.00000000000E+00  0.12439622030E+04  0.12439622030E+04  0.50400001928E-02 0. -1.
        1   -1    0    0  501    0  0.00000000000E+00  0.00000000000E+00 -0.21807406324E+04  0.21807406324E+04  0.50400001928E-02 0.  1.
    10030    2    1    2    0    0  0.00000000000E+00  0.00000000000E+00 -0.93677842947E+03  0.34247028354E+04  0.32940910256E+04 0.  0.
        2    1    3    3  502    0 -0.25819827584E+03  0.13122718354E+04  0.53099286016E+03  0.14389847592E+04  0.25500000920E-02 0. -1.
       -2    1    3    3    0  502  0.25819827584E+03 -0.13122718354E+04 -0.14677712896E+04  0.19857180762E+04  0.25500000920E-02 0.  1.
</event>
<event>
 5   0  0.1116462E-06  0.3298085E+04  0.7818609E-02  0.8163383E-01
       -2   -1    0    0    0  501  0.00000000000E+00  0.00000000000E+00  0.25173177081E+04  0.25173177081E+04  0.25500000920E-02 0.  1.
        2   -1    0    0  501    0  0.00000000000E+00  0.00000000000E+00 -0.10802532607E+04  0.10802532607E+04  0.25500000920E-02 0. -1.
    10030    2    1    2    0    0  0.00000000000E+00  0.00000000000E+00  0.14370644474E+04  0.35975709687E+04  0.32980846940E+04 0.  0.
        1    1    3    3  502    0  0.15822928479E+04  0.46120758857E+03  0.77805432690E+03  0.18225618321E+04  0.50400001928E-02 0.  1.
       -1    1    3    3    0  502 -0.15822928479E+04 -0.46120758857E+03  0.65901012052E+03  0.17750091366E+04  0.50400001928E-02 0. -1.
</event>
<event>
 5   0  0.3757406E-07  0.3302894E+04  0.7818609E-02  0.8162159E-01
        1   -1    0    0  501    0  0.00000000000E+00  0.00000000000E+00  0.15215178251E+04  0.15215178251E+04  0.50400001928E-02 0.  1.
       -1   -1    0    0    0  501  0.00000000000E+00  0.00000000000E+00 -0.17924719261E+04  0.17924719261E+04  0.50400001928E-02 0. -1.
    10030    2    1    2    0    0  0.00000000000E+00  0.00000000000E+00 -0.27095410106E+03  0.33139897512E+04  0.33028944800E+04 0.  0.
        1    1    3    3  502    0 -0.33843690690E+02  0.10315886824E+04  0.11580228605E+04  0.15512374255E+04  0.50400001928E-02 0.  1.
       -1    1    3    3    0  502  0.33843690690E+02 -0.10315886824E+04 -0.14289769615E+04  0.17627523257E+04  0.50400001928E-02 0. -1.
</event>
<event>
 5   0  0.1116462E-06  0.3277495E+04  0.7818609E-02  0.8168646E-01
        2   -1    0    0  501    0  0.00000000000E+00  0.00000000000E+00  0.13363483748E+04  0.13363483748E+04  0.25500000920E-02 0.  1.
       -2   -1    0    0    0  501  0.00000000000E+00  0.00000000000E+00 -0.20095754498E+04  0.20095754498E+04  0.25500000920E-02 0. -1.
    10030    2    1    2    0    0  0.00000000000E+00  0.00000000000E+00 -0.67322707497E+03  0.33459238247E+04  0.32774947057E+04 0.  0.
        1    1    3    3  502    0  0.99204271653E+03  0.92734500567E+03 -0.12730298039E+04  0.18613764779E+04  0.50400001928E-02 0. -1.
       -1    1    3    3    0  502 -0.99204271653E+03 -0.92734500567E+03  0.59980272893E+03  0.14845473467E+04  0.50400001928E-02 0.  1.
</event>
<event>
 5   0  0.1116462E-06  0.3296582E+04  0.7818609E-02  0.8163766E-01
        2   -1    0    0  501    0  0.00000000000E+00  0.00000000000E+00  0.16388519652E+04  0.16388519652E+04  0.25500000920E-02 0.  1.
       -2   -1    0    0    0  501  0.00000000000E+00  0.00000000000E+00 -0.16577841649E+04  0.16577841649E+04  0.25500000920E-02 0. -1.
    10030    2    1    2    0    0  0.00000000000E+00  0.00000000000E+00 -0.18932199738E+02  0.32966361302E+04  0.32965817670E+04 0.  0.
        1    1    3    3  502    0  0.66647473979E+03 -0.96810631717E+03  0.11461672597E+04  0.16416813964E+04  0.50400001928E-02 0.  1.
       -1    1    3    3    0  502 -0.66647473979E+03  0.96810631717E+03 -0.11650994595E+04  0.16549547337E+04  0.50400001928E-02 0. -1.
</event>
<event>
 5   0  0.3709747E-07  0.3314494E+04  0.7818609E-02  0.8159217E-01
        1   -1    0    0  501    0  0.00000000000E+00  0.00000000000E+00  0.11825047249E+04  0.11825047249E+04  0.50400001928E-02 0.  1.
       -1   -1    0    0    0  501  0.00000000000E+00  0.00000000000E+00 -0.23225843203E+04  0.23225843203E+04  0.50400001928E-02 0. -1.
    10030    2    1    2    0    0  0.00000000000E+00  0.00000000000E+00 -0.11400795954E+04  0.35050890453E+04  0.33144935860E+04 0.  0.
        4    1    3    3  502    0  0.12372097504E+04 -0.25946536327E+03 -0.17033241149E+04  0.21211612137E+04  0.12699999809E+01 0. -1.
       -4    1    3    3    0  502 -0.12372097504E+04  0.25946536327E+03  0.56324451952E+03  0.13839278315E+04  0.12699999809E+01 0.  1.
</event>
<event>
 5   0  0.3796529E-07  0.3301026E+04  0.7818609E-02  0.8162634E-01
       -1   -1    0    0    0  501  0.00000000000E+00  0.00000000000E+00  0.15157923494E+04  0.15157923494E+04  0.50400001928E-02 0.  1.
        1   -1    0    0  501    0  0.00000000000E+00  0.00000000000E+00 -0.17972073679E+04  0.17972073679E+04  0.50400001928E-02 0. -1.
    10030    2    1    2    0    0  0.00000000000E+00  0.00000000000E+00 -0.28141501844E+03  0.33129997173E+04  0.33010260093E+04 0.  0.
        5    1    3    3  502    0  0.10927048198E+04 -0.85955803847E+03 -0.10334999645E+04  0.17323360273E+04  0.46999998093E+01 0. -1.
       -5    1    3    3    0  502 -0.10927048198E+04  0.85955803847E+03  0.75208494608E+03  0.15806636900E+04  0.46999998093E+01 0.  1.
</event>
<event>
 5   0  0.1120545E-06  0.3281273E+04  0.7818609E-02  0.8167677E-01
       -2   -1    0    0    0  501  0.00000000000E+00  0.00000000000E+00  0.10088086706E+04  0.10088086706E+04  0.25500000920E-02 0. -1.
        2   -1    0    0  501    0  0.00000000000E+00  0.00000000000E+00 -0.26681853421E+04  0.26681853421E+04  0.25500000920E-02 0.  1.
    10030    2    1    2    0    0  0.00000000000E+00  0.00000000000E+00 -0.16593766715E+04  0.36769940127E+04  0.32812732332E+04 0.  0.
        4    1    3    3  502    0  0.12476035835E+04 -0.75126796613E+03 -0.16762928448E+04  0.22205579418E+04  0.12699999809E+01 0.  1.
       -4    1    3    3    0  502 -0.12476035835E+04  0.75126796613E+03  0.16916173318E+02  0.14564360708E+04  0.12699999809E+01 0. -1.
</event>
<event>
 5   0  0.3709747E-07  0.3287116E+04  0.7818609E-02  0.8166181E-01
        1   -1    0    0  501    0  0.00000000000E+00  0.00000000000E+00  0.24439844644E+04  0.24439844644E+04  0.50400001928E-02 0.  1.
       -1   -1    0    0    0  501  0.00000000000E+00  0.00000000000E+00 -0.11052784982E+04  0.11052784982E+04  0.50400001928E-02 0. -1.
    10030    2    1    2    0    0  0.00000000000E+00  0.00000000000E+00  0.13387059662E+04  0.35492629626E+04  0.32871163523E+04 0.  0.
        4    1    3    3  502    0  0.93205040377E+03  0.11776686503E+04  0.13901702022E+04  0.20465082968E+04  0.12699999809E+01 0.  1.
       -4    1    3    3    0  502 -0.93205040377E+03 -0.11776686503E+04 -0.51464235948E+02  0.15027546658E+04  0.12699999809E+01 0. -1.
</event>
<event>
 5   0  0.3757406E-07  0.3306922E+04  0.7818609E-02  0.8161136E-01
       -1   -1    0    0    0  501  0.00000000000E+00  0.00000000000E+00  0.15546071297E+04  0.15546071297E+04  0.50400001928E-02 0. -1.
        1   -1    0    0  501    0  0.00000000000E+00  0.00000000000E+00 -0.17586009470E+04  0.17586009470E+04  0.50400001928E-02 0.  1.
    10030    2    1    2    0    0  0.00000000000E+00  0.00000000000E+00 -0.20399381731E+03  0.33132080767E+04  0.33069221766E+04 0.  0.
        1    1    3    3  502    0 -0.11471227986E+04 -0.49315500348E+02  0.10900591409E+04  0.15832092927E+04  0.50400001928E-02 0. -1.
       -1    1    3    3    0  502  0.11471227986E+04  0.49315500348E+02 -0.12940529583E+04  0.17299987840E+04  0.50400001928E-02 0.  1.
</event>
<event>
 5   0  0.3796529E-07  0.2925736E+04  0.7818609E-02  0.8265261E-01
       -1   -1    0    0    0  501  0.00000000000E+00  0.00000000000E+00  0.21320088659E+04  0.21320088659E+04  0.50400001928E-02 0. -1.
        1   -1    0    0  501    0  0.00000000000E+00  0.00000000000E+00 -0.10037397748E+04  0.10037397748E+04  0.50400001928E-02 0.  1.
    10030    2    1    2    0    0  0.00000000000E+00  0.00000000000E+00  0.11282690911E+04  0.31357486407E+04  0.29257355307E+04 0.  0.
        5    1    3    3  502    0 -0.30381392215E+03  0.14635572605E+03  0.20897718852E+04  0.21168116402E+04  0.46999998093E+01 0. -1.
       -5    1    3    3    0  502  0.30381392215E+03 -0.14635572605E+03 -0.96150279412E+03  0.10189370005E+04  0.46999998093E+01 0.  1.
</event>
<event>
 5   0  0.1120545E-06  0.3294269E+04  0.7818609E-02  0.8164355E-01
       -2   -1    0    0    0  501  0.00000000000E+00  0.00000000000E+00  0.23376552110E+04  0.23376552110E+04  0.25500000920E-02 0.  1.
        2   -1    0    0  501    0  0.00000000000E+00  0.00000000000E+00 -0.11605868266E+04  0.11605868266E+04  0.25500000920E-02 0. -1.
    10030    2    1    2    0    0  0.00000000000E+00  0.00000000000E+00  0.11770683844E+04  0.34982420377E+04  0.32942688677E+04 0.  0.
        4    1    3    3  502    0 -0.12823919573E+03  0.19157376446E+03 -0.11433698619E+04  0.11663798920E+04  0.12699999809E+01 0. -1.
       -4    1    3    3    0  502  0.12823919573E+03 -0.19157376446E+03  0.23204382463E+04  0.23318621456E+04  0.12699999809E+01 0.  1.
</event>
<event>
 5   0  0.1126221E-06  0.3312450E+04  0.7818609E-02  0.8159735E-01
        2   -1    0    0  501    0  0.00000000000E+00  0.00000000000E+00  0.23604976939E+04  0.23604976939E+04  0.25500000920E-02 0.  1.
       -2   -1    0    0    0  501  0.00000000000E+00  0.00000000000E+00 -0.11620773195E+04  0.11620773195E+04  0.25500000920E-02 0. -1.
    10030    2    1    2    0    0  0.00000000000E+00  0.00000000000E+00  0.11984203744E+04  0.35225750134E+04  0.33124497477E+04 0.  0.
        2    1    3    3  502    0  0.66436357479E+03 -0.38487525227E+03 -0.96138671997E+03  0.12303545606E+04  0.25500000920E-02 0. -1.
       -2    1    3    3    0  502 -0.66436357479E+03  0.38487525227E+03  0.21598070944E+04  0.22922204528E+04  0.25500000920E-02 0.  1.
</event>
<event>
 5   0  0.3796529E-07  0.3364549E+04  0.7818609E-02  0.8146662E-01
        1   -1    0    0  501    0  0.00000000000E+00  0.00000000000E+00  0.15299546580E+04  0.15299546580E+04  0.50400001928E-02 0.  1.
       -1   -1    0    0    0  501  0.00000000000E+00  0.00000000000E+00 -0.18497591238E+04  0.18497591238E+04  0.50400001928E-02 0. -1.
    10030    2    1    2    0    0  0.00000000000E+00  0.00000000000E+00 -0.31980446584E+03  0.33797137818E+04  0.33645490560E+04 0.  0.
        5    1    3    3  502    0  0.11992932006E+04 -0.49620928814E+03  0.91520098278E+03  0.15881255516E+04  0.46999998093E+01 0.  1.
       -5    1    3    3    0  502 -0.11992932006E+04  0.49620928814E+03 -0.12350054486E+04  0.17915882302E+04  0.46999998093E+01 0. -1.
</event>
<event>
 5   0  0.3757406E-07  0.3315353E+04  0.7818609E-02  0.8159000E-01
       -1   -1    0    0    0  501  0.00000000000E+00  0.00000000000E+00  0.17533863487E+04  0.17533863487E+04  0.50400001928E-02 0.  1.
        1   -1    0    0  501    0  0.00000000000E+00  0.00000000000E+00 -0.15671907890E+04  0.15671907890E+04  0.50400001928E-02 0. -1.
    10030    2    1    2    0    0  0.00000000000E+00  0.00000000000E+00  0.18619555973E+03  0.33205771377E+04  0.33153527325E+04 0.  0.
        1    1    3    3  502    0  0.40942126079E+03 -0.10589288960E+04  0.13028648752E+04  0.17281241445E+04  0.50400001928E-02 0.  1.
       -1    1    3    3    0  502 -0.40942126079E+03  0.10589288960E+04 -0.11166693155E+04  0.15924529933E+04  0.50400001928E-02 0. -1.
</event>
<event>
 5   0  0.1129434E-06  0.3328913E+04  0.7818609E-02  0.8155577E-01
        2   -1    0    0  501    0  0.00000000000E+00  0.00000000000E+00  0.18213708147E+04  0.18213708147E+04  0.25500000920E-02 0.  1.
       -2   -1    0    0    0  501  0.00000000000E+00  0.00000000000E+00 -0.15210605998E+04  0.15210605998E+04  0.25500000920E-02 0. -1.
    10030    2    1    2    0    0  0.00000000000E+00  0.00000000000E+00  0.30031021490E+03  0.33424314146E+04  0.33289129661E+04 0.  0.
        3    1    3    3  502    0 -0.91570180175E+03 -0.38699956398E+03  0.14905433128E+04  0.17916466810E+04  0.10100000352E+00 0.  1.
       -3    1    3    3    0  502  0.91570180175E+03  0.38699956398E+03 -0.11902330979E+04  0.15507847335E+04  0.10100000352E+00 0. -1.
</event>
<event>
 5   0  0.1120545E-06  0.3295340E+04  0.7818609E-02  0.8164082E-01
       -2   -1    0    0    0  501  0.00000000000E+00  0.00000000000E+00  0.14401293785E+04  0.14401293785E+04  0.25500000920E-02 0.  1.
        2   -1    0    0  501    0  0.00000000000E+00  0.00000000000E+00 -0.18851196839E+04  0.18851196839E+04  0.25500000920E-02 0. -1.
    10030    2    1    2    0    0  0.00000000000E+00  0.00000000000E+00 -0.44499030540E+03  0.33252490624E+04  0.32953398846E+04 0.  0.
        4    1    3    3  502    0  0.29681264638E+03  0.10848867054E+04 -0.14374739065E+04  0.18252149888E+04  0.12699999809E+01 0. -1.
       -4    1    3    3    0  502 -0.29681264638E+03 -0.10848867054E+04  0.99248360108E+03  0.15000340736E+04  0.12699999809E+01 0.  1.
</event>
<event>
 5   0  0.1120545E-06  0.3300123E+04  0.7818609E-02  0.8162864E-01
       -2   -1    0    0    0  501  0.00000000000E+00  0.00000000000E+00  0.16377057558E+04  0.16377057558E+04  0.25500000920E-02 0. -1.
        2   -1    0    0  501    0  0.00000000000E+00  0.00000000000E+00 -0.16625101763E+04  0.16625101763E+04  0.25500000920E-02 0.  1.
    10030    2    1    2    0    0  0.00000000000E+00  0.00000000000E+00 -0.24804420540E+02  0.33002159321E+04  0.33001227158E+04 0.  0.
        4    1    3    3  502    0  0.70913489207E+03 -0.82979295461E+03  0.12250785920E+04  0.16408070612E+04  0.12699999809E+01 0. -1.
       -4    1    3    3    0  502 -0.70913489207E+03  0.82979295461E+03 -0.12498830126E+04  0.16594088708E+04  0.12699999809E+01 0.  1.
</event>
<event>
 5   0  0.3749685E-07  0.3246924E+04  0.7818609E-02  0.8176533E-01
        1   -1    0    0  501    0  0.00000000000E+00  0.00000000000E+00  0.21030393068E+04  0.21030393068E+04  0.50400001928E-02 0.  1.
       -1   -1    0    0    0  501  0.00000000000E+00  0.00000000000E+00 -0.12532477041E+04  0.12532477041E+04  0.50400001928E-02 0. -1.
    10030    2    1    2    0    0  0.00000000000E+00  0.00000000000E+00  0.84979160271E+03  0.33562870109E+04  0.32469241955E+04 0.  0.
        3    1    3    3  502    0  0.77693345908E+03 -0.45550613394E+03  0.18211387322E+04  0.20316637837E+04  0.10100000352E+00 0.  1.
       -3    1    3    3    0  502 -0.77693345908E+03  0.45550613394E+03 -0.97134712949E+03  0.13246232272E+04  0.10100000352E+00 0. -1.
</event>
<event>
 5   0  0.3796529E-07  0.3304123E+04  0.7818609E-02  0.8161847E-01
       -1   -1    0    0    0  501  0.00000000000E+00  0.00000000000E+00  0.30948426785E+04  0.30948426785E+04  0.50400001928E-02 0. -1.
        1   -1    0    0  501    0  0.00000000000E+00  0.00000000000E+00 -0.88188874150E+03  0.88188874152E+03  0.50400001928E-02 0.  1.
    10030    2    1    2    0    0  0.00000000000E+00  0.00000000000E+00  0.22129539370E+04  0.39767314200E+04  0.33041228276E+04 0.  0.
        5    1    3    3  502    0  0.11151272928E+04 -0.31776438194E+03  0.25228050892E+04  0.27765177273E+04  0.46999998093E+01 0. -1.
       -5    1    3    3    0  502 -0.11151272928E+04  0.31776438194E+03 -0.30985115224E+03  0.12002136927E+04  0.46999998093E+01 0.  1.
</event>
<event>
 5   0  0.3749685E-07  0.3282941E+04  0.7818609E-02  0.8167250E-01
        1   -1    0    0  501    0  0.00000000000E+00  0.00000000000E+00  0.16193148331E+04  0.16193148331E+04  0.50400001928E-02 0. -1.
       -1   -1    0    0    0  501  0.00000000000E+00  0.00000000000E+00 -0.16639293258E+04  0.16639293258E+04  0.50400001928E-02 0.  1.
    10030    2    1    2    0    0  0.00000000000E+00  0.00000000000E+00 -0.44614492725E+02  0.32832441590E+04  0.32829410221E+04 0.  0.
        3    1    3    3  502    0  0.14661249972E+04 -0.20859508444E+03 -0.73046232099E+03  0.16512448726E+04  0.10100000352E+00 0.  1.
       -3    1    3    3    0  502 -0.14661249972E+04  0.20859508444E+03  0.68584782826E+03  0.16319992863E+04  0.10100000352E+00 0. -1.
</event>
<event>
 5   0  0.3674967E-07  0.3353629E+04  0.7818609E-02  0.8149382E-01
       -1   -1    0    0    0  501  0.00000000000E+00  0.00000000000E+00  0.21798918092E+04  0.21798918092E+04  0.50400001928E-02 0.  1.
        1   -1    0    0  501    0  0.00000000000E+00  0.00000000000E+00 -0.12898376245E+04  0.12898376245E+04  0.50400001928E-02 0. -1.
    10030    2    1    2    0    0  0.00000000000E+00  0.00000000000E+00  0.89005418470E+03  0.34697294337E+04  0.33536287647E+04 0.  0.
        2    1    3    3  502    0  0.73226795774E+03  0.17944796824E+03  0.19946398845E+04  0.21323710287E+04  0.25500000920E-02 0.  1.
       -2    1    3    3    0  502 -0.73226795774E+03 -0.17944796824E+03 -0.11045856998E+04  0.13373584050E+04  0.25500000920E-02 0. -1.
</event>
<event>
 5   0  0.1129434E-06  0.3268097E+04  0.7818609E-02  0.8171061E-01
        2   -1    0    0  501    0  0.00000000000E+00  0.00000000000E+00  0.16175658487E+04  0.16175658487E+04  0.25500000920E-02 0. -1.
       -2   -1    0    0    0  501  0.00000000000E+00  0.00000000000E+00 -0.16506994196E+04  0.16506994196E+04  0.25500000920E-02 0.  1.
    10030    2    1    2    0    0  0.00000000000E+00  0.00000000000E+00 -0.33133570886E+02  0.32682652683E+04  0.32680973104E+04 0.  0.
        3    1    3    3  502    0 -0.56271092471E+02 -0.14379027151E+04 -0.79080573659E+03  0.16419818444E+04  0.10100000352E+00 0.  1.
       -3    1    3    3    0  502  0.56271092471E+02  0.14379027151E+04  0.75767216570E+03  0.16262834239E+04  0.10100000352E+00 0. -1.
</event>
<event>
 5   0  0.1129434E-06  0.3176422E+04  0.7818609E-02  0.8195072E-01
       -2   -1    0    0    0  501  0.00000000000E+00  0.00000000000E+00  0.19380714219E+04  0.19380714219E+04  0.25500000920E-02 0. -1.
        2   -1    0    0  501    0  0.00000000000E+00  0.00000000000E+00 -0.13015070530E+04  0.13015070530E+04  0.25500000920E-02 0.  1.
    10030    2    1    2    0    0  0.00000000000E+00  0.00000000000E+00  0.63656436892E+03  0.32395784749E+04  0.31764216501E+04 0.  0.
        3    1    3    3  502    0 -0.85080334892E+03 -0.12764836059E+04  0.73772186581E+03  0.17022074774E+04  0.10100000352E+00 0. -1.
       -3    1    3    3    0  502  0.85080334892E+03  0.12764836059E+04 -0.10115749689E+03  0.15373709975E+04  0.10100000352E+00 0.  1.
</event>
<event>
 5   0  0.3749685E-07  0.3309184E+04  0.7818609E-02  0.8160562E-01
       -1   -1    0    0    0  501  0.00000000000E+00  0.00000000000E+00  0.17510644776E+04  0.17510644776E+04  0.50400001928E-02 0.  1.
        1   -1    0    0  501    0  0.00000000000E+00  0.00000000000E+00 -0.15634343721E+04  0.15634343721E+04  0.50400001928E-02 0. -1.
    10030    2    1    2    0    0  0.00000000000E+00  0.00000000000E+00  0.18763010550E+03  0.33144988497E+04  0.33091838220E+04 0.  0.
        3    1    3    3  502    0 -0.15656708466E+04  0.12380034889E+03 -0.42761946636E+03  0.16277315948E+04  0.10100000352E+00 0.  1.
       -3    1    3    3    0  502  0.15656708466E+04 -0.12380034889E+03  0.61524957186E+03  0.16867672549E+04  0.10100000352E+00 0. -1.
</event>
<event>
 5   0  0.1126221E-06  0.3310771E+04  0.7818609E-02  0.8160160E-01
       -2   -1    0    0    0  501  0.00000000000E+00  0.00000000000E+00  0.19397898206E+04  0.19397898206E+04  0.25500000920E-02 0. -1.
        2   -1    0    0  501    0  0.00000000000E+00  0.00000000000E+00 -0.14126791777E+04  0.14126791777E+04  0.25500000920E-02 0.  1.
    10030    2    1    2    0    0  0.00000000000E+00  0.00000000000E+00  0.52711064290E+03  0.33524689983E+04  0.33107707192E+04 0.  0.
        2    1    3    3  502    0 -0.11915295712E+04  0.84721777801E+03  0.10497228178E+04  0.17998440701E+04  0.25500000920E-02 0. -1.
       -2    1    3    3    0  502  0.11915295712E+04 -0.84721777801E+03 -0.52261217494E+03  0.15526249282E+04  0.25500000920E-02 0.  1.
</event>
<event>
 5   0  0.1116462E-06  0.3390661E+04  0.7818609E-02  0.8140202E-01
        2   -1    0    0  501    0  0.00000000000E+00  0.00000000000E+00  0.20985232024E+04  0.20985232024E+04  0.25500000920E-02 0.  1.
       -2   -1    0    0    0  501  0.00000000000E+00  0.00000000000E+00 -0.13696038897E+04  0.13696038897E+04  0.25500000920E-02 0. -1.
    10030    2    1    2    0    0  0.00000000000E+00  0.00000000000E+00  0.72891931270E+03  0.34681270922E+04  0.33906610216E+04 0.  0.
        1    1    3    3  502    0  0.16927997573E+03 -0.13463562588E+04  0.14039532718E+04  0.19525408255E+04  0.50400001928E-02 0.  1.
       -1    1    3    3    0  502 -0.16927997573E+03  0.13463562588E+04 -0.67503395906E+03  0.15155862667E+04  0.50400001928E-02 0. -1.
</event>
<event>
 5   0  0.1120545E-06  0.3269684E+04  0.7818609E-02  0.8170652E-01
       -2   -1    0    0    0  501  0.00000000000E+00  0.00000000000E+00  0.17578997857E+04  0.17578997857E+04  0.25500000920E-02 0. -1.
        2   -1    0    0  501    0  0.00000000000E+00  0.00000000000E+00 -0.15203984210E+04  0.15203984210E+04  0.25500000920E-02 0.  1.
    10030    2    1    2    0    0  0.00000000000E+00  0.00000000000E+00  0.23750136474E+03  0.32782982067E+04  0.32696838125E+04 0.  0.
        4    1    3    3  502    0  0.10612408378E+03 -0.13237087403E+04  0.10748033052E+04  0.17084118087E+04  0.12699999809E+01 0. -1.
       -4    1    3    3    0  502 -0.10612408378E+03  0.13237087403E+04 -0.83730194044E+03  0.15698863980E+04  0.12699999809E+01 0.  1.
</event>
<event>
 5   0  0.3796529E-07  0.3313731E+04  0.7818609E-02  0.8159410E-01
       -1   -1    0    0    0  501  0.00000000000E+00  0.00000000000E+00  0.18738223449E+04  0.18738223449E+04  0.50400001928E-02 0.  1.
        1   -1    0    0  501    0  0.00000000000E+00  0.00000000000E+00 -0.14650289122E+04  0.14650289122E+04  0.50400001928E-02 0. -1.
    10030    2    1    2    0    0  0.00000000000E+00  0.00000000000E+00  0.40879343276E+03  0.33388512571E+04  0.33137313781E+04 0.  0.
        5    1    3    3  502    0 -0.13926636770E+04  0.89668681208E+03  0.24498189699E+03  0.16743946895E+04  0.46999998093E+01 0.  1.
       -5    1    3    3    0  502  0.13926636770E+04 -0.89668681208E+03  0.16381153577E+03  0.16644565676E+04  0.46999998093E+01 0. -1.
</event>
<event>
 5   0  0.1116462E-06  0.3269090E+04  0.7818609E-02  0.8170805E-01
        2   -1    0    0  501    0  0.00000000000E+00  0.00000000000E+00  0.19081425826E+04  0.19081425826E+04  0.25500000920E-02 0.  1.
       -2   -1    0    0    0  501  0.00000000000E+00  0.00000000000E+00 -0.14001766783E+04  0.14001766783E+04  0.25500000920E-02 0. -1.
    10030    2    1    2    0    0  0.00000000000E+00  0.00000000000E+00  0.50796590425E+03  0.33083192609E+04  0.32690896244E+04 0.  0.
        1    1    3    3  502    0 -0.61432509997E+03  0.14736634318E+04  0.60841064522E+03  0.17085791618E+04  0.50400001928E-02 0.  1.
       -1    1    3    3    0  502  0.61432509997E+03 -0.14736634318E+04 -0.10044474097E+03  0.15997400991E+04  0.50400001928E-02 0. -1.
</event>
<event>
 5   0  0.1129434E-06  0.3293408E+04  0.7818609E-02  0.8164575E-01
       -2   -1    0    0    0  501  0.00000000000E+00  0.00000000000E+00  0.23497593172E+04  0.23497593172E+04  0.25500000920E-02 0.  1.
        2   -1    0    0  501    0  0.00000000000E+00  0.00000000000E+00 -0.11540051801E+04  0.11540051801E+04  0.25500000920E-02 0. -1.
    10030    2    1    2    0    0  0.00000000000E+00  0.00000000000E+00  0.11957541371E+04  0.35037644972E+04  0.32934082188E+04 0.  0.
        3    1    3    3  502    0  0.13388200035E+03 -0.54064269182E+03 -0.10507521699E+04  0.11892430547E+04  0.10100000352E+00 0. -1.
       -3    1    3    3    0  502 -0.13388200035E+03  0.54064269182E+03  0.22465063071E+04  0.23145214426E+04  0.10100000352E+00 0.  1.
</event>
<event>
 5   0  0.3709747E-07  0.3289075E+04  0.7818609E-02  0.8165681E-01
       -1   -1    0    0    0  501  0.00000000000E+00  0.00000000000E+00  0.13162089276E+04  0.13162089276E+04  0.50400001928E-02 0. -1.
        1   -1    0    0  501    0  0.00000000000E+00  0.00000000000E+00 -0.20547682346E+04  0.20547682346E+04  0.50400001928E-02 0.  1.
    10030    2    1    2    0    0  0.00000000000E+00  0.00000000000E+00 -0.73855930695E+03  0.33709771622E+04  0.32890754291E+04 0.  0.
        4    1    3    3  502    0  0.24499197830E+03  0.11580025394E+04 -0.15394240274E+04  0.19418596499E+04  0.12699999809E+01 0.  1.
       -4    1    3    3    0  502 -0.24499197830E+03 -0.11580025394E+04  0.80086472044E+03  0.14291175123E+04  0.12699999809E+01 0. -1.
</event>
<event>
 5   0  0.1146799E-06  0.3307980E+04  0.7818609E-02  0.8160868E-01
        2   -1    0    0  501    0  0.00000000000E+00  0.00000000000E+00  0.11762976143E+04  0.11762976143E+04  0.25500000920E-02 0. -1.
       -2   -1    0    0    0  501  0.00000000000E+00  0.00000000000E+00 -0.23256720841E+04  0.23256720841E+04  0.25500000920E-02 0.  1.
    10030    2    1    2    0    0  0.00000000000E+00  0.00000000000E+00 -0.11493744698E+04  0.35019696984E+04  0.33079797606E+04 0.  0.
        5    1    3    3  502    0  0.14748435576E+03  0.11979287792E+04 -0.17718788420E+04  0.21439127119E+04  0.46999998093E+01 0.  1.
       -5    1    3    3    0  502 -0.14748435576E+03 -0.11979287792E+04  0.62250437219E+03  0.13580569865E+04  0.46999998093E+01 0. -1.
</event>
<event>
 5   0  0.1126221E-06  0.3333931E+04  0.7818609E-02  0.8154315E-01
        2   -1    0    0  501    0  0.00000000000E+00  0.00000000000E+00  0.23359561340E+04  0.23359561340E+04  0.25500000920E-02 0. -1.
       -2   -1    0    0    0  501  0.00000000000E+00  0.00000000000E+00 -0.11895660296E+04  0.11895660296E+04  0.25500000920E-02 0.  1.
    10030    2    1    2    0    0  0.00000000000E+00  0.00000000000E+00  0.11463901044E+04  0.35255221635E+04  0.33339310512E+04 0.  0.
        2    1    3    3  502    0  0.23734620636E+03 -0.99819928026E+03 -0.81609249309E+03  0.13110080023E+04  0.25500000920E-02 0.  1.
       -2    1    3    3    0  502 -0.23734620636E+03  0.99819928026E+03  0.19624825975E+04  0.22145141613E+04  0.25500000920E-02 0. -1.
</event>
<event>
 5   0  0.1126221E-06  0.3307498E+04  0.7818609E-02  0.8160990E-01
        2   -1    0    0  501    0  0.00000000000E+00  0.00000000000E+00  0.94237321881E+03  0.94237321881E+03  0.25500000920E-02 0. -1.
       -2   -1    0    0    0  501  0.00000000000E+00  0.00000000000E+00 -0.29021259518E+04  0.29021259518E+04  0.25500000920E-02 0.  1.
    10030    2    1    2    0    0  0.00000000000E+00  0.00000000000E+00 -0.19597527330E+04  0.38444991706E+04  0.33074980119E+04 0.  0.
        2    1    3    3  502    0  0.10707839262E+04  0.11732632472E+04 -0.44498809174E+03  0.16495876047E+04  0.25500000920E-02 0.  1.
       -2    1    3    3    0  502 -0.10707839262E+04 -0.11732632472E+04 -0.15147646413E+04  0.21949115659E+04  0.25500000920E-02 0. -1.
</event>
<event>
 5   0  0.3749685E-07  0.3309479E+04  0.7818609E-02  0.8160488E-01
        1   -1    0    0  501    0  0.00000000000E+00  0.00000000000E+00  0.19833800205E+04  0.19833800205E+04  0.50400001928E-02 0.  1.
       -1   -1    0    0    0  501  0.00000000000E+00  0.00000000000E+00 -0.13805537505E+04  0.13805537505E+04  0.50400001928E-02 0. -1.
    10030    2    1    2    0    0  0.00000000000E+00  0.00000000000E+00  0.60282626994E+03  0.33639337710E+04  0.33094789475E+04 0.  0.
        3    1    3    3  502    0 -0.30527672941E+03  0.55129636935E+03 -0.12538086736E+04  0.14032668202E+04  0.10100000352E+00 0. -1.
       -3    1    3    3    0  502  0.30527672941E+03 -0.55129636935E+03  0.18566349435E+04  0.19606669509E+04  0.10100000352E+00 0.  1.
</event>
<event>
 5   0  0.3674967E-07  0.3326224E+04  0.7818609E-02  0.8156255E-01
       -1   -1    0    0    0  501  0.00000000000E+00  0.00000000000E+00  0.16602625431E+04  0.16602625431E+04  0.50400001928E-02 0.  1.
        1   -1    0    0  501    0  0.00000000000E+00  0.00000000000E+00 -0.16659665583E+04  0.16659665583E+04  0.50400001928E-02 0. -1.
    10030    2    1    2    0    0  0.00000000000E+00  0.00000000000E+00 -0.57040152528E+01  0.33262291014E+04  0.33262242106E+04 0.  0.
        2    1    3    3  502    0  0.26864713450E+03 -0.42382323270E+03 -0.15884597311E+04  0.16658336450E+04  0.25500000920E-02 0. -1.
       -2    1    3    3    0  502 -0.26864713450E+03  0.42382323270E+03  0.15827557159E+04  0.16603954564E+04  0.25500000920E-02 0.  1.
</event>
<event>
 5   0  0.1116462E-06  0.3296815E+04  0.7818609E-02  0.8163706E-01
       -2   -1    0    0    0  501  0.00000000000E+00  0.00000000000E+00  0.21861979953E+04  0.21861979953E+04  0.25500000920E-02 0. -1.
        2   -1    0    0  501    0  0.00000000000E+00  0.00000000000E+00 -0.12429103189E+04  0.12429103189E+04  0.25500000920E-02 0.  1.
    10030    2    1    2    0    0  0.00000000000E+00  0.00000000000E+00  0.94328767639E+03  0.34291083142E+04  0.32968154620E+04 0.  0.
        1    1    3    3  502    0 -0.13728822070E+04  0.40346883463E+03 -0.37951820847E+03  0.14804143763E+04  0.50400001928E-02 0.  1.
       -1    1    3    3    0  502  0.13728822070E+04 -0.40346883463E+03  0.13228058849E+04  0.19486939380E+04  0.50400001928E-02 0. -1.
</event>
<event>
 5   0  0.3674967E-07  0.3287130E+04  0.7818609E-02  0.8166178E-01
        1   -1    0    0  501    0  0.00000000000E+00  0.00000000000E+00  0.23009847589E+04  0.23009847589E+04  0.50400001928E-02 0.  1.
       -1   -1    0    0    0  501  0.00000000000E+00  0.00000000000E+00 -0.11739782551E+04  0.11739782551E+04  0.50400001928E-02 0. -1.
    10030    2    1    2    0    0  0.00000000000E+00  0.00000000000E+00  0.11270065038E+04  0.34749630140E+04  0.32871300992E+04 0.  0.
        2    1    3    3  502    0  0.92441511857E+03  0.67815440537E+03 -0.68144434342E+03  0.13337177745E+04  0.25500000920E-02 0. -1.
       -2    1    3    3    0  502 -0.92441511857E+03 -0.67815440537E+03  0.18084508472E+04  0.21412452395E+04  0.25500000920E-02 0.  1.
</event>
<event>
 5   0  0.3796529E-07  0.3285695E+04  0.7818609E-02  0.8166545E-01
        1   -1    0    0  501    0  0.00000000000E+00  0.00000000000E+00  0.11583666193E+04  0.11583666193E+04  0.50400001928E-02 0. -1.
       -1   -1    0    0    0  501  0.00000000000E+00  0.00000000000E+00 -0.23299605845E+04  0.23299605845E+04  0.50400001928E-02 0.  1.
    10030    2    1    2    0    0  0.00000000000E+00  0.00000000000E+00 -0.11715939652E+04  0.34883272038E+04  0.32856954000E+04 0.  0.
        5    1    3    3  502    0 -0.67702705006E+03  0.11316855715E+04 -0.16259357577E+04  0.20935059201E+04  0.46999998093E+01 0.  1.
       -5    1    3    3    0  502  0.67702705006E+03 -0.11316855715E+04  0.45434179249E+03  0.13948212837E+04  0.46999998093E+01 0. -1.
</event>
<event>
 5   0  0.1146799E-06  0.3302034E+04  0.7818609E-02  0.8162378E-01
        2   -1    0    0  501    0  0.00000000000E+00  0.00000000000E+00  0.17858010420E+04  0.17858010420E+04  0.25500000920E-02 0.  1.
       -2   -1    0    0    0  501  0.00000000000E+00  0.00000000000E+00 -0.15264057879E+04  0.15264057879E+04  0.25500000920E-02 0. -1.
    10030    2    1    2    0    0  0.00000000000E+00  0.00000000000E+00  0.25939525412E+03  0.33122068299E+04  0.33020339469E+04 0.  0.
        5    1    3    3  502    0 -0.54682498854E+03  0.52277349623E+03  0.16017080995E+04  0.17713838157E+04  0.46999998093E+01 0.  1.
       -5    1    3    3    0  502  0.54682498854E+03 -0.52277349623E+03 -0.13423128453E+04  0.15408230142E+04  0.46999998093E+01 0. -1.
</event>
<event>
 5   0  0.3674967E-07  0.3298410E+04  0.7818609E-02  0.8163300E-01
        1   -1    0    0  501    0  0.00000000000E+00  0.00000000000E+00  0.13816982157E+04  0.13816982157E+04  0.50400001928E-02 0. -1.
       -1   -1    0    0    0  501  0.00000000000E+00  0.00000000000E+00 -0.19685032911E+04  0.19685032911E+04  0.50400001928E-02 0.  1.
    10030    2    1    2    0    0  0.00000000000E+00  0.00000000000E+00 -0.58680507538E+03  0.33502015068E+04  0.32984102140E+04 0.  0.
        2    1    3    3  502    0 -0.88987694768E+03 -0.13174112647E+04 -0.73895202943E+03  0.17531410452E+04  0.25500000920E-02 0.  1.
       -2    1    3    3    0  502  0.88987694768E+03  0.13174112647E+04  0.15214695405E+03  0.15970604616E+04  0.25500000920E-02 0. -1.
</event>
<event>
 5   0  0.3749685E-07  0.3298494E+04  0.7818609E-02  0.8163279E-01
       -1   -1    0    0    0  501  0.00000000000E+00  0.00000000000E+00  0.11334833416E+04  0.11334833416E+04  0.50400001928E-02 0. -1.
        1   -1    0    0  501    0  0.00000000000E+00  0.00000000000E+00 -0.23996960232E+04  0.23996960232E+04  0.50400001928E-02 0.  1.
    10030    2    1    2    0    0  0.00000000000E+00  0.00000000000E+00 -0.12662126816E+04  0.35331793648E+04  0.32984938789E+04 0.  0.
        3    1    3    3  502    0 -0.15818870900E+04  0.18389349721E+02 -0.13377321089E+03  0.15876398256E+04  0.10100000352E+00 0.  1.
       -3    1    3    3    0  502  0.15818870900E+04 -0.18389349721E+02 -0.11324394707E+04  0.19455395392E+04  0.10100000352E+00 0. -1.
</event>
<event>
 5   0  0.3796529E-07  0.3313554E+04  0.7818609E-02  0.8159455E-01
       -1   -1    0    0    0  501  0.00000000000E+00  0.00000000000E+00  0.16157396857E+04  0.16157396857E+04  0.50400001928E-02 0.  1.
        1   -1    0    0  501    0  0.00000000000E+00  0.00000000000E+00 -0.16988566290E+04  0.16988566290E+04  0.50400001928E-02 0. -1.
    10030    2    1    2    0    0  0.00000000000E+00  0.00000000000E+00 -0.83116943226E+02  0.33145963147E+04  0.33135540290E+04 0.  0.
        5    1    3    3  502    0  0.70759408026E+03 -0.12767737745E+03 -0.15346421568E+04  0.16947387806E+04  0.46999998093E+01 0. -1.
       -5    1    3    3    0  502 -0.70759408026E+03  0.12767737745E+03  0.14515252136E+04  0.16198575341E+04  0.46999998093E+01 0.  1.
</event>
<event>
 5   0  0.1126221E-06  0.3293848E+04  0.7818609E-02  0.8164462E-01
       -2   -1    0    0    0  501  0.00000000000E+00  0.00000000000E+00  0.16698131915E+04  0.16698131915E+04  0.25500000920E-02 0.  1.
        2   -1    0    0  501    0  0.00000000000E+00  0.00000000000E+00 -0.16243486683E+04  0.16243486683E+04  0.25500000920E-02 0. -1.
    10030    2    1    2    0    0  0.00000000000E+00  0.00000000000E+00  0.45464523217E+02  0.32941618598E+04  0.32938481045E+04 0.  0.
        2    1    3    3  502    0 -0.11338783688E+04  0.99989149430E+03 -0.63070251704E+03  0.16380625204E+04  0.25500000920E-02 0. -1.
       -2    1    3    3    0  502  0.11338783688E+04 -0.99989149430E+03  0.67616704026E+03  0.16560993394E+04  0.25500000920E-02 0.  1.
</event>
<event>
 5   0  0.1129434E-06  0.3313660E+04  0.7818609E-02  0.8159428E-01
       -2   -1    0    0    0  501  0.00000000000E+00  0.00000000000E+00  0.11194904173E+04  0.11194904173E+04  0.25500000920E-02 0. -1.
        2   -1    0    0  501    0  0.00000000000E+00  0.00000000000E+00 -0.24520847038E+04  0.24520847038E+04  0.25500000920E-02 0.  1.
    10030    2    1    2    0    0  0.00000000000E+00  0.00000000000E+00 -0.13325942865E+04  0.35715751211E+04  0.33136598065E+04 0.  0.
        3    1    3    3  502    0  0.63058287143E+03  0.15220905001E+04 -0.85512144301E+03  0.18562400009E+04  0.10100000352E+00 0.  1.
       -3    1    3    3    0  502 -0.63058287143E+03 -0.15220905001E+04 -0.47747284353E+03  0.17153351203E+04  0.10100000352E+00 0. -1.
</event>
<event>
 5   0  0.3749685E-07  0.3278422E+04  0.7818609E-02  0.8168408E-01
       -1   -1    0    0    0  501  0.00000000000E+00  0.00000000000E+00  0.25484055170E+04  0.25484055170E+04  0.50400001928E-02 0.  1.
        1   -1    0    0  501    0  0.00000000000E+00  0.00000000000E+00 -0.10543897283E+04  0.10543897283E+04  0.50400001928E-02 0. -1.
    10030    2    1    2    0    0  0.00000000000E+00  0.00000000000E+00  0.14940157887E+04  0.36027952453E+04  0.32784219378E+04 0.  0.
        3    1    3    3  502    0  0.79792359562E+03  0.40730265151E+02 -0.82592756930E+03  0.11491289653E+04  0.10100000352E+00 0. -1.
       -3    1    3    3    0  502 -0.79792359562E+03 -0.40730265151E+02  0.23199433580E+04  0.24536662800E+04  0.10100000352E+00 0.  1.
</event>
<event>
 5   0  0.1116462E-06  0.3285832E+04  0.7818609E-02  0.8166510E-01
       -2   -1    0    0    0  501  0.00000000000E+00  0.00000000000E+00  0.18282059937E+04  0.18282059937E+04  0.25500000920E-02 0.  1.
        2   -1    0    0  501    0  0.00000000000E+00  0.00000000000E+00 -0.14764054169E+04  0.14764054169E+04  0.25500000920E-02 0. -1.
    10030    2    1    2    0    0  0.00000000000E+00  0.00000000000E+00  0.35180057684E+03  0.33046114107E+04  0.32858321518E+04 0.  0.
        1    1    3    3  502    0  0.10787143278E+04 -0.87468495255E+02  0.14190464386E+04  0.17846479018E+04  0.50400001928E-02 0.  1.
       -1    1    3    3    0  502 -0.10787143278E+04  0.87468495255E+02 -0.10672458618E+04  0.15199635088E+04  0.50400001928E-02 0. -1.
</event>
<event>
 5   0  0.1116462E-06  0.3275029E+04  0.7818609E-02  0.8169278E-01
       -2   -1    0    0    0  501  0.00000000000E+00  0.00000000000E+00  0.11536021573E+04  0.11536021573E+04  0.25500000920E-02 0. -1.
        2   -1    0    0  501    0  0.00000000000E+00  0.00000000000E+00 -0.23244182930E+04  0.23244182930E+04  0.25500000920E-02 0.  1.
    10030    2    1    2    0    0  0.00000000000E+00  0.00000000000E+00 -0.11708161357E+04  0.34780204503E+04  0.32750291341E+04 0.  0.
        1    1    3    3  502    0 -0.63445232895E+03 -0.14349434888E+03 -0.21813276691E+04  0.22762492803E+04  0.50400001928E-02 0.  1.
       -1    1    3    3    0  502  0.63445232895E+03  0.14349434888E+03  0.10105115334E+04  0.12017711700E+04  0.50400001928E-02 0. -1.
</event>
<event>
 5   0  0.1146799E-06  0.3327274E+04  0.7818609E-02  0.8155990E-01
       -2   -1    0    0    0  501  0.00000000000E+00  0.00000000000E+00  0.10160118811E+04  0.10160118811E+04  0.25500000920E-02 0.  1.
        2   -1    0    0  501    0  0.00000000000E+00  0.00000000000E+00 -0.27240698350E+04  0.27240698350E+04  0.25500000920E-02 0. -1.
    10030    2    1    2    0    0  0.00000000000E+00  0.00000000000E+00 -0.17080579539E+04  0.37400817161E+04  0.33272735489E+04 0.  0.
        5    1    3    3  502    0 -0.44338203015E+03  0.11842044639E+04 -0.20692381880E+04  0.24250147640E+04  0.46999998093E+01 0. -1.
       -5    1    3    3    0  502  0.44338203015E+03 -0.11842044639E+04  0.36118023414E+03  0.13150669521E+04  0.46999998093E+01 0.  1.
</event>
<event>
 5   0  0.1129434E-06  0.3319346E+04  0.7818609E-02  0.8157990E-01
       -2   -1    0    0    0  501  0.00000000000E+00  0.00000000000E+00  0.99420815720E+03  0.99420815721E+03  0.25500000920E-02 0.  1.
        2   -1    0    0  501    0  0.00000000000E+00  0.00000000000E+00 -0.27705609482E+04  0.27705609482E+04  0.25500000920E-02 0. -1.
    10030    2    1    2    0    0  0.00000000000E+00  0.00000000000E+00 -0.17763527910E+04  0.37647691054E+04  0.33193458962E+04 0.  0.
        3    1    3    3  502    0  0.34534172175E+03 -0.15732157077E+04 -0.13422006457E+04  0.20966094418E+04  0.10100000352E+00 0. -1.
       -3    1    3    3    0  502 -0.34534172175E+03  0.15732157077E+04 -0.43415214526E+03  0.16681596636E+04  0.10100000352E+00 0.  1.
</event>
<event>
 5   0  0.3757406E-07  0.3285512E+04  0.7818609E-02  0.8166592E-01
        1   -1    0    0  501    0  0.00000000000E+00  0.00000000000E+00  0.10746441600E+04  0.10746441600E+04  0.50400001928E-02 0.  1.
       -1   -1    0    0    0  501  0.00000000000E+00  0.00000000000E+00 -0.25112000881E+04  0.25112000881E+04  0.50400001928E-02 0. -1.
    10030    2    1    2    0    0  0.00000000000E+00  0.00000000000E+00 -0.14365559281E+04  0.35858442481E+04  0.32855115335E+04 0.  0.
        1    1    3    3  502    0  0.83795455135E+03  0.13751715974E+04 -0.36397797171E+03  0.16509829546E+04  0.50400001928E-02 0.  1.
       -1    1    3    3    0  502 -0.83795455135E+03 -0.13751715974E+04 -0.10725779564E+04  0.19348612935E+04  0.50400001928E-02 0. -1.
</event>
<event>
 5   0  0.3757406E-07  0.3319795E+04  0.7818609E-02  0.8157877E-01
       -1   -1    0    0    0  501  0.00000000000E+00  0.00000000000E+00  0.87339938529E+03  0.87339938531E+03  0.50400001928E-02 0. -1.
        1   -1    0    0  501    0  0.00000000000E+00  0.00000000000E+00 -0.31546396259E+04  0.31546396259E+04  0.50400001928E-02 0.  1.
    10030    2    1    2    0    0  0.00000000000E+00  0.00000000000E+00 -0.22812402406E+04  0.40280390112E+04  0.33197953612E+04 0.  0.
        1    1    3    3  502    0  0.26045014746E+03 -0.13289284150E+04 -0.23052840805E+04  0.26736154741E+04  0.50400001928E-02 0.  1.
       -1    1    3    3    0  502 -0.26045014746E+03  0.13289284150E+04  0.24043839866E+02  0.13544235371E+04  0.50400001928E-02 0. -1.
</event>
<event>
 5   0  0.3749685E-07  0.3325006E+04  0.7818609E-02  0.8156562E-01
        1   -1    0    0  501    0  0.00000000000E+00  0.00000000000E+00  0.18046111276E+04  0.18046111276E+04  0.50400001928E-02 0. -1.
       -1   -1    0    0    0  501  0.00000000000E+00  0.00000000000E+00 -0.15315852834E+04  0.15315852834E+04  0.50400001928E-02 0.  1.
    10030    2    1    2    0    0  0.00000000000E+00  0.00000000000E+00  0.27302584424E+03  0.33361964110E+04  0.33250057716E+04 0.  0.
        3    1    3    3  502    0 -0.15804257983E+04  0.50739352704E+03  0.42807278052E+02  0.16604295735E+04  0.10100000352E+00 0.  1.
       -3    1    3    3    0  502  0.15804257983E+04 -0.50739352704E+03  0.23021856619E+03  0.16757668375E+04  0.10100000352E+00 0. -1.
</event>
<event>
 5   0  0.1146799E-06  0.3300343E+04  0.7818609E-02  0.8162808E-01
       -2   -1    0    0    0  501  0.00000000000E+00  0.00000000000E+00  0.16530594685E+04  0.16530594685E+04  0.25500000920E-02 0.  1.
        2   -1    0    0  501    0  0.00000000000E+00  0.00000000000E+00 -0.16472883674E+04  0.16472883674E+04  0.25500000920E-02 0. -1.
    10030    2    1    2    0    0  0.00000000000E+00  0.00000000000E+00  0.57711010956E+01  0.33003478360E+04  0.33003427902E+04 0.  0.
        5    1    3    3  502    0 -0.16108326733E+04  0.10083678886E+03 -0.34076244522E+03  0.16495730033E+04  0.46999998093E+01 0. -1.
       -5    1    3    3    0  502  0.16108326733E+04 -0.10083678886E+03  0.34653354632E+03  0.16507748326E+04  0.46999998093E+01 0.  1.
</event>
<event>
 5   0  0.1116462E-06  0.3047109E+04  0.7818609E-02  0.8230405E-01
       -2   -1    0    0    0  501  0.00000000000E+00  0.00000000000E+00  0.11116285885E+04  0.11116285885E+04  0.25500000920E-02 0. -1.
        2   -1    0    0  501    0  0.00000000000E+00  0.00000000000E+00 -0.20881244892E+04  0.20881244892E+04  0.25500000920E-02 0.  1.
    10030    2    1    2    0    0  0.00000000000E+00  0.00000000000E+00 -0.97649590064E+03  0.31997530777E+04  0.30471093703E+04 0.  0.
        1    1    3    3  502    0 -0.31314060493E+03  0.63123822378E+03  0.93023518279E+03  0.11669859592E+04  0.50400001928E-02 0. -1.
       -1    1    3    3    0  502  0.31314060493E+03 -0.63123822378E+03 -0.19067310834E+04  0.20327671185E+04  0.50400001928E-02 0.  1.
</event>
<event>
 5   0  0.3796529E-07  0.3314417E+04  0.7818609E-02  0.8159237E-01
        1   -1    0    0  501    0  0.00000000000E+00  0.00000000000E+00  0.18805459622E+04  0.18805459622E+04  0.50400001928E-02 0.  1.
       -1   -1    0    0    0  501  0.00000000000E+00  0.00000000000E+00 -0.14603948972E+04  0.14603948972E+04  0.50400001928E-02 0. -1.
    10030    2    1    2    0    0  0.00000000000E+00  0.00000000000E+00  0.42015106497E+03  0.33409408594E+04  0.33144168278E+04 0.  0.
        5    1    3    3  502    0 -0.83253286168E+02  0.14393715675E+04  0.10336796923E+04  0.17740454941E+04  0.46999998093E+01 0.  1.
       -5    1    3    3    0  502  0.83253286168E+02 -0.14393715675E+04 -0.61352862731E+03  0.15668953652E+04  0.46999998093E+01 0. -1.
</event>
<event>
 5   0  0.3796529E-07  0.3312819E+04  0.7818609E-02  0.8159641E-01
       -1   -1    0    0    0  501  0.00000000000E+00  0.00000000000E+00  0.26096336799E+04  0.26096336799E+04  0.50400001928E-02 0.  1.
        1   -1    0    0  501    0  0.00000000000E+00  0.00000000000E+00 -0.10513707916E+04  0.10513707916E+04  0.50400001928E-02 0. -1.
    10030    2    1    2    0    0  0.00000000000E+00  0.00000000000E+00  0.15582628883E+04  0.36610044716E+04  0.33128191185E+04 0.  0.
        5    1    3    3  502    0  0.59135387053E+03  0.29372478388E+03 -0.89964133177E+03  0.11159526265E+04  0.46999998093E+01 0. -1.
       -5    1    3    3    0  502 -0.59135387053E+03 -0.29372478388E+03  0.24579042201E+04  0.25450518450E+04  0.46999998093E+01 0.  1.
</event>
<event>
 5   0  0.1116462E-06  0.3311721E+04  0.7818609E-02  0.8159919E-01
        2   -1    0    0  501    0  0.00000000000E+00  0.00000000000E+00  0.20623205703E+04  0.20623205703E+04  0.25500000920E-02 0. -1.
       -2   -1    0    0    0  501  0.00000000000E+00  0.00000000000E+00 -0.13295091253E+04  0.13295091253E+04  0.25500000920E-02 0.  1.
    10030    2    1    2    0    0  0.00000000000E+00  0.00000000000E+00  0.73281144497E+03  0.33918296956E+04  0.33117210134E+04 0.  0.
        1    1    3    3  502    0 -0.48230747748E+02  0.80754622243E+03  0.18461439489E+04  0.20156151881E+04  0.50400001928E-02 0. -1.
       -1    1    3    3    0  502  0.48230747748E+02 -0.80754622243E+03 -0.11133325039E+04  0.13762145075E+04  0.50400001928E-02 0.  1.
</event>
<event>
 5   0  0.3749685E-07  0.3296239E+04  0.7818609E-02  0.8163853E-01
       -1   -1    0    0    0  501  0.00000000000E+00  0.00000000000E+00  0.11077604524E+04  0.11077604524E+04  0.50400001928E-02 0.  1.
        1   -1    0    0  501    0  0.00000000000E+00  0.00000000000E+00 -0.24520624437E+04  0.24520624437E+04  0.50400001928E-02 0. -1.
    10030    2    1    2    0    0  0.00000000000E+00  0.00000000000E+00 -0.13443019913E+04  0.35598228961E+04  0.32962389488E+04 0.  0.
        3    1    3    3  502    0 -0.12974066575E+04 -0.71881869115E+03 -0.14481744263E+04  0.20729624996E+04  0.10100000352E+00 0. -1.
       -3    1    3    3    0  502  0.12974066575E+04  0.71881869115E+03  0.10387243501E+03  0.14868603965E+04  0.10100000352E+00 0.  1.
</event>
<event>
 5   0  0.3674967E-07  0.3245230E+04  0.7818609E-02  0.8176973E-01
        1   -1    0    0  501    0  0.00000000000E+00  0.00000000000E+00  0.18696915832E+04  0.18696915832E+04  0.50400001928E-02 0. -1.
       -1   -1    0    0    0  501  0.00000000000E+00  0.00000000000E+00 -0.14081888779E+04  0.14081888779E+04  0.50400001928E-02 0.  1.
    10030    2    1    2    0    0  0.00000000000E+00  0.00000000000E+00  0.46150270531E+03  0.32778804612E+04  0.32452296638E+04 0.  0.
        2    1    3    3  502    0 -0.40296745725E+03  0.11205075624E+04  0.13440930431E+04  0.17956909749E+04  0.25500000920E-02 0. -1.
       -2    1    3    3    0  502  0.40296745725E+03 -0.11205075624E+04 -0.88259033775E+03  0.14821894863E+04  0.25500000920E-02 0.  1.
</event>
<event>
 5   0  0.3709747E-07  0.3285804E+04  0.7818609E-02  0.8166517E-01
        1   -1    0    0  501    0  0.00000000000E+00  0.00000000000E+00  0.19917217863E+04  0.19917217863E+04  0.50400001928E-02 0. -1.
       -1   -1    0    0    0  501  0.00000000000E+00  0.00000000000E+00 -0.13551722975E+04  0.13551722975E+04  0.50400001928E-02 0.  1.
    10030    2    1    2    0    0  0.00000000000E+00  0.00000000000E+00  0.63654948880E+03  0.33468940838E+04  0.32858035176E+04 0.  0.
        4    1    3    3  502    0  0.16182654252E+04  0.26454384507E+03  0.42194193968E+03  0.16931636205E+04  0.12699999809E+01 0. -1.
       -4    1    3    3    0  502 -0.16182654252E+04 -0.26454384507E+03  0.21460754913E+03  0.16537304633E+04  0.12699999809E+01 0.  1.
</event>
<event>
 5   0  0.3709747E-07  0.3073966E+04  0.7818609E-02  0.8222919E-01
       -1   -1    0    0    0  501  0.00000000000E+00  0.00000000000E+00  0.15317280598E+04  0.15317280598E+04  0.50400001928E-02 0. -1.
        1   -1    0    0  501    0  0.00000000000E+00  0.00000000000E+00 -0.15422563604E+04  0.15422563604E+04  0.50400001928E-02 0.  1.
    10030    2    1    2    0    0  0.00000000000E+00  0.00000000000E+00 -0.10528300556E+02  0.30739844202E+04  0.30739663906E+04 0.  0.
        4    1    3    3  502    0  0.79390565920E+02 -0.90489085747E+03 -0.12451042351E+04  0.15412386236E+04  0.12699999809E+01 0.  1.
       -4    1    3    3    0  502 -0.79390565920E+02  0.90489085747E+03  0.12345759345E+04  0.15327457965E+04  0.12699999809E+01 0. -1.
</event>
<event>
 5   0  0.3757406E-07  0.3288862E+04  0.7818609E-02  0.8165735E-01
       -1   -1    0    0    0  501  0.00000000000E+00  0.00000000000E+00  0.15979897887E+04  0.15979897887E+04  0.50400001928E-02 0.  1.
        1   -1    0    0  501    0  0.00000000000E+00  0.00000000000E+00 -0.16922221186E+04  0.16922221186E+04  0.50400001928E-02 0. -1.
    10030    2    1    2    0    0  0.00000000000E+00  0.00000000000E+00 -0.94232329927E+02  0.32902119074E+04  0.32888622141E+04 0.  0.
        1    1    3    3  502    0 -0.85052249040E+03 -0.18514065948E+03  0.13486223616E+04  0.16051317219E+04  0.50400001928E-02 0.  1.
       -1    1    3    3    0  502  0.85052249040E+03  0.18514065948E+03 -0.14428546915E+04  0.16850801854E+04  0.50400001928E-02 0. -1.
</event>
<event>
 5   0  0.3749685E-07  0.3307376E+04  0.7818609E-02  0.8161021E-01
       -1   -1    0    0    0  501  0.00000000000E+00  0.00000000000E+00  0.15583110450E+04  0.15583110450E+04  0.50400001928E-02 0.  1.
        1   -1    0    0  501    0  0.00000000000E+00  0.00000000000E+00 -0.17549022051E+04  0.17549022051E+04  0.50400001928E-02 0. -1.
    10030    2    1    2    0    0  0.00000000000E+00  0.00000000000E+00 -0.19659116007E+03  0.33132132501E+04  0.33073756902E+04 0.  0.
        3    1    3    3  502    0 -0.20541371134E+02 -0.10631622026E+04  0.11704103096E+04  0.15813273285E+04  0.10100000352E+00 0.  1.
       -3    1    3    3    0  502  0.20541371134E+02  0.10631622026E+04 -0.13670014697E+04  0.17318859215E+04  0.10100000352E+00 0. -1.
</event>
<event>
 5   0  0.3709747E-07  0.3283993E+04  0.7818609E-02  0.8166980E-01
       -1   -1    0    0    0  501  0.00000000000E+00  0.00000000000E+00  0.16776749554E+04  0.16776749554E+04  0.50400001928E-02 0.  1.
        1   -1    0    0  501    0  0.00000000000E+00  0.00000000000E+00 -0.16070767307E+04  0.16070767307E+04  0.50400001928E-02 0. -1.
    10030    2    1    2    0    0  0.00000000000E+00  0.00000000000E+00  0.70598224724E+02  0.32847516861E+04  0.32839929248E+04 0.  0.
        4    1    3    3  502    0  0.25537511265E+03  0.16096746968E+04 -0.16445103978E+03  0.16380826704E+04  0.12699999809E+01 0.  1.
       -4    1    3    3    0  502 -0.25537511265E+03 -0.16096746968E+04  0.23504926451E+03  0.16466690157E+04  0.12699999809E+01 0. -1.
</event>
<event>
 5   0  0.1146799E-06  0.3315335E+04  0.7818609E-02  0.8159004E-01
        2   -1    0    0  501    0  0.00000000000E+00  0.00000000000E+00  0.20916467847E+04  0.20916467847E+04  0.25500000920E-02 0.  1.
       -2   -1    0    0    0  501  0.00000000000E+00  0.00000000000E+00 -0.13137313237E+04  0.13137313237E+04  0.25500000920E-02 0. -1.
    10030    2    1    2    0    0  0.00000000000E+00  0.00000000000E+00  0.77791546100E+03  0.34053781084E+04  0.33153352164E+04 0.  0.
        5    1    3    3  502    0  0.10140168736E+04 -0.34857411197E+03 -0.90953834155E+03  0.14060640868E+04  0.46999998093E+01 0. -1.
       -5    1    3    3    0  502 -0.10140168736E+04  0.34857411197E+03  0.16874538026E+04  0.19993140216E+04  0.46999998093E+01 0.  1.
</event>
<event>
 5   0  0.3674967E-07  0.2892691E+04  0.7818609E-02  0.8275056E-01
       -1   -1    0    0    0  501  0.00000000000E+00  0.00000000000E+00  0.16418582445E+04  0.16418582445E+04  0.50400001928E-02 0. -1.
        1   -1    0    0  501    0  0.00000000000E+00  0.00000000000E+00 -0.12741141071E+04  0.12741141071E+04  0.50400001928E-02 0.  1.
    10030    2    1    2    0    0  0.00000000000E+00  0.00000000000E+00  0.36774413739E+03  0.29159723515E+04  0.28926906168E+04 0.  0.
        2    1    3    3  502    0  0.30951288312E+02  0.41454579374E+03 -0.12125965655E+04  0.12818723134E+04  0.25500000920E-02 0.  1.
       -2    1    3    3    0  502 -0.30951288312E+02 -0.41454579374E+03  0.15803407029E+04  0.16341000381E+04  0.25500000920E-02 0. -1.
</event>
<event>
 5   0  0.3749685E-07  0.3292978E+04  0.7818609E-02  0.8164684E-01
       -1   -1    0    0    0  501  0.00000000000E+00  0.00000000000E+00  0.13474703134E+04  0.13474703134E+04  0.50400001928E-02 0. -1.
        1   -1    0    0  501    0  0.00000000000E+00  0.00000000000E+00 -0.20118634549E+04  0.20118634549E+04  0.50400001928E-02 0.  1.
    10030    2    1    2    0    0  0.00000000000E+00  0.00000000000E+00 -0.66439314150E+03  0.33593337684E+04  0.32929781537E+04 0.  0.
        3    1    3    3  502    0  0.58142838972E+03 -0.33886541995E+03  0.12007601135E+04  0.13764859628E+04  0.10100000352E+00 0. -1.
       -3    1    3    3    0  502 -0.58142838972E+03  0.33886541995E+03 -0.18651532550E+04  0.19828478056E+04  0.10100000352E+00 0.  1.
</event>
<event>
 5   0  0.3674967E-07  0.3335942E+04  0.7818609E-02  0.8153810E-01
       -1   -1    0    0    0  501  0.00000000000E+00  0.00000000000E+00  0.14570792796E+04  0.14570792796E+04  0.50400001928E-02 0.  1.
        1   -1    0    0  501    0  0.00000000000E+00  0.00000000000E+00 -0.19093866906E+04  0.19093866906E+04  0.50400001928E-02 0. -1.
    10030    2    1    2    0    0  0.00000000000E+00  0.00000000000E+00 -0.45230741097E+03  0.33664659702E+04  0.33359423158E+04 0.  0.
        2    1    3    3  502    0 -0.58473920041E+03 -0.17439899935E+03  0.13404009490E+04  0.14727558004E+04  0.25500000920E-02 0.  1.
       -2    1    3    3    0  502  0.58473920041E+03  0.17439899935E+03 -0.17927083599E+04  0.18937101698E+04  0.25500000920E-02 0. -1.
</event>
<event>
 5   0  0.1116462E-06  0.3294122E+04  0.7818609E-02  0.8164393E-01
        2   -1    0    0  501    0  0.00000000000E+00  0.00000000000E+00  0.19986654587E+04  0.19986654587E+04  0.25500000920E-02 0. -1.
       -2   -1    0    0    0  501  0.00000000000E+00  0.00000000000E+00 -0.13573107561E+04  0.13573107561E+04  0.25500000920E-02 0.  1.
    10030    2    1    2    0    0  0.00000000000E+00  0.00000000000E+00  0.64135470260E+03  0.33559762148E+04  0.32941221137E+04 0.  0.
        1    1    3    3  502    0 -0.12797402354E+04  0.26122902100E+03  0.13429299279E+04  0.18733489965E+04  0.50400001928E-02 0. -1.
       -1    1    3    3    0  502  0.12797402354E+04 -0.26122902100E+03 -0.70157522532E+03  0.14826272183E+04  0.50400001928E-02 0.  1.
</event>
<event>
 5   0  0.3757406E-07  0.3291426E+04  0.7818609E-02  0.8165080E-01
       -1   -1    0    0    0  501  0.00000000000E+00  0.00000000000E+00  0.16980279715E+04  0.16980279716E+04  0.50400001928E-02 0.  1.
        1   -1    0    0  501    0  0.00000000000E+00  0.00000000000E+00 -0.15950100793E+04  0.15950100793E+04  0.50400001928E-02 0. -1.
    10030    2    1    2    0    0  0.00000000000E+00  0.00000000000E+00  0.10301789224E+03  0.32930380509E+04  0.32914262742E+04 0.  0.
        1    1    3    3  502    0  0.87974977489E+03 -0.71844173989E+03  0.12429966201E+04  0.16837929794E+04  0.50400001928E-02 0.  1.
       -1    1    3    3    0  502 -0.87974977489E+03  0.71844173989E+03 -0.11399787278E+04  0.16092450714E+04  0.50400001928E-02 0. -1.
</event>
<event>
 5   0  0.1126221E-06  0.3294678E+04  0.7818609E-02  0.8164251E-01
        2   -1    0    0  501    0  0.00000000000E+00  0.00000000000E+00  0.19249322294E+04  0.19249322294E+04  0.25500000920E-02 0. -1.
       -2   -1    0    0    0  501  0.00000000000E+00  0.00000000000E+00 -0.14097773457E+04  0.14097773457E+04  0.25500000920E-02 0.  1.
    10030    2    1    2    0    0  0.00000000000E+00  0.00000000000E+00  0.51515488365E+03  0.33347095751E+04  0.32946780413E+04 0.  0.
        2    1    3    3  502    0  0.99705988323E+03  0.65237630190E+03  0.14089413446E+04  0.18452205729E+04  0.25500000920E-02 0. -1.
       -2    1    3    3    0  502 -0.99705988323E+03 -0.65237630190E+03 -0.89378646092E+03  0.14894890022E+04  0.25500000920E-02 0.  1.
</event>
<event>
 5   0  0.3573375E-07  0.3300898E+04  0.7818609E-02  0.8162667E-01
        3   -1    0    0  501    0  0.00000000000E+00  0.00000000000E+00  0.14231445295E+04  0.14231445331E+04  0.10100000352E+00 0. -1.
       -3   -1    0    0    0  501  0.00000000000E+00  0.00000000000E+00 -0.19140589074E+04  0.19140589100E+04  0.10100000352E+00 0.  1.
    10030    2    1    2    0    0  0.00000000000E+00  0.00000000000E+00 -0.49091437788E+03  0.33372034431E+04  0.33008983466E+04 0.  0.
        3    1    3    3  502    0  0.84962063287E+03  0.89132364896E+03 -0.13564840613E+04  0.18320376868E+04  0.10100000352E+00 0.  1.
       -3    1    3    3    0  502 -0.84962063287E+03 -0.89132364896E+03  0.86556968342E+03  0.15051657563E+04  0.10100000352E+00 0. -1.
</event>
<event>
 5   0  0.3757406E-07  0.3227121E+04  0.7818609E-02  0.8181691E-01
        1   -1    0    0  501    0  0.00000000000E+00  0.00000000000E+00  0.16395426598E+04  0.16395426598E+04  0.50400001928E-02 0. -1.
       -1   -1    0    0    0  501  0.00000000000E+00  0.00000000000E+00 -0.15879898075E+04  0.15879898075E+04  0.50400001928E-02 0.  1.
    10030    2    1    2    0    0  0.00000000000E+00  0.00000000000E+00  0.51552852375E+02  0.32275324673E+04  0.32271207184E+04 0.  0.
        1    1    3    3  502    0  0.62723073657E+03 -0.60798672680E+03 -0.13310509276E+04  0.15920938505E+04  0.50400001928E-02 0.  1.
       -1    1    3    3    0  502 -0.62723073657E+03  0.60798672680E+03  0.13826037800E+04  0.16354386168E+04  0.50400001928E-02 0. -1.
</event>
<event>
 5   0  0.3749685E-07  0.3263291E+04  0.7818609E-02  0.8172299E-01
        1   -1    0    0  501    0  0.00000000000E+00  0.00000000000E+00  0.90307102256E+03  0.90307102257E+03  0.50400001928E-02 0.  1.
       -1   -1    0    0    0  501  0.00000000000E+00  0.00000000000E+00 -0.29480152836E+04  0.29480152837E+04  0.50400001928E-02 0. -1.
    10030    2    1    2    0    0  0.00000000000E+00  0.00000000000E+00 -0.20449442611E+04  0.38510863062E+04  0.32632910852E+04 0.  0.
        3    1    3    3  502    0  0.15575413005E+04 -0.25612999384E+03 -0.15100926392E+04  0.21844718505E+04  0.10100000352E+00 0. -1.
       -3    1    3    3    0  502 -0.15575413005E+04  0.25612999384E+03 -0.53485162190E+03  0.16666144557E+04  0.10100000352E+00 0.  1.
</event>
<event>
 5   0  0.1129434E-06  0.3292305E+04  0.7818609E-02  0.8164856E-01
        2   -1    0    0  501    0  0.00000000000E+00  0.00000000000E+00  0.14904738854E+04  0.14904738854E+04  0.25500000920E-02 0.  1.
       -2   -1    0    0    0  501  0.00000000000E+00  0.00000000000E+00 -0.18180911750E+04  0.18180911750E+04  0.25500000920E-02 0. -1.
    10030    2    1    2    0    0  0.00000000000E+00  0.00000000000E+00 -0.32761728957E+03  0.33085650604E+04  0.32923046139E+04 0.  0.
        3    1    3    3  502    0  0.13925392110E+04  0.57659370118E+03  0.50142119335E+03  0.15884108328E+04  0.10100000352E+00 0.  1.
       -3    1    3    3    0  502 -0.13925392110E+04 -0.57659370118E+03 -0.82903848291E+03  0.17201542276E+04  0.10100000352E+00 0. -1.
</event>
<event>
 5   0  0.1120545E-06  0.3314416E+04  0.7818609E-02  0.8159237E-01
        2   -1    0    0  501    0  0.00000000000E+00  0.00000000000E+00  0.11866508099E+04  0.11866508099E+04  0.25500000920E-02 0. -1.
       -2   -1    0    0    0  501  0.00000000000E+00  0.00000000000E+00 -0.23143616642E+04  0.23143616642E+04  0.25500000920E-02 0.  1.
    10030    2    1    2    0    0  0.00000000000E+00  0.00000000000E+00 -0.11277108542E+04  0.35010124741E+04  0.33144164755E+04 0.  0.
        4    1    3    3  502    0  0.10934610576E+04 -0.89565223443E+03 -0.14777137281E+04  0.20448690629E+04  0.12699999809E+01 0.  1.
       -4    1    3    3    0  502 -0.10934610576E+04  0.89565223443E+03  0.35000287382E+03  0.14561434112E+04  0.12699999809E+01 0. -1.
</event>
<event>
 5   0  0.3757406E-07  0.3311509E+04  0.7818609E-02  0.8159973E-01
        1   -1    0    0  501    0  0.00000000000E+00  0.00000000000E+00  0.17371189434E+04  0.17371189434E+04  0.50400001928E-02 0. -1.
       -1   -1    0    0    0  501  0.00000000000E+00  0.00000000000E+00 -0.15782014945E+04  0.15782014945E+04  0.50400001928E-02 0.  1.
    10030    2    1    2    0    0  0.00000000000E+00  0.00000000000E+00  0.15891744887E+03  0.33153204379E+04  0.33115094520E+04 0.  0.
        1    1    3    3  502    0  0.35035680105E+03 -0.12007711249E+04 -0.10066503702E+04  0.16055983776E+04  0.50400001928E-02 0.  1.
       -1    1    3    3    0  502 -0.35035680105E+03  0.12007711249E+04  0.11655678191E+04  0.17097220603E+04  0.50400001928E-02 0. -1.
</event>
<event>
 5   0  0.3796529E-07  0.3305446E+04  0.7818609E-02  0.8161511E-01
       -1   -1    0    0    0  501  0.00000000000E+00  0.00000000000E+00  0.13957998852E+04  0.13957998852E+04  0.50400001928E-02 0.  1.
        1   -1    0    0  501    0  0.00000000000E+00  0.00000000000E+00 -0.19569377645E+04  0.19569377645E+04  0.50400001928E-02 0. -1.
    10030    2    1    2    0    0  0.00000000000E+00  0.00000000000E+00 -0.56113787934E+03  0.33527376497E+04  0.33054461163E+04 0.  0.
        5    1    3    3  502    0  0.14702589604E+04  0.61918590447E+03 -0.71850869272E+03  0.17496655185E+04  0.46999998093E+01 0. -1.
       -5    1    3    3    0  502 -0.14702589604E+04 -0.61918590447E+03  0.15737081338E+03  0.16030721312E+04  0.46999998093E+01 0.  1.
</event>
<event>
 5   0  0.1129434E-06  0.3337934E+04  0.7818609E-02  0.8153310E-01
       -2   -1    0    0    0  501  0.00000000000E+00  0.00000000000E+00  0.15321356402E+04  0.15321356402E+04  0.25500000920E-02 0. -1.
        2   -1    0    0  501    0  0.00000000000E+00  0.00000000000E+00 -0.18180181940E+04  0.18180181940E+04  0.25500000920E-02 0.  1.
    10030    2    1    2    0    0  0.00000000000E+00  0.00000000000E+00 -0.28588255379E+03  0.33501538343E+04  0.33379337739E+04 0.  0.
        3    1    3    3  502    0  0.84790180280E+03  0.11592297755E+04  0.71028821188E+03  0.16022672978E+04  0.10100000352E+00 0. -1.
       -3    1    3    3    0  502 -0.84790180280E+03 -0.11592297755E+04 -0.99617076567E+03  0.17478865364E+04  0.10100000352E+00 0.  1.
</event>
<event>
 5   0  0.3709747E-07  0.3288394E+04  0.7818609E-02  0.8165855E-01
       -1   -1    0    0    0  501  0.00000000000E+00  0.00000000000E+00  0.16667558065E+04  0.16667558065E+04  0.50400001928E-02 0.  1.
        1   -1    0    0  501    0  0.00000000000E+00  0.00000000000E+00 -0.16219439543E+04  0.16219439543E+04  0.50400001928E-02 0. -1.
    10030    2    1    2    0    0  0.00000000000E+00  0.00000000000E+00  0.44811852178E+02  0.32886997609E+04  0.32883944433E+04 0.  0.
        4    1    3    3  502    0 -0.26712334969E+03  0.56155288373E+03  0.15446137241E+04  0.16650914974E+04  0.12699999809E+01 0.  1.
       -4    1    3    3    0  502  0.26712334969E+03 -0.56155288373E+03 -0.14998018719E+04  0.16236082634E+04  0.12699999809E+01 0. -1.
</event>
<event>
 5   0  0.1129434E-06  0.3333165E+04  0.7818609E-02  0.8154508E-01
       -2   -1    0    0    0  501  0.00000000000E+00  0.00000000000E+00  0.14073948248E+04  0.14073948248E+04  0.25500000920E-02 0.  1.
        2   -1    0    0  501    0  0.00000000000E+00  0.00000000000E+00 -0.19735020037E+04  0.19735020037E+04  0.25500000920E-02 0. -1.
    10030    2    1    2    0    0  0.00000000000E+00  0.00000000000E+00 -0.56610717885E+03  0.33808968285E+04  0.33331645664E+04 0.  0.
        3    1    3    3  502    0  0.12500793019E+04  0.51997048812E+03  0.70268055918E+03  0.15253942270E+04  0.10100000352E+00 0.  1.
       -3    1    3    3    0  502 -0.12500793019E+04 -0.51997048812E+03 -0.12687877380E+04  0.18555026014E+04  0.10100000352E+00 0. -1.
</event>
<event>
 5   0  0.3573375E-07  0.3281862E+04  0.7818609E-02  0.8167526E-01
        3   -1    0    0  501    0  0.00000000000E+00  0.00000000000E+00  0.19669369773E+04  0.19669369799E+04  0.10100000352E+00 0.  1.
       -3   -1    0    0    0  501  0.00000000000E+00  0.00000000000E+00 -0.13689582085E+04  0.13689582122E+04  0.10100000352E+00 0. -1.
    10030    2    1    2    0    0  0.00000000000E+00  0.00000000000E+00  0.59797876879E+03  0.33358951921E+04  0.32818619905E+04 0.  0.
        1    1    3    3  502    0 -0.10798403699E+04  0.44421336672E+03 -0.87293422723E+03  0.14578734186E+04  0.50400001928E-02 0. -1.
       -1    1    3    3    0  502  0.10798403699E+04 -0.44421336672E+03  0.14709129960E+04  0.18780217735E+04  0.50400001928E-02 0.  1.
</event>
<event>
 5   0  0.3674967E-07  0.3296650E+04  0.7818609E-02  0.8163748E-01
        1   -1    0    0  501    0  0.00000000000E+00  0.00000000000E+00  0.13006164832E+04  0.13006164832E+04  0.50400001928E-02 0.  1.
       -1   -1    0    0    0  501  0.00000000000E+00  0.00000000000E+00 -0.20889909481E+04  0.20889909481E+04  0.50400001928E-02 0. -1.
    10030    2    1    2    0    0  0.00000000000E+00  0.00000000000E+00 -0.78837446491E+03  0.33896074312E+04  0.32966504578E+04 0.  0.
        2    1    3    3  502    0 -0.11194167575E+04  0.11771787767E+04 -0.68159058960E+03  0.17616496476E+04  0.25500000920E-02 0. -1.
       -2    1    3    3    0  502  0.11194167575E+04 -0.11771787767E+04 -0.10678387531E+03  0.16279577836E+04  0.25500000920E-02 0.  1.
</event>
<event>
 5   0  0.1146799E-06  0.3289831E+04  0.7818609E-02  0.8165488E-01
       -2   -1    0    0    0  501  0.00000000000E+00  0.00000000000E+00  0.17621772945E+04  0.17621772945E+04  0.25500000920E-02 0.  1.
        2   -1    0    0  501    0  0.00000000000E+00  0.00000000000E+00 -0.15354566829E+04  0.15354566829E+04  0.25500000920E-02 0. -1.
    10030    2    1    2    0    0  0.00000000000E+00  0.00000000000E+00  0.22672061157E+03  0.32976339774E+04  0.32898309399E+04 0.  0.
        5    1    3    3  502    0  0.14287114233E+04  0.38772191000E+03 -0.60540407022E+03  0.15994001340E+04  0.46999998093E+01 0. -1.
       -5    1    3    3    0  502 -0.14287114233E+04 -0.38772191000E+03  0.83212468179E+03  0.16982338433E+04  0.46999998093E+01 0.  1.
</event>
<event>
 5   0  0.3757406E-07  0.3127128E+04  0.7818609E-02  0.8208332E-01
       -1   -1    0    0    0  501  0.00000000000E+00  0.00000000000E+00  0.14338844817E+04  0.14338844817E+04  0.50400001928E-02 0.  1.
        1   -1    0    0  501    0  0.00000000000E+00  0.00000000000E+00 -0.17049719923E+04  0.17049719923E+04  0.50400001928E-02 0. -1.
    10030    2    1    2    0    0  0.00000000000E+00  0.00000000000E+00 -0.27108751064E+03  0.31388564740E+04  0.31271283194E+04 0.  0.
        1    1    3    3  502    0  0.14724548602E+04  0.48239589059E+03 -0.34586186373E+03  0.15875923719E+04  0.50400001928E-02 0. -1.
       -1    1    3    3    0  502 -0.14724548602E+04 -0.48239589059E+03  0.74774353092E+02  0.15512641021E+04  0.50400001928E-02 0.  1.
</event>
<event>
 5   0  0.3757406E-07  0.3075954E+04  0.7818609E-02  0.8222368E-01
        1   -1    0    0  501    0  0.00000000000E+00  0.00000000000E+00  0.21024013293E+04  0.21024013293E+04  0.50400001928E-02 0. -1.
       -1   -1    0    0    0  501  0.00000000000E+00  0.00000000000E+00 -0.11250817139E+04  0.11250817139E+04  0.50400001928E-02 0.  1.
    10030    2    1    2    0    0  0.00000000000E+00  0.00000000000E+00  0.97731961536E+03  0.32274830432E+04  0.30759540249E+04 0.  0.
        1    1    3    3  502    0 -0.92355976401E+03 -0.15683572109E+03  0.17685076318E+04  0.20012944123E+04  0.50400001928E-02 0. -1.
       -1    1    3    3    0  502  0.92355976401E+03  0.15683572109E+03 -0.79118801642E+03  0.12261886309E+04  0.50400001928E-02 0.  1.
</event>
<event>
 5   0  0.1146799E-06  0.3290746E+04  0.7818609E-02  0.8165254E-01
        2   -1    0    0  501    0  0.00000000000E+00  0.00000000000E+00  0.14792270961E+04  0.14792270961E+04  0.25500000920E-02 0. -1.
       -2   -1    0    0    0  501  0.00000000000E+00  0.00000000000E+00 -0.18301804529E+04  0.18301804529E+04  0.25500000920E-02 0.  1.
    10030    2    1    2    0    0  0.00000000000E+00  0.00000000000E+00 -0.35095335679E+03  0.33094075490E+04  0.32907461261E+04 0.  0.
        5    1    3    3  502    0  0.61679732156E+03  0.74929804694E+03 -0.15116738204E+04  0.17964037209E+04  0.46999998093E+01 0.  1.
       -5    1    3    3    0  502 -0.61679732156E+03 -0.74929804694E+03  0.11607204637E+04  0.15130038281E+04  0.46999998093E+01 0. -1.
</event>
<event>
 5   0  0.3709747E-07  0.3159415E+04  0.7818609E-02  0.8199618E-01
       -1   -1    0    0    0  501  0.00000000000E+00  0.00000000000E+00  0.15018816561E+04  0.15018816561E+04  0.50400001928E-02 0. -1.
        1   -1    0    0  501    0  0.00000000000E+00  0.00000000000E+00 -0.16615666518E+04  0.16615666518E+04  0.50400001928E-02 0.  1.
    10030    2    1    2    0    0  0.00000000000E+00  0.00000000000E+00 -0.15968499574E+03  0.31634483079E+04  0.31594154363E+04 0.  0.
        4    1    3    3  502    0 -0.12242418926E+03 -0.44607176280E+03 -0.15922364250E+04  0.16580669907E+04  0.12699999809E+01 0.  1.
       -4    1    3    3    0  502  0.12242418926E+03  0.44607176280E+03  0.14325514293E+04  0.15053813172E+04  0.12699999809E+01 0. -1.
</event>
<event>
 5   0  0.3757406E-07  0.3191396E+04  0.7818609E-02  0.8191093E-01
       -1   -1    0    0    0  501  0.00000000000E+00  0.00000000000E+00  0.13013194494E+04  0.13013194494E+04  0.50400001928E-02 0. -1.
        1   -1    0    0  501    0  0.00000000000E+00  0.00000000000E+00 -0.19566697006E+04  0.19566697007E+04  0.50400001928E-02 0.  1.
    10030    2    1    2    0    0  0.00000000000E+00  0.00000000000E+00 -0.65535025126E+03  0.32579891500E+04  0.31913961443E+04 0.  0.
        1    1    3    3  502    0 -0.29096670253E+03 -0.15529367274E+04 -0.99452141596E+02  0.15830871201E+04  0.50400001928E-02 0. -1.
       -1    1    3    3    0  502  0.29096670253E+03  0.15529367274E+04 -0.55589810967E+03  0.16749020299E+04  0.50400001928E-02 0.  1.
</event>
<event>
 5   0  0.1146799E-06  0.3304067E+04  0.7818609E-02  0.8161861E-01
       -2   -1    0    0    0  501  0.00000000000E+00  0.00000000000E+00  0.15125715806E+04  0.15125715806E+04  0.25500000920E-02 0.  1.
        2   -1    0    0  501    0  0.00000000000E+00  0.00000000000E+00 -0.18043535631E+04  0.18043535631E+04  0.25500000920E-02 0. -1.
    10030    2    1    2    0    0  0.00000000000E+00  0.00000000000E+00 -0.29178198247E+03  0.33169251437E+04  0.33040665374E+04 0.  0.
        5    1    3    3  502    0  0.12049619438E+04  0.59585492908E+03  0.81816683017E+03  0.15736567080E+04  0.46999998093E+01 0.  1.
       -5    1    3    3    0  502 -0.12049619438E+04 -0.59585492908E+03 -0.11099488126E+04  0.17432684358E+04  0.46999998093E+01 0. -1.
</event>
<event>
 5   0  0.3796529E-07  0.3331201E+04  0.7818609E-02  0.8155001E-01
        1   -1    0    0  501    0  0.00000000000E+00  0.00000000000E+00  0.20608232318E+04  0.20608232318E+04  0.50400001928E-02 0.  1.
       -1   -1    0    0    0  501  0.00000000000E+00  0.00000000000E+00 -0.13461735749E+04  0.13461735749E+04  0.50400001928E-02 0. -1.
    10030    2    1    2    0    0  0.00000000000E+00  0.00000000000E+00  0.71464965688E+03  0.34069968067E+04  0.33312014512E+04 0.  0.
        5    1    3    3  502    0  0.79777447771E+03  0.14616483750E+04  0.31983569247E+03  0.16956347041E+04  0.46999998093E+01 0. -1.
       -5    1    3    3    0  502 -0.79777447771E+03 -0.14616483750E+04  0.39481396441E+03  0.17113621026E+04  0.46999998093E+01 0.  1.
</event>
<event>
 5   0  0.1129434E-06  0.3325766E+04  0.7818609E-02  0.8156370E-01
        2   -1    0    0  501    0  0.00000000000E+00  0.00000000000E+00  0.28125923255E+04  0.28125923255E+04  0.25500000920E-02 0. -1.
       -2   -1    0    0    0  501  0.00000000000E+00  0.00000000000E+00 -0.98314293482E+03  0.98314293482E+03  0.25500000920E-02 0.  1.
    10030    2    1    2    0    0  0.00000000000E+00  0.00000000000E+00  0.18294493907E+04  0.37957352603E+04  0.33257662415E+04 0.  0.
        3    1    3    3  502    0 -0.69368390811E+03  0.15102110544E+04  0.97974410157E+03  0.19292053566E+04  0.10100000352E+00 0. -1.
       -3    1    3    3    0  502  0.69368390811E+03 -0.15102110544E+04  0.84970528911E+03  0.18665299038E+04  0.10100000352E+00 0.  1.
</event>
<event>
 5   0  0.3674967E-07  0.3269185E+04  0.7818609E-02  0.8170781E-01
        1   -1    0    0  501    0  0.00000000000E+00  0.00000000000E+00  0.18830113682E+04  0.18830113682E+04  0.50400001928E-02 0.  1.
       -1   -1    0    0    0  501  0.00000000000E+00  0.00000000000E+00 -0.14189470601E+04  0.14189470601E+04  0.50400001928E-02 0. -1.
    10030    2    1    2    0    0  0.00000000000E+00  0.00000000000E+00  0.46406430810E+03  0.33019584282E+04  0.32691854918E+04 0.  0.
        2    1    3    3  502    0  0.14257190793E+04 -0.69898858723E+03  0.62403825984E+03  0.17060725916E+04  0.25500000920E-02 0.  1.
       -2    1    3    3    0  502 -0.14257190793E+04  0.69898858723E+03 -0.15997395174E+03  0.15958858366E+04  0.25500000920E-02 0. -1.
</event>
<event>
 5   0  0.3709747E-07  0.3238619E+04  0.7818609E-02  0.8178692E-01
       -1   -1    0    0    0  501  0.00000000000E+00  0.00000000000E+00  0.18198344243E+04  0.18198344243E+04  0.50400001928E-02 0. -1.
        1   -1    0    0  501    0  0.00000000000E+00  0.00000000000E+00 -0.14408801798E+04  0.14408801799E+04  0.50400001928E-02 0.  1.
    10030    2    1    2    0    0  0.00000000000E+00  0.00000000000E+00  0.37895424441E+03  0.32607146041E+04  0.32386190591E+04 0.  0.
        4    1    3    3  502    0  0.35538853297E+03 -0.50419071266E+03 -0.13179525568E+04  0.14551666018E+04  0.12699999809E+01 0.  1.
       -4    1    3    3    0  502 -0.35538853297E+03  0.50419071266E+03  0.16969068012E+04  0.18055480024E+04  0.12699999809E+01 0. -1.
</event>
<event>
 5   0  0.3757406E-07  0.3325047E+04  0.7818609E-02  0.8156551E-01
       -1   -1    0    0    0  501  0.00000000000E+00  0.00000000000E+00  0.16229403429E+04  0.16229403429E+04  0.50400001928E-02 0. -1.
        1   -1    0    0  501    0  0.00000000000E+00  0.00000000000E+00 -0.17030716550E+04  0.17030716550E+04  0.50400001928E-02 0.  1.
    10030    2    1    2    0    0  0.00000000000E+00  0.00000000000E+00 -0.80131312074E+02  0.33260119980E+04  0.33250465837E+04 0.  0.
        1    1    3    3  502    0 -0.78730883208E+03 -0.13249942208E+04 -0.66355940591E+03  0.16780274037E+04  0.50400001928E-02 0.  1.
       -1    1    3    3    0  502  0.78730883208E+03  0.13249942208E+04  0.58342809384E+03  0.16479845943E+04  0.50400001928E-02 0. -1.
</event>
<event>
 5   0  0.3709747E-07  0.3295590E+04  0.7818609E-02  0.8164018E-01
        1   -1    0    0  501    0  0.00000000000E+00  0.00000000000E+00  0.20187194613E+04  0.20187194613E+04  0.50400001928E-02 0.  1.
       -1   -1    0    0    0  501  0.00000000000E+00  0.00000000000E+00 -0.13450253308E+04  0.13450253308E+04  0.50400001928E-02 0. -1.
    10030    2    1    2    0    0  0.00000000000E+00  0.00000000000E+00  0.67369413051E+03  0.33637447922E+04  0.32955902727E+04 0.  0.
        4    1    3    3  502    0  0.10023544582E+04  0.11389317883E+04  0.99306377390E+03  0.18133001269E+04  0.12699999809E+01 0.  1.
       -4    1    3    3    0  502 -0.10023544582E+04 -0.11389317883E+04 -0.31936964339E+03  0.15504446653E+04  0.12699999809E+01 0. -1.
</event>
<event>
 5   0  0.1126221E-06  0.3297304E+04  0.7818609E-02  0.8163582E-01
        2   -1    0    0  501    0  0.00000000000E+00  0.00000000000E+00  0.19317630599E+04  0.19317630600E+04  0.25500000920E-02 0. -1.
       -2   -1    0    0    0  501  0.00000000000E+00  0.00000000000E+00 -0.14070321386E+04  0.14070321386E+04  0.25500000920E-02 0.  1.
    10030    2    1    2    0    0  0.00000000000E+00  0.00000000000E+00  0.52473092132E+03  0.33387951986E+04  0.32973035708E+04 0.  0.
        2    1    3    3  502    0 -0.17649382053E+03  0.56954274006E+03 -0.12940263431E+04  0.14247923281E+04  0.25500000920E-02 0.  1.
       -2    1    3    3    0  502  0.17649382053E+03 -0.56954274006E+03  0.18187572644E+04  0.19140028705E+04  0.25500000920E-02 0. -1.
</event>
<event>
 5   0  0.1116462E-06  0.3215768E+04  0.7818609E-02  0.8184665E-01
        2   -1    0    0  501    0  0.00000000000E+00  0.00000000000E+00  0.24708586848E+04  0.24708586848E+04  0.25500000920E-02 0.  1.
       -2   -1    0    0    0  501  0.00000000000E+00  0.00000000000E+00 -0.10463124510E+04  0.10463124510E+04  0.25500000920E-02 0. -1.
    10030    2    1    2    0    0  0.00000000000E+00  0.00000000000E+00  0.14245462339E+04  0.35171711358E+04  0.32157675330E+04 0.  0.
        1    1    3    3  502    0  0.10367749884E+04 -0.72367339581E+03  0.17986938357E+04  0.21986143534E+04  0.50400001928E-02 0.  1.
       -1    1    3    3    0  502 -0.10367749884E+04  0.72367339581E+03 -0.37414760185E+03  0.13185567824E+04  0.50400001928E-02 0. -1.
</event>
<event>
 5   0  0.1129434E-06  0.3302792E+04  0.7818609E-02  0.8162185E-01
        2   -1    0    0  501    0  0.00000000000E+00  0.00000000000E+00  0.13897736851E+04  0.13897736851E+04  0.25500000920E-02 0. -1.
       -2   -1    0    0    0  501  0.00000000000E+00  0.00000000000E+00 -0.19622687939E+04  0.19622687939E+04  0.25500000920E-02 0.  1.
    10030    2    1    2    0    0  0.00000000000E+00  0.00000000000E+00 -0.57249510876E+03  0.33520424791E+04  0.33027924748E+04 0.  0.
        3    1    3    3  502    0  0.71364773040E+03 -0.87243810338E+03  0.93867475995E+03  0.14668168401E+04  0.10100000352E+00 0. -1.
       -3    1    3    3    0  502 -0.71364773040E+03  0.87243810338E+03 -0.15111698687E+04  0.18852256389E+04  0.10100000352E+00 0.  1.
</event>
<event>
 5   0  0.1116462E-06  0.3290478E+04  0.7818609E-02  0.8165323E-01
        2   -1    0    0  501    0  0.00000000000E+00  0.00000000000E+00  0.20232146445E+04  0.20232146445E+04  0.25500000920E-02 0. -1.
       -2   -1    0    0    0  501  0.00000000000E+00  0.00000000000E+00 -0.13378762949E+04  0.13378762949E+04  0.25500000920E-02 0.  1.
    10030    2    1    2    0    0  0.00000000000E+00  0.00000000000E+00  0.68533834963E+03  0.33610909394E+04  0.32904777236E+04 0.  0.
        1    1    3    3  502    0  0.25583801052E+03  0.19213160511E+03  0.19911304875E+04  0.20166725713E+04  0.50400001928E-02 0. -1.
       -1    1    3    3    0  502 -0.25583801052E+03 -0.19213160511E+03 -0.13057921379E+04  0.13444183682E+04  0.50400001928E-02 0.  1.
</event>
<event>
 5   0  0.1120545E-06  0.3302226E+04  0.7818609E-02  0.8162329E-01
        2   -1    0    0  501    0  0.00000000000E+00  0.00000000000E+00  0.19007734447E+04  0.19007734447E+04  0.25500000920E-02 0. -1.
       -2   -1    0    0    0  501  0.00000000000E+00  0.00000000000E+00 -0.14342445830E+04  0.14342445830E+04  0.25500000920E-02 0.  1.
    10030    2    1    2    0    0  0.00000000000E+00  0.00000000000E+00  0.46652886162E+03  0.33350180277E+04  0.33022259260E+04 0.  0.
        4    1    3    3  502    0 -0.11384667655E+04 -0.11346119740E+04  0.61480093654E+03  0.17208813765E+04  0.12699999809E+01 0. -1.
       -4    1    3    3    0  502  0.11384667655E+04  0.11346119740E+04 -0.14827207493E+03  0.16141366512E+04  0.12699999809E+01 0.  1.
</event>
<event>
 5   0  0.3749685E-07  0.3309671E+04  0.7818609E-02  0.8160439E-01
       -1   -1    0    0    0  501  0.00000000000E+00  0.00000000000E+00  0.11906125008E+04  0.11906125008E+04  0.50400001928E-02 0.  1.
        1   -1    0    0  501    0  0.00000000000E+00  0.00000000000E+00 -0.23000602868E+04  0.23000602868E+04  0.50400001928E-02 0. -1.
    10030    2    1    2    0    0  0.00000000000E+00  0.00000000000E+00 -0.11094477860E+04  0.34906727876E+04  0.33096709988E+04 0.  0.
        3    1    3    3  502    0 -0.66504651954E+02  0.70347625953E+03  0.10235003239E+04  0.12437261112E+04  0.10100000352E+00 0.  1.
       -3    1    3    3    0  502  0.66504651954E+02 -0.70347625953E+03 -0.21329481099E+04  0.22469466763E+04  0.10100000352E+00 0. -1.
</event>
<event>
 5   0  0.3757406E-07  0.3301449E+04  0.7818609E-02  0.8162527E-01
        1   -1    0    0  501    0  0.00000000000E+00  0.00000000000E+00  0.20063651819E+04  0.20063651819E+04  0.50400001928E-02 0. -1.
       -1   -1    0    0    0  501  0.00000000000E+00  0.00000000000E+00 -0.13581234200E+04  0.13581234200E+04  0.50400001928E-02 0.  1.
    10030    2    1    2    0    0  0.00000000000E+00  0.00000000000E+00  0.64824176192E+03  0.33644886018E+04  0.33014491015E+04 0.  0.
        1    1    3    3  502    0 -0.44139277496E+02  0.28908156258E+03  0.19797574647E+04  0.20012386276E+04  0.50400001928E-02 0. -1.
       -1    1    3    3    0  502  0.44139277496E+02 -0.28908156258E+03 -0.13315157027E+04  0.13632499743E+04  0.50400001928E-02 0.  1.
</event>
<event>
 5   0  0.3573375E-07  0.3215615E+04  0.7818609E-02  0.8184705E-01
       -3   -1    0    0    0  501  0.00000000000E+00  0.00000000000E+00  0.27700095793E+04  0.27700095811E+04  0.10100000352E+00 0. -1.
        3   -1    0    0  501    0  0.00000000000E+00  0.00000000000E+00 -0.93322610234E+03  0.93322610781E+03  0.10100000352E+00 0.  1.
    10030    2    1    2    0    0  0.00000000000E+00  0.00000000000E+00  0.18367834769E+04  0.37032356889E+04  0.32156151863E+04 0.  0.
        3    1    3    3  502    0 -0.13637743155E+04 -0.85154498797E+03  0.91148225836E+03  0.18481907823E+04  0.10100000352E+00 0.  1.
       -3    1    3    3    0  502  0.13637743155E+04  0.85154498797E+03  0.92530121856E+03  0.18550449066E+04  0.10100000352E+00 0. -1.
</event>
<event>
 5   0  0.3757406E-07  0.3293119E+04  0.7818609E-02  0.8164648E-01
        1   -1    0    0  501    0  0.00000000000E+00  0.00000000000E+00  0.17787300823E+04  0.17787300823E+04  0.50400001928E-02 0.  1.
       -1   -1    0    0    0  501  0.00000000000E+00  0.00000000000E+00 -0.15242098764E+04  0.15242098764E+04  0.50400001928E-02 0. -1.
    10030    2    1    2    0    0  0.00000000000E+00  0.00000000000E+00  0.25452020582E+03  0.33029399587E+04  0.32931188615E+04 0.  0.
        1    1    3    3  502    0  0.54941924386E+03  0.53145337646E+02  0.16831672709E+04  0.17713661378E+04  0.50400001928E-02 0.  1.
       -1    1    3    3    0  502 -0.54941924386E+03 -0.53145337646E+02 -0.14286470650E+04  0.15315738209E+04  0.50400001928E-02 0. -1.
</event>
<event>
 5   0  0.3709747E-07  0.3274120E+04  0.7818609E-02  0.8169512E-01
        1   -1    0    0  501    0  0.00000000000E+00  0.00000000000E+00  0.17769831075E+04  0.17769831075E+04  0.50400001928E-02 0. -1.
       -1   -1    0    0    0  501  0.00000000000E+00  0.00000000000E+00 -0.15081548267E+04  0.15081548267E+04  0.50400001928E-02 0.  1.
    10030    2    1    2    0    0  0.00000000000E+00  0.00000000000E+00  0.26882828074E+03  0.32851379342E+04  0.32741201264E+04 0.  0.
        4    1    3    3  502    0 -0.11158013650E+04  0.18623882565E+03  0.13217247307E+04  0.17397285601E+04  0.12699999809E+01 0. -1.
       -4    1    3    3    0  502  0.11158013650E+04 -0.18623882565E+03 -0.10528964500E+04  0.15454093741E+04  0.12699999809E+01 0.  1.
</event>
<event>
 5   0  0.3749685E-07  0.3289098E+04  0.7818609E-02  0.8165675E-01
       -1   -1    0    0    0  501  0.00000000000E+00  0.00000000000E+00  0.15226228582E+04  0.15226228582E+04  0.50400001928E-02 0. -1.
        1   -1    0    0  501    0  0.00000000000E+00  0.00000000000E+00 -0.17762382864E+04  0.17762382864E+04  0.50400001928E-02 0.  1.
    10030    2    1    2    0    0  0.00000000000E+00  0.00000000000E+00 -0.25361542820E+03  0.32988611445E+04  0.32890977586E+04 0.  0.
        3    1    3    3  502    0 -0.13607158075E+03  0.11207565411E+04  0.10725388334E+04  0.15572251793E+04  0.10100000352E+00 0. -1.
       -3    1    3    3    0  502  0.13607158075E+03 -0.11207565411E+04 -0.13261542616E+04  0.17416359652E+04  0.10100000352E+00 0.  1.
</event>
<event>
 5   0  0.1120545E-06  0.3298543E+04  0.7818609E-02  0.8163266E-01
        2   -1    0    0  501    0  0.00000000000E+00  0.00000000000E+00  0.17057721808E+04  0.17057721808E+04  0.25500000920E-02 0.  1.
       -2   -1    0    0    0  501  0.00000000000E+00  0.00000000000E+00 -0.15946427325E+04  0.15946427325E+04  0.25500000920E-02 0. -1.
    10030    2    1    2    0    0  0.00000000000E+00  0.00000000000E+00  0.11112944830E+03  0.33004149132E+04  0.32985434430E+04 0.  0.
        4    1    3    3  502    0  0.28015544033E+03 -0.35243060938E+03  0.16430969482E+04  0.17036618206E+04  0.12699999809E+01 0.  1.
       -4    1    3    3    0  502 -0.28015544033E+03  0.35243060938E+03 -0.15319674999E+04  0.15967530926E+04  0.12699999809E+01 0. -1.
</event>
<event>
 5   0  0.3674967E-07  0.3318816E+04  0.7818609E-02  0.8158124E-01
        1   -1    0    0  501    0  0.00000000000E+00  0.00000000000E+00  0.25772814031E+04  0.25772814031E+04  0.50400001928E-02 0.  1.
       -1   -1    0    0    0  501  0.00000000000E+00  0.00000000000E+00 -0.10684259428E+04  0.10684259428E+04  0.50400001928E-02 0. -1.
    10030    2    1    2    0    0  0.00000000000E+00  0.00000000000E+00  0.15088554603E+04  0.36457073458E+04  0.33188156398E+04 0.  0.
        2    1    3    3  502    0 -0.42269339794E+03  0.14497593813E+04 -0.11928206343E+01  0.15101236357E+04  0.25500000920E-02 0. -1.
       -2    1    3    3    0  502  0.42269339794E+03 -0.14497593813E+04  0.15100482809E+04  0.21355837101E+04  0.25500000920E-02 0.  1.
</event>
<event>
 5   0  0.3749685E-07  0.3297722E+04  0.7818609E-02  0.8163475E-01
        1   -1    0    0  501    0  0.00000000000E+00  0.00000000000E+00  0.17378520672E+04  0.17378520672E+04  0.50400001928E-02 0. -1.
       -1   -1    0    0    0  501  0.00000000000E+00  0.00000000000E+00 -0.15644273008E+04  0.15644273008E+04  0.50400001928E-02 0.  1.
    10030    2    1    2    0    0  0.00000000000E+00  0.00000000000E+00  0.17342476639E+03  0.33022793680E+04  0.32977223768E+04 0.  0.
        3    1    3    3  502    0 -0.44848482431E+03 -0.79884423171E+02  0.16735860906E+04  0.17344770311E+04  0.10100000352E+00 0. -1.
       -3    1    3    3    0  502  0.44848482431E+03  0.79884423171E+02 -0.15001613242E+04  0.15678023369E+04  0.10100000352E+00 0.  1.
</event>
<event>
 5   0  0.1146799E-06  0.3296033E+04  0.7818609E-02  0.8163906E-01
        2   -1    0    0  501    0  0.00000000000E+00  0.00000000000E+00  0.16682011679E+04  0.16682011679E+04  0.25500000920E-02 0. -1.
       -2   -1    0    0    0  501  0.00000000000E+00  0.00000000000E+00 -0.16280756708E+04  0.16280756708E+04  0.25500000920E-02 0.  1.
    10030    2    1    2    0    0  0.00000000000E+00  0.00000000000E+00  0.40125497090E+02  0.32962768386E+04  0.32960326062E+04 0.  0.
        5    1    3    3  502    0  0.87611511503E+02 -0.13692794342E+04 -0.89287602391E+03  0.16370252380E+04  0.46999998093E+01 0.  1.
       -5    1    3    3    0  502 -0.87611511503E+02  0.13692794342E+04  0.93300152100E+03  0.16592516006E+04  0.46999998093E+01 0. -1.
</event>
<event>
 5   0  0.3674967E-07  0.3295570E+04  0.7818609E-02  0.8164024E-01
        1   -1    0    0  501    0  0.00000000000E+00  0.00000000000E+00  0.13054676660E+04  0.13054676660E+04  0.50400001928E-02 0. -1.
       -1   -1    0    0    0  501  0.00000000000E+00  0.00000000000E+00 -0.20798637250E+04  0.20798637250E+04  0.50400001928E-02 0.  1.
    10030    2    1    2    0    0  0.00000000000E+00  0.00000000000E+00 -0.77439605895E+03  0.33853313910E+04  0.32955696580E+04 0.  0.
        2    1    3    3  502    0 -0.56235879738E+03 -0.75170948059E+02 -0.19763629453E+04  0.20561878757E+04  0.25500000920E-02 0.  1.
       -2    1    3    3    0  502  0.56235879738E+03  0.75170948059E+02  0.12019668864E+04  0.13291435153E+04  0.25500000920E-02 0. -1.
</event>
<event>
 5   0  0.3796529E-07  0.3286916E+04  0.7818609E-02  0.8166232E-01
        1   -1    0    0  501    0  0.00000000000E+00  0.00000000000E+00  0.22484812027E+04  0.22484812027E+04  0.50400001928E-02 0.  1.
       -1   -1    0    0    0  501  0.00000000000E+00  0.00000000000E+00 -0.12012352870E+04  0.12012352870E+04  0.50400001928E-02 0. -1.
    10030    2    1    2    0    0  0.00000000000E+00  0.00000000000E+00  0.10472459157E+04  0.34497164897E+04  0.32869164656E+04 0.  0.
        5    1    3    3  502    0 -0.59503438066E+03  0.39747771714E+03 -0.10291414146E+04  0.12534785961E+04  0.46999998093E+01 0. -1.
       -5    1    3    3    0  502  0.59503438066E+03 -0.39747771714E+03  0.20763873303E+04  0.21962378936E+04  0.46999998093E+01 0.  1.
</event>
<event>
 5   0  0.3796529E-07  0.3352496E+04  0.7818609E-02  0.8149665E-01
        1   -1    0    0  501    0  0.00000000000E+00  0.00000000000E+00  0.96533567904E+03  0.96533567905E+03  0.50400001928E-02 0. -1.
       -1   -1    0    0    0  501  0.00000000000E+00  0.00000000000E+00 -0.29107053913E+04  0.29107053913E+04  0.50400001928E-02 0.  1.
    10030    2    1    2    0    0  0.00000000000E+00  0.00000000000E+00 -0.19453697122E+04  0.38760410703E+04  0.33524962433E+04 0.  0.
        5    1    3    3  502    0  0.10375069829E+04  0.12982093499E+04 -0.71933568974E+03  0.18108655887E+04  0.46999998093E+01 0. -1.
       -5    1    3    3    0  502 -0.10375069829E+04 -0.12982093499E+04 -0.12260340225E+04  0.20651754817E+04  0.46999998093E+01 0.  1.
</event>
<event>
 5   0  0.1126221E-06  0.3239635E+04  0.7818609E-02  0.8178427E-01
        2   -1    0    0  501    0  0.00000000000E+00  0.00000000000E+00  0.28042314549E+04  0.28042314549E+04  0.25500000920E-02 0. -1.
       -2   -1    0    0    0  501  0.00000000000E+00  0.00000000000E+00 -0.93566045740E+03  0.93566045740E+03  0.25500000920E-02 0.  1.
    10030    2    1    2    0    0  0.00000000000E+00  0.00000000000E+00  0.18685709975E+04  0.37398919123E+04  0.32396348472E+04 0.  0.
        2    1    3    3  502    0  0.39531139882E+03 -0.86736063320E+03 -0.57761522193E+03  0.11145514410E+04  0.25500000920E-02 0.  1.
       -2    1    3    3    0  502 -0.39531139882E+03  0.86736063320E+03  0.24461862194E+04  0.26253404713E+04  0.25500000920E-02 0. -1.
</event>
<event>
 5   0  0.1126221E-06  0.3288937E+04  0.7818609E-02  0.8165716E-01
        2   -1    0    0  501    0  0.00000000000E+00  0.00000000000E+00  0.22632550949E+04  0.22632550949E+04  0.25500000920E-02 0.  1.
       -2   -1    0    0    0  501  0.00000000000E+00  0.00000000000E+00 -0.11948617822E+04  0.11948617822E+04  0.25500000920E-02 0. -1.
    10030    2    1    2    0    0  0.00000000000E+00  0.00000000000E+00  0.10683933127E+04  0.34581168771E+04  0.32889372243E+04 0.  0.
        2    1    3    3  502    0 -0.14679581658E+04  0.24444270041E+03  0.12699212221E+04  0.19563622672E+04  0.25500000920E-02 0.  1.
       -2    1    3    3    0  502  0.14679581658E+04 -0.24444270041E+03 -0.20152790934E+03  0.15017546099E+04  0.25500000920E-02 0. -1.
</event>
<event>
 5   0  0.1146799E-06  0.3303833E+04  0.7818609E-02  0.8161921E-01
        2   -1    0    0  501    0  0.00000000000E+00  0.00000000000E+00  0.28170720086E+04  0.28170720086E+04  0.25500000920E-02 0.  1.
       -2   -1    0    0    0  501  0.00000000000E+00  0.00000000000E+00 -0.96867558944E+03  0.96867558944E+03  0.25500000920E-02 0. -1.
    10030    2    1    2    0    0  0.00000000000E+00  0.00000000000E+00  0.18483964192E+04  0.37857475981E+04  0.33038334634E+04 0.  0.
        5    1    3    3  502    0 -0.12192678575E+04  0.79382619838E+03  0.27759079040E+02  0.14551861730E+04  0.46999998093E+01 0.  1.
       -5    1    3    3    0  502  0.12192678575E+04 -0.79382619838E+03  0.18206373402E+04  0.23305614251E+04  0.46999998093E+01 0. -1.
</event>
<event>
 5   0  0.1120545E-06  0.3274759E+04  0.7818609E-02  0.8169348E-01
        2   -1    0    0  501    0  0.00000000000E+00  0.00000000000E+00  0.21019934101E+04  0.21019934101E+04  0.25500000920E-02 0. -1.
       -2   -1    0    0    0  501  0.00000000000E+00  0.00000000000E+00 -0.12754613044E+04  0.12754613044E+04  0.25500000920E-02 0.  1.
    10030    2    1    2    0    0  0.00000000000E+00  0.00000000000E+00  0.82653210573E+03  0.33774547144E+04  0.32747587738E+04 0.  0.
        4    1    3    3  502    0  0.62669012055E+03 -0.12881046243E+04  0.12312687606E+04  0.18889093160E+04  0.12699999809E+01 0. -1.
       -4    1    3    3    0  502 -0.62669012055E+03  0.12881046243E+04 -0.40473665491E+03  0.14885453984E+04  0.12699999809E+01 0.  1.
</event>
<event>
 5   0  0.3757406E-07  0.3313045E+04  0.7818609E-02  0.8159584E-01
       -1   -1    0    0    0  501  0.00000000000E+00  0.00000000000E+00  0.28463797232E+04  0.28463797233E+04  0.50400001928E-02 0. -1.
        1   -1    0    0  501    0  0.00000000000E+00  0.00000000000E+00 -0.96405488449E+03  0.96405488450E+03  0.50400001928E-02 0.  1.
    10030    2    1    2    0    0  0.00000000000E+00  0.00000000000E+00  0.18823248388E+04  0.38104346078E+04  0.33130446875E+04 0.  0.
        1    1    3    3  502    0  0.65203335847E+03  0.80916450116E+03 -0.54253817360E+03  0.11722808368E+04  0.50400001928E-02 0.  1.
       -1    1    3    3    0  502 -0.65203335847E+03 -0.80916450116E+03  0.24248630124E+04  0.26381537710E+04  0.50400001928E-02 0. -1.
</event>
<event>
 5   0  0.1120545E-06  0.3292084E+04  0.7818609E-02  0.8164913E-01
        2   -1    0    0  501    0  0.00000000000E+00  0.00000000000E+00  0.17990849863E+04  0.17990849863E+04  0.25500000920E-02 0.  1.
       -2   -1    0    0    0  501  0.00000000000E+00  0.00000000000E+00 -0.15060177347E+04  0.15060177347E+04  0.25500000920E-02 0. -1.
    10030    2    1    2    0    0  0.00000000000E+00  0.00000000000E+00  0.29306725159E+03  0.33051027210E+04  0.32920837751E+04 0.  0.
        4    1    3    3  502    0 -0.20177609218E+03 -0.15967293037E+04 -0.20007685026E+03  0.16218170118E+04  0.12699999809E+01 0. -1.
       -4    1    3    3    0  502  0.20177609218E+03  0.15967293037E+04  0.49314410185E+03  0.16832857092E+04  0.12699999809E+01 0.  1.
</event>
<event>
 5   0  0.3709747E-07  0.3258339E+04  0.7818609E-02  0.8173578E-01
       -1   -1    0    0    0  501  0.00000000000E+00  0.00000000000E+00  0.24051154472E+04  0.24051154473E+04  0.50400001928E-02 0.  1.
        1   -1    0    0  501    0  0.00000000000E+00  0.00000000000E+00 -0.11035618891E+04  0.11035618891E+04  0.50400001928E-02 0. -1.
    10030    2    1    2    0    0  0.00000000000E+00  0.00000000000E+00  0.13015535582E+04  0.35086773363E+04  0.32583392987E+04 0.  0.
        4    1    3    3  502    0 -0.36388997357E+03  0.13686030593E+04  0.15180774966E+04  0.20760662671E+04  0.12699999809E+01 0.  1.
       -4    1    3    3    0  502  0.36388997357E+03 -0.13686030593E+04 -0.21652393836E+03  0.14326110692E+04  0.12699999809E+01 0. -1.
</event>
<event>
 5   0  0.1116462E-06  0.3311823E+04  0.7818609E-02  0.8159894E-01
        2   -1    0    0  501    0  0.00000000000E+00  0.00000000000E+00  0.21634806884E+04  0.21634806884E+04  0.25500000920E-02 0. -1.
       -2   -1    0    0    0  501  0.00000000000E+00  0.00000000000E+00 -0.12674219404E+04  0.12674219404E+04  0.25500000920E-02 0.  1.
    10030    2    1    2    0    0  0.00000000000E+00  0.00000000000E+00  0.89605874803E+03  0.34309026288E+04  0.33118229977E+04 0.  0.
        1    1    3    3  502    0  0.42838278065E+03 -0.14896639200E+04 -0.15552719415E+03  0.15578187024E+04  0.50400001928E-02 0.  1.
       -1    1    3    3    0  502 -0.42838278065E+03  0.14896639200E+04  0.10515859422E+04  0.18730839264E+04  0.50400001928E-02 0. -1.
</event>
<event>
 5   0  0.3749685E-07  0.3309558E+04  0.7818609E-02  0.8160468E-01
       -1   -1    0    0    0  501  0.00000000000E+00  0.00000000000E+00  0.12875150977E+04  0.12875150977E+04  0.50400001928E-02 0.  1.
        1   -1    0    0  501    0  0.00000000000E+00  0.00000000000E+00 -0.21268045382E+04  0.21268045383E+04  0.50400001928E-02 0. -1.
    10030    2    1    2    0    0  0.00000000000E+00  0.00000000000E+00 -0.83928944059E+03  0.34143196359E+04  0.33095576458E+04 0.  0.
        3    1    3    3  502    0 -0.30690228966E+03 -0.38015317490E+03 -0.20506989356E+04  0.21080966739E+04  0.10100000352E+00 0. -1.
       -3    1    3    3    0  502  0.30690228966E+03  0.38015317490E+03  0.12114094950E+04  0.13062229620E+04  0.10100000352E+00 0.  1.
</event>
<event>
 5   0  0.1129434E-06  0.3298601E+04  0.7818609E-02  0.8163251E-01
        2   -1    0    0  501    0  0.00000000000E+00  0.00000000000E+00  0.21297370713E+04  0.21297370713E+04  0.25500000920E-02 0. -1.
       -2   -1    0    0    0  501  0.00000000000E+00  0.00000000000E+00 -0.12772434271E+04  0.12772434271E+04  0.25500000920E-02 0.  1.
    10030    2    1    2    0    0  0.00000000000E+00  0.00000000000E+00  0.85249364420E+03  0.34069804985E+04  0.32986013253E+04 0.  0.
        3    1    3    3  502    0  0.12292346564E+04  0.57586580218E+03 -0.54131025942E+03  0.14613884049E+04  0.10100000352E+00 0.  1.
       -3    1    3    3    0  502 -0.12292346564E+04 -0.57586580218E+03  0.13938039036E+04  0.19455920936E+04  0.10100000352E+00 0. -1.
</event>
<event>
 5   0  0.3796529E-07  0.3293701E+04  0.7818609E-02  0.8164500E-01
       -1   -1    0    0    0  501  0.00000000000E+00  0.00000000000E+00  0.15486134131E+04  0.15486134131E+04  0.50400001928E-02 0. -1.
        1   -1    0    0  501    0  0.00000000000E+00  0.00000000000E+00 -0.17513188177E+04  0.17513188177E+04  0.50400001928E-02 0.  1.
    10030    2    1    2    0    0  0.00000000000E+00  0.00000000000E+00 -0.20270540466E+03  0.32999322308E+04  0.32937005399E+04 0.  0.
        5    1    3    3  502    0 -0.24060793833E+03  0.10674414703E+04  0.11317359282E+04  0.15742210054E+04  0.46999998093E+01 0. -1.
       -5    1    3    3    0  502  0.24060793833E+03 -0.10674414703E+04 -0.13344413329E+04  0.17257112254E+04  0.46999998093E+01 0.  1.
</event>
<event>
 5   0  0.1116462E-06  0.3300295E+04  0.7818609E-02  0.8162820E-01
       -2   -1    0    0    0  501  0.00000000000E+00  0.00000000000E+00  0.22251913548E+04  0.22251913548E+04  0.25500000920E-02 0. -1.
        2   -1    0    0  501    0  0.00000000000E+00  0.00000000000E+00 -0.12237088268E+04  0.12237088268E+04  0.25500000920E-02 0.  1.
    10030    2    1    2    0    0  0.00000000000E+00  0.00000000000E+00  0.10014825280E+04  0.34489001817E+04  0.33002947155E+04 0.  0.
        1    1    3    3  502    0 -0.13974836076E+04 -0.87427172499E+03  0.42201784862E+03  0.17015905933E+04  0.50400001928E-02 0.  1.
       -1    1    3    3    0  502  0.13974836076E+04  0.87427172499E+03  0.57946467937E+03  0.17473095883E+04  0.50400001928E-02 0. -1.
</event>
<event>
 5   0  0.1129434E-06  0.3304118E+04  0.7818609E-02  0.8161848E-01
       -2   -1    0    0    0  501  0.00000000000E+00  0.00000000000E+00  0.17447849194E+04  0.17447849194E+04  0.25500000920E-02 0.  1.
        2   -1    0    0  501    0  0.00000000000E+00  0.00000000000E+00 -0.15642605575E+04  0.15642605575E+04  0.25500000920E-02 0. -1.
    10030    2    1    2    0    0  0.00000000000E+00  0.00000000000E+00  0.18052436195E+03  0.33090454769E+04  0.33041175710E+04 0.  0.
        3    1    3    3  502    0  0.13454210838E+04  0.95868175543E+03  0.81905898157E+02  0.16540668630E+04  0.10100000352E+00 0.  1.
       -3    1    3    3    0  502 -0.13454210838E+04 -0.95868175543E+03  0.98618463792E+02  0.16549786139E+04  0.10100000352E+00 0. -1.
</event>
<event>
 5   0  0.3573375E-07  0.3278292E+04  0.7818609E-02  0.8168441E-01
       -3   -1    0    0    0  501  0.00000000000E+00  0.00000000000E+00  0.12310761328E+04  0.12310761370E+04  0.10100000352E+00 0. -1.
        3   -1    0    0  501    0  0.00000000000E+00  0.00000000000E+00 -0.21824807378E+04  0.21824807402E+04  0.10100000352E+00 0.  1.
    10030    2    1    2    0    0  0.00000000000E+00  0.00000000000E+00 -0.95140460503E+03  0.34135568771E+04  0.32782922126E+04 0.  0.
        3    1    3    3  502    0 -0.90372856202E+03 -0.90823832845E+03  0.58881950821E+03  0.14100817702E+04  0.10100000352E+00 0. -1.
       -3    1    3    3    0  502  0.90372856202E+03  0.90823832845E+03 -0.15402241132E+04  0.20034751070E+04  0.10100000352E+00 0.  1.
</event>
<event>
 5   0  0.3709747E-07  0.3287154E+04  0.7818609E-02  0.8166172E-01
        1   -1    0    0  501    0  0.00000000000E+00  0.00000000000E+00  0.17412581105E+04  0.17412581105E+04  0.50400001928E-02 0. -1.
       -1   -1    0    0    0  501  0.00000000000E+00  0.00000000000E+00 -0.15513752832E+04  0.15513752832E+04  0.50400001928E-02 0.  1.
    10030    2    1    2    0    0  0.00000000000E+00  0.00000000000E+00  0.18988282733E+03  0.32926333937E+04  0.32871536589E+04 0.  0.
        4    1    3    3  502    0 -0.98477167793E+03  0.12496476651E+04 -0.31799408135E+03  0.16225031258E+04  0.12699999809E+01 0.  1.
       -4    1    3    3    0  502  0.98477167793E+03 -0.12496476651E+04  0.50787690869E+03  0.16701302679E+04  0.12699999809E+01 0. -1.
</event>
<event>
 5   0  0.3674967E-07  0.3183497E+04  0.7818609E-02  0.8193189E-01
       -1   -1    0    0    0  501  0.00000000000E+00  0.00000000000E+00  0.15409524956E+04  0.15409524956E+04  0.50400001928E-02 0.  1.
        1   -1    0    0  501    0  0.00000000000E+00  0.00000000000E+00 -0.16442190889E+04  0.16442190889E+04  0.50400001928E-02 0. -1.
    10030    2    1    2    0    0  0.00000000000E+00  0.00000000000E+00 -0.10326659334E+03  0.31851715845E+04  0.31834971389E+04 0.  0.
        2    1    3    3  502    0  0.13715226430E+04 -0.51733832676E+03  0.56913659627E+03  0.15724597832E+04  0.25500000920E-02 0. -1.
       -2    1    3    3    0  502 -0.13715226430E+04  0.51733832676E+03 -0.67240318961E+03  0.16127118013E+04  0.25500000920E-02 0.  1.
</event>
<event>
 5   0  0.1120545E-06  0.3304868E+04  0.7818609E-02  0.8161658E-01
        2   -1    0    0  501    0  0.00000000000E+00  0.00000000000E+00  0.19241801237E+04  0.19241801237E+04  0.25500000920E-02 0.  1.
       -2   -1    0    0    0  501  0.00000000000E+00  0.00000000000E+00 -0.14190658096E+04  0.14190658096E+04  0.25500000920E-02 0. -1.
    10030    2    1    2    0    0  0.00000000000E+00  0.00000000000E+00  0.50511431403E+03  0.33432459333E+04  0.33048680610E+04 0.  0.
        4    1    3    3  502    0  0.10821360124E+04 -0.52907581488E+03  0.13968859176E+04  0.18445138782E+04  0.12699999809E+01 0.  1.
       -4    1    3    3    0  502 -0.10821360124E+04  0.52907581488E+03 -0.89177160360E+03  0.14987320551E+04  0.12699999809E+01 0. -1.
</event>
<event>
 5   0  0.1116462E-06  0.3299560E+04  0.7818609E-02  0.8163007E-01
       -2   -1    0    0    0  501  0.00000000000E+00  0.00000000000E+00  0.12260401145E+04  0.12260401145E+04  0.25500000920E-02 0. -1.
        2   -1    0    0  501    0  0.00000000000E+00  0.00000000000E+00 -0.22199719014E+04  0.22199719014E+04  0.25500000920E-02 0.  1.
    10030    2    1    2    0    0  0.00000000000E+00  0.00000000000E+00 -0.99393178689E+03  0.34460120159E+04  0.32995603369E+04 0.  0.
        1    1    3    3  502    0 -0.16224424719E+03 -0.16338560390E+04 -0.66525732484E+03  0.17715462343E+04  0.50400001928E-02 0.  1.
       -1    1    3    3    0  502  0.16224424719E+03  0.16338560390E+04 -0.32867446205E+03  0.16744657816E+04  0.50400001928E-02 0. -1.
</event>
<event>
 5   0  0.3757406E-07  0.3388965E+04  0.7818609E-02  0.8140620E-01
        1   -1    0    0  501    0  0.00000000000E+00  0.00000000000E+00  0.17673457016E+04  0.17673457016E+04  0.50400001928E-02 0. -1.
       -1   -1    0    0    0  501  0.00000000000E+00  0.00000000000E+00 -0.16246234239E+04  0.16246234239E+04  0.50400001928E-02 0.  1.
    10030    2    1    2    0    0  0.00000000000E+00  0.00000000000E+00  0.14272227777E+03  0.33919691255E+04  0.33889651665E+04 0.  0.
        1    1    3    3  502    0  0.77717141451E+03 -0.94629181884E+03  0.12436412306E+04  0.17453100368E+04  0.50400001928E-02 0. -1.
       -1    1    3    3    0  502 -0.77717141451E+03  0.94629181884E+03 -0.11009189528E+04  0.16466590888E+04  0.50400001928E-02 0.  1.
</event>
<event>
 5   0  0.1146799E-06  0.3315123E+04  0.7818609E-02  0.8159058E-01
       -2   -1    0    0    0  501  0.00000000000E+00  0.00000000000E+00  0.13878915803E+04  0.13878915803E+04  0.25500000920E-02 0. -1.
        2   -1    0    0  501    0  0.00000000000E+00  0.00000000000E+00 -0.19796288367E+04  0.19796288367E+04  0.25500000920E-02 0.  1.
    10030    2    1    2    0    0  0.00000000000E+00  0.00000000000E+00 -0.59173725645E+03  0.33675204170E+04  0.33151230411E+04 0.  0.
        5    1    3    3  502    0  0.51546661348E+03  0.92608831068E+03 -0.15904301069E+04  0.19112392325E+04  0.46999998093E+01 0.  1.
       -5    1    3    3    0  502 -0.51546661348E+03 -0.92608831068E+03  0.99869285044E+03  0.14562811845E+04  0.46999998093E+01 0. -1.
</event>
<event>
 5   0  0.3709747E-07  0.3369161E+04  0.7818609E-02  0.8145517E-01
       -1   -1    0    0    0  501  0.00000000000E+00  0.00000000000E+00  0.13044526071E+04  0.13044526071E+04  0.50400001928E-02 0. -1.
        1   -1    0    0  501    0  0.00000000000E+00  0.00000000000E+00 -0.21754803737E+04  0.21754803737E+04  0.50400001928E-02 0.  1.
    10030    2    1    2    0    0  0.00000000000E+00  0.00000000000E+00 -0.87102776665E+03  0.34799329808E+04  0.33691607532E+04 0.  0.
        4    1    3    3  502    0 -0.13727690476E+04 -0.97578431886E+03 -0.40034233157E+03  0.17311630455E+04  0.12699999809E+01 0. -1.
       -4    1    3    3    0  502  0.13727690476E+04  0.97578431886E+03 -0.47068543508E+03  0.17487699353E+04  0.12699999809E+01 0.  1.
</event>
<event>
 5   0  0.3796529E-07  0.3313910E+04  0.7818609E-02  0.8159365E-01
        1   -1    0    0  501    0  0.00000000000E+00  0.00000000000E+00  0.21121443822E+04  0.21121443822E+04  0.50400001928E-02 0. -1.
       -1   -1    0    0    0  501  0.00000000000E+00  0.00000000000E+00 -0.12998636232E+04  0.12998636232E+04  0.50400001928E-02 0.  1.
    10030    2    1    2    0    0  0.00000000000E+00  0.00000000000E+00  0.81228075902E+03  0.34120080055E+04  0.33139098657E+04 0.  0.
        5    1    3    3  502    0  0.10764011488E+04 -0.13269223717E+03 -0.88363111614E+03  0.13989541459E+04  0.46999998093E+01 0.  1.
       -5    1    3    3    0  502 -0.10764011488E+04  0.13269223717E+03  0.16959118752E+04  0.20130538595E+04  0.46999998093E+01 0. -1.
</event>
<event>
 5   0  0.3674967E-07  0.3593596E+04  0.7818609E-02  0.8091960E-01
       -1   -1    0    0    0  501  0.00000000000E+00  0.00000000000E+00  0.13691121127E+04  0.13691121127E+04  0.50400001928E-02 0. -1.
        1   -1    0    0  501    0  0.00000000000E+00  0.00000000000E+00 -0.23580858279E+04  0.23580858279E+04  0.50400001928E-02 0.  1.
    10030    2    1    2    0    0  0.00000000000E+00  0.00000000000E+00 -0.98897371519E+03  0.37271979406E+04  0.35935964547E+04 0.  0.
        2    1    3    3  502    0 -0.39311624263E+03 -0.12567057422E+04  0.77351708626E+03  0.15271471394E+04  0.25500000920E-02 0. -1.
       -2    1    3    3    0  502  0.39311624263E+03  0.12567057422E+04 -0.17624908014E+04  0.22000508012E+04  0.25500000920E-02 0.  1.
</event>
<event>
 5   0  0.1120545E-06  0.3300583E+04  0.7818609E-02  0.8162747E-01
       -2   -1    0    0    0  501  0.00000000000E+00  0.00000000000E+00  0.18768303909E+04  0.18768303909E+04  0.25500000920E-02 0.  1.
        2   -1    0    0  501    0  0.00000000000E+00  0.00000000000E+00 -0.14510963723E+04  0.14510963724E+04  0.25500000920E-02 0. -1.
    10030    2    1    2    0    0  0.00000000000E+00  0.00000000000E+00  0.42573401853E+03  0.33279267632E+04  0.33005828405E+04 0.  0.
        4    1    3    3  502    0  0.91657307765E+03 -0.14792693129E+03 -0.11627936806E+04  0.14879782728E+04  0.12699999809E+01 0. -1.
       -4    1    3    3    0  502 -0.91657307765E+03  0.14792693129E+03  0.15885276991E+04  0.18399484905E+04  0.12699999809E+01 0.  1.
</event>
<event>
 5   0  0.3757406E-07  0.3300906E+04  0.7818609E-02  0.8162665E-01
       -1   -1    0    0    0  501  0.00000000000E+00  0.00000000000E+00  0.16333064266E+04  0.16333064267E+04  0.50400001928E-02 0. -1.
        1   -1    0    0  501    0  0.00000000000E+00  0.00000000000E+00 -0.16677796329E+04  0.16677796330E+04  0.50400001928E-02 0.  1.
    10030    2    1    2    0    0  0.00000000000E+00  0.00000000000E+00 -0.34473206303E+02  0.33010860596E+04  0.33009060530E+04 0.  0.
        1    1    3    3  502    0  0.15240173590E+04 -0.59782987306E+03 -0.22692809177E+03  0.16527328358E+04  0.50400001928E-02 0. -1.
       -1    1    3    3    0  502 -0.15240173590E+04  0.59782987306E+03  0.19245488546E+03  0.16483532238E+04  0.50400001928E-02 0.  1.
</event>
<event>
 5   0  0.3749685E-07  0.3278605E+04  0.7818609E-02  0.8168361E-01
       -1   -1    0    0    0  501  0.00000000000E+00  0.00000000000E+00  0.21561320168E+04  0.21561320168E+04  0.50400001928E-02 0.  1.
        1   -1    0    0  501    0  0.00000000000E+00  0.00000000000E+00 -0.12463579088E+04  0.12463579088E+04  0.50400001928E-02 0. -1.
    10030    2    1    2    0    0  0.00000000000E+00  0.00000000000E+00  0.90977410800E+03  0.34024899256E+04  0.32786046980E+04 0.  0.
        3    1    3    3  502    0  0.12410061695E+04 -0.10385245314E+04  0.72686354377E+03  0.17739673437E+04  0.10100000352E+00 0. -1.
       -3    1    3    3    0  502 -0.12410061695E+04  0.10385245314E+04  0.18291056424E+03  0.16285225819E+04  0.10100000352E+00 0.  1.
</event>
<event>
 5   0  0.1126221E-06  0.3198941E+04  0.7818609E-02  0.8189097E-01
       -2   -1    0    0    0  501  0.00000000000E+00  0.00000000000E+00  0.14916485549E+04  0.14916485549E+04  0.25500000920E-02 0.  1.
        2   -1    0    0  501    0  0.00000000000E+00  0.00000000000E+00 -0.17150867366E+04  0.17150867366E+04  0.25500000920E-02 0. -1.
    10030    2    1    2    0    0  0.00000000000E+00  0.00000000000E+00 -0.22343818169E+03  0.32067352915E+04  0.31989414826E+04 0.  0.
        2    1    3    3  502    0 -0.10152247580E+04 -0.12242325582E+04  0.58636074946E+02  0.15914976768E+04  0.25500000920E-02 0.  1.
       -2    1    3    3    0  502  0.10152247580E+04  0.12242325582E+04 -0.28207425664E+03  0.16152376148E+04  0.25500000920E-02 0. -1.
</event>
<event>
 5   0  0.1120545E-06  0.3284735E+04  0.7818609E-02  0.8166790E-01
        2   -1    0    0  501    0  0.00000000000E+00  0.00000000000E+00  0.98295151832E+03  0.98295151832E+03  0.25500000920E-02 0.  1.
       -2   -1    0    0    0  501  0.00000000000E+00  0.00000000000E+00 -0.27441547064E+04  0.27441547064E+04  0.25500000920E-02 0. -1.
    10030    2    1    2    0    0  0.00000000000E+00  0.00000000000E+00 -0.17612031881E+04  0.37271062247E+04  0.32847350183E+04 0.  0.
        4    1    3    3  502    0 -0.95666294918E+03  0.10380125030E+04 -0.18331173521E+04  0.23136539919E+04  0.12699999809E+01 0.  1.
       -4    1    3    3    0  502  0.95666294918E+03 -0.10380125030E+04  0.71914164022E+02  0.14134522328E+04  0.12699999809E+01 0. -1.
</event>
<event>
 5   0  0.3796529E-07  0.3292021E+04  0.7818609E-02  0.8164929E-01
        1   -1    0    0  501    0  0.00000000000E+00  0.00000000000E+00  0.21583914504E+04  0.21583914504E+04  0.50400001928E-02 0. -1.
       -1   -1    0    0    0  501  0.00000000000E+00  0.00000000000E+00 -0.12552634770E+04  0.12552634770E+04  0.50400001928E-02 0.  1.
    10030    2    1    2    0    0  0.00000000000E+00  0.00000000000E+00  0.90312797345E+03  0.34136549274E+04  0.32920206298E+04 0.  0.
        5    1    3    3  502    0  0.19152837662E+03  0.16285795174E+04  0.59957360079E+03  0.17459853826E+04  0.46999998093E+01 0.  1.
       -5    1    3    3    0  502 -0.19152837662E+03 -0.16285795174E+04  0.30355437266E+03  0.16676695448E+04  0.46999998093E+01 0. -1.
</event>
<event>
 5   0  0.1120545E-06  0.3301797E+04  0.7818609E-02  0.8162438E-01
       -2   -1    0    0    0  501  0.00000000000E+00  0.00000000000E+00  0.94484427977E+03  0.94484427978E+03  0.25500000920E-02 0.  1.
        2   -1    0    0  501    0  0.00000000000E+00  0.00000000000E+00 -0.28845660479E+04  0.28845660479E+04  0.25500000920E-02 0. -1.
    10030    2    1    2    0    0  0.00000000000E+00  0.00000000000E+00 -0.19397217681E+04  0.38294103276E+04  0.33017969229E+04 0.  0.
        4    1    3    3  502    0 -0.13345517070E+04 -0.79704979244E+03 -0.16147193502E+04  0.22413471001E+04  0.12699999809E+01 0.  1.
       -4    1    3    3    0  502  0.13345517070E+04  0.79704979244E+03 -0.32500241790E+03  0.15880632276E+04  0.12699999809E+01 0. -1.
</event>
<event>
 5   0  0.3674967E-07  0.3288666E+04  0.7818609E-02  0.8165785E-01
       -1   -1    0    0    0  501  0.00000000000E+00  0.00000000000E+00  0.12347376979E+04  0.12347376979E+04  0.50400001928E-02 0. -1.
        1   -1    0    0  501    0  0.00000000000E+00  0.00000000000E+00 -0.21898017953E+04  0.21898017953E+04  0.50400001928E-02 0.  1.
    10030    2    1    2    0    0  0.00000000000E+00  0.00000000000E+00 -0.95506409738E+03  0.34245394931E+04  0.32886658860E+04 0.  0.
        2    1    3    3  502    0 -0.64879428169E+03  0.12977196093E+04  0.32827451422E+03  0.14875397006E+04  0.25500000920E-02 0. -1.
       -2    1    3    3    0  502  0.64879428169E+03 -0.12977196093E+04 -0.12833386116E+04  0.19369997925E+04  0.25500000920E-02 0.  1.
</event>
<event>
 5   0  0.1146799E-06  0.3347596E+04  0.7818609E-02  0.8150889E-01
        2   -1    0    0  501    0  0.00000000000E+00  0.00000000000E+00  0.10391080602E+04  0.10391080602E+04  0.25500000920E-02 0.  1.
       -2   -1    0    0    0  501  0.00000000000E+00  0.00000000000E+00 -0.26961588826E+04  0.26961588826E+04  0.25500000920E-02 0. -1.
    10030    2    1    2    0    0  0.00000000000E+00  0.00000000000E+00 -0.16570508224E+04  0.37352669428E+04  0.33475964072E+04 0.  0.
        5    1    3    3  502    0 -0.91362982917E+03  0.28874685586E+03  0.70280720685E+03  0.11882988982E+04  0.46999998093E+01 0.  1.
       -5    1    3    3    0  502  0.91362982917E+03 -0.28874685586E+03 -0.23598580293E+04  0.25469680445E+04  0.46999998093E+01 0. -1.
</event>
<event>
 5   0  0.3709747E-07  0.3321528E+04  0.7818609E-02  0.8157439E-01
        1   -1    0    0  501    0  0.00000000000E+00  0.00000000000E+00  0.15878510545E+04  0.15878510546E+04  0.50400001928E-02 0.  1.
       -1   -1    0    0    0  501  0.00000000000E+00  0.00000000000E+00 -0.17370253482E+04  0.17370253482E+04  0.50400001928E-02 0. -1.
    10030    2    1    2    0    0  0.00000000000E+00  0.00000000000E+00 -0.14917429363E+03  0.33248764027E+04  0.33215282813E+04 0.  0.
        4    1    3    3  502    0 -0.43471971305E+03 -0.12337261141E+03 -0.16743012606E+04  0.17342111619E+04  0.12699999809E+01 0. -1.
       -4    1    3    3    0  502  0.43471971305E+03  0.12337261141E+03  0.15251269669E+04  0.15906652408E+04  0.12699999809E+01 0.  1.
</event>
<event>
 5   0  0.1129434E-06  0.3299985E+04  0.7818609E-02  0.8162899E-01
       -2   -1    0    0    0  501  0.00000000000E+00  0.00000000000E+00  0.15532029746E+04  0.15532029746E+04  0.25500000920E-02 0.  1.
        2   -1    0    0  501    0  0.00000000000E+00  0.00000000000E+00 -0.17528135026E+04  0.17528135026E+04  0.25500000920E-02 0. -1.
    10030    2    1    2    0    0  0.00000000000E+00  0.00000000000E+00 -0.19961052804E+03  0.33060164772E+04  0.32999849371E+04 0.  0.
        3    1    3    3  502    0  0.14332970160E+04 -0.41818253161E+03 -0.80341234266E+03  0.16954905981E+04  0.10100000352E+00 0. -1.
       -3    1    3    3    0  502 -0.14332970160E+04  0.41818253161E+03  0.60380181462E+03  0.16105258791E+04  0.10100000352E+00 0.  1.
</event>
<event>
 5   0  0.3674967E-07  0.3126219E+04  0.7818609E-02  0.8208579E-01
       -1   -1    0    0    0  501  0.00000000000E+00  0.00000000000E+00  0.27491011065E+04  0.27491011065E+04  0.50400001928E-02 0.  1.
        1   -1    0    0  501    0  0.00000000000E+00  0.00000000000E+00 -0.88876746123E+03  0.88876746125E+03  0.50400001928E-02 0. -1.
    10030    2    1    2    0    0  0.00000000000E+00  0.00000000000E+00  0.18603336453E+04  0.36378685678E+04  0.31262191933E+04 0.  0.
        2    1    3    3  502    0 -0.13113226730E+03 -0.14586276952E+04  0.15659589688E+04  0.21440657445E+04  0.25500000920E-02 0. -1.
       -2    1    3    3    0  502  0.13113226730E+03  0.14586276952E+04  0.29437467652E+03  0.14938028233E+04  0.25500000920E-02 0.  1.
</event>
<event>
 5   0  0.1126221E-06  0.3018624E+04  0.7818609E-02  0.8238433E-01
       -2   -1    0    0    0  501  0.00000000000E+00  0.00000000000E+00  0.98695524659E+03  0.98695524659E+03  0.25500000920E-02 0. -1.
        2   -1    0    0  501    0  0.00000000000E+00  0.00000000000E+00 -0.23081310112E+04  0.23081310112E+04  0.25500000920E-02 0.  1.
    10030    2    1    2    0    0  0.00000000000E+00  0.00000000000E+00 -0.13211757647E+04  0.32950862578E+04  0.30186235349E+04 0.  0.
        2    1    3    3  502    0  0.58970452114E+03  0.12138082937E+04  0.77294990848E+02  0.13516865434E+04  0.25500000920E-02 0. -1.
       -2    1    3    3    0  502 -0.58970452114E+03 -0.12138082937E+04 -0.13984707555E+04  0.19433997144E+04  0.25500000920E-02 0.  1.
</event>
<event>
 5   0  0.1120545E-06  0.3299117E+04  0.7818609E-02  0.8163120E-01
       -2   -1    0    0    0  501  0.00000000000E+00  0.00000000000E+00  0.14893183368E+04  0.14893183368E+04  0.25500000920E-02 0. -1.
        2   -1    0    0  501    0  0.00000000000E+00  0.00000000000E+00 -0.18270398743E+04  0.18270398743E+04  0.25500000920E-02 0.  1.
    10030    2    1    2    0    0  0.00000000000E+00  0.00000000000E+00 -0.33772153750E+03  0.33163582112E+04  0.32991174498E+04 0.  0.
        4    1    3    3  502    0  0.41351359143E+03 -0.14734083261E+04  0.45008153261E+03  0.15951490792E+04  0.12699999809E+01 0. -1.
       -4    1    3    3    0  502 -0.41351359143E+03  0.14734083261E+04 -0.78780307012E+03  0.17212091320E+04  0.12699999809E+01 0.  1.
</event>
<event>
 5   0  0.1146799E-06  0.3266996E+04  0.7818609E-02  0.8171344E-01
        2   -1    0    0  501    0  0.00000000000E+00  0.00000000000E+00  0.15298330838E+04  0.15298330838E+04  0.25500000920E-02 0. -1.
       -2   -1    0    0    0  501  0.00000000000E+00  0.00000000000E+00 -0.17441875265E+04  0.17441875265E+04  0.25500000920E-02 0.  1.
    10030    2    1    2    0    0  0.00000000000E+00  0.00000000000E+00 -0.21435444261E+03  0.32740206103E+04  0.32669960406E+04 0.  0.
        5    1    3    3  502    0  0.16485723041E+03 -0.65605084772E+03  0.13828664266E+04  0.15394551845E+04  0.46999998093E+01 0. -1.
       -5    1    3    3    0  502 -0.16485723041E+03  0.65605084772E+03 -0.15972208692E+04  0.17345654258E+04  0.46999998093E+01 0.  1.
</event>
<event>
 5   0  0.3757406E-07  0.3270040E+04  0.7818609E-02  0.8170561E-01
        1   -1    0    0  501    0  0.00000000000E+00  0.00000000000E+00  0.18252251526E+04  0.18252251526E+04  0.50400001928E-02 0.  1.
       -1   -1    0    0    0  501  0.00000000000E+00  0.00000000000E+00 -0.14646360530E+04  0.14646360530E+04  0.50400001928E-02 0. -1.
    10030    2    1    2    0    0  0.00000000000E+00  0.00000000000E+00  0.36058909968E+03  0.32898612056E+04  0.32700400996E+04 0.  0.
        1    1    3    3  502    0  0.78807430685E+03 -0.78143702705E+03  0.13882327590E+04  0.17773280883E+04  0.50400001928E-02 0.  1.
       -1    1    3    3    0  502 -0.78807430685E+03  0.78143702705E+03 -0.10276436593E+04  0.15125331173E+04  0.50400001928E-02 0. -1.
</event>
<event>
 5   0  0.3674967E-07  0.3269696E+04  0.7818609E-02  0.8170649E-01
        1   -1    0    0  501    0  0.00000000000E+00  0.00000000000E+00  0.20694448376E+04  0.20694448376E+04  0.50400001928E-02 0.  1.
       -1   -1    0    0    0  501  0.00000000000E+00  0.00000000000E+00 -0.12915195823E+04  0.12915195823E+04  0.50400001928E-02 0. -1.
    10030    2    1    2    0    0  0.00000000000E+00  0.00000000000E+00  0.77792525531E+03  0.33609644199E+04  0.32696963359E+04 0.  0.
        2    1    3    3  502    0 -0.12563410658E+04 -0.98501788758E+03  0.26886934395E+02  0.15966765545E+04  0.25500000920E-02 0.  1.
       -2    1    3    3    0  502  0.12563410658E+04  0.98501788758E+03  0.75103832091E+03  0.17642878654E+04  0.25500000920E-02 0. -1.
</event>
<event>
 5   0  0.1146799E-06  0.3338681E+04  0.7818609E-02  0.8153122E-01
        2   -1    0    0  501    0  0.00000000000E+00  0.00000000000E+00  0.12297298507E+04  0.12297298507E+04  0.25500000920E-02 0.  1.
       -2   -1    0    0    0  501  0.00000000000E+00  0.00000000000E+00 -0.22661061663E+04  0.22661061663E+04  0.25500000920E-02 0. -1.
    10030    2    1    2    0    0  0.00000000000E+00  0.00000000000E+00 -0.10363763156E+04  0.34958360170E+04  0.33386814149E+04 0.  0.
        5    1    3    3  502    0  0.27084521882E+03 -0.93611284691E+02  0.12037758525E+04  0.12374241787E+04  0.46999998093E+01 0.  1.
       -5    1    3    3    0  502 -0.27084521882E+03  0.93611284691E+02 -0.22401521681E+04  0.22584118383E+04  0.46999998093E+01 0. -1.
</event>
<event>
 5   0  0.3749685E-07  0.3297461E+04  0.7818609E-02  0.8163542E-01
       -1   -1    0    0    0  501  0.00000000000E+00  0.00000000000E+00  0.13308843383E+04  0.13308843383E+04  0.50400001928E-02 0. -1.
        1   -1    0    0  501    0  0.00000000000E+00  0.00000000000E+00 -0.20424858180E+04  0.20424858180E+04  0.50400001928E-02 0.  1.
    10030    2    1    2    0    0  0.00000000000E+00  0.00000000000E+00 -0.71160147975E+03  0.33733701563E+04  0.32974610757E+04 0.  0.
        3    1    3    3  502    0 -0.95992228853E+03  0.10878109173E+04  0.44551165966E+03  0.15176508297E+04  0.10100000352E+00 0. -1.
       -3    1    3    3    0  502  0.95992228853E+03 -0.10878109173E+04 -0.11571131394E+04  0.18557193267E+04  0.10100000352E+00 0.  1.
</event>
<event>
 5   0  0.1116462E-06  0.3349495E+04  0.7818609E-02  0.8150414E-01
        2   -1    0    0  501    0  0.00000000000E+00  0.00000000000E+00  0.18297387550E+04  0.18297387550E+04  0.25500000920E-02 0. -1.
       -2   -1    0    0    0  501  0.00000000000E+00  0.00000000000E+00 -0.15328850220E+04  0.15328850220E+04  0.25500000920E-02 0.  1.
    10030    2    1    2    0    0  0.00000000000E+00  0.00000000000E+00  0.29685373297E+03  0.33626237771E+04  0.33494949660E+04 0.  0.
        1    1    3    3  502    0 -0.13486315936E+04  0.72599492946E+03 -0.53165242295E+03  0.16212742247E+04  0.50400001928E-02 0.  1.
       -1    1    3    3    0  502  0.13486315936E+04 -0.72599492946E+03  0.82850615592E+03  0.17413495523E+04  0.50400001928E-02 0. -1.
</event>
<event>
 5   0  0.3757406E-07  0.3293292E+04  0.7818609E-02  0.8164604E-01
       -1   -1    0    0    0  501  0.00000000000E+00  0.00000000000E+00  0.11692092134E+04  0.11692092134E+04  0.50400001928E-02 0.  1.
        1   -1    0    0  501    0  0.00000000000E+00  0.00000000000E+00 -0.23190405459E+04  0.23190405459E+04  0.50400001928E-02 0. -1.
    10030    2    1    2    0    0  0.00000000000E+00  0.00000000000E+00 -0.11498313325E+04  0.34882497593E+04  0.32932923177E+04 0.  0.
        1    1    3    3  502    0  0.15912011631E+04 -0.59018297193E+02 -0.10193238760E+04  0.18906151023E+04  0.50400001928E-02 0.  1.
       -1    1    3    3    0  502 -0.15912011631E+04  0.59018297193E+02 -0.13050745656E+03  0.15976346570E+04  0.50400001928E-02 0. -1.
</event>
<event>
 5   0  0.1116462E-06  0.3285658E+04  0.7818609E-02  0.8166554E-01
        2   -1    0    0  501    0  0.00000000000E+00  0.00000000000E+00  0.29495338243E+04  0.29495338243E+04  0.25500000920E-02 0. -1.
       -2   -1    0    0    0  501  0.00000000000E+00  0.00000000000E+00 -0.91502173629E+03  0.91502173629E+03  0.25500000920E-02 0.  1.
    10030    2    1    2    0    0  0.00000000000E+00  0.00000000000E+00  0.20345120880E+04  0.38645555606E+04  0.32856582666E+04 0.  0.
        1    1    3    3  502    0 -0.68906186589E+02  0.12169551635E+04  0.23127522300E+04  0.26142973836E+04  0.50400001928E-02 0. -1.
       -1    1    3    3    0  502  0.68906186589E+02 -0.12169551635E+04 -0.27824014198E+03  0.12502581770E+04  0.50400001928E-02 0.  1.
</event>
<event>
 5   0  0.1116462E-06  0.3282259E+04  0.7818609E-02  0.8167424E-01
       -2   -1    0    0    0  501  0.00000000000E+00  0.00000000000E+00  0.14693525406E+04  0.14693525406E+04  0.25500000920E-02 0. -1.
        2   -1    0    0  501    0  0.00000000000E+00  0.00000000000E+00 -0.18329881917E+04  0.18329881917E+04  0.25500000920E-02 0.  1.
    10030    2    1    2    0    0  0.00000000000E+00  0.00000000000E+00 -0.36363565111E+03  0.33023407323E+04  0.32822588907E+04 0.  0.
        1    1    3    3  502    0 -0.14218156196E+04 -0.10965936969E+03 -0.99901942834E+03  0.17411561250E+04  0.50400001928E-02 0.  1.
       -1    1    3    3    0  502  0.14218156196E+04  0.10965936969E+03  0.63538377723E+03  0.15611846072E+04  0.50400001928E-02 0. -1.
</event>
<event>
 5   0  0.1146799E-06  0.3316139E+04  0.7818609E-02  0.8158801E-01
        2   -1    0    0  501    0  0.00000000000E+00  0.00000000000E+00  0.20996458829E+04  0.20996458829E+04  0.25500000920E-02 0. -1.
       -2   -1    0    0    0  501  0.00000000000E+00  0.00000000000E+00 -0.13093612925E+04  0.13093612925E+04  0.25500000920E-02 0.  1.
    10030    2    1    2    0    0  0.00000000000E+00  0.00000000000E+00  0.79028459048E+03  0.34090071754E+04  0.33161393499E+04 0.  0.
        5    1    3    3  502    0  0.11660122510E+04  0.88315111712E+03  0.11977978142E+04  0.18905772025E+04  0.46999998093E+01 0. -1.
       -5    1    3    3    0  502 -0.11660122510E+04 -0.88315111712E+03 -0.40751322368E+03  0.15184299729E+04  0.46999998093E+01 0.  1.
</event>
<event>
 5   0  0.1129434E-06  0.3290449E+04  0.7818609E-02  0.8165330E-01
       -2   -1    0    0    0  501  0.00000000000E+00  0.00000000000E+00  0.10612737281E+04  0.10612737281E+04  0.25500000920E-02 0. -1.
        2   -1    0    0  501    0  0.00000000000E+00  0.00000000000E+00 -0.25504851274E+04  0.25504851274E+04  0.25500000920E-02 0.  1.
    10030    2    1    2    0    0  0.00000000000E+00  0.00000000000E+00 -0.14892113993E+04  0.36117588555E+04  0.32904485163E+04 0.  0.
        3    1    3    3  502    0 -0.11390112506E+04 -0.82079520578E+03 -0.16860993686E+04  0.21940789616E+04  0.10100000352E+00 0.  1.
       -3    1    3    3    0  502  0.11390112506E+04  0.82079520578E+03  0.19688796931E+03  0.14176798939E+04  0.10100000352E+00 0. -1.
</event>
<event>
 5   0  0.3709747E-07  0.3310506E+04  0.7818609E-02  0.8160227E-01
        1   -1    0    0  501    0  0.00000000000E+00  0.00000000000E+00  0.21541539799E+04  0.21541539799E+04  0.50400001928E-02 0. -1.
       -1   -1    0    0    0  501  0.00000000000E+00  0.00000000000E+00 -0.12718970352E+04  0.12718970352E+04  0.50400001928E-02 0.  1.
    10030    2    1    2    0    0  0.00000000000E+00  0.00000000000E+00  0.88225694469E+03  0.34260510150E+04  0.33105057380E+04 0.  0.
        4    1    3    3  502    0 -0.12588210182E+04 -0.35154070129E+03 -0.61002349879E+03  0.14423389000E+04  0.12699999809E+01 0.  1.
       -4    1    3    3    0  502  0.12588210182E+04  0.35154070129E+03  0.14922804435E+04  0.19837121150E+04  0.12699999809E+01 0. -1.
</event>
<event>
 5   0  0.3749685E-07  0.3208522E+04  0.7818609E-02  0.8186570E-01
        1   -1    0    0  501    0  0.00000000000E+00  0.00000000000E+00  0.14190973760E+04  0.14190973760E+04  0.50400001928E-02 0. -1.
       -1   -1    0    0    0  501  0.00000000000E+00  0.00000000000E+00 -0.18135843375E+04  0.18135843375E+04  0.50400001928E-02 0.  1.
    10030    2    1    2    0    0  0.00000000000E+00  0.00000000000E+00 -0.39448696145E+03  0.32326817135E+04  0.32085216375E+04 0.  0.
        3    1    3    3  502    0  0.12453129101E+04 -0.22919830442E+03  0.79522041699E+03  0.14952296240E+04  0.10100000352E+00 0. -1.
       -3    1    3    3    0  502 -0.12453129101E+04  0.22919830442E+03 -0.11897073784E+04  0.17374520895E+04  0.10100000352E+00 0.  1.
</event>
<event>
 5   0  0.3674967E-07  0.3304193E+04  0.7818609E-02  0.8161829E-01
        1   -1    0    0  501    0  0.00000000000E+00  0.00000000000E+00  0.11343017116E+04  0.11343017116E+04  0.50400001928E-02 0. -1.
       -1   -1    0    0    0  501  0.00000000000E+00  0.00000000000E+00 -0.24062580254E+04  0.24062580254E+04  0.50400001928E-02 0.  1.
    10030    2    1    2    0    0  0.00000000000E+00  0.00000000000E+00 -0.12719563138E+04  0.35405597370E+04  0.33041928495E+04 0.  0.
        2    1    3    3  502    0  0.38595769855E+03 -0.15244957036E+04 -0.11785308464E+04  0.19651934896E+04  0.25500000920E-02 0.  1.
       -2    1    3    3    0  502 -0.38595769855E+03  0.15244957036E+04 -0.93425467313E+02  0.15753662474E+04  0.25500000920E-02 0. -1.
</event>
<event>
 5   0  0.3757406E-07  0.3288750E+04  0.7818609E-02  0.8165764E-01
       -1   -1    0    0    0  501  0.00000000000E+00  0.00000000000E+00  0.14852454943E+04  0.14852454943E+04  0.50400001928E-02 0. -1.
        1   -1    0    0  501    0  0.00000000000E+00  0.00000000000E+00 -0.18205541060E+04  0.18205541060E+04  0.50400001928E-02 0.  1.
    10030    2    1    2    0    0  0.00000000000E+00  0.00000000000E+00 -0.33530861164E+03  0.33057996003E+04  0.32887503907E+04 0.  0.
        1    1    3    3  502    0 -0.76247567500E+03  0.13918373978E+04 -0.60045497772E+03  0.16967989501E+04  0.50400001928E-02 0.  1.
       -1    1    3    3    0  502  0.76247567500E+03 -0.13918373978E+04  0.26514636608E+03  0.16090006502E+04  0.50400001928E-02 0. -1.
</event>
<event>
 5   0  0.1116462E-06  0.3343592E+04  0.7818609E-02  0.8151891E-01
        2   -1    0    0  501    0  0.00000000000E+00  0.00000000000E+00  0.23216870309E+04  0.23216870309E+04  0.25500000920E-02 0.  1.
       -2   -1    0    0    0  501  0.00000000000E+00  0.00000000000E+00 -0.12038234948E+04  0.12038234948E+04  0.25500000920E-02 0. -1.
    10030    2    1    2    0    0  0.00000000000E+00  0.00000000000E+00  0.11178635361E+04  0.35255105256E+04  0.33435917186E+04 0.  0.
        1    1    3    3  502    0 -0.47018586820E+03  0.69144038414E+03 -0.96749913037E+03  0.12787568662E+04  0.50400001928E-02 0. -1.
       -1    1    3    3    0  502  0.47018586820E+03 -0.69144038414E+03  0.20853626665E+04  0.22467536595E+04  0.50400001928E-02 0.  1.
</event>
<event>
 5   0  0.3749685E-07  0.3246143E+04  0.7818609E-02  0.8176736E-01
        1   -1    0    0  501    0  0.00000000000E+00  0.00000000000E+00  0.24439425038E+04  0.24439425038E+04  0.50400001928E-02 0.  1.
       -1   -1    0    0    0  501  0.00000000000E+00  0.00000000000E+00 -0.10779147688E+04  0.10779147689E+04  0.50400001928E-02 0. -1.
    10030    2    1    2    0    0  0.00000000000E+00  0.00000000000E+00  0.13660277349E+04  0.35218572726E+04  0.32461433850E+04 0.  0.
        3    1    3    3  502    0  0.75521917287E+03  0.46175195002E+03  0.21590015189E+04  0.23334220431E+04  0.10100000352E+00 0.  1.
       -3    1    3    3    0  502 -0.75521917287E+03 -0.46175195002E+03 -0.79297378400E+03  0.11884352295E+04  0.10100000352E+00 0. -1.
</event>
<event>
 5   0  0.1126221E-06  0.3350323E+04  0.7818609E-02  0.8150208E-01
       -2   -1    0    0    0  501  0.00000000000E+00  0.00000000000E+00  0.14551165438E+04  0.14551165438E+04  0.25500000920E-02 0.  1.
        2   -1    0    0  501    0  0.00000000000E+00  0.00000000000E+00 -0.19284815512E+04  0.19284815512E+04  0.25500000920E-02 0. -1.
    10030    2    1    2    0    0  0.00000000000E+00  0.00000000000E+00 -0.47336500733E+03  0.33835980950E+04  0.33503226171E+04 0.  0.
        2    1    3    3  502    0  0.46222217027E+03 -0.76903880883E+02 -0.18609476904E+04  0.19190335714E+04  0.25500000920E-02 0. -1.
       -2    1    3    3    0  502 -0.46222217027E+03  0.76903880883E+02  0.13875826831E+04  0.14645645237E+04  0.25500000920E-02 0.  1.
</event>
<event>
 5   0  0.3796529E-07  0.3298940E+04  0.7818609E-02  0.8163165E-01
       -1   -1    0    0    0  501  0.00000000000E+00  0.00000000000E+00  0.18572852687E+04  0.18572852687E+04  0.50400001928E-02 0. -1.
        1   -1    0    0  501    0  0.00000000000E+00  0.00000000000E+00 -0.14649073541E+04  0.14649073541E+04  0.50400001928E-02 0.  1.
    10030    2    1    2    0    0  0.00000000000E+00  0.00000000000E+00  0.39237791460E+03  0.33221926228E+04  0.32989397380E+04 0.  0.
        5    1    3    3  502    0  0.66155792092E+03  0.10883348451E+04 -0.85933880229E+03  0.15364299154E+04  0.46999998093E+01 0.  1.
       -5    1    3    3    0  502 -0.66155792092E+03 -0.10883348451E+04  0.12517167169E+04  0.17857627074E+04  0.46999998093E+01 0. -1.
</event>
<event>
 5   0  0.1120545E-06  0.3285235E+04  0.7818609E-02  0.8166663E-01
       -2   -1    0    0    0  501  0.00000000000E+00  0.00000000000E+00  0.11749995093E+04  0.11749995093E+04  0.25500000920E-02 0. -1.
        2   -1    0    0  501    0  0.00000000000E+00  0.00000000000E+00 -0.22963343013E+04  0.22963343013E+04  0.25500000920E-02 0.  1.
    10030    2    1    2    0    0  0.00000000000E+00  0.00000000000E+00 -0.11213347920E+04  0.34713338106E+04  0.32852346505E+04 0.  0.
        4    1    3    3  502    0 -0.10670539014E+04  0.12806844573E+03  0.75195228321E+03  0.13116552155E+04  0.12699999809E+01 0. -1.
       -4    1    3    3    0  502  0.10670539014E+04 -0.12806844573E+03 -0.18732870752E+04  0.21596785951E+04  0.12699999809E+01 0.  1.
</event>
<event>
 5   0  0.1116462E-06  0.3265416E+04  0.7818609E-02  0.8171752E-01
        2   -1    0    0  501    0  0.00000000000E+00  0.00000000000E+00  0.14010243597E+04  0.14010243597E+04  0.25500000920E-02 0.  1.
       -2   -1    0    0    0  501  0.00000000000E+00  0.00000000000E+00 -0.19027042719E+04  0.19027042719E+04  0.25500000920E-02 0. -1.
    10030    2    1    2    0    0  0.00000000000E+00  0.00000000000E+00 -0.50167991220E+03  0.33037286315E+04  0.32654157678E+04 0.  0.
        1    1    3    3  502    0 -0.10378300624E+04 -0.10389507579E+04 -0.97281268044E+03  0.17614977794E+04  0.50400001928E-02 0. -1.
       -1    1    3    3    0  502  0.10378300624E+04  0.10389507579E+04  0.47113276824E+03  0.15422308521E+04  0.50400001928E-02 0.  1.
</event>
<event>
 5   0  0.1116462E-06  0.3299115E+04  0.7818609E-02  0.8163121E-01
        2   -1    0    0  501    0  0.00000000000E+00  0.00000000000E+00  0.29943199759E+04  0.29943199759E+04  0.25500000920E-02 0. -1.
       -2   -1    0    0    0  501  0.00000000000E+00  0.00000000000E+00 -0.90873360653E+03  0.90873360654E+03  0.25500000920E-02 0.  1.
    10030    2    1    2    0    0  0.00000000000E+00  0.00000000000E+00  0.20855863694E+04  0.39030535824E+04  0.32991145423E+04 0.  0.
        1    1    3    3  502    0 -0.14456002214E+04 -0.77390109351E+03  0.12556004578E+04  0.20652397954E+04  0.50400001928E-02 0. -1.
       -1    1    3    3    0  502  0.14456002214E+04  0.77390109351E+03  0.82998591155E+03  0.18378137871E+04  0.50400001928E-02 0.  1.
</event>
<event>
 5   0  0.3709747E-07  0.3295601E+04  0.7818609E-02  0.8164016E-01
       -1   -1    0    0    0  501  0.00000000000E+00  0.00000000000E+00  0.13822898730E+04  0.13822898730E+04  0.50400001928E-02 0. -1.
        1   -1    0    0  501    0  0.00000000000E+00  0.00000000000E+00 -0.19643105664E+04  0.19643105664E+04  0.50400001928E-02 0.  1.
    10030    2    1    2    0    0  0.00000000000E+00  0.00000000000E+00 -0.58202069347E+03  0.33466004394E+04  0.32956010701E+04 0.  0.
        4    1    3    3  502    0 -0.12991138482E+04 -0.82377592069E+02  0.73495219239E+03  0.14948709631E+04  0.12699999809E+01 0. -1.
       -4    1    3    3    0  502  0.12991138482E+04  0.82377592069E+02 -0.13169728859E+04  0.18517294763E+04  0.12699999809E+01 0.  1.
</event>
<event>
 5   0  0.1120545E-06  0.3305562E+04  0.7818609E-02  0.8161482E-01
       -2   -1    0    0    0  501  0.00000000000E+00  0.00000000000E+00  0.15760821542E+04  0.15760821542E+04  0.25500000920E-02 0. -1.
        2   -1    0    0  501    0  0.00000000000E+00  0.00000000000E+00 -0.17332126023E+04  0.17332126023E+04  0.25500000920E-02 0.  1.
    10030    2    1    2    0    0  0.00000000000E+00  0.00000000000E+00 -0.15713044813E+03  0.33092947565E+04  0.33055622528E+04 0.  0.
        4    1    3    3  502    0 -0.43646061075E+03 -0.92608783495E+03  0.12204156942E+04  0.15929697494E+04  0.12699999809E+01 0. -1.
       -4    1    3    3    0  502  0.43646061075E+03  0.92608783495E+03 -0.13775461424E+04  0.17163250071E+04  0.12699999809E+01 0.  1.
</event>
<event>
 5   0  0.1120545E-06  0.3511211E+04  0.7818609E-02  0.8111138E-01
        2   -1    0    0  501    0  0.00000000000E+00  0.00000000000E+00  0.24564739755E+04  0.24564739755E+04  0.25500000920E-02 0. -1.
       -2   -1    0    0    0  501  0.00000000000E+00  0.00000000000E+00 -0.12547055247E+04  0.12547055247E+04  0.25500000920E-02 0.  1.
    10030    2    1    2    0    0  0.00000000000E+00  0.00000000000E+00  0.12017684508E+04  0.37111795002E+04  0.35112114538E+04 0.  0.
        4    1    3    3  502    0 -0.76536051931E+03  0.10558899432E+04 -0.64141334475E+03  0.14533041624E+04  0.12699999809E+01 0.  1.
       -4    1    3    3    0  502  0.76536051931E+03 -0.10558899432E+04  0.18431817955E+04  0.22578753378E+04  0.12699999809E+01 0. -1.
</event>
<event>
 5   0  0.3674967E-07  0.3283328E+04  0.7818609E-02  0.8167150E-01
        1   -1    0    0  501    0  0.00000000000E+00  0.00000000000E+00  0.12274725305E+04  0.12274725305E+04  0.50400001928E-02 0.  1.
       -1   -1    0    0    0  501  0.00000000000E+00  0.00000000000E+00 -0.21956184421E+04  0.21956184421E+04  0.50400001928E-02 0. -1.
    10030    2    1    2    0    0  0.00000000000E+00  0.00000000000E+00 -0.96814591153E+03  0.34230909726E+04  0.32833283876E+04 0.  0.
        2    1    3    3  502    0 -0.10812191438E+04  0.63240397644E+03  0.62227311580E+03  0.13986398596E+04  0.25500000920E-02 0.  1.
       -2    1    3    3    0  502  0.10812191438E+04 -0.63240397644E+03 -0.15904190273E+04  0.20244511130E+04  0.25500000920E-02 0. -1.
</event>
<event>
 5   0  0.1116462E-06  0.3357784E+04  0.7818609E-02  0.8148346E-01
       -2   -1    0    0    0  501  0.00000000000E+00  0.00000000000E+00  0.27562315410E+04  0.27562315410E+04  0.25500000920E-02 0. -1.
        2   -1    0    0  501    0  0.00000000000E+00  0.00000000000E+00 -0.10226565996E+04  0.10226565996E+04  0.25500000920E-02 0.  1.
    10030    2    1    2    0    0  0.00000000000E+00  0.00000000000E+00  0.17335749414E+04  0.37788881407E+04  0.33577840166E+04 0.  0.
        1    1    3    3  502    0 -0.58871408608E+03  0.12090982124E+04 -0.26433523146E+03  0.13705385354E+04  0.50400001928E-02 0.  1.
       -1    1    3    3    0  502  0.58871408608E+03 -0.12090982124E+04  0.19979101729E+04  0.24083496053E+04  0.50400001928E-02 0. -1.
</event>
<event>
 5   0  0.3796529E-07  0.3265774E+04  0.7818609E-02  0.8171659E-01
        1   -1    0    0  501    0  0.00000000000E+00  0.00000000000E+00  0.20833540448E+04  0.20833540448E+04  0.50400001928E-02 0.  1.
       -1   -1    0    0    0  501  0.00000000000E+00  0.00000000000E+00 -0.12798209861E+04  0.12798209861E+04  0.50400001928E-02 0. -1.
    10030    2    1    2    0    0  0.00000000000E+00  0.00000000000E+00  0.80353305872E+03  0.33631750310E+04  0.32657741674E+04 0.  0.
        5    1    3    3  502    0  0.57541061199E+02 -0.15266588468E+04  0.99541375904E+03  0.18234222906E+04  0.46999998093E+01 0.  1.
       -5    1    3    3    0  502 -0.57541061199E+02  0.15266588468E+04 -0.19188070032E+03  0.15397527403E+04  0.46999998093E+01 0. -1.
</event>
<event>
 5   0  0.3796529E-07  0.3301903E+04  0.7818609E-02  0.8162411E-01
       -1   -1    0    0    0  501  0.00000000000E+00  0.00000000000E+00  0.14791203974E+04  0.14791203974E+04  0.50400001928E-02 0. -1.
        1   -1    0    0  501    0  0.00000000000E+00  0.00000000000E+00 -0.18427445526E+04  0.18427445526E+04  0.50400001928E-02 0.  1.
    10030    2    1    2    0    0  0.00000000000E+00  0.00000000000E+00 -0.36362415515E+03  0.33218649500E+04  0.33019031209E+04 0.  0.
        5    1    3    3  502    0  0.12422992578E+04  0.96019944611E+03 -0.69512067603E+03  0.17171212148E+04  0.46999998093E+01 0.  1.
       -5    1    3    3    0  502 -0.12422992578E+04 -0.96019944611E+03  0.33149652088E+03  0.16047437352E+04  0.46999998093E+01 0. -1.
</event>
<event>
 5   0  0.3796529E-07  0.3328745E+04  0.7818609E-02  0.8155619E-01
       -1   -1    0    0    0  501  0.00000000000E+00  0.00000000000E+00  0.11139670026E+04  0.11139670026E+04  0.50400001928E-02 0. -1.
        1   -1    0    0  501    0  0.00000000000E+00  0.00000000000E+00 -0.24867310958E+04  0.24867310958E+04  0.50400001928E-02 0.  1.
    10030    2    1    2    0    0  0.00000000000E+00  0.00000000000E+00 -0.13727640932E+04  0.36006980984E+04  0.33287453402E+04 0.  0.
        5    1    3    3  502    0  0.32999070711E+03  0.95700830262E+03 -0.21154342434E+04  0.23451743829E+04  0.46999998093E+01 0.  1.
       -5    1    3    3    0  502 -0.32999070711E+03 -0.95700830262E+03  0.74267015023E+03  0.12555237155E+04  0.46999998093E+01 0. -1.
</event>
<event>
 5   0  0.3674967E-07  0.3303413E+04  0.7818609E-02  0.8162027E-01
        1   -1    0    0  501    0  0.00000000000E+00  0.00000000000E+00  0.18582626428E+04  0.18582626429E+04  0.50400001928E-02 0. -1.
       -1   -1    0    0    0  501  0.00000000000E+00  0.00000000000E+00 -0.14681106009E+04  0.14681106009E+04  0.50400001928E-02 0.  1.
    10030    2    1    2    0    0  0.00000000000E+00  0.00000000000E+00  0.39015204196E+03  0.33263732437E+04  0.33034134378E+04 0.  0.
        2    1    3    3  502    0  0.48469973500E+03 -0.11804663358E+04  0.12510306426E+04  0.17870400868E+04  0.25500000920E-02 0. -1.
       -2    1    3    3    0  502 -0.48469973500E+03  0.11804663358E+04 -0.86087860065E+03  0.15393331570E+04  0.25500000920E-02 0.  1.
</event>
<event>
 5   0  0.1129434E-06  0.3337026E+04  0.7818609E-02  0.8153537E-01
        2   -1    0    0  501    0  0.00000000000E+00  0.00000000000E+00  0.17959713681E+04  0.17959713681E+04  0.25500000920E-02 0.  1.
       -2   -1    0    0    0  501  0.00000000000E+00  0.00000000000E+00 -0.15501004519E+04  0.15501004519E+04  0.25500000920E-02 0. -1.
    10030    2    1    2    0    0  0.00000000000E+00  0.00000000000E+00  0.24587091621E+03  0.33460718200E+04  0.33370262386E+04 0.  0.
        3    1    3    3  502    0  0.84450518588E+03  0.13543109502E+04 -0.36478703263E+03  0.16371978341E+04  0.10100000352E+00 0.  1.
       -3    1    3    3    0  502 -0.84450518588E+03 -0.13543109502E+04  0.61065794884E+03  0.17088739858E+04  0.10100000352E+00 0. -1.
</event>
<event>
 5   0  0.1146799E-06  0.3312413E+04  0.7818609E-02  0.8159744E-01
       -2   -1    0    0    0  501  0.00000000000E+00  0.00000000000E+00  0.20714221413E+04  0.20714221413E+04  0.25500000920E-02 0.  1.
        2   -1    0    0  501    0  0.00000000000E+00  0.00000000000E+00 -0.13242209538E+04  0.13242209538E+04  0.25500000920E-02 0. -1.
    10030    2    1    2    0    0  0.00000000000E+00  0.00000000000E+00  0.74720118744E+03  0.33956430951E+04  0.33124133822E+04 0.  0.
        5    1    3    3  502    0 -0.14945069004E+04  0.54054493079E+03 -0.10422148175E+03  0.15926782176E+04  0.46999998093E+01 0. -1.
       -5    1    3    3    0  502  0.14945069004E+04 -0.54054493079E+03  0.85142266918E+03  0.18029648774E+04  0.46999998093E+01 0.  1.
</event>
<event>
 5   0  0.1126221E-06  0.3343073E+04  0.7818609E-02  0.8152021E-01
        2   -1    0    0  501    0  0.00000000000E+00  0.00000000000E+00  0.18457674458E+04  0.18457674458E+04  0.25500000920E-02 0.  1.
       -2   -1    0    0    0  501  0.00000000000E+00  0.00000000000E+00 -0.15137521387E+04  0.15137521387E+04  0.25500000920E-02 0. -1.
    10030    2    1    2    0    0  0.00000000000E+00  0.00000000000E+00  0.33201530711E+03  0.33595195845E+04  0.33430730884E+04 0.  0.
        2    1    3    3  502    0  0.89153962936E+03 -0.13941349563E+04  0.40291993480E+03  0.17031734089E+04  0.25500000920E-02 0.  1.
       -2    1    3    3    0  502 -0.89153962936E+03  0.13941349563E+04 -0.70904627685E+02  0.16563461755E+04  0.25500000920E-02 0. -1.
</event>
<event>
 5   0  0.3709747E-07  0.3293902E+04  0.7818609E-02  0.8164449E-01
       -1   -1    0    0    0  501  0.00000000000E+00  0.00000000000E+00  0.12051898328E+04  0.12051898328E+04  0.50400001928E-02 0. -1.
        1   -1    0    0  501    0  0.00000000000E+00  0.00000000000E+00 -0.22506387649E+04  0.22506387649E+04  0.50400001928E-02 0.  1.
    10030    2    1    2    0    0  0.00000000000E+00  0.00000000000E+00 -0.10454489321E+04  0.34558285977E+04  0.32939016116E+04 0.  0.
        4    1    3    3  502    0  0.60965845622E+03  0.14142966959E+04 -0.11349581201E+04  0.19131257472E+04  0.12699999809E+01 0.  1.
       -4    1    3    3    0  502 -0.60965845622E+03 -0.14142966959E+04  0.89509188087E+02  0.15427028505E+04  0.12699999809E+01 0. -1.
</event>
<event>
 5   0  0.1116462E-06  0.3297911E+04  0.7818609E-02  0.8163427E-01
       -2   -1    0    0    0  501  0.00000000000E+00  0.00000000000E+00  0.22476378224E+04  0.22476378225E+04  0.25500000920E-02 0.  1.
        2   -1    0    0  501    0  0.00000000000E+00  0.00000000000E+00 -0.12097383230E+04  0.12097383230E+04  0.25500000920E-02 0. -1.
    10030    2    1    2    0    0  0.00000000000E+00  0.00000000000E+00  0.10378994994E+04  0.34573761455E+04  0.32979106174E+04 0.  0.
        1    1    3    3  502    0 -0.81906747054E+02 -0.10030971328E+04  0.18883021104E+04  0.21397657426E+04  0.50400001928E-02 0.  1.
       -1    1    3    3    0  502  0.81906747054E+02  0.10030971328E+04 -0.85040261100E+03  0.13176104029E+04  0.50400001928E-02 0. -1.
</event>
<event>
 5   0  0.3674967E-07  0.3282289E+04  0.7818609E-02  0.8167417E-01
       -1   -1    0    0    0  501  0.00000000000E+00  0.00000000000E+00  0.15324501956E+04  0.15324501956E+04  0.50400001928E-02 0. -1.
        1   -1    0    0  501    0  0.00000000000E+00  0.00000000000E+00 -0.17575479032E+04  0.17575479032E+04  0.50400001928E-02 0.  1.
    10030    2    1    2    0    0  0.00000000000E+00  0.00000000000E+00 -0.22509770759E+03  0.32899980988E+04  0.32822886089E+04 0.  0.
        2    1    3    3  502    0 -0.67437493146E+03 -0.13533698122E+04 -0.75198394783E+03  0.16887484284E+04  0.25500000920E-02 0.  1.
       -2    1    3    3    0  502  0.67437493146E+03  0.13533698122E+04  0.52688624024E+03  0.16012496704E+04  0.25500000920E-02 0. -1.
</event>
<event>
 5   0  0.3757406E-07  0.3280979E+04  0.7818609E-02  0.8167752E-01
        1   -1    0    0  501    0  0.00000000000E+00  0.00000000000E+00  0.22255727651E+04  0.22255727651E+04  0.50400001928E-02 0.  1.
       -1   -1    0    0    0  501  0.00000000000E+00  0.00000000000E+00 -0.12092191248E+04  0.12092191248E+04  0.50400001928E-02 0. -1.
    10030    2    1    2    0    0  0.00000000000E+00  0.00000000000E+00  0.10163536402E+04  0.34347918899E+04  0.32809786048E+04 0.  0.
        1    1    3    3  502    0  0.76486868228E+03  0.12374531780E+04  0.13019376529E+04  0.19522694796E+04  0.50400001928E-02 0.  1.
       -1    1    3    3    0  502 -0.76486868228E+03 -0.12374531780E+04 -0.28558401267E+03  0.14825224103E+04  0.50400001928E-02 0. -1.
</event>
<event>
 5   0  0.3749685E-07  0.3312224E+04  0.7818609E-02  0.8159792E-01
        1   -1    0    0  501    0  0.00000000000E+00  0.00000000000E+00  0.22266939557E+04  0.22266939557E+04  0.50400001928E-02 0. -1.
       -1   -1    0    0    0  501  0.00000000000E+00  0.00000000000E+00 -0.12317394416E+04  0.12317394416E+04  0.50400001928E-02 0.  1.
    10030    2    1    2    0    0  0.00000000000E+00  0.00000000000E+00  0.99495451403E+03  0.34584333973E+04  0.33122238872E+04 0.  0.
        3    1    3    3  502    0  0.57867852802E+03 -0.12883088832E+04 -0.40562935022E+03  0.14694025307E+04  0.10100000352E+00 0.  1.
       -3    1    3    3    0  502 -0.57867852802E+03  0.12883088832E+04  0.14005838643E+04  0.19890308666E+04  0.10100000352E+00 0. -1.
</event>
<event>
 5   0  0.3674967E-07  0.3290269E+04  0.7818609E-02  0.8165376E-01
        1   -1    0    0  501    0  0.00000000000E+00  0.00000000000E+00  0.17679876580E+04  0.17679876580E+04  0.50400001928E-02 0. -1.
       -1   -1    0    0    0  501  0.00000000000E+00  0.00000000000E+00 -0.15308180041E+04  0.15308180041E+04  0.50400001928E-02 0.  1.
    10030    2    1    2    0    0  0.00000000000E+00  0.00000000000E+00  0.23716965391E+03  0.32988056622E+04  0.32902688875E+04 0.  0.
        2    1    3    3  502    0 -0.85170105552E+03 -0.60707765432E+03  0.13917336047E+04  0.17409366424E+04  0.25500000920E-02 0. -1.
       -2    1    3    3    0  502  0.85170105552E+03  0.60707765432E+03 -0.11545639508E+04  0.15578690198E+04  0.25500000920E-02 0.  1.
</event>
<event>
 5   0  0.3749685E-07  0.3252185E+04  0.7818609E-02  0.8175170E-01
        1   -1    0    0  501    0  0.00000000000E+00  0.00000000000E+00  0.14582837351E+04  0.14582837351E+04  0.50400001928E-02 0. -1.
       -1   -1    0    0    0  501  0.00000000000E+00  0.00000000000E+00 -0.18132116481E+04  0.18132116481E+04  0.50400001928E-02 0.  1.
    10030    2    1    2    0    0  0.00000000000E+00  0.00000000000E+00 -0.35492791302E+03  0.32714953832E+04  0.32521851452E+04 0.  0.
        3    1    3    3  502    0  0.27966643950E+03  0.15076216539E+04  0.36708258419E+03  0.15766692750E+04  0.10100000352E+00 0. -1.
       -3    1    3    3    0  502 -0.27966643950E+03 -0.15076216539E+04 -0.72201049722E+03  0.16948261082E+04  0.10100000352E+00 0.  1.
</event>
<event>
 5   0  0.3757406E-07  0.3300259E+04  0.7818609E-02  0.8162830E-01
        1   -1    0    0  501    0  0.00000000000E+00  0.00000000000E+00  0.13857996264E+04  0.13857996264E+04  0.50400001928E-02 0.  1.
       -1   -1    0    0    0  501  0.00000000000E+00  0.00000000000E+00 -0.19648778489E+04  0.19648778489E+04  0.50400001928E-02 0. -1.
    10030    2    1    2    0    0  0.00000000000E+00  0.00000000000E+00 -0.57907822253E+03  0.33506774753E+04  0.33002587710E+04 0.  0.
        1    1    3    3  502    0  0.11780132838E+04 -0.70736657351E+03  0.63811773751E+03  0.15150171659E+04  0.50400001928E-02 0.  1.
       -1    1    3    3    0  502 -0.11780132838E+04  0.70736657351E+03 -0.12171959600E+04  0.18356603093E+04  0.50400001928E-02 0. -1.
</event>
<event>
 5   0  0.3674967E-07  0.3311195E+04  0.7818609E-02  0.8160053E-01
       -1   -1    0    0    0  501  0.00000000000E+00  0.00000000000E+00  0.10621301638E+04  0.10621301638E+04  0.50400001928E-02 0. -1.
        1   -1    0    0  501    0  0.00000000000E+00  0.00000000000E+00 -0.25806666595E+04  0.25806666595E+04  0.50400001928E-02 0.  1.
    10030    2    1    2    0    0  0.00000000000E+00  0.00000000000E+00 -0.15185364957E+04  0.36427968234E+04  0.33111954952E+04 0.  0.
        2    1    3    3  502    0  0.12459363224E+04 -0.31331047476E+03 -0.19081083901E+04  0.23003039802E+04  0.25500000920E-02 0.  1.
       -2    1    3    3    0  502 -0.12459363224E+04  0.31331047476E+03  0.38957189432E+03  0.13424928432E+04  0.25500000920E-02 0. -1.
</event>
<event>
 5   0  0.1126221E-06  0.2912999E+04  0.7818609E-02  0.8269020E-01
        2   -1    0    0  501    0  0.00000000000E+00  0.00000000000E+00  0.22604002316E+04  0.22604002316E+04  0.25500000920E-02 0.  1.
       -2   -1    0    0    0  501  0.00000000000E+00  0.00000000000E+00 -0.93850221830E+03  0.93850221831E+03  0.25500000920E-02 0. -1.
    10030    2    1    2    0    0  0.00000000000E+00  0.00000000000E+00  0.13218980133E+04  0.31989024499E+04  0.29129988888E+04 0.  0.
        2    1    3    3  502    0 -0.11277543290E+04  0.91703550189E+03  0.55907137454E+03  0.15573518357E+04  0.25500000920E-02 0.  1.
       -2    1    3    3    0  502  0.11277543290E+04 -0.91703550189E+03  0.76282663872E+03  0.16415506142E+04  0.25500000920E-02 0. -1.
</event>
<event>
 5   0  0.3674967E-07  0.3340605E+04  0.7818609E-02  0.8152640E-01
        1   -1    0    0  501    0  0.00000000000E+00  0.00000000000E+00  0.17896479974E+04  0.17896479974E+04  0.50400001928E-02 0.  1.
       -1   -1    0    0    0  501  0.00000000000E+00  0.00000000000E+00 -0.15589158433E+04  0.15589158433E+04  0.50400001928E-02 0. -1.
    10030    2    1    2    0    0  0.00000000000E+00  0.00000000000E+00  0.23073215411E+03  0.33485638407E+04  0.33406051051E+04 0.  0.
        2    1    3    3  502    0 -0.11552618402E+04 -0.11462476628E+04 -0.26155769614E+03  0.16483100595E+04  0.25500000920E-02 0.  1.
       -2    1    3    3    0  502  0.11552618402E+04  0.11462476628E+04  0.49228985025E+03  0.17002537812E+04  0.25500000920E-02 0. -1.
</event>
<event>
 5   0  0.3796529E-07  0.3336178E+04  0.7818609E-02  0.8153750E-01
       -1   -1    0    0    0  501  0.00000000000E+00  0.00000000000E+00  0.14588645223E+04  0.14588645223E+04  0.50400001928E-02 0.  1.
        1   -1    0    0  501    0  0.00000000000E+00  0.00000000000E+00 -0.19073199177E+04  0.19073199177E+04  0.50400001928E-02 0. -1.
    10030    2    1    2    0    0  0.00000000000E+00  0.00000000000E+00 -0.44845539540E+03  0.33661844401E+04  0.33361782691E+04 0.  0.
        5    1    3    3  502    0  0.53476773257E+03  0.15632301892E+04  0.76964084174E+01  0.16521944429E+04  0.46999998093E+01 0.  1.
       -5    1    3    3    0  502 -0.53476773257E+03 -0.15632301892E+04 -0.45615180381E+03  0.17139899972E+04  0.46999998093E+01 0. -1.
</event>
<event>
 5   0  0.1129434E-06  0.3301700E+04  0.7818609E-02  0.8162463E-01
        2   -1    0    0  501    0  0.00000000000E+00  0.00000000000E+00  0.19234370713E+04  0.19234370713E+04  0.25500000920E-02 0. -1.
       -2   -1    0    0    0  501  0.00000000000E+00  0.00000000000E+00 -0.14168937603E+04  0.14168937603E+04  0.25500000920E-02 0.  1.
    10030    2    1    2    0    0  0.00000000000E+00  0.00000000000E+00  0.50654331101E+03  0.33403308317E+04  0.33017001589E+04 0.  0.
        3    1    3    3  502    0 -0.24408785192E+03 -0.47374929184E+03  0.18340152197E+04  0.19098767256E+04  0.10100000352E+00 0. -1.
       -3    1    3    3    0  502  0.24408785192E+03  0.47374929184E+03 -0.13274719087E+04  0.14304541060E+04  0.10100000352E+00 0.  1.
</event>
<event>
 5   0  0.1129434E-06  0.3301667E+04  0.7818609E-02  0.8162471E-01
       -2   -1    0    0    0  501  0.00000000000E+00  0.00000000000E+00  0.14924000519E+04  0.14924000519E+04  0.25500000920E-02 0. -1.
        2   -1    0    0  501    0  0.00000000000E+00  0.00000000000E+00 -0.18260864240E+04  0.18260864240E+04  0.25500000920E-02 0.  1.
    10030    2    1    2    0    0  0.00000000000E+00  0.00000000000E+00 -0.33368637215E+03  0.33184864760E+04  0.33016671389E+04 0.  0.
        3    1    3    3  502    0  0.72469563135E+03 -0.70418694364E+03  0.11452527009E+04  0.15273070316E+04  0.10100000352E+00 0.  1.
       -3    1    3    3    0  502 -0.72469563135E+03  0.70418694364E+03 -0.14789390731E+04  0.17911794443E+04  0.10100000352E+00 0. -1.
</event>
<event>
 5   0  0.1120545E-06  0.3288319E+04  0.7818609E-02  0.8165874E-01
       -2   -1    0    0    0  501  0.00000000000E+00  0.00000000000E+00  0.28245440919E+04  0.28245440919E+04  0.25500000920E-02 0.  1.
        2   -1    0    0  501    0  0.00000000000E+00  0.00000000000E+00 -0.95706059962E+03  0.95706059962E+03  0.25500000920E-02 0. -1.
    10030    2    1    2    0    0  0.00000000000E+00  0.00000000000E+00  0.18674834923E+04  0.37816046915E+04  0.32883186356E+04 0.  0.
        4    1    3    3  502    0 -0.73285559680E+02  0.16052654537E+04  0.53369255024E+03  0.16932446076E+04  0.12699999809E+01 0.  1.
       -4    1    3    3    0  502  0.73285559680E+02 -0.16052654537E+04  0.13337909421E+04  0.20883600839E+04  0.12699999809E+01 0. -1.
</event>
<event>
 5   0  0.1129434E-06  0.3293477E+04  0.7818609E-02  0.8164557E-01
        2   -1    0    0  501    0  0.00000000000E+00  0.00000000000E+00  0.25907439538E+04  0.25907439538E+04  0.25500000920E-02 0. -1.
       -2   -1    0    0    0  501  0.00000000000E+00  0.00000000000E+00 -0.10467059417E+04  0.10467059417E+04  0.25500000920E-02 0.  1.
    10030    2    1    2    0    0  0.00000000000E+00  0.00000000000E+00  0.15440380121E+04  0.36374498955E+04  0.32934766372E+04 0.  0.
        3    1    3    3  502    0  0.14461065799E+04  0.55839798146E+03  0.15836867832E+03  0.15582404162E+04  0.10100000352E+00 0.  1.
       -3    1    3    3    0  502 -0.14461065799E+04 -0.55839798146E+03  0.13856693338E+04  0.20792094793E+04  0.10100000352E+00 0. -1.
</event>
<event>
 5   0  0.1116462E-06  0.3302029E+04  0.7818609E-02  0.8162379E-01
       -2   -1    0    0    0  501  0.00000000000E+00  0.00000000000E+00  0.14747421976E+04  0.14747421976E+04  0.25500000920E-02 0.  1.
        2   -1    0    0  501    0  0.00000000000E+00  0.00000000000E+00 -0.18483557564E+04  0.18483557564E+04  0.25500000920E-02 0. -1.
    10030    2    1    2    0    0  0.00000000000E+00  0.00000000000E+00 -0.37361355881E+03  0.33230979540E+04  0.33020286068E+04 0.  0.
        1    1    3    3  502    0 -0.11983999754E+04  0.11149305422E+04  0.30477357591E+02  0.16371198747E+04  0.50400001928E-02 0.  1.
       -1    1    3    3    0  502  0.11983999754E+04 -0.11149305422E+04 -0.40409091640E+03  0.16859780792E+04  0.50400001928E-02 0. -1.
</event>
<event>
 5   0  0.1146799E-06  0.3335912E+04  0.7818609E-02  0.8153817E-01
        2   -1    0    0  501    0  0.00000000000E+00  0.00000000000E+00  0.22590926548E+04  0.22590926548E+04  0.25500000920E-02 0. -1.
       -2   -1    0    0    0  501  0.00000000000E+00  0.00000000000E+00 -0.12315019878E+04  0.12315019878E+04  0.25500000920E-02 0.  1.
    10030    2    1    2    0    0  0.00000000000E+00  0.00000000000E+00  0.10275906670E+04  0.34905946426E+04  0.33359119263E+04 0.  0.
        5    1    3    3  502    0 -0.12943736454E+04 -0.32631381149E+01 -0.58695357554E+03  0.14212495812E+04  0.46999998093E+01 0.  1.
       -5    1    3    3    0  502  0.12943736454E+04  0.32631381149E+01  0.16145442426E+04  0.20693450614E+04  0.46999998093E+01 0. -1.
</event>
<event>
 5   0  0.1146799E-06  0.3303678E+04  0.7818609E-02  0.8161960E-01
        2   -1    0    0  501    0  0.00000000000E+00  0.00000000000E+00  0.16813737696E+04  0.16813737696E+04  0.25500000920E-02 0.  1.
       -2   -1    0    0    0  501  0.00000000000E+00  0.00000000000E+00 -0.16228234359E+04  0.16228234359E+04  0.25500000920E-02 0. -1.
    10030    2    1    2    0    0  0.00000000000E+00  0.00000000000E+00  0.58550333640E+02  0.33041972055E+04  0.33036784092E+04 0.  0.
        5    1    3    3  502    0  0.52733287251E+03  0.61773919712E+03  0.14678573919E+04  0.16775902620E+04  0.46999998093E+01 0.  1.
       -5    1    3    3    0  502 -0.52733287251E+03 -0.61773919712E+03 -0.14093070583E+04  0.16266069435E+04  0.46999998093E+01 0. -1.
</event>
<event>
 5   0  0.3796529E-07  0.3279506E+04  0.7818609E-02  0.8168130E-01
        1   -1    0    0  501    0  0.00000000000E+00  0.00000000000E+00  0.23496557673E+04  0.23496557673E+04  0.50400001928E-02 0. -1.
       -1   -1    0    0    0  501  0.00000000000E+00  0.00000000000E+00 -0.11443335546E+04  0.11443335546E+04  0.50400001928E-02 0.  1.
    10030    2    1    2    0    0  0.00000000000E+00  0.00000000000E+00  0.12053222127E+04  0.34939893220E+04  0.32795060216E+04 0.  0.
        5    1    3    3  502    0 -0.57071184007E+03 -0.14598196594E+04  0.11158067697E+04  0.19240146257E+04  0.46999998093E+01 0. -1.
       -5    1    3    3    0  502  0.57071184007E+03  0.14598196594E+04  0.89515442961E+02  0.15699746963E+04  0.46999998093E+01 0.  1.
</event>
<event>
 5   0  0.3757406E-07  0.3366964E+04  0.7818609E-02  0.8146062E-01
       -1   -1    0    0    0  501  0.00000000000E+00  0.00000000000E+00  0.26240626670E+04  0.26240626670E+04  0.50400001928E-02 0.  1.
        1   -1    0    0  501    0  0.00000000000E+00  0.00000000000E+00 -0.10800472350E+04  0.10800472350E+04  0.50400001928E-02 0. -1.
    10030    2    1    2    0    0  0.00000000000E+00  0.00000000000E+00  0.15440154320E+04  0.37041099020E+04  0.33669639903E+04 0.  0.
        1    1    3    3  502    0 -0.98334165962E+03  0.93625309113E+03 -0.32293243076E+03  0.13956417968E+04  0.50400001928E-02 0. -1.
       -1    1    3    3    0  502  0.98334165962E+03 -0.93625309113E+03  0.18669478628E+04  0.23084681052E+04  0.50400001928E-02 0.  1.
</event>
<event>
 5   0  0.3749685E-07  0.3295406E+04  0.7818609E-02  0.8164065E-01
       -1   -1    0    0    0  501  0.00000000000E+00  0.00000000000E+00  0.14761857496E+04  0.14761857496E+04  0.50400001928E-02 0.  1.
        1   -1    0    0  501    0  0.00000000000E+00  0.00000000000E+00 -0.18391488326E+04  0.18391488327E+04  0.50400001928E-02 0. -1.
    10030    2    1    2    0    0  0.00000000000E+00  0.00000000000E+00 -0.36296308309E+03  0.33153345822E+04  0.32954060740E+04 0.  0.
        3    1    3    3  502    0 -0.71963191161E+03 -0.14496716832E+04 -0.49239284141E+03  0.16917058839E+04  0.10100000352E+00 0.  1.
       -3    1    3    3    0  502  0.71963191161E+03  0.14496716832E+04  0.12942975831E+03  0.16236286983E+04  0.10100000352E+00 0. -1.
</event>
<event>
 5   0  0.3757406E-07  0.3317998E+04  0.7818609E-02  0.8158331E-01
        1   -1    0    0  501    0  0.00000000000E+00  0.00000000000E+00  0.11534578546E+04  0.11534578546E+04  0.50400001928E-02 0.  1.
       -1   -1    0    0    0  501  0.00000000000E+00  0.00000000000E+00 -0.23861105283E+04  0.23861105283E+04  0.50400001928E-02 0. -1.
    10030    2    1    2    0    0  0.00000000000E+00  0.00000000000E+00 -0.12326526737E+04  0.35395683828E+04  0.33179981499E+04 0.  0.
        1    1    3    3  502    0 -0.38754737112E+03 -0.96815207237E+03  0.76009322289E+03  0.12904468635E+04  0.50400001928E-02 0.  1.
       -1    1    3    3    0  502  0.38754737112E+03  0.96815207237E+03 -0.19927458966E+04  0.22491215193E+04  0.50400001928E-02 0. -1.
</event>
<event>
 5   0  0.3709747E-07  0.3321865E+04  0.7818609E-02  0.8157354E-01
        1   -1    0    0  501    0  0.00000000000E+00  0.00000000000E+00  0.12131028732E+04  0.12131028732E+04  0.50400001928E-02 0. -1.
       -1   -1    0    0    0  501  0.00000000000E+00  0.00000000000E+00 -0.22740831418E+04  0.22740831418E+04  0.50400001928E-02 0.  1.
    10030    2    1    2    0    0  0.00000000000E+00  0.00000000000E+00 -0.10609802686E+04  0.34871860150E+04  0.33218650142E+04 0.  0.
        4    1    3    3  502    0 -0.41088681055E+03  0.65900603418E+02  0.11574904511E+04  0.12300230152E+04  0.12699999809E+01 0. -1.
       -4    1    3    3    0  502  0.41088681055E+03 -0.65900603418E+02 -0.22184707197E+04  0.22571629998E+04  0.12699999809E+01 0.  1.
</event>
<event>
 5   0  0.1120545E-06  0.3316164E+04  0.7818609E-02  0.8158795E-01
        2   -1    0    0  501    0  0.00000000000E+00  0.00000000000E+00  0.14790561861E+04  0.14790561861E+04  0.25500000920E-02 0. -1.
       -2   -1    0    0    0  501  0.00000000000E+00  0.00000000000E+00 -0.18587767202E+04  0.18587767202E+04  0.25500000920E-02 0.  1.
    10030    2    1    2    0    0  0.00000000000E+00  0.00000000000E+00 -0.37972053410E+03  0.33378329063E+04  0.33161635705E+04 0.  0.
        4    1    3    3  502    0 -0.51435633416E+03  0.11868580179E+04  0.85424117207E+03  0.15501367637E+04  0.12699999809E+01 0. -1.
       -4    1    3    3    0  502  0.51435633416E+03 -0.11868580179E+04 -0.12339617062E+04  0.17876961426E+04  0.12699999809E+01 0.  1.
</event>
<event>
 5   0  0.1146799E-06  0.3303885E+04  0.7818609E-02  0.8161907E-01
       -2   -1    0    0    0  501  0.00000000000E+00  0.00000000000E+00  0.23662857913E+04  0.23662857913E+04  0.25500000920E-02 0. -1.
        2   -1    0    0  501    0  0.00000000000E+00  0.00000000000E+00 -0.11532480843E+04  0.11532480843E+04  0.25500000920E-02 0.  1.
    10030    2    1    2    0    0  0.00000000000E+00  0.00000000000E+00  0.12130377070E+04  0.35195338756E+04  0.33038853223E+04 0.  0.
        5    1    3    3  502    0 -0.10281838946E+04 -0.52462457199E+03  0.18653879209E+04  0.21936470199E+04  0.46999998093E+01 0. -1.
       -5    1    3    3    0  502  0.10281838946E+04  0.52462457199E+03 -0.65235021387E+03  0.13258868557E+04  0.46999998093E+01 0.  1.
</event>
<event>
 5   0  0.3757406E-07  0.3302299E+04  0.7818609E-02  0.8162311E-01
        1   -1    0    0  501    0  0.00000000000E+00  0.00000000000E+00  0.18339675161E+04  0.18339675162E+04  0.50400001928E-02 0. -1.
       -1   -1    0    0    0  501  0.00000000000E+00  0.00000000000E+00 -0.14865557312E+04  0.14865557312E+04  0.50400001928E-02 0.  1.
    10030    2    1    2    0    0  0.00000000000E+00  0.00000000000E+00  0.34741178492E+03  0.33205232474E+04  0.33022991518E+04 0.  0.
        1    1    3    3  502    0 -0.41527553496E+03 -0.66723651625E+03 -0.12864222803E+04  0.15074948165E+04  0.50400001928E-02 0.  1.
       -1    1    3    3    0  502  0.41527553496E+03  0.66723651625E+03  0.16338340652E+04  0.18130284309E+04  0.50400001928E-02 0. -1.
</event>
<event>
 5   0  0.1129434E-06  0.3293535E+04  0.7818609E-02  0.8164542E-01
       -2   -1    0    0    0  501  0.00000000000E+00  0.00000000000E+00  0.20132752606E+04  0.20132752606E+04  0.25500000920E-02 0. -1.
        2   -1    0    0  501    0  0.00000000000E+00  0.00000000000E+00 -0.13469810053E+04  0.13469810054E+04  0.25500000920E-02 0.  1.
    10030    2    1    2    0    0  0.00000000000E+00  0.00000000000E+00  0.66629425528E+03  0.33602562660E+04  0.32935352038E+04 0.  0.
        3    1    3    3  502    0 -0.56104527899E+03 -0.97273769971E+03  0.15620620246E+04  0.19238056597E+04  0.10100000352E+00 0. -1.
       -3    1    3    3    0  502  0.56104527899E+03  0.97273769971E+03 -0.89576776930E+03  0.14364506063E+04  0.10100000352E+00 0.  1.
</event>
<event>
 5   0  0.1116462E-06  0.3301131E+04  0.7818609E-02  0.8162608E-01
        2   -1    0    0  501    0  0.00000000000E+00  0.00000000000E+00  0.19149593742E+04  0.19149593742E+04  0.25500000920E-02 0. -1.
       -2   -1    0    0    0  501  0.00000000000E+00  0.00000000000E+00 -0.14226755154E+04  0.14226755154E+04  0.25500000920E-02 0.  1.
    10030    2    1    2    0    0  0.00000000000E+00  0.00000000000E+00  0.49228385875E+03  0.33376348896E+04  0.33011306031E+04 0.  0.
        1    1    3    3  502    0 -0.45337199698E+03  0.15072567085E+03  0.18435182180E+04  0.19044221737E+04  0.50400001928E-02 0. -1.
       -1    1    3    3    0  502  0.45337199698E+03 -0.15072567085E+03 -0.13512343593E+04  0.14332127160E+04  0.50400001928E-02 0.  1.
</event>
<event>
 5   0  0.1126221E-06  0.3295658E+04  0.7818609E-02  0.8164001E-01
       -2   -1    0    0    0  501  0.00000000000E+00  0.00000000000E+00  0.16528318318E+04  0.16528318318E+04  0.25500000920E-02 0. -1.
        2   -1    0    0  501    0  0.00000000000E+00  0.00000000000E+00 -0.16428408442E+04  0.16428408442E+04  0.25500000920E-02 0.  1.
    10030    2    1    2    0    0  0.00000000000E+00  0.00000000000E+00  0.99909876114E+01  0.32956726759E+04  0.32956575318E+04 0.  0.
        2    1    3    3  502    0  0.14517044111E+04 -0.63213083711E+03  0.46140152335E+03  0.16492199544E+04  0.25500000920E-02 0.  1.
       -2    1    3    3    0  502 -0.14517044111E+04  0.63213083711E+03 -0.45141053573E+03  0.16464527215E+04  0.25500000920E-02 0. -1.
</event>
<event>
 5   0  0.3674967E-07  0.3291955E+04  0.7818609E-02  0.8164946E-01
       -1   -1    0    0    0  501  0.00000000000E+00  0.00000000000E+00  0.79192753728E+03  0.79192753730E+03  0.50400001928E-02 0. -1.
        1   -1    0    0  501    0  0.00000000000E+00  0.00000000000E+00 -0.34210725707E+04  0.34210725707E+04  0.50400001928E-02 0.  1.
    10030    2    1    2    0    0  0.00000000000E+00  0.00000000000E+00 -0.26291450334E+04  0.42130001080E+04  0.32919547845E+04 0.  0.
        2    1    3    3  502    0  0.15404961746E+04 -0.57005443421E+03 -0.11794288919E+04  0.20221629591E+04  0.25500000920E-02 0. -1.
       -2    1    3    3    0  502 -0.15404961746E+04  0.57005443421E+03 -0.14497161416E+04  0.21908371489E+04  0.25500000920E-02 0.  1.
</event>
<event>
 5   0  0.3709747E-07  0.3282292E+04  0.7818609E-02  0.8167416E-01
       -1   -1    0    0    0  501  0.00000000000E+00  0.00000000000E+00  0.15315976837E+04  0.15315976837E+04  0.50400001928E-02 0.  1.
        1   -1    0    0  501    0  0.00000000000E+00  0.00000000000E+00 -0.17585302943E+04  0.17585302943E+04  0.50400001928E-02 0. -1.
    10030    2    1    2    0    0  0.00000000000E+00  0.00000000000E+00 -0.22693261064E+03  0.32901279780E+04  0.32822924461E+04 0.  0.
        4    1    3    3  502    0 -0.75964528442E+03 -0.57050910170E+03  0.12279426749E+04  0.15525419218E+04  0.12699999809E+01 0.  1.
       -4    1    3    3    0  502  0.75964528442E+03  0.57050910170E+03 -0.14548752855E+04  0.17375860562E+04  0.12699999809E+01 0. -1.
</event>
<event>
 5   0  0.1146799E-06  0.3306834E+04  0.7818609E-02  0.8161159E-01
       -2   -1    0    0    0  501  0.00000000000E+00  0.00000000000E+00  0.19069258270E+04  0.19069258270E+04  0.25500000920E-02 0. -1.
        2   -1    0    0  501    0  0.00000000000E+00  0.00000000000E+00 -0.14336099925E+04  0.14336099925E+04  0.25500000920E-02 0.  1.
    10030    2    1    2    0    0  0.00000000000E+00  0.00000000000E+00  0.47331583449E+03  0.33405358195E+04  0.33068340875E+04 0.  0.
        5    1    3    3  502    0  0.13314532471E+04 -0.37725020767E+03 -0.67737305808E+03  0.15407601430E+04  0.46999998093E+01 0.  1.
       -5    1    3    3    0  502 -0.13314532471E+04  0.37725020767E+03  0.11506888926E+04  0.17997756765E+04  0.46999998093E+01 0. -1.
</event>
<event>
 5   0  0.3674967E-07  0.3291168E+04  0.7818609E-02  0.8165146E-01
        1   -1    0    0  501    0  0.00000000000E+00  0.00000000000E+00  0.24732287952E+04  0.24732287952E+04  0.50400001928E-02 0. -1.
       -1   -1    0    0    0  501  0.00000000000E+00  0.00000000000E+00 -0.10949034805E+04  0.10949034805E+04  0.50400001928E-02 0.  1.
    10030    2    1    2    0    0  0.00000000000E+00  0.00000000000E+00  0.13783253148E+04  0.35681322757E+04  0.32911680698E+04 0.  0.
        2    1    3    3  502    0 -0.88868259002E+03 -0.34503502328E+03 -0.76503511012E+03  0.12223275473E+04  0.25500000920E-02 0.  1.
       -2    1    3    3    0  502  0.88868259002E+03  0.34503502328E+03  0.21433604249E+04  0.23458047285E+04  0.25500000920E-02 0. -1.
</event>
<event>
 5   0  0.3796529E-07  0.3344132E+04  0.7818609E-02  0.8151756E-01
       -1   -1    0    0    0  501  0.00000000000E+00  0.00000000000E+00  0.16857489292E+04  0.16857489292E+04  0.50400001928E-02 0.  1.
        1   -1    0    0  501    0  0.00000000000E+00  0.00000000000E+00 -0.16584937280E+04  0.16584937280E+04  0.50400001928E-02 0. -1.
    10030    2    1    2    0    0  0.00000000000E+00  0.00000000000E+00  0.27255201161E+02  0.33442426572E+04  0.33441315919E+04 0.  0.
        5    1    3    3  502    0  0.64193215468E+03 -0.14097026401E+04  0.64328611513E+03  0.16772529746E+04  0.46999998093E+01 0.  1.
       -5    1    3    3    0  502 -0.64193215468E+03  0.14097026401E+04 -0.61603091397E+03  0.16669896826E+04  0.46999998093E+01 0. -1.
</event>
<event>
 5   0  0.3709747E-07  0.3234553E+04  0.7818609E-02  0.8179751E-01
        1   -1    0    0  501    0  0.00000000000E+00  0.00000000000E+00  0.21069044509E+04  0.21069044509E+04  0.50400001928E-02 0.  1.
       -1   -1    0    0    0  501  0.00000000000E+00  0.00000000000E+00 -0.12414344406E+04  0.12414344406E+04  0.50400001928E-02 0. -1.
    10030    2    1    2    0    0  0.00000000000E+00  0.00000000000E+00  0.86547001035E+03  0.33483388915E+04  0.32345532912E+04 0.  0.
        4    1    3    3  502    0 -0.16781918601E+03 -0.62929264305E+02 -0.12311214787E+04  0.12441001084E+04  0.12699999809E+01 0. -1.
       -4    1    3    3    0  502  0.16781918601E+03  0.62929264305E+02  0.20965914890E+04  0.21042387831E+04  0.12699999809E+01 0.  1.
</event>
<event>
 5   0  0.3749685E-07  0.3306535E+04  0.7818609E-02  0.8161235E-01
        1   -1    0    0  501    0  0.00000000000E+00  0.00000000000E+00  0.30042997291E+04  0.30042997291E+04  0.50400001928E-02 0. -1.
       -1   -1    0    0    0  501  0.00000000000E+00  0.00000000000E+00 -0.90979360451E+03  0.90979360452E+03  0.50400001928E-02 0.  1.
    10030    2    1    2    0    0  0.00000000000E+00  0.00000000000E+00  0.20945061246E+04  0.39140933336E+04  0.33065345482E+04 0.  0.
        3    1    3    3  502    0  0.38611415431E+03  0.20329038580E+03  0.29349017822E+04  0.29671635618E+04  0.10100000352E+00 0. -1.
       -3    1    3    3    0  502 -0.38611415431E+03 -0.20329038580E+03 -0.84039565764E+03  0.94692977179E+03  0.10100000352E+00 0.  1.
</event>
<event>
 5   0  0.3796529E-07  0.3306706E+04  0.7818609E-02  0.8161191E-01
        1   -1    0    0  501    0  0.00000000000E+00  0.00000000000E+00  0.87128898558E+03  0.87128898559E+03  0.50400001928E-02 0. -1.
       -1   -1    0    0    0  501  0.00000000000E+00  0.00000000000E+00 -0.31373940666E+04  0.31373940666E+04  0.50400001928E-02 0.  1.
    10030    2    1    2    0    0  0.00000000000E+00  0.00000000000E+00 -0.22661050810E+04  0.40086830522E+04  0.33067064543E+04 0.  0.
        5    1    3    3  502    0  0.16283360679E+04  0.21750689487E+03 -0.13590954888E+04  0.21321234103E+04  0.46999998093E+01 0.  1.
       -5    1    3    3    0  502 -0.16283360679E+04 -0.21750689487E+03 -0.90700959229E+03  0.18765596419E+04  0.46999998093E+01 0. -1.
</event>
<event>
 5   0  0.3757406E-07  0.3288974E+04  0.7818609E-02  0.8165707E-01
        1   -1    0    0  501    0  0.00000000000E+00  0.00000000000E+00  0.90663328717E+03  0.90663328718E+03  0.50400001928E-02 0. -1.
       -1   -1    0    0    0  501  0.00000000000E+00  0.00000000000E+00 -0.29828358527E+04  0.29828358527E+04  0.50400001928E-02 0.  1.
    10030    2    1    2    0    0  0.00000000000E+00  0.00000000000E+00 -0.20762025656E+04  0.38894691399E+04  0.32889744750E+04 0.  0.
        1    1    3    3  502    0 -0.67084165021E+03 -0.77463188543E+03 -0.25591078206E+04  0.27566494001E+04  0.50400001928E-02 0.  1.
       -1    1    3    3    0  502  0.67084165021E+03  0.77463188543E+03  0.48290525503E+03  0.11328197398E+04  0.50400001928E-02 0. -1.
</event>
<event>
 5   0  0.1116462E-06  0.3316269E+04  0.7818609E-02  0.8158768E-01
       -2   -1    0    0    0  501  0.00000000000E+00  0.00000000000E+00  0.16512360057E+04  0.16512360057E+04  0.25500000920E-02 0. -1.
        2   -1    0    0  501    0  0.00000000000E+00  0.00000000000E+00 -0.16650616044E+04  0.16650616044E+04  0.25500000920E-02 0.  1.
    10030    2    1    2    0    0  0.00000000000E+00  0.00000000000E+00 -0.13825598696E+02  0.33162976102E+04  0.33162687907E+04 0.  0.
        1    1    3    3  502    0  0.79764941945E+03  0.11704195498E+04 -0.86905900086E+03  0.16617430806E+04  0.50400001928E-02 0.  1.
       -1    1    3    3    0  502 -0.79764941945E+03 -0.11704195498E+04  0.85523340217E+03  0.16545545295E+04  0.50400001928E-02 0. -1.
</event>
<event>
 5   0  0.3757406E-07  0.3306361E+04  0.7818609E-02  0.8161279E-01
       -1   -1    0    0    0  501  0.00000000000E+00  0.00000000000E+00  0.13062370212E+04  0.13062370212E+04  0.50400001928E-02 0.  1.
        1   -1    0    0  501    0  0.00000000000E+00  0.00000000000E+00 -0.20922743773E+04  0.20922743773E+04  0.50400001928E-02 0. -1.
    10030    2    1    2    0    0  0.00000000000E+00  0.00000000000E+00 -0.78603735610E+03  0.33985113986E+04  0.33063612932E+04 0.  0.
        1    1    3    3  502    0  0.88853827789E+03 -0.84337549920E+03  0.74797492537E+03  0.14353567476E+04  0.50400001928E-02 0.  1.
       -1    1    3    3    0  502 -0.88853827789E+03  0.84337549920E+03 -0.15340122815E+04  0.19631546510E+04  0.50400001928E-02 0. -1.
</event>
<event>
 5   0  0.1120545E-06  0.3304400E+04  0.7818609E-02  0.8161777E-01
       -2   -1    0    0    0  501  0.00000000000E+00  0.00000000000E+00  0.13515928122E+04  0.13515928123E+04  0.25500000920E-02 0. -1.
        2   -1    0    0  501    0  0.00000000000E+00  0.00000000000E+00 -0.20196654136E+04  0.20196654136E+04  0.25500000920E-02 0.  1.
    10030    2    1    2    0    0  0.00000000000E+00  0.00000000000E+00 -0.66807260132E+03  0.33712582258E+04  0.33044002519E+04 0.  0.
        4    1    3    3  502    0  0.12084438499E+04 -0.64251998431E+03  0.61021411428E+03  0.14985097086E+04  0.12699999809E+01 0. -1.
       -4    1    3    3    0  502 -0.12084438499E+04  0.64251998431E+03 -0.12782867156E+04  0.18727485172E+04  0.12699999809E+01 0.  1.
</event>
<event>
 5   0  0.1146799E-06  0.3319796E+04  0.7818609E-02  0.8157876E-01
       -2   -1    0    0    0  501  0.00000000000E+00  0.00000000000E+00  0.17202032582E+04  0.17202032582E+04  0.25500000920E-02 0. -1.
        2   -1    0    0  501    0  0.00000000000E+00  0.00000000000E+00 -0.16017068622E+04  0.16017068622E+04  0.25500000920E-02 0.  1.
    10030    2    1    2    0    0  0.00000000000E+00  0.00000000000E+00  0.11849639602E+03  0.33219101204E+04  0.33197959956E+04 0.  0.
        5    1    3    3  502    0 -0.34578736305E+03  0.11842407336E+04  0.11704707122E+04  0.17005936592E+04  0.46999998093E+01 0. -1.
       -5    1    3    3    0  502  0.34578736305E+03 -0.11842407336E+04 -0.10519743161E+04  0.16213164612E+04  0.46999998093E+01 0.  1.
</event>
<event>
 5   0  0.3674967E-07  0.3297349E+04  0.7818609E-02  0.8163570E-01
        1   -1    0    0  501    0  0.00000000000E+00  0.00000000000E+00  0.14203540967E+04  0.14203540967E+04  0.50400001928E-02 0. -1.
       -1   -1    0    0    0  501  0.00000000000E+00  0.00000000000E+00 -0.19136977216E+04  0.19136977216E+04  0.50400001928E-02 0.  1.
    10030    2    1    2    0    0  0.00000000000E+00  0.00000000000E+00 -0.49334362491E+03  0.33340518182E+04  0.32973494802E+04 0.  0.
        2    1    3    3  502    0 -0.11391913762E+04  0.11864813532E+04 -0.13302229816E+03  0.16502090549E+04  0.25500000920E-02 0. -1.
       -2    1    3    3    0  502  0.11391913762E+04 -0.11864813532E+04 -0.36032132674E+03  0.16838427633E+04  0.25500000920E-02 0.  1.
</event>
<event>
 5   0  0.3757406E-07  0.3384689E+04  0.7818609E-02  0.8141674E-01
       -1   -1    0    0    0  501  0.00000000000E+00  0.00000000000E+00  0.17976624917E+04  0.17976624918E+04  0.50400001928E-02 0. -1.
        1   -1    0    0  501    0  0.00000000000E+00  0.00000000000E+00 -0.15931963596E+04  0.15931963596E+04  0.50400001928E-02 0.  1.
    10030    2    1    2    0    0  0.00000000000E+00  0.00000000000E+00  0.20446613214E+03  0.33908588514E+04  0.33846886638E+04 0.  0.
        1    1    3    3  502    0 -0.71572230069E+03 -0.10053375488E+04  0.12623887659E+04  0.17653859055E+04  0.50400001928E-02 0. -1.
       -1    1    3    3    0  502  0.71572230069E+03  0.10053375488E+04 -0.10579226338E+04  0.16254729459E+04  0.50400001928E-02 0.  1.
</event>
<event>
 5   0  0.1126221E-06  0.3302008E+04  0.7818609E-02  0.8162385E-01
        2   -1    0    0  501    0  0.00000000000E+00  0.00000000000E+00  0.26388433822E+04  0.26388433822E+04  0.25500000920E-02 0. -1.
       -2   -1    0    0    0  501  0.00000000000E+00  0.00000000000E+00 -0.10329576893E+04  0.10329576893E+04  0.25500000920E-02 0.  1.
    10030    2    1    2    0    0  0.00000000000E+00  0.00000000000E+00  0.16058856929E+04  0.36718010715E+04  0.33020076090E+04 0.  0.
        2    1    3    3  502    0  0.14208710030E+04  0.32681247887E+03 -0.58496573502E+02  0.14591444934E+04  0.25500000920E-02 0.  1.
       -2    1    3    3    0  502 -0.14208710030E+04 -0.32681247887E+03  0.16643822664E+04  0.22126565780E+04  0.25500000920E-02 0. -1.
</event>
<event>
 5   0  0.3749685E-07  0.3169240E+04  0.7818609E-02  0.8196988E-01
        1   -1    0    0  501    0  0.00000000000E+00  0.00000000000E+00  0.21246304402E+04  0.21246304403E+04  0.50400001928E-02 0.  1.
       -1   -1    0    0    0  501  0.00000000000E+00  0.00000000000E+00 -0.11818622721E+04  0.11818622721E+04  0.50400001928E-02 0. -1.
    10030    2    1    2    0    0  0.00000000000E+00  0.00000000000E+00  0.94276816815E+03  0.33064927124E+04  0.31692400095E+04 0.  0.
        3    1    3    3  502    0  0.11661887934E+03 -0.14502304547E+04  0.11264718829E+04  0.18400291432E+04  0.10100000352E+00 0.  1.
       -3    1    3    3    0  502 -0.11661887934E+03  0.14502304547E+04 -0.18370371474E+03  0.14664635692E+04  0.10100000352E+00 0. -1.
</event>
<event>
 5   0  0.3749685E-07  0.3299574E+04  0.7818609E-02  0.8163004E-01
        1   -1    0    0  501    0  0.00000000000E+00  0.00000000000E+00  0.25231559875E+04  0.25231559875E+04  0.50400001928E-02 0.  1.
       -1   -1    0    0    0  501  0.00000000000E+00  0.00000000000E+00 -0.10787275537E+04  0.10787275537E+04  0.50400001928E-02 0. -1.
    10030    2    1    2    0    0  0.00000000000E+00  0.00000000000E+00  0.14444284339E+04  0.36018835412E+04  0.32995744489E+04 0.  0.
        3    1    3    3  502    0  0.74467552361E+03 -0.58005949560E+03  0.21992488247E+04  0.23932626385E+04  0.10100000352E+00 0.  1.
       -3    1    3    3    0  502 -0.74467552361E+03  0.58005949560E+03 -0.75482039081E+03  0.12086209027E+04  0.10100000352E+00 0. -1.
</event>
<event>
 5   0  0.1126221E-06  0.3314967E+04  0.7818609E-02  0.8159097E-01
       -2   -1    0    0    0  501  0.00000000000E+00  0.00000000000E+00  0.13152759676E+04  0.13152759676E+04  0.25500000920E-02 0. -1.
        2   -1    0    0  501    0  0.00000000000E+00  0.00000000000E+00 -0.20887265826E+04  0.20887265826E+04  0.25500000920E-02 0.  1.
    10030    2    1    2    0    0  0.00000000000E+00  0.00000000000E+00 -0.77345061505E+03  0.34040025502E+04  0.33149671956E+04 0.  0.
        2    1    3    3  502    0 -0.16435536842E+04  0.17680198551E+03 -0.51132782617E+03  0.17303132089E+04  0.25500000920E-02 0. -1.
       -2    1    3    3    0  502  0.16435536842E+04 -0.17680198551E+03 -0.26212278889E+03  0.16736893414E+04  0.25500000920E-02 0.  1.
</event>
<event>
 5   0  0.3796529E-07  0.3283939E+04  0.7818609E-02  0.8166994E-01
        1   -1    0    0  501    0  0.00000000000E+00  0.00000000000E+00  0.21344121323E+04  0.21344121323E+04  0.50400001928E-02 0.  1.
       -1   -1    0    0    0  501  0.00000000000E+00  0.00000000000E+00 -0.12631408088E+04  0.12631408088E+04  0.50400001928E-02 0. -1.
    10030    2    1    2    0    0  0.00000000000E+00  0.00000000000E+00  0.87127132345E+03  0.33975529411E+04  0.32839385299E+04 0.  0.
        5    1    3    3  502    0  0.11207393717E+04 -0.87633032293E+03  0.12837713752E+04  0.19162731037E+04  0.46999998093E+01 0.  1.
       -5    1    3    3    0  502 -0.11207393717E+04  0.87633032293E+03 -0.41250005174E+03  0.14812798374E+04  0.46999998093E+01 0. -1.
</event>
<event>
 5   0  0.1129434E-06  0.3304942E+04  0.7818609E-02  0.8161639E-01
       -2   -1    0    0    0  501  0.00000000000E+00  0.00000000000E+00  0.12366751491E+04  0.12366751491E+04  0.25500000920E-02 0. -1.
        2   -1    0    0  501    0  0.00000000000E+00  0.00000000000E+00 -0.22080664276E+04  0.22080664276E+04  0.25500000920E-02 0.  1.
    10030    2    1    2    0    0  0.00000000000E+00  0.00000000000E+00 -0.97139127849E+03  0.34447415767E+04  0.33049422861E+04 0.  0.
        3    1    3    3  502    0 -0.22834198528E+03 -0.50346502200E+03  0.11374315716E+04  0.12646610933E+04  0.10100000352E+00 0. -1.
       -3    1    3    3    0  502  0.22834198528E+03  0.50346502200E+03 -0.21088228501E+04  0.21800804834E+04  0.10100000352E+00 0.  1.
</event>
<event>
 5   0  0.1129434E-06  0.3164445E+04  0.7818609E-02  0.8198271E-01
       -2   -1    0    0    0  501  0.00000000000E+00  0.00000000000E+00  0.14267569562E+04  0.14267569562E+04  0.25500000920E-02 0. -1.
        2   -1    0    0  501    0  0.00000000000E+00  0.00000000000E+00 -0.17546282678E+04  0.17546282678E+04  0.25500000920E-02 0.  1.
    10030    2    1    2    0    0  0.00000000000E+00  0.00000000000E+00 -0.32787131154E+03  0.31813852240E+04  0.31644450298E+04 0.  0.
        3    1    3    3  502    0 -0.43250197954E+03  0.15219359528E+04 -0.15488357488E+03  0.15897597110E+04  0.10100000352E+00 0.  1.
       -3    1    3    3    0  502  0.43250197954E+03 -0.15219359528E+04 -0.17298773666E+03  0.15916255131E+04  0.10100000352E+00 0. -1.
</event>
<event>
 5   0  0.1126221E-06  0.3300059E+04  0.7818609E-02  0.8162880E-01
        2   -1    0    0  501    0  0.00000000000E+00  0.00000000000E+00  0.18675650080E+04  0.18675650080E+04  0.25500000920E-02 0.  1.
       -2   -1    0    0    0  501  0.00000000000E+00  0.00000000000E+00 -0.14578330865E+04  0.14578330865E+04  0.25500000920E-02 0. -1.
    10030    2    1    2    0    0  0.00000000000E+00  0.00000000000E+00  0.40973192151E+03  0.33253980946E+04  0.33000594297E+04 0.  0.
        2    1    3    3  502    0 -0.61472446685E+03 -0.65151459889E+03  0.16012333844E+04  0.18347495180E+04  0.25500000920E-02 0.  1.
       -2    1    3    3    0  502  0.61472446685E+03  0.65151459889E+03 -0.11915014629E+04  0.14906485765E+04  0.25500000920E-02 0. -1.
</event>
<event>
 5   0  0.3709747E-07  0.3303548E+04  0.7818609E-02  0.8161993E-01
        1   -1    0    0  501    0  0.00000000000E+00  0.00000000000E+00  0.12019077850E+04  0.12019077850E+04  0.50400001928E-02 0. -1.
       -1   -1    0    0    0  501  0.00000000000E+00  0.00000000000E+00 -0.22700216853E+04  0.22700216853E+04  0.50400001928E-02 0.  1.
    10030    2    1    2    0    0  0.00000000000E+00  0.00000000000E+00 -0.10681139002E+04  0.34719294703E+04  0.33035476299E+04 0.  0.
        4    1    3    3  502    0  0.44781490323E+03 -0.18612232350E+03  0.11254028621E+04  0.12254439693E+04  0.12699999809E+01 0. -1.
       -4    1    3    3    0  502 -0.44781490323E+03  0.18612232350E+03 -0.21935167623E+04  0.22464855011E+04  0.12699999809E+01 0.  1.
</event>
<event>
 5   0  0.1116462E-06  0.3300184E+04  0.7818609E-02  0.8162849E-01
       -2   -1    0    0    0  501  0.00000000000E+00  0.00000000000E+00  0.26097719070E+04  0.26097719070E+04  0.25500000920E-02 0. -1.
        2   -1    0    0  501    0  0.00000000000E+00  0.00000000000E+00 -0.10433106454E+04  0.10433106454E+04  0.25500000920E-02 0.  1.
    10030    2    1    2    0    0  0.00000000000E+00  0.00000000000E+00  0.15664612616E+04  0.36530825524E+04  0.33001835177E+04 0.  0.
        1    1    3    3  502    0  0.13871568816E+04 -0.35824832423E+03 -0.12300678611E+03  0.14379418435E+04  0.50400001928E-02 0.  1.
       -1    1    3    3    0  502 -0.13871568816E+04  0.35824832423E+03  0.16894680477E+04  0.22151407089E+04  0.50400001928E-02 0. -1.
</event>
<event>
 5   0  0.1126221E-06  0.3259808E+04  0.7818609E-02  0.8173198E-01
       -2   -1    0    0    0  501  0.00000000000E+00  0.00000000000E+00  0.24418634098E+04  0.24418634098E+04  0.25500000920E-02 0. -1.
        2   -1    0    0  501    0  0.00000000000E+00  0.00000000000E+00 -0.10879341441E+04  0.10879341441E+04  0.25500000920E-02 0.  1.
    10030    2    1    2    0    0  0.00000000000E+00  0.00000000000E+00  0.13539292656E+04  0.35297975539E+04  0.32598077114E+04 0.  0.
        2    1    3    3  502    0  0.11325523519E+04  0.46790598691E+02 -0.59124465252E+03  0.12784500104E+04  0.25500000920E-02 0.  1.
       -2    1    3    3    0  502 -0.11325523519E+04 -0.46790598691E+02  0.19451739181E+04  0.22513475435E+04  0.25500000920E-02 0. -1.
</event>
<event>
 5   0  0.1116462E-06  0.3258493E+04  0.7818609E-02  0.8173538E-01
        2   -1    0    0  501    0  0.00000000000E+00  0.00000000000E+00  0.16340487516E+04  0.16340487516E+04  0.25500000920E-02 0.  1.
       -2   -1    0    0    0  501  0.00000000000E+00  0.00000000000E+00 -0.16244579843E+04  0.16244579843E+04  0.25500000920E-02 0. -1.
    10030    2    1    2    0    0  0.00000000000E+00  0.00000000000E+00  0.95907672903E+01  0.32585067359E+04  0.32584926216E+04 0.  0.
        1    1    3    3  502    0  0.32400771749E+03  0.72058673889E+03 -0.14200677255E+04  0.16250595664E+04  0.50400001928E-02 0. -1.
       -1    1    3    3    0  502 -0.32400771749E+03 -0.72058673889E+03  0.14296584928E+04  0.16334471694E+04  0.50400001928E-02 0.  1.
</event>
<event>
 5   0  0.1129434E-06  0.3289865E+04  0.7818609E-02  0.8165479E-01
       -2   -1    0    0    0  501  0.00000000000E+00  0.00000000000E+00  0.20036019497E+04  0.20036019497E+04  0.25500000920E-02 0.  1.
        2   -1    0    0  501    0  0.00000000000E+00  0.00000000000E+00 -0.13504693385E+04  0.13504693386E+04  0.25500000920E-02 0. -1.
    10030    2    1    2    0    0  0.00000000000E+00  0.00000000000E+00  0.65313261111E+03  0.33540712882E+04  0.32898650426E+04 0.  0.
        3    1    3    3  502    0  0.42662553809E+03 -0.10709442037E+04  0.15228688170E+04  0.19099896024E+04  0.10100000352E+00 0.  1.
       -3    1    3    3    0  502 -0.42662553809E+03  0.10709442037E+04 -0.86973620592E+03  0.14440816858E+04  0.10100000352E+00 0. -1.
</event>
<event>
 5   0  0.3674967E-07  0.3263630E+04  0.7818609E-02  0.8172212E-01
       -1   -1    0    0    0  501  0.00000000000E+00  0.00000000000E+00  0.10828055770E+04  0.10828055770E+04  0.50400001928E-02 0. -1.
        1   -1    0    0  501    0  0.00000000000E+00  0.00000000000E+00 -0.24591853398E+04  0.24591853398E+04  0.50400001928E-02 0.  1.
    10030    2    1    2    0    0  0.00000000000E+00  0.00000000000E+00 -0.13763797628E+04  0.35419909169E+04  0.32636296364E+04 0.  0.
        2    1    3    3  502    0  0.12741555276E+04  0.36046671105E+03  0.34677755735E+03  0.13688181883E+04  0.25500000920E-02 0. -1.
       -2    1    3    3    0  502 -0.12741555276E+04 -0.36046671105E+03 -0.17231573202E+04  0.21731727286E+04  0.25500000920E-02 0.  1.
</event>
<event>
 5   0  0.1129434E-06  0.3305704E+04  0.7818609E-02  0.8161446E-01
        2   -1    0    0  501    0  0.00000000000E+00  0.00000000000E+00  0.23466418007E+04  0.23466418007E+04  0.25500000920E-02 0. -1.
       -2   -1    0    0    0  501  0.00000000000E+00  0.00000000000E+00 -0.11641824888E+04  0.11641824888E+04  0.25500000920E-02 0.  1.
    10030    2    1    2    0    0  0.00000000000E+00  0.00000000000E+00  0.11824593119E+04  0.35108242896E+04  0.33057037326E+04 0.  0.
        3    1    3    3  502    0 -0.82141106553E+03 -0.63695261395E+03 -0.77361660227E+03  0.12957266025E+04  0.10100000352E+00 0.  1.
       -3    1    3    3    0  502  0.82141106553E+03  0.63695261395E+03  0.19560759142E+04  0.22150976870E+04  0.10100000352E+00 0. -1.
</event>
<event>
 5   0  0.1120545E-06  0.3307643E+04  0.7818609E-02  0.8160953E-01
        2   -1    0    0  501    0  0.00000000000E+00  0.00000000000E+00  0.21753840583E+04  0.21753840583E+04  0.25500000920E-02 0.  1.
       -2   -1    0    0    0  501  0.00000000000E+00  0.00000000000E+00 -0.12573070670E+04  0.12573070670E+04  0.25500000920E-02 0. -1.
    10030    2    1    2    0    0  0.00000000000E+00  0.00000000000E+00  0.91807699133E+03  0.34326911252E+04  0.33076431185E+04 0.  0.
        4    1    3    3  502    0 -0.50783721890E+03  0.15239558603E+04  0.86733828901E+03  0.18255457884E+04  0.12699999809E+01 0.  1.
       -4    1    3    3    0  502  0.50783721890E+03 -0.15239558603E+04  0.50738702325E+02  0.16071453369E+04  0.12699999809E+01 0. -1.
</event>
<event>
 5   0  0.3757406E-07  0.3212208E+04  0.7818609E-02  0.8185600E-01
       -1   -1    0    0    0  501  0.00000000000E+00  0.00000000000E+00  0.27502047296E+04  0.27502047297E+04  0.50400001928E-02 0.  1.
        1   -1    0    0  501    0  0.00000000000E+00  0.00000000000E+00 -0.93795589815E+03  0.93795589816E+03  0.50400001928E-02 0. -1.
    10030    2    1    2    0    0  0.00000000000E+00  0.00000000000E+00  0.18122488315E+04  0.36881606278E+04  0.32122084287E+04 0.  0.
        1    1    3    3  502    0 -0.10124737590E+04  0.74488652043E+02 -0.52283690719E+03  0.11419326178E+04  0.50400001928E-02 0. -1.
       -1    1    3    3    0  502  0.10124737590E+04 -0.74488652043E+02  0.23350857387E+04  0.25462280100E+04  0.50400001928E-02 0.  1.
</event>
<event>
 5   0  0.3674967E-07  0.3317515E+04  0.7818609E-02  0.8158453E-01
        1   -1    0    0  501    0  0.00000000000E+00  0.00000000000E+00  0.21797589521E+04  0.21797589521E+04  0.50400001928E-02 0. -1.
       -1   -1    0    0    0  501  0.00000000000E+00  0.00000000000E+00 -0.12622846871E+04  0.12622846871E+04  0.50400001928E-02 0.  1.
    10030    2    1    2    0    0  0.00000000000E+00  0.00000000000E+00  0.91747426497E+03  0.34420436392E+04  0.33175149415E+04 0.  0.
        2    1    3    3  502    0  0.51708723430E+03 -0.10221857883E+04  0.17034497502E+04  0.20527990757E+04  0.25500000920E-02 0. -1.
       -2    1    3    3    0  502 -0.51708723430E+03  0.10221857883E+04 -0.78597548521E+03  0.13892445635E+04  0.25500000920E-02 0.  1.
</event>
<event>
 5   0  0.3796529E-07  0.3346203E+04  0.7818609E-02  0.8151238E-01
       -1   -1    0    0    0  501  0.00000000000E+00  0.00000000000E+00  0.11635147309E+04  0.11635147309E+04  0.50400001928E-02 0. -1.
        1   -1    0    0  501    0  0.00000000000E+00  0.00000000000E+00 -0.24058727190E+04  0.24058727190E+04  0.50400001928E-02 0.  1.
    10030    2    1    2    0    0  0.00000000000E+00  0.00000000000E+00 -0.12423579881E+04  0.35693874500E+04  0.33462028327E+04 0.  0.
        5    1    3    3  502    0 -0.58218066312E+03  0.83886566463E+01 -0.22943113795E+04  0.23670427732E+04  0.46999998093E+01 0.  1.
       -5    1    3    3    0  502  0.58218066312E+03 -0.83886566463E+01  0.10519533914E+04  0.12023446768E+04  0.46999998093E+01 0. -1.
</event>
<event>
 5   0  0.3749685E-07  0.3285829E+04  0.7818609E-02  0.8166511E-01
        1   -1    0    0  501    0  0.00000000000E+00  0.00000000000E+00  0.15812362547E+04  0.15812362548E+04  0.50400001928E-02 0.  1.
       -1   -1    0    0    0  501  0.00000000000E+00  0.00000000000E+00 -0.17069981313E+04  0.17069981313E+04  0.50400001928E-02 0. -1.
    10030    2    1    2    0    0  0.00000000000E+00  0.00000000000E+00 -0.12576187659E+03  0.32882343861E+04  0.32858285604E+04 0.  0.
        3    1    3    3  502    0  0.13188282222E+04 -0.44508342129E+03 -0.93630872199E+03  0.16775223291E+04  0.10100000352E+00 0. -1.
       -3    1    3    3    0  502 -0.13188282222E+04  0.44508342129E+03  0.81054684540E+03  0.16107120570E+04  0.10100000352E+00 0.  1.
</event>
<event>
 5   0  0.1120545E-06  0.3295399E+04  0.7818609E-02  0.8164067E-01
       -2   -1    0    0    0  501  0.00000000000E+00  0.00000000000E+00  0.13311552914E+04  0.13311552914E+04  0.25500000920E-02 0. -1.
        2   -1    0    0  501    0  0.00000000000E+00  0.00000000000E+00 -0.20395169910E+04  0.20395169910E+04  0.25500000920E-02 0.  1.
    10030    2    1    2    0    0  0.00000000000E+00  0.00000000000E+00 -0.70836169957E+03  0.33706722824E+04  0.32953991166E+04 0.  0.
        4    1    3    3  502    0  0.58950149150E+03 -0.89265690007E+03  0.92766650152E+03  0.14159502465E+04  0.12699999809E+01 0. -1.
       -4    1    3    3    0  502 -0.58950149150E+03  0.89265690007E+03 -0.16360282011E+04  0.19547220358E+04  0.12699999809E+01 0.  1.
</event>
<event>
 5   0  0.3757406E-07  0.3303244E+04  0.7818609E-02  0.8162070E-01
       -1   -1    0    0    0  501  0.00000000000E+00  0.00000000000E+00  0.16138286496E+04  0.16138286496E+04  0.50400001928E-02 0.  1.
        1   -1    0    0  501    0  0.00000000000E+00  0.00000000000E+00 -0.16903006902E+04  0.16903006902E+04  0.50400001928E-02 0. -1.
    10030    2    1    2    0    0  0.00000000000E+00  0.00000000000E+00 -0.76472040548E+02  0.33041293398E+04  0.33032442721E+04 0.  0.
        1    1    3    3  502    0  0.90428462482E+03 -0.70916774506E+03  0.11483390084E+04  0.16246021210E+04  0.50400001928E-02 0.  1.
       -1    1    3    3    0  502 -0.90428462482E+03  0.70916774506E+03 -0.12248110489E+04  0.16795272188E+04  0.50400001928E-02 0. -1.
</event>
<event>
 5   0  0.1146799E-06  0.3267672E+04  0.7818609E-02  0.8171170E-01
        2   -1    0    0  501    0  0.00000000000E+00  0.00000000000E+00  0.25531270471E+04  0.25531270471E+04  0.25500000920E-02 0.  1.
       -2   -1    0    0    0  501  0.00000000000E+00  0.00000000000E+00 -0.10455491870E+04  0.10455491870E+04  0.25500000920E-02 0. -1.
    10030    2    1    2    0    0  0.00000000000E+00  0.00000000000E+00  0.15075778601E+04  0.35986762340E+04  0.32676718980E+04 0.  0.
        5    1    3    3  502    0  0.67939334443E+03  0.25927703274E+02 -0.88235039209E+03  0.11139173518E+04  0.46999998093E+01 0. -1.
       -5    1    3    3    0  502 -0.67939334443E+03 -0.25927703274E+02  0.23899282522E+04  0.24847588822E+04  0.46999998093E+01 0.  1.
</event>
<event>
 5   0  0.1146799E-06  0.3259440E+04  0.7818609E-02  0.8173293E-01
        2   -1    0    0  501    0  0.00000000000E+00  0.00000000000E+00  0.28155164270E+04  0.28155164270E+04  0.25500000920E-02 0.  1.
       -2   -1    0    0    0  501  0.00000000000E+00  0.00000000000E+00 -0.94333955980E+03  0.94333955981E+03  0.25500000920E-02 0. -1.
    10030    2    1    2    0    0  0.00000000000E+00  0.00000000000E+00  0.18721768672E+04  0.37588559869E+04  0.32594404593E+04 0.  0.
        5    1    3    3  502    0  0.12743451272E+04  0.91239857215E+03  0.14512302848E+04  0.21360051703E+04  0.46999998093E+01 0.  1.
       -5    1    3    3    0  502 -0.12743451272E+04 -0.91239857215E+03  0.42094658241E+03  0.16228508166E+04  0.46999998093E+01 0. -1.
</event>
<event>
 5   0  0.1146799E-06  0.3339774E+04  0.7818609E-02  0.8152848E-01
        2   -1    0    0  501    0  0.00000000000E+00  0.00000000000E+00  0.27787178508E+04  0.27787178508E+04  0.25500000920E-02 0. -1.
       -2   -1    0    0    0  501  0.00000000000E+00  0.00000000000E+00 -0.10035284350E+04  0.10035284350E+04  0.25500000920E-02 0.  1.
    10030    2    1    2    0    0  0.00000000000E+00  0.00000000000E+00  0.17751894158E+04  0.37822462859E+04  0.33397738703E+04 0.  0.
        5    1    3    3  502    0 -0.13757365567E+04  0.94183506554E+03  0.78138274594E+03  0.18412727798E+04  0.46999998093E+01 0.  1.
       -5    1    3    3    0  502  0.13757365567E+04 -0.94183506554E+03  0.99380666984E+03  0.19409735060E+04  0.46999998093E+01 0. -1.
</event>
<event>
 5   0  0.1126221E-06  0.3294360E+04  0.7818609E-02  0.8164332E-01
       -2   -1    0    0    0  501  0.00000000000E+00  0.00000000000E+00  0.14582120450E+04  0.14582120450E+04  0.25500000920E-02 0.  1.
        2   -1    0    0  501    0  0.00000000000E+00  0.00000000000E+00 -0.18606357291E+04  0.18606357291E+04  0.25500000920E-02 0. -1.
    10030    2    1    2    0    0  0.00000000000E+00  0.00000000000E+00 -0.40242368406E+03  0.33188477741E+04  0.32943596838E+04 0.  0.
        2    1    3    3  502    0 -0.24794373884E+03 -0.96657316047E+03  0.11190493080E+04  0.14993368954E+04  0.25500000920E-02 0.  1.
       -2    1    3    3    0  502  0.24794373884E+03  0.96657316047E+03 -0.15214729921E+04  0.18195108787E+04  0.25500000920E-02 0. -1.
</event>
<event>
 5   0  0.3709747E-07  0.3328196E+04  0.7818609E-02  0.8155758E-01
        1   -1    0    0  501    0  0.00000000000E+00  0.00000000000E+00  0.22676456579E+04  0.22676456579E+04  0.50400001928E-02 0. -1.
       -1   -1    0    0    0  501  0.00000000000E+00  0.00000000000E+00 -0.12211879818E+04  0.12211879818E+04  0.50400001928E-02 0.  1.
    10030    2    1    2    0    0  0.00000000000E+00  0.00000000000E+00  0.10464576761E+04  0.34888336396E+04  0.33281956819E+04 0.  0.
        4    1    3    3  502    0  0.42105491140E+03 -0.62731716271E+03  0.20774948632E+04  0.22106109066E+04  0.12699999809E+01 0. -1.
       -4    1    3    3    0  502 -0.42105491140E+03  0.62731716271E+03 -0.10310371871E+04  0.12782227330E+04  0.12699999809E+01 0.  1.
</event>
<event>
 5   0  0.1116462E-06  0.3302746E+04  0.7818609E-02  0.8162197E-01
        2   -1    0    0  501    0  0.00000000000E+00  0.00000000000E+00  0.16804420758E+04  0.16804420758E+04  0.25500000920E-02 0.  1.
       -2   -1    0    0    0  501  0.00000000000E+00  0.00000000000E+00 -0.16228071513E+04  0.16228071513E+04  0.25500000920E-02 0. -1.
    10030    2    1    2    0    0  0.00000000000E+00  0.00000000000E+00  0.57634924465E+02  0.33032492271E+04  0.33027463832E+04 0.  0.
        1    1    3    3  502    0 -0.16248669353E+04  0.11361393798E+03 -0.24312967916E+03  0.16468796937E+04  0.50400001928E-02 0.  1.
       -1    1    3    3    0  502  0.16248669353E+04 -0.11361393798E+03  0.30076460362E+03  0.16563695334E+04  0.50400001928E-02 0. -1.
</event>
<event>
 5   0  0.1146799E-06  0.3376581E+04  0.7818609E-02  0.8143678E-01
       -2   -1    0    0    0  501  0.00000000000E+00  0.00000000000E+00  0.12425225933E+04  0.12425225933E+04  0.25500000920E-02 0.  1.
        2   -1    0    0  501    0  0.00000000000E+00  0.00000000000E+00 -0.22939823706E+04  0.22939823706E+04  0.25500000920E-02 0. -1.
    10030    2    1    2    0    0  0.00000000000E+00  0.00000000000E+00 -0.10514597773E+04  0.35365049639E+04  0.33765810662E+04 0.  0.
        5    1    3    3  502    0 -0.13969506979E+04  0.93951466586E+03 -0.65880585560E+03  0.18078181062E+04  0.46999998093E+01 0.  1.
       -5    1    3    3    0  502  0.13969506979E+04 -0.93951466586E+03 -0.39265392169E+03  0.17286868577E+04  0.46999998093E+01 0. -1.
</event>
<event>
 5   0  0.1120545E-06  0.3305634E+04  0.7818609E-02  0.8161463E-01
       -2   -1    0    0    0  501  0.00000000000E+00  0.00000000000E+00  0.16987089875E+04  0.16987089875E+04  0.25500000920E-02 0. -1.
        2   -1    0    0  501    0  0.00000000000E+00  0.00000000000E+00 -0.16081648875E+04  0.16081648875E+04  0.25500000920E-02 0.  1.
    10030    2    1    2    0    0  0.00000000000E+00  0.00000000000E+00  0.90544099970E+02  0.33068738750E+04  0.33056340679E+04 0.  0.
        4    1    3    3  502    0  0.97051968078E+03  0.84551256581E+03  0.10824842340E+04  0.16818364009E+04  0.12699999809E+01 0. -1.
       -4    1    3    3    0  502 -0.97051968078E+03 -0.84551256581E+03 -0.99194013405E+03  0.16250374741E+04  0.12699999809E+01 0.  1.
</event>
<event>
 5   0  0.1146799E-06  0.3283623E+04  0.7818609E-02  0.8167075E-01
       -2   -1    0    0    0  501  0.00000000000E+00  0.00000000000E+00  0.14995861953E+04  0.14995861953E+04  0.25500000920E-02 0.  1.
        2   -1    0    0  501    0  0.00000000000E+00  0.00000000000E+00 -0.17975254381E+04  0.17975254381E+04  0.25500000920E-02 0. -1.
    10030    2    1    2    0    0  0.00000000000E+00  0.00000000000E+00 -0.29793924280E+03  0.32971116334E+04  0.32836225926E+04 0.  0.
        5    1    3    3  502    0  0.47859935847E+03  0.15564461536E+04  0.61510829270E+02  0.16295360221E+04  0.46999998093E+01 0.  1.
       -5    1    3    3    0  502 -0.47859935847E+03 -0.15564461536E+04 -0.35945007207E+03  0.16675756113E+04  0.46999998093E+01 0. -1.
</event>
<event>
 5   0  0.1146799E-06  0.3268257E+04  0.7818609E-02  0.8171020E-01
       -2   -1    0    0    0  501  0.00000000000E+00  0.00000000000E+00  0.18647675723E+04  0.18647675723E+04  0.25500000920E-02 0.  1.
        2   -1    0    0  501    0  0.00000000000E+00  0.00000000000E+00 -0.14320153002E+04  0.14320153002E+04  0.25500000920E-02 0. -1.
    10030    2    1    2    0    0  0.00000000000E+00  0.00000000000E+00  0.43275227210E+03  0.32967828726E+04  0.32682568412E+04 0.  0.
        5    1    3    3  502    0  0.16210195840E+04 -0.12126579032E+03  0.47753339599E+02  0.16262571614E+04  0.46999998093E+01 0. -1.
       -5    1    3    3    0  502 -0.16210195840E+04  0.12126579032E+03  0.38499893251E+03  0.16705257112E+04  0.46999998093E+01 0.  1.
</event>
<event>
 5   0  0.3709747E-07  0.3297503E+04  0.7818609E-02  0.8163531E-01
       -1   -1    0    0    0  501  0.00000000000E+00  0.00000000000E+00  0.16055238969E+04  0.16055238970E+04  0.50400001928E-02 0. -1.
        1   -1    0    0  501    0  0.00000000000E+00  0.00000000000E+00 -0.16931425025E+04  0.16931425025E+04  0.50400001928E-02 0.  1.
    10030    2    1    2    0    0  0.00000000000E+00  0.00000000000E+00 -0.87618605532E+02  0.32986663994E+04  0.32975025390E+04 0.  0.
        4    1    3    3  502    0 -0.13343005043E+04  0.96842640870E+03 -0.56913201049E+02  0.16496812632E+04  0.12699999809E+01 0.  1.
       -4    1    3    3    0  502  0.13343005043E+04 -0.96842640870E+03 -0.30705404482E+02  0.16489851362E+04  0.12699999809E+01 0. -1.
</event>
<event>
 5   0  0.3749685E-07  0.3281970E+04  0.7818609E-02  0.8167498E-01
       -1   -1    0    0    0  501  0.00000000000E+00  0.00000000000E+00  0.13487568477E+04  0.13487568477E+04  0.50400001928E-02 0. -1.
        1   -1    0    0  501    0  0.00000000000E+00  0.00000000000E+00 -0.19965285332E+04  0.19965285332E+04  0.50400001928E-02 0.  1.
    10030    2    1    2    0    0  0.00000000000E+00  0.00000000000E+00 -0.64777168552E+03  0.33452853809E+04  0.32819698541E+04 0.  0.
        3    1    3    3  502    0 -0.10416605123E+04  0.88724658306E+03  0.59944209986E+03  0.14938520554E+04  0.10100000352E+00 0. -1.
       -3    1    3    3    0  502  0.10416605123E+04 -0.88724658306E+03 -0.12472137854E+04  0.18514333255E+04  0.10100000352E+00 0.  1.
</event>
<event>
 5   0  0.3796529E-07  0.3295727E+04  0.7818609E-02  0.8163983E-01
       -1   -1    0    0    0  501  0.00000000000E+00  0.00000000000E+00  0.11804327398E+04  0.11804327398E+04  0.50400001928E-02 0.  1.
        1   -1    0    0  501    0  0.00000000000E+00  0.00000000000E+00 -0.23003891858E+04  0.23003891858E+04  0.50400001928E-02 0. -1.
    10030    2    1    2    0    0  0.00000000000E+00  0.00000000000E+00 -0.11199564461E+04  0.34808219256E+04  0.32957273608E+04 0.  0.
        5    1    3    3  502    0 -0.38188863052E+03 -0.82085216300E+03  0.89422888546E+03  0.12725189937E+04  0.46999998093E+01 0.  1.
       -5    1    3    3    0  502  0.38188863052E+03  0.82085216300E+03 -0.20141853315E+04  0.22083029320E+04  0.46999998093E+01 0. -1.
</event>
<event>
 5   0  0.1116462E-06  0.3331092E+04  0.7818609E-02  0.8155029E-01
       -2   -1    0    0    0  501  0.00000000000E+00  0.00000000000E+00  0.16260211628E+04  0.16260211628E+04  0.25500000920E-02 0.  1.
        2   -1    0    0  501    0  0.00000000000E+00  0.00000000000E+00 -0.17060318124E+04  0.17060318124E+04  0.25500000920E-02 0. -1.
    10030    2    1    2    0    0  0.00000000000E+00  0.00000000000E+00 -0.80010649619E+02  0.33320529752E+04  0.33310922121E+04 0.  0.
        1    1    3    3  502    0  0.61743078101E+03 -0.46937492821E+03 -0.15143742144E+04  0.17014296500E+04  0.50400001928E-02 0. -1.
       -1    1    3    3    0  502 -0.61743078101E+03  0.46937492821E+03  0.14343635648E+04  0.16306233252E+04  0.50400001928E-02 0.  1.
</event>
<event>
 5   0  0.1146799E-06  0.3317925E+04  0.7818609E-02  0.8158349E-01
       -2   -1    0    0    0  501  0.00000000000E+00  0.00000000000E+00  0.16591298709E+04  0.16591298709E+04  0.25500000920E-02 0. -1.
        2   -1    0    0  501    0  0.00000000000E+00  0.00000000000E+00 -0.16587948949E+04  0.16587948949E+04  0.25500000920E-02 0.  1.
    10030    2    1    2    0    0  0.00000000000E+00  0.00000000000E+00  0.33497599283E+00  0.33179247658E+04  0.33179247489E+04 0.  0.
        5    1    3    3  502    0 -0.10130776281E+04  0.89249647558E+03  0.96414769511E+03  0.16590597058E+04  0.46999998093E+01 0. -1.
       -5    1    3    3    0  502  0.10130776281E+04 -0.89249647558E+03 -0.96381271911E+03  0.16588650599E+04  0.46999998093E+01 0.  1.
</event>
<event>
 5   0  0.3796529E-07  0.3301181E+04  0.7818609E-02  0.8162595E-01
        1   -1    0    0  501    0  0.00000000000E+00  0.00000000000E+00  0.96106111006E+03  0.96106111007E+03  0.50400001928E-02 0. -1.
       -1   -1    0    0    0  501  0.00000000000E+00  0.00000000000E+00 -0.28348334945E+04  0.28348334945E+04  0.50400001928E-02 0.  1.
    10030    2    1    2    0    0  0.00000000000E+00  0.00000000000E+00 -0.18737723845E+04  0.37958946046E+04  0.33011805313E+04 0.  0.
        5    1    3    3  502    0  0.49952266581E+03  0.79025531257E+03  0.62726112675E+03  0.11258352294E+04  0.46999998093E+01 0. -1.
       -5    1    3    3    0  502 -0.49952266581E+03 -0.79025531257E+03 -0.25010335112E+04  0.26700593752E+04  0.46999998093E+01 0.  1.
</event>
<event>
 5   0  0.3757406E-07  0.3295699E+04  0.7818609E-02  0.8163991E-01
        1   -1    0    0  501    0  0.00000000000E+00  0.00000000000E+00  0.18841031312E+04  0.18841031312E+04  0.50400001928E-02 0.  1.
       -1   -1    0    0    0  501  0.00000000000E+00  0.00000000000E+00 -0.14412201150E+04  0.14412201151E+04  0.50400001928E-02 0. -1.
    10030    2    1    2    0    0  0.00000000000E+00  0.00000000000E+00  0.44288301617E+03  0.33253232463E+04  0.32956986097E+04 0.  0.
        1    1    3    3  502    0 -0.31246955659E+03  0.15301124140E+04 -0.30914285937E+03  0.15919957698E+04  0.50400001928E-02 0. -1.
       -1    1    3    3    0  502  0.31246955659E+03 -0.15301124140E+04  0.75202587554E+03  0.17333274765E+04  0.50400001928E-02 0.  1.
</event>
<event>
 5   0  0.1120545E-06  0.3317229E+04  0.7818609E-02  0.8158525E-01
        2   -1    0    0  501    0  0.00000000000E+00  0.00000000000E+00  0.16188767361E+04  0.16188767361E+04  0.25500000920E-02 0. -1.
       -2   -1    0    0    0  501  0.00000000000E+00  0.00000000000E+00 -0.16993274593E+04  0.16993274593E+04  0.25500000920E-02 0.  1.
    10030    2    1    2    0    0  0.00000000000E+00  0.00000000000E+00 -0.80450723214E+02  0.33182041954E+04  0.33172287777E+04 0.  0.
        4    1    3    3  502    0  0.17553682665E+01 -0.89000009104E+03  0.13597921438E+04  0.16251583094E+04  0.12699999809E+01 0. -1.
       -4    1    3    3    0  502 -0.17553682665E+01  0.89000009104E+03 -0.14402428670E+04  0.16930458860E+04  0.12699999809E+01 0.  1.
</event>
<event>
 5   0  0.3757406E-07  0.3300758E+04  0.7818609E-02  0.8162703E-01
       -1   -1    0    0    0  501  0.00000000000E+00  0.00000000000E+00  0.14103197480E+04  0.14103197481E+04  0.50400001928E-02 0.  1.
        1   -1    0    0  501    0  0.00000000000E+00  0.00000000000E+00 -0.19312998232E+04  0.19312998232E+04  0.50400001928E-02 0. -1.
    10030    2    1    2    0    0  0.00000000000E+00  0.00000000000E+00 -0.52098007519E+03  0.33416195713E+04  0.33007576586E+04 0.  0.
        1    1    3    3  502    0 -0.12812690871E+04 -0.88753259454E+03 -0.80978007402E+03  0.17564476503E+04  0.50400001928E-02 0. -1.
       -1    1    3    3    0  502  0.12812690871E+04  0.88753259454E+03  0.28879999883E+03  0.15851719210E+04  0.50400001928E-02 0.  1.
</event>
<event>
 5   0  0.1120545E-06  0.3298249E+04  0.7818609E-02  0.8163341E-01
       -2   -1    0    0    0  501  0.00000000000E+00  0.00000000000E+00  0.22841098819E+04  0.22841098819E+04  0.25500000920E-02 0.  1.
        2   -1    0    0  501    0  0.00000000000E+00  0.00000000000E+00 -0.11906660963E+04  0.11906660963E+04  0.25500000920E-02 0. -1.
    10030    2    1    2    0    0  0.00000000000E+00  0.00000000000E+00  0.10934437857E+04  0.34747759782E+04  0.32982493518E+04 0.  0.
        4    1    3    3  502    0  0.20087026509E+03 -0.11486781972E+04  0.17752380207E+04  0.21239778971E+04  0.12699999809E+01 0.  1.
       -4    1    3    3    0  502 -0.20087026509E+03  0.11486781972E+04 -0.68179423503E+03  0.13507980811E+04  0.12699999809E+01 0. -1.
</event>
<event>
 5   0  0.1116462E-06  0.3377913E+04  0.7818609E-02  0.8143348E-01
        2   -1    0    0  501    0  0.00000000000E+00  0.00000000000E+00  0.20016244391E+04  0.20016244391E+04  0.25500000920E-02 0. -1.
       -2   -1    0    0    0  501  0.00000000000E+00  0.00000000000E+00 -0.14251298082E+04  0.14251298082E+04  0.25500000920E-02 0.  1.
    10030    2    1    2    0    0  0.00000000000E+00  0.00000000000E+00  0.57649463091E+03  0.34267542474E+04  0.33779133518E+04 0.  0.
        1    1    3    3  502    0  0.62266927265E+03 -0.13141171514E+04 -0.58321582806E+03  0.15667678874E+04  0.50400001928E-02 0.  1.
       -1    1    3    3    0  502 -0.62266927265E+03  0.13141171514E+04  0.11597104590E+04  0.18599863600E+04  0.50400001928E-02 0. -1.
</event>
<event>
 5   0  0.3674967E-07  0.3294240E+04  0.7818609E-02  0.8164362E-01
       -1   -1    0    0    0  501  0.00000000000E+00  0.00000000000E+00  0.14387784574E+04  0.14387784574E+04  0.50400001928E-02 0.  1.
        1   -1    0    0  501    0  0.00000000000E+00  0.00000000000E+00 -0.18856308482E+04  0.18856308482E+04  0.50400001928E-02 0. -1.
    10030    2    1    2    0    0  0.00000000000E+00  0.00000000000E+00 -0.44685239079E+03  0.33244093055E+04  0.32942404544E+04 0.  0.
        2    1    3    3  502    0  0.58000462896E+03 -0.27175251049E+03  0.13079525386E+04  0.14563634986E+04  0.25500000920E-02 0.  1.
       -2    1    3    3    0  502 -0.58000462896E+03  0.27175251049E+03 -0.17548049294E+04  0.18680458070E+04  0.25500000920E-02 0. -1.
</event>
<event>
 5   0  0.3757406E-07  0.3312514E+04  0.7818609E-02  0.8159719E-01
        1   -1    0    0  501    0  0.00000000000E+00  0.00000000000E+00  0.19998779792E+04  0.19998779792E+04  0.50400001928E-02 0.  1.
       -1   -1    0    0    0  501  0.00000000000E+00  0.00000000000E+00 -0.13716769212E+04  0.13716769213E+04  0.50400001928E-02 0. -1.
    10030    2    1    2    0    0  0.00000000000E+00  0.00000000000E+00  0.62820105799E+03  0.33715549005E+04  0.33125135287E+04 0.  0.
        1    1    3    3  502    0 -0.93162281681E+03  0.84861983091E+03 -0.77981605288E+03  0.14819547114E+04  0.50400001928E-02 0. -1.
       -1    1    3    3    0  502  0.93162281681E+03 -0.84861983091E+03  0.14080171109E+04  0.18896001891E+04  0.50400001928E-02 0.  1.
</event>
<event>
 5   0  0.1120545E-06  0.3309519E+04  0.7818609E-02  0.8160478E-01
       -2   -1    0    0    0  501  0.00000000000E+00  0.00000000000E+00  0.11691688543E+04  0.11691688543E+04  0.25500000920E-02 0.  1.
        2   -1    0    0  501    0  0.00000000000E+00  0.00000000000E+00 -0.23420299692E+04  0.23420299692E+04  0.25500000920E-02 0. -1.
    10030    2    1    2    0    0  0.00000000000E+00  0.00000000000E+00 -0.11728611149E+04  0.35111988235E+04  0.33095186936E+04 0.  0.
        4    1    3    3  502    0  0.70828606289E+03 -0.74939689660E+03 -0.19595017849E+04  0.22142524051E+04  0.12699999809E+01 0. -1.
       -4    1    3    3    0  502 -0.70828606289E+03  0.74939689660E+03  0.78664067004E+03  0.12969464184E+04  0.12699999809E+01 0.  1.
</event>
<event>
 5   0  0.3709747E-07  0.3293661E+04  0.7818609E-02  0.8164510E-01
       -1   -1    0    0    0  501  0.00000000000E+00  0.00000000000E+00  0.12254900380E+04  0.12254900381E+04  0.50400001928E-02 0.  1.
        1   -1    0    0  501    0  0.00000000000E+00  0.00000000000E+00 -0.22130342558E+04  0.22130342558E+04  0.50400001928E-02 0. -1.
    10030    2    1    2    0    0  0.00000000000E+00  0.00000000000E+00 -0.98754421774E+03  0.34385242938E+04  0.32936614485E+04 0.  0.
        4    1    3    3  502    0 -0.13521192233E+04  0.80942184457E+03 -0.99298749257E+03  0.18626368110E+04  0.12699999809E+01 0. -1.
       -4    1    3    3    0  502  0.13521192233E+04 -0.80942184457E+03  0.54432748277E+01  0.15758874828E+04  0.12699999809E+01 0.  1.
</event>
<event>
 5   0  0.1120545E-06  0.3290720E+04  0.7818609E-02  0.8165261E-01
        2   -1    0    0  501    0  0.00000000000E+00  0.00000000000E+00  0.20559862954E+04  0.20559862954E+04  0.25500000920E-02 0. -1.
       -2   -1    0    0    0  501  0.00000000000E+00  0.00000000000E+00 -0.13167446410E+04  0.13167446410E+04  0.25500000920E-02 0.  1.
    10030    2    1    2    0    0  0.00000000000E+00  0.00000000000E+00  0.73924165440E+03  0.33727309365E+04  0.32907196396E+04 0.  0.
        4    1    3    3  502    0 -0.55450600740E+02 -0.12621221981E+04  0.14500170144E+04  0.19231687828E+04  0.12699999809E+01 0. -1.
       -4    1    3    3    0  502  0.55450600740E+02  0.12621221981E+04 -0.71077536001E+03  0.14495621537E+04  0.12699999809E+01 0.  1.
</event>
<event>
 5   0  0.3674967E-07  0.3321429E+04  0.7818609E-02  0.8157464E-01
        1   -1    0    0  501    0  0.00000000000E+00  0.00000000000E+00  0.20755580846E+04  0.20755580846E+04  0.50400001928E-02 0. -1.
       -1   -1    0    0    0  501  0.00000000000E+00  0.00000000000E+00 -0.13287863535E+04  0.13287863535E+04  0.50400001928E-02 0.  1.
    10030    2    1    2    0    0  0.00000000000E+00  0.00000000000E+00  0.74677173108E+03  0.34043444382E+04  0.33214293663E+04 0.  0.
        2    1    3    3  502    0 -0.11638635497E+03 -0.10051233738E+04  0.17231328430E+04  0.19982506287E+04  0.25500000920E-02 0. -1.
       -2    1    3    3    0  502  0.11638635497E+03  0.10051233738E+04 -0.97636111195E+03  0.14060938095E+04  0.25500000920E-02 0.  1.
</event>
<event>
 5   0  0.1116462E-06  0.3506803E+04  0.7818609E-02  0.8112179E-01
       -2   -1    0    0    0  501  0.00000000000E+00  0.00000000000E+00  0.14968789478E+04  0.14968789478E+04  0.25500000920E-02 0. -1.
        2   -1    0    0  501    0  0.00000000000E+00  0.00000000000E+00 -0.20538853003E+04  0.20538853003E+04  0.25500000920E-02 0.  1.
    10030    2    1    2    0    0  0.00000000000E+00  0.00000000000E+00 -0.55700635254E+03  0.35507642481E+04  0.35068034830E+04 0.  0.
        1    1    3    3  502    0  0.15124544678E+04 -0.34421461424E+03  0.54931250476E+03  0.16455231526E+04  0.50400001928E-02 0. -1.
       -1    1    3    3    0  502 -0.15124544678E+04  0.34421461424E+03 -0.11063188573E+04  0.19052410955E+04  0.50400001928E-02 0.  1.
</event>
<event>
 5   0  0.3749685E-07  0.3294290E+04  0.7818609E-02  0.8164350E-01
       -1   -1    0    0    0  501  0.00000000000E+00  0.00000000000E+00  0.16783379735E+04  0.16783379735E+04  0.50400001928E-02 0.  1.
        1   -1    0    0  501    0  0.00000000000E+00  0.00000000000E+00 -0.16165317981E+04  0.16165317981E+04  0.50400001928E-02 0. -1.
    10030    2    1    2    0    0  0.00000000000E+00  0.00000000000E+00  0.61806175470E+02  0.32948697716E+04  0.32942900310E+04 0.  0.
        3    1    3    3  502    0  0.61745381537E+03  0.96822584994E+03 -0.11501417881E+04  0.16252804846E+04  0.10100000352E+00 0. -1.
       -3    1    3    3    0  502 -0.61745381537E+03 -0.96822584994E+03  0.12119479636E+04  0.16695892870E+04  0.10100000352E+00 0.  1.
</event>
<event>
 5   0  0.3757406E-07  0.3308438E+04  0.7818609E-02  0.8160752E-01
        1   -1    0    0  501    0  0.00000000000E+00  0.00000000000E+00  0.26622365877E+04  0.26622365877E+04  0.50400001928E-02 0.  1.
       -1   -1    0    0    0  501  0.00000000000E+00  0.00000000000E+00 -0.10278728842E+04  0.10278728842E+04  0.50400001928E-02 0. -1.
    10030    2    1    2    0    0  0.00000000000E+00  0.00000000000E+00  0.16343637034E+04  0.36901094719E+04  0.33084381813E+04 0.  0.
        1    1    3    3  502    0  0.34550050293E+03  0.15768162055E+04  0.12204451226E+04  0.20236615924E+04  0.50400001928E-02 0.  1.
       -1    1    3    3    0  502 -0.34550050293E+03 -0.15768162055E+04  0.41391858084E+03  0.16664478795E+04  0.50400001928E-02 0. -1.
</event>
<event>
 5   0  0.3749685E-07  0.3326214E+04  0.7818609E-02  0.8156257E-01
        1   -1    0    0  501    0  0.00000000000E+00  0.00000000000E+00  0.22093686723E+04  0.22093686723E+04  0.50400001928E-02 0. -1.
       -1   -1    0    0    0  501  0.00000000000E+00  0.00000000000E+00 -0.12519077102E+04  0.12519077102E+04  0.50400001928E-02 0.  1.
    10030    2    1    2    0    0  0.00000000000E+00  0.00000000000E+00  0.95746096212E+03  0.34612763825E+04  0.33262144702E+04 0.  0.
        3    1    3    3  502    0  0.64636023781E+03 -0.16185878208E+03 -0.11069368311E+04  0.12920096674E+04  0.10100000352E+00 0.  1.
       -3    1    3    3    0  502 -0.64636023781E+03  0.16185878208E+03  0.20643977932E+04  0.21692667151E+04  0.10100000352E+00 0. -1.
</event>
<event>
 5   0  0.1129434E-06  0.3351303E+04  0.7818609E-02  0.8149963E-01
       -2   -1    0    0    0  501  0.00000000000E+00  0.00000000000E+00  0.10435812635E+04  0.10435812635E+04  0.25500000920E-02 0. -1.
        2   -1    0    0  501    0  0.00000000000E+00  0.00000000000E+00 -0.26905497389E+04  0.26905497389E+04  0.25500000920E-02 0.  1.
    10030    2    1    2    0    0  0.00000000000E+00  0.00000000000E+00 -0.16469684754E+04  0.37341310024E+04  0.33513026100E+04 0.  0.
        3    1    3    3  502    0 -0.57042922155E+03 -0.95451465881E+03 -0.22202004136E+04  0.24830983906E+04  0.10100000352E+00 0.  1.
       -3    1    3    3    0  502  0.57042922155E+03  0.95451465881E+03  0.57323193818E+03  0.12510326118E+04  0.10100000352E+00 0. -1.
</event>
<event>
 5   0  0.1126221E-06  0.3306594E+04  0.7818609E-02  0.8161220E-01
        2   -1    0    0  501    0  0.00000000000E+00  0.00000000000E+00  0.14392920554E+04  0.14392920554E+04  0.25500000920E-02 0.  1.
       -2   -1    0    0    0  501  0.00000000000E+00  0.00000000000E+00 -0.18991215141E+04  0.18991215141E+04  0.25500000920E-02 0. -1.
    10030    2    1    2    0    0  0.00000000000E+00  0.00000000000E+00 -0.45982945871E+03  0.33384135695E+04  0.33065937201E+04 0.  0.
        2    1    3    3  502    0 -0.48310589382E+03 -0.99704539484E+03  0.10090453734E+04  0.14985537660E+04  0.25500000920E-02 0.  1.
       -2    1    3    3    0  502  0.48310589382E+03  0.99704539484E+03 -0.14688748321E+04  0.18398598035E+04  0.25500000920E-02 0. -1.
</event>
<event>
 5   0  0.3709747E-07  0.3316255E+04  0.7818609E-02  0.8158772E-01
        1   -1    0    0  501    0  0.00000000000E+00  0.00000000000E+00  0.15244719527E+04  0.15244719527E+04  0.50400001928E-02 0.  1.
       -1   -1    0    0    0  501  0.00000000000E+00  0.00000000000E+00 -0.18035008887E+04  0.18035008887E+04  0.50400001928E-02 0. -1.
    10030    2    1    2    0    0  0.00000000000E+00  0.00000000000E+00 -0.27902893603E+03  0.33279728414E+04  0.33162548283E+04 0.  0.
        4    1    3    3  502    0  0.98574632473E+03  0.89342646178E+03 -0.11326974659E+04  0.17472583729E+04  0.12699999809E+01 0. -1.
       -4    1    3    3    0  502 -0.98574632473E+03 -0.89342646178E+03  0.85366852988E+03  0.15807144686E+04  0.12699999809E+01 0.  1.
</event>
<event>
 5   0  0.1116462E-06  0.3298493E+04  0.7818609E-02  0.8163279E-01
        2   -1    0    0  501    0  0.00000000000E+00  0.00000000000E+00  0.17003002717E+04  0.17003002717E+04  0.25500000920E-02 0.  1.
       -2   -1    0    0    0  501  0.00000000000E+00  0.00000000000E+00 -0.15997259568E+04  0.15997259568E+04  0.25500000920E-02 0. -1.
    10030    2    1    2    0    0  0.00000000000E+00  0.00000000000E+00  0.10057431492E+03  0.33000262285E+04  0.32984932796E+04 0.  0.
        1    1    3    3  502    0  0.18771531170E+03 -0.14914871920E+04 -0.62844053834E+03  0.16293276505E+04  0.50400001928E-02 0. -1.
       -1    1    3    3    0  502 -0.18771531170E+03  0.14914871920E+04  0.72901485326E+03  0.16706985780E+04  0.50400001928E-02 0.  1.
</event>
<event>
 5   0  0.3573375E-07  0.3283474E+04  0.7818609E-02  0.8167113E-01
        4   -1    0    0  501    0  0.00000000000E+00  0.00000000000E+00  0.14106432276E+04  0.14106437993E+04  0.12699999809E+01 0. -1.
       -4   -1    0    0    0  501  0.00000000000E+00  0.00000000000E+00 -0.19106879140E+04  0.19106883361E+04  0.12699999809E+01 0.  1.
    10030    2    1    2    0    0  0.00000000000E+00  0.00000000000E+00 -0.50004468644E+03  0.33213321354E+04  0.32834741457E+04 0.  0.
        4    1    3    3  502    0 -0.12360030364E+04 -0.42492828816E+03  0.75492707108E+03  0.15093654467E+04  0.12699999809E+01 0.  1.
       -4    1    3    3    0  502  0.12360030364E+04  0.42492828816E+03 -0.12549717575E+04  0.18119666887E+04  0.12699999809E+01 0. -1.
</event>
<event>
 5   0  0.3709747E-07  0.3311632E+04  0.7818609E-02  0.8159942E-01
       -1   -1    0    0    0  501  0.00000000000E+00  0.00000000000E+00  0.13225148612E+04  0.13225148612E+04  0.50400001928E-02 0. -1.
        1   -1    0    0  501    0  0.00000000000E+00  0.00000000000E+00 -0.20731156883E+04  0.20731156883E+04  0.50400001928E-02 0.  1.
    10030    2    1    2    0    0  0.00000000000E+00  0.00000000000E+00 -0.75060082710E+03  0.33956305495E+04  0.33116318073E+04 0.  0.
        4    1    3    3  502    0  0.47797284214E+03 -0.15647509116E+04 -0.11424238384E+03  0.16401086514E+04  0.12699999809E+01 0. -1.
       -4    1    3    3    0  502 -0.47797284214E+03  0.15647509116E+04 -0.63635844326E+03  0.17555218980E+04  0.12699999809E+01 0.  1.
</event>
<event>
 5   0  0.1116462E-06  0.3319955E+04  0.7818609E-02  0.8157836E-01
       -2   -1    0    0    0  501  0.00000000000E+00  0.00000000000E+00  0.18358525177E+04  0.18358525177E+04  0.25500000920E-02 0.  1.
        2   -1    0    0  501    0  0.00000000000E+00  0.00000000000E+00 -0.15009513302E+04  0.15009513302E+04  0.25500000920E-02 0. -1.
    10030    2    1    2    0    0  0.00000000000E+00  0.00000000000E+00  0.33490118749E+03  0.33368038479E+04  0.33199549867E+04 0.  0.
        1    1    3    3  502    0  0.34647005769E+03  0.20207740987E+03  0.17864166674E+04  0.18308908461E+04  0.50400001928E-02 0.  1.
       -1    1    3    3    0  502 -0.34647005769E+03 -0.20207740987E+03 -0.14515154799E+04  0.15059130018E+04  0.50400001928E-02 0. -1.
</event>
<event>
 5   0  0.3757406E-07  0.3277021E+04  0.7818609E-02  0.8168767E-01
       -1   -1    0    0    0  501  0.00000000000E+00  0.00000000000E+00  0.23937023809E+04  0.23937023809E+04  0.50400001928E-02 0. -1.
        1   -1    0    0  501    0  0.00000000000E+00  0.00000000000E+00 -0.11215747862E+04  0.11215747862E+04  0.50400001928E-02 0.  1.
    10030    2    1    2    0    0  0.00000000000E+00  0.00000000000E+00  0.12721275947E+04  0.35152771671E+04  0.32770207422E+04 0.  0.
        1    1    3    3  502    0  0.13971141728E+04  0.17753986086E+03 -0.26223814515E+03  0.14325561974E+04  0.50400001928E-02 0. -1.
       -1    1    3    3    0  502 -0.13971141728E+04 -0.17753986086E+03  0.15343657398E+04  0.20827209697E+04  0.50400001928E-02 0.  1.
</event>
<event>
 5   0  0.1116462E-06  0.3310351E+04  0.7818609E-02  0.8160267E-01
       -2   -1    0    0    0  501  0.00000000000E+00  0.00000000000E+00  0.14680442127E+04  0.14680442127E+04  0.25500000920E-02 0.  1.
        2   -1    0    0  501    0  0.00000000000E+00  0.00000000000E+00 -0.18661605710E+04  0.18661605710E+04  0.25500000920E-02 0. -1.
    10030    2    1    2    0    0  0.00000000000E+00  0.00000000000E+00 -0.39811635828E+03  0.33342047837E+04  0.33103511754E+04 0.  0.
        1    1    3    3  502    0 -0.64099728196E+03  0.83106308163E+03  0.10900325492E+04  0.15131802006E+04  0.50400001928E-02 0.  1.
       -1    1    3    3    0  502  0.64099728196E+03 -0.83106308163E+03 -0.14881489075E+04  0.18210245831E+04  0.50400001928E-02 0. -1.
</event>
<event>
 5   0  0.3709747E-07  0.3295591E+04  0.7818609E-02  0.8164018E-01
        1   -1    0    0  501    0  0.00000000000E+00  0.00000000000E+00  0.32036244655E+04  0.32036244655E+04  0.50400001928E-02 0.  1.
       -1   -1    0    0    0  501  0.00000000000E+00  0.00000000000E+00 -0.84754957092E+03  0.84754957093E+03  0.50400001928E-02 0. -1.
    10030    2    1    2    0    0  0.00000000000E+00  0.00000000000E+00  0.23560748946E+04  0.40511740364E+04  0.32955913225E+04 0.  0.
        4    1    3    3  502    0  0.19564327410E+03 -0.68626851298E+03  0.30038203638E+04  0.30874227364E+04  0.12699999809E+01 0.  1.
       -4    1    3    3    0  502 -0.19564327410E+03  0.68626851298E+03 -0.64774546917E+03  0.96375130005E+03  0.12699999809E+01 0. -1.
</event>
<event>
 5   0  0.1126221E-06  0.3335483E+04  0.7818609E-02  0.8153925E-01
       -2   -1    0    0    0  501  0.00000000000E+00  0.00000000000E+00  0.17713874504E+04  0.17713874504E+04  0.25500000920E-02 0. -1.
        2   -1    0    0  501    0  0.00000000000E+00  0.00000000000E+00 -0.15701596594E+04  0.15701596594E+04  0.25500000920E-02 0.  1.
    10030    2    1    2    0    0  0.00000000000E+00  0.00000000000E+00  0.20122779097E+03  0.33415471098E+04  0.33354826433E+04 0.  0.
        2    1    3    3  502    0  0.11455991640E+04 -0.95586911399E+03  0.84713845674E+03  0.17157292247E+04  0.25500000920E-02 0. -1.
       -2    1    3    3    0  502 -0.11455991640E+04  0.95586911399E+03 -0.64591066577E+03  0.16258178852E+04  0.25500000920E-02 0.  1.
</event>
<event>
 5   0  0.1126221E-06  0.3302207E+04  0.7818609E-02  0.8162334E-01
        2   -1    0    0  501    0  0.00000000000E+00  0.00000000000E+00  0.10556624279E+04  0.10556624279E+04  0.25500000920E-02 0. -1.
       -2   -1    0    0    0  501  0.00000000000E+00  0.00000000000E+00 -0.25823999525E+04  0.25823999525E+04  0.25500000920E-02 0.  1.
    10030    2    1    2    0    0  0.00000000000E+00  0.00000000000E+00 -0.15267375247E+04  0.36380623804E+04  0.33022069006E+04 0.  0.
        2    1    3    3  502    0 -0.38878646623E+03  0.87589362302E+03  0.71792371557E+03  0.11973967666E+04  0.25500000920E-02 0. -1.
       -2    1    3    3    0  502  0.38878646623E+03 -0.87589362302E+03 -0.22446612403E+04  0.24406656139E+04  0.25500000920E-02 0.  1.
</event>
<event>
 5   0  0.3709747E-07  0.3248138E+04  0.7818609E-02  0.8176218E-01
       -1   -1    0    0    0  501  0.00000000000E+00  0.00000000000E+00  0.98613770287E+03  0.98613770288E+03  0.50400001928E-02 0. -1.
        1   -1    0    0  501    0  0.00000000000E+00  0.00000000000E+00 -0.26746775071E+04  0.26746775071E+04  0.50400001928E-02 0.  1.
    10030    2    1    2    0    0  0.00000000000E+00  0.00000000000E+00 -0.16885398042E+04  0.36608152100E+04  0.32481381330E+04 0.  0.
        4    1    3    3  502    0  0.93355086079E+03  0.47629556252E+03  0.55401039110E+03  0.11854551020E+04  0.12699999809E+01 0. -1.
       -4    1    3    3    0  502 -0.93355086079E+03 -0.47629556252E+03 -0.22425501953E+04  0.24753601079E+04  0.12699999809E+01 0.  1.
</event>
<event>
 5   0  0.3796529E-07  0.3318900E+04  0.7818609E-02  0.8158103E-01
       -1   -1    0    0    0  501  0.00000000000E+00  0.00000000000E+00  0.15642570939E+04  0.15642570939E+04  0.50400001928E-02 0. -1.
        1   -1    0    0  501    0  0.00000000000E+00  0.00000000000E+00 -0.17604359626E+04  0.17604359626E+04  0.50400001928E-02 0.  1.
    10030    2    1    2    0    0  0.00000000000E+00  0.00000000000E+00 -0.19617886870E+03  0.33246930565E+04  0.33189000846E+04 0.  0.
        5    1    3    3  502    0  0.70526939225E+03  0.15021109277E+04 -0.10128844228E+03  0.16625352909E+04  0.46999998093E+01 0.  1.
       -5    1    3    3    0  502 -0.70526939225E+03 -0.15021109277E+04 -0.94890426418E+02  0.16621577657E+04  0.46999998093E+01 0. -1.
</event>
<event>
 5   0  0.3674967E-07  0.3306276E+04  0.7818609E-02  0.8161300E-01
        1   -1    0    0  501    0  0.00000000000E+00  0.00000000000E+00  0.23278182891E+04  0.23278182891E+04  0.50400001928E-02 0.  1.
       -1   -1    0    0    0  501  0.00000000000E+00  0.00000000000E+00 -0.11740031048E+04  0.11740031048E+04  0.50400001928E-02 0. -1.
    10030    2    1    2    0    0  0.00000000000E+00  0.00000000000E+00  0.11538151843E+04  0.35018213939E+04  0.33062763943E+04 0.  0.
        2    1    3    3  502    0  0.13923545237E+04  0.84380717323E+03  0.88057761860E+03  0.18509669386E+04  0.25500000920E-02 0.  1.
       -2    1    3    3    0  502 -0.13923545237E+04 -0.84380717323E+03  0.27323756566E+03  0.16508544553E+04  0.25500000920E-02 0. -1.
</event>
<event>
 5   0  0.1129434E-06  0.3321725E+04  0.7818609E-02  0.8157389E-01
       -2   -1    0    0    0  501  0.00000000000E+00  0.00000000000E+00  0.91994997789E+03  0.91994997790E+03  0.25500000920E-02 0. -1.
        2   -1    0    0  501    0  0.00000000000E+00  0.00000000000E+00 -0.29984933795E+04  0.29984933795E+04  0.25500000920E-02 0.  1.
    10030    2    1    2    0    0  0.00000000000E+00  0.00000000000E+00 -0.20785434016E+04  0.39184433574E+04  0.33217248039E+04 0.  0.
        3    1    3    3  502    0 -0.16239238711E+04  0.13141375588E+01 -0.62836787742E+03  0.17412572084E+04  0.10100000352E+00 0. -1.
       -3    1    3    3    0  502  0.16239238711E+04 -0.13141375588E+01 -0.14501755242E+04  0.21771861490E+04  0.10100000352E+00 0.  1.
</event>
<event>
 5   0  0.3674967E-07  0.3337225E+04  0.7818609E-02  0.8153488E-01
       -1   -1    0    0    0  501  0.00000000000E+00  0.00000000000E+00  0.16351957877E+04  0.16351957877E+04  0.50400001928E-02 0.  1.
        1   -1    0    0  501    0  0.00000000000E+00  0.00000000000E+00 -0.17027123314E+04  0.17027123314E+04  0.50400001928E-02 0. -1.
    10030    2    1    2    0    0  0.00000000000E+00  0.00000000000E+00 -0.67516543638E+02  0.33379081191E+04  0.33372252138E+04 0.  0.
        2    1    3    3  502    0  0.14079567944E+04 -0.59786038816E+03 -0.70059452289E+03  0.16824422915E+04  0.25500000920E-02 0. -1.
       -2    1    3    3    0  502 -0.14079567944E+04  0.59786038816E+03  0.63307797925E+03  0.16554658276E+04  0.25500000920E-02 0.  1.
</event>
<event>
 5   0  0.3757406E-07  0.3304655E+04  0.7818609E-02  0.8161712E-01
       -1   -1    0    0    0  501  0.00000000000E+00  0.00000000000E+00  0.20469607897E+04  0.20469607897E+04  0.50400001928E-02 0. -1.
        1   -1    0    0  501    0  0.00000000000E+00  0.00000000000E+00 -0.13337757132E+04  0.13337757132E+04  0.50400001928E-02 0.  1.
    10030    2    1    2    0    0  0.00000000000E+00  0.00000000000E+00  0.71318507651E+03  0.33807365028E+04  0.33046552541E+04 0.  0.
        1    1    3    3  502    0 -0.24377533883E+03 -0.12137571151E+04  0.14761146765E+04  0.19265376427E+04  0.50400001928E-02 0. -1.
       -1    1    3    3    0  502  0.24377533883E+03  0.12137571151E+04 -0.76292960002E+03  0.14541988602E+04  0.50400001928E-02 0.  1.
</event>
<event>
 5   0  0.1116462E-06  0.3276887E+04  0.7818609E-02  0.8168801E-01
       -2   -1    0    0    0  501  0.00000000000E+00  0.00000000000E+00  0.16558868918E+04  0.16558868918E+04  0.25500000920E-02 0.  1.
        2   -1    0    0  501    0  0.00000000000E+00  0.00000000000E+00 -0.16211843217E+04  0.16211843217E+04  0.25500000920E-02 0. -1.
    10030    2    1    2    0    0  0.00000000000E+00  0.00000000000E+00  0.34702570096E+02  0.32770712134E+04  0.32768874667E+04 0.  0.
        1    1    3    3  502    0 -0.84328835166E+03 -0.83152892713E+03 -0.11149322636E+04  0.16265452816E+04  0.50400001928E-02 0. -1.
       -1    1    3    3    0  502  0.84328835166E+03  0.83152892713E+03  0.11496348337E+04  0.16505259318E+04  0.50400001928E-02 0.  1.
</event>
<event>
 5   0  0.3573375E-07  0.3294288E+04  0.7818609E-02  0.8164350E-01
        3   -1    0    0  501    0  0.00000000000E+00  0.00000000000E+00  0.23557168730E+04  0.23557168752E+04  0.10100000352E+00 0. -1.
       -3   -1    0    0    0  501  0.00000000000E+00  0.00000000000E+00 -0.11517017946E+04  0.11517017991E+04  0.10100000352E+00 0.  1.
    10030    2    1    2    0    0  0.00000000000E+00  0.00000000000E+00  0.12040150784E+04  0.35074186743E+04  0.32942880031E+04 0.  0.
        1    1    3    3  502    0 -0.21003808985E+03  0.30843082690E+03 -0.11061055928E+04  0.11673539124E+04  0.50400001928E-02 0.  1.
       -1    1    3    3    0  502  0.21003808985E+03 -0.30843082690E+03  0.23101206712E+04  0.23400647619E+04  0.50400001928E-02 0. -1.
</event>
<event>
 5   0  0.3796529E-07  0.3288504E+04  0.7818609E-02  0.8165827E-01
        1   -1    0    0  501    0  0.00000000000E+00  0.00000000000E+00  0.18578052662E+04  0.18578052662E+04  0.50400001928E-02 0. -1.
       -1   -1    0    0    0  501  0.00000000000E+00  0.00000000000E+00 -0.14552465887E+04  0.14552465887E+04  0.50400001928E-02 0.  1.
    10030    2    1    2    0    0  0.00000000000E+00  0.00000000000E+00  0.40255867745E+03  0.33130518549E+04  0.32885040831E+04 0.  0.
        5    1    3    3  502    0  0.10953853359E+04 -0.94005765568E+03 -0.59197694986E+03  0.15601398108E+04  0.46999998093E+01 0.  1.
       -5    1    3    3    0  502 -0.10953853359E+04  0.94005765568E+03  0.99453562731E+03  0.17529120441E+04  0.46999998093E+01 0. -1.
</event>
<event>
 5   0  0.1126221E-06  0.3302143E+04  0.7818609E-02  0.8162350E-01
       -2   -1    0    0    0  501  0.00000000000E+00  0.00000000000E+00  0.13644598063E+04  0.13644598063E+04  0.25500000920E-02 0.  1.
        2   -1    0    0  501    0  0.00000000000E+00  0.00000000000E+00 -0.19978877119E+04  0.19978877119E+04  0.25500000920E-02 0. -1.
    10030    2    1    2    0    0  0.00000000000E+00  0.00000000000E+00 -0.63342790561E+03  0.33623475182E+04  0.33021432315E+04 0.  0.
        2    1    3    3  502    0 -0.14479296663E+04 -0.13304632309E+03  0.47974637327E+03  0.15311297219E+04  0.25500000920E-02 0.  1.
       -2    1    3    3    0  502  0.14479296663E+04  0.13304632309E+03 -0.11131742789E+04  0.18312177964E+04  0.25500000920E-02 0. -1.
</event>
<event>
 5   0  0.1126221E-06  0.3300536E+04  0.7818609E-02  0.8162759E-01
        2   -1    0    0  501    0  0.00000000000E+00  0.00000000000E+00  0.29612249087E+04  0.29612249087E+04  0.25500000920E-02 0. -1.
       -2   -1    0    0    0  501  0.00000000000E+00  0.00000000000E+00 -0.91968159731E+03  0.91968159731E+03  0.25500000920E-02 0.  1.
    10030    2    1    2    0    0  0.00000000000E+00  0.00000000000E+00  0.20415433114E+04  0.38809065060E+04  0.33005357468E+04 0.  0.
        2    1    3    3  502    0  0.18626698065E+02 -0.31766998575E+03 -0.88326480130E+03  0.93883858194E+03  0.25500000920E-02 0.  1.
       -2    1    3    3    0  502 -0.18626698065E+02  0.31766998575E+03  0.29248081127E+04  0.29420679241E+04  0.25500000920E-02 0. -1.
</event>
<event>
 5   0  0.3749685E-07  0.3282125E+04  0.7818609E-02  0.8167459E-01
       -1   -1    0    0    0  501  0.00000000000E+00  0.00000000000E+00  0.15194548723E+04  0.15194548723E+04  0.50400001928E-02 0.  1.
        1   -1    0    0  501    0  0.00000000000E+00  0.00000000000E+00 -0.17724027631E+04  0.17724027631E+04  0.50400001928E-02 0. -1.
    10030    2    1    2    0    0  0.00000000000E+00  0.00000000000E+00 -0.25294789081E+03  0.32918576354E+04  0.32821249301E+04 0.  0.
        3    1    3    3  502    0 -0.16111470913E+04 -0.21663942364E+03  0.98598308292E+02  0.16286341598E+04  0.10100000352E+00 0.  1.
       -3    1    3    3    0  502  0.16111470913E+04  0.21663942364E+03 -0.35154619910E+03  0.16632234757E+04  0.10100000352E+00 0. -1.
</event>
<event>
 5   0  0.1146799E-06  0.3311158E+04  0.7818609E-02  0.8160062E-01
       -2   -1    0    0    0  501  0.00000000000E+00  0.00000000000E+00  0.12488568494E+04  0.12488568494E+04  0.25500000920E-02 0. -1.
        2   -1    0    0  501    0  0.00000000000E+00  0.00000000000E+00 -0.21947604698E+04  0.21947604698E+04  0.25500000920E-02 0.  1.
    10030    2    1    2    0    0  0.00000000000E+00  0.00000000000E+00 -0.94590362041E+03  0.34436173192E+04  0.33111578914E+04 0.  0.
        5    1    3    3  502    0  0.11449266306E+04 -0.11635649847E+04 -0.75999872959E+03  0.18006556089E+04  0.46999998093E+01 0.  1.
       -5    1    3    3    0  502 -0.11449266306E+04  0.11635649847E+04 -0.18590489082E+03  0.16429617103E+04  0.46999998093E+01 0. -1.
</event>
<event>
 5   0  0.3709747E-07  0.3284130E+04  0.7818609E-02  0.8166945E-01
       -1   -1    0    0    0  501  0.00000000000E+00  0.00000000000E+00  0.13970119178E+04  0.13970119178E+04  0.50400001928E-02 0. -1.
        1   -1    0    0  501    0  0.00000000000E+00  0.00000000000E+00 -0.19301032716E+04  0.19301032716E+04  0.50400001928E-02 0.  1.
    10030    2    1    2    0    0  0.00000000000E+00  0.00000000000E+00 -0.53309135385E+03  0.33271151894E+04  0.32841298835E+04 0.  0.
        4    1    3    3  502    0  0.87769860355E+03  0.53413408526E+03 -0.15642177555E+04  0.18714787894E+04  0.12699999809E+01 0.  1.
       -4    1    3    3    0  502 -0.87769860355E+03 -0.53413408526E+03  0.10311264017E+04  0.14556364000E+04  0.12699999809E+01 0. -1.
</event>
<event>
 5   0  0.1126221E-06  0.3299625E+04  0.7818609E-02  0.8162991E-01
       -2   -1    0    0    0  501  0.00000000000E+00  0.00000000000E+00  0.15382329778E+04  0.15382329778E+04  0.25500000920E-02 0. -1.
        2   -1    0    0  501    0  0.00000000000E+00  0.00000000000E+00 -0.17694854550E+04  0.17694854550E+04  0.25500000920E-02 0.  1.
    10030    2    1    2    0    0  0.00000000000E+00  0.00000000000E+00 -0.23125247723E+03  0.33077184327E+04  0.32996247547E+04 0.  0.
        2    1    3    3  502    0 -0.93156987157E+03 -0.32100424559E+03  0.12108787267E+04  0.15611192914E+04  0.25500000920E-02 0. -1.
       -2    1    3    3    0  502  0.93156987157E+03  0.32100424559E+03 -0.14421312039E+04  0.17465991413E+04  0.25500000920E-02 0.  1.
</event>
<event>
 5   0  0.3796529E-07  0.3354169E+04  0.7818609E-02  0.8149247E-01
        1   -1    0    0  501    0  0.00000000000E+00  0.00000000000E+00  0.17759911078E+04  0.17759911078E+04  0.50400001928E-02 0.  1.
       -1   -1    0    0    0  501  0.00000000000E+00  0.00000000000E+00 -0.15836865072E+04  0.15836865073E+04  0.50400001928E-02 0. -1.
    10030    2    1    2    0    0  0.00000000000E+00  0.00000000000E+00  0.19230460052E+03  0.33596776150E+04  0.33541694378E+04 0.  0.
        5    1    3    3  502    0 -0.77116751748E+03  0.14648660913E+04  0.36503131100E+03  0.16952291743E+04  0.46999998093E+01 0.  1.
       -5    1    3    3    0  502  0.77116751748E+03 -0.14648660913E+04 -0.17272671048E+03  0.16644484407E+04  0.46999998093E+01 0. -1.
</event>
<event>
 5   0  0.3573375E-07  0.3216722E+04  0.7818609E-02  0.8184415E-01
        3   -1    0    0  501    0  0.00000000000E+00  0.00000000000E+00  0.12124311334E+04  0.12124311376E+04  0.10100000352E+00 0.  1.
       -3   -1    0    0    0  501  0.00000000000E+00  0.00000000000E+00 -0.21335849829E+04  0.21335849853E+04  0.10100000352E+00 0. -1.
    10030    2    1    2    0    0  0.00000000000E+00  0.00000000000E+00 -0.92115384950E+03  0.33460161229E+04  0.32167218531E+04 0.  0.
        1    1    3    3  502    0  0.66532632650E+03 -0.43115035224E+02 -0.19830701098E+04  0.20921484381E+04  0.50400001928E-02 0. -1.
       -1    1    3    3    0  502 -0.66532632650E+03  0.43115035224E+02  0.10619162603E+04  0.12538676847E+04  0.50400001928E-02 0.  1.
</event>
<event>
 5   0  0.3674967E-07  0.3264515E+04  0.7818609E-02  0.8171984E-01
        1   -1    0    0  501    0  0.00000000000E+00  0.00000000000E+00  0.17101473133E+04  0.17101473133E+04  0.50400001928E-02 0. -1.
       -1   -1    0    0    0  501  0.00000000000E+00  0.00000000000E+00 -0.15579150946E+04  0.15579150946E+04  0.50400001928E-02 0.  1.
    10030    2    1    2    0    0  0.00000000000E+00  0.00000000000E+00  0.15223221872E+03  0.32680624079E+04  0.32645148573E+04 0.  0.
        2    1    3    3  502    0  0.11087890179E+04 -0.50057741212E+03 -0.10133097862E+04  0.15832837884E+04  0.25500000920E-02 0.  1.
       -2    1    3    3    0  502 -0.11087890179E+04  0.50057741212E+03  0.11655420049E+04  0.16847786196E+04  0.25500000920E-02 0. -1.
</event>
<event>
 5   0  0.3796529E-07  0.3277294E+04  0.7818609E-02  0.8168697E-01
        1   -1    0    0  501    0  0.00000000000E+00  0.00000000000E+00  0.15145930787E+04  0.15145930787E+04  0.50400001928E-02 0.  1.
       -1   -1    0    0    0  501  0.00000000000E+00  0.00000000000E+00 -0.17728620245E+04  0.17728620245E+04  0.50400001928E-02 0. -1.
    10030    2    1    2    0    0  0.00000000000E+00  0.00000000000E+00 -0.25826894578E+03  0.32874551032E+04  0.32772943424E+04 0.  0.
        5    1    3    3  502    0  0.56015131243E+03  0.99021563746E+03  0.10538632232E+04  0.15507889233E+04  0.46999998093E+01 0.  1.
       -5    1    3    3    0  502 -0.56015131243E+03 -0.99021563746E+03 -0.13121321689E+04  0.17366661799E+04  0.46999998093E+01 0. -1.
</event>
<event>
 5   0  0.1126221E-06  0.3330235E+04  0.7818609E-02  0.8155245E-01
        2   -1    0    0  501    0  0.00000000000E+00  0.00000000000E+00  0.15996101437E+04  0.15996101437E+04  0.25500000920E-02 0. -1.
       -2   -1    0    0    0  501  0.00000000000E+00  0.00000000000E+00 -0.17333070660E+04  0.17333070660E+04  0.25500000920E-02 0.  1.
    10030    2    1    2    0    0  0.00000000000E+00  0.00000000000E+00 -0.13369692231E+03  0.33329172097E+04  0.33302345652E+04 0.  0.
        2    1    3    3  502    0  0.12945625680E+03  0.22575503318E+02 -0.17281093899E+04  0.17330985660E+04  0.25500000920E-02 0.  1.
       -2    1    3    3    0  502 -0.12945625680E+03 -0.22575503318E+02  0.15944124676E+04  0.15998186437E+04  0.25500000920E-02 0. -1.
</event>
<event>
 5   0  0.1126221E-06  0.3303817E+04  0.7818609E-02  0.8161925E-01
       -2   -1    0    0    0  501  0.00000000000E+00  0.00000000000E+00  0.12845335907E+04  0.12845335907E+04  0.25500000920E-02 0.  1.
        2   -1    0    0  501    0  0.00000000000E+00  0.00000000000E+00 -0.21243524075E+04  0.21243524075E+04  0.25500000920E-02 0. -1.
    10030    2    1    2    0    0  0.00000000000E+00  0.00000000000E+00 -0.83981881685E+03  0.34088859982E+04  0.33038172019E+04 0.  0.
        2    1    3    3  502    0 -0.12674953274E+04  0.80286730496E+03 -0.11330196648E+04  0.18801260264E+04  0.25500000920E-02 0. -1.
       -2    1    3    3    0  502  0.12674953274E+04 -0.80286730496E+03  0.29320084790E+03  0.15287599718E+04  0.25500000920E-02 0.  1.
</event>
<event>
 5   0  0.3709747E-07  0.3309457E+04  0.7818609E-02  0.8160493E-01
       -1   -1    0    0    0  501  0.00000000000E+00  0.00000000000E+00  0.21336156648E+04  0.21336156648E+04  0.50400001928E-02 0. -1.
        1   -1    0    0  501    0  0.00000000000E+00  0.00000000000E+00 -0.12833271624E+04  0.12833271624E+04  0.50400001928E-02 0.  1.
    10030    2    1    2    0    0  0.00000000000E+00  0.00000000000E+00  0.85028850233E+03  0.34169428272E+04  0.33094573191E+04 0.  0.
        4    1    3    3  502    0 -0.65786355766E+03  0.14072085927E+04  0.10138423663E+04  0.18549658866E+04  0.12699999809E+01 0.  1.
       -4    1    3    3    0  502  0.65786355766E+03 -0.14072085927E+04 -0.16355386399E+03  0.15619769406E+04  0.12699999809E+01 0. -1.
</event>
<event>
 5   0  0.1120545E-06  0.3339017E+04  0.7818609E-02  0.8153038E-01
       -2   -1    0    0    0  501  0.00000000000E+00  0.00000000000E+00  0.19917409157E+04  0.19917409157E+04  0.25500000920E-02 0.  1.
        2   -1    0    0  501    0  0.00000000000E+00  0.00000000000E+00 -0.13994079095E+04  0.13994079095E+04  0.25500000920E-02 0. -1.
    10030    2    1    2    0    0  0.00000000000E+00  0.00000000000E+00  0.59233300625E+03  0.33911488252E+04  0.33390166164E+04 0.  0.
        4    1    3    3  502    0 -0.81973493129E+02  0.13706296339E+04 -0.66835106623E+03  0.15271018327E+04  0.12699999809E+01 0. -1.
       -4    1    3    3    0  502  0.81973493129E+02 -0.13706296339E+04  0.12606840725E+04  0.18640469925E+04  0.12699999809E+01 0.  1.
</event>
<event>
 5   0  0.3573375E-07  0.3303099E+04  0.7818609E-02  0.8162107E-01
        3   -1    0    0  501    0  0.00000000000E+00  0.00000000000E+00  0.23498327016E+04  0.23498327038E+04  0.10100000352E+00 0.  1.
       -3   -1    0    0    0  501  0.00000000000E+00  0.00000000000E+00 -0.11607702848E+04  0.11607702892E+04  0.10100000352E+00 0. -1.
    10030    2    1    2    0    0  0.00000000000E+00  0.00000000000E+00  0.11890624169E+04  0.35106029930E+04  0.33030991422E+04 0.  0.
        1    1    3    3  502    0 -0.83467634881E+03 -0.22730289417E+03  0.20897751696E+04  0.22617496485E+04  0.50400001928E-02 0.  1.
       -1    1    3    3    0  502  0.83467634881E+03  0.22730289417E+03 -0.90071275274E+03  0.12488533444E+04  0.50400001928E-02 0. -1.
</event>
<event>
 5   0  0.3749685E-07  0.3290545E+04  0.7818609E-02  0.8165305E-01
       -1   -1    0    0    0  501  0.00000000000E+00  0.00000000000E+00  0.18793216074E+04  0.18793216074E+04  0.50400001928E-02 0. -1.
        1   -1    0    0  501    0  0.00000000000E+00  0.00000000000E+00 -0.14403719236E+04  0.14403719236E+04  0.50400001928E-02 0.  1.
    10030    2    1    2    0    0  0.00000000000E+00  0.00000000000E+00  0.43894968380E+03  0.33196935309E+04  0.32905452914E+04 0.  0.
        3    1    3    3  502    0 -0.92285456132E+03 -0.55930886374E+03  0.14724243564E+04  0.18255192253E+04  0.10100000352E+00 0. -1.
       -3    1    3    3    0  502  0.92285456132E+03  0.55930886374E+03 -0.10334746726E+04  0.14941743056E+04  0.10100000352E+00 0.  1.
</event>
<event>
 5   0  0.1126221E-06  0.3288143E+04  0.7818609E-02  0.8165919E-01
        2   -1    0    0  501    0  0.00000000000E+00  0.00000000000E+00  0.24954068705E+04  0.24954068705E+04  0.25500000920E-02 0.  1.
       -2   -1    0    0    0  501  0.00000000000E+00  0.00000000000E+00 -0.10831786501E+04  0.10831786501E+04  0.25500000920E-02 0. -1.
    10030    2    1    2    0    0  0.00000000000E+00  0.00000000000E+00  0.14122282205E+04  0.35785855206E+04  0.32881432118E+04 0.  0.
        2    1    3    3  502    0 -0.25465240752E+03 -0.13216106195E+04 -0.32146150705E+03  0.13837774311E+04  0.25500000920E-02 0. -1.
       -2    1    3    3    0  502  0.25465240752E+03  0.13216106195E+04  0.17336897275E+04  0.21948080895E+04  0.25500000920E-02 0.  1.
</event>
<event>
 5   0  0.3757406E-07  0.3295365E+04  0.7818609E-02  0.8164076E-01
       -1   -1    0    0    0  501  0.00000000000E+00  0.00000000000E+00  0.15918349903E+04  0.15918349903E+04  0.50400001928E-02 0. -1.
        1   -1    0    0  501    0  0.00000000000E+00  0.00000000000E+00 -0.17054892620E+04  0.17054892620E+04  0.50400001928E-02 0.  1.
    10030    2    1    2    0    0  0.00000000000E+00  0.00000000000E+00 -0.11365427170E+03  0.32973242523E+04  0.32953649163E+04 0.  0.
        1    1    3    3  502    0  0.58747457267E+02  0.24841107123E+03 -0.16855843231E+04  0.17048031659E+04  0.50400001928E-02 0.  1.
       -1    1    3    3    0  502 -0.58747457267E+02 -0.24841107123E+03  0.15719300514E+04  0.15925210864E+04  0.50400001928E-02 0. -1.
</event>
<event>
 5   0  0.1126221E-06  0.3317477E+04  0.7818609E-02  0.8158463E-01
       -2   -1    0    0    0  501  0.00000000000E+00  0.00000000000E+00  0.17580817139E+04  0.17580817139E+04  0.25500000920E-02 0. -1.
        2   -1    0    0  501    0  0.00000000000E+00  0.00000000000E+00 -0.15650086623E+04  0.15650086623E+04  0.25500000920E-02 0.  1.
    10030    2    1    2    0    0  0.00000000000E+00  0.00000000000E+00  0.19307305164E+03  0.33230903762E+04  0.33174768191E+04 0.  0.
        2    1    3    3  502    0 -0.25649744129E+03  0.51970269749E+03 -0.14602913121E+04  0.15710927876E+04  0.25500000920E-02 0.  1.
       -2    1    3    3    0  502  0.25649744129E+03 -0.51970269749E+03  0.16533643637E+04  0.17519975886E+04  0.25500000920E-02 0. -1.
</event>
<event>
 5   0  0.1126221E-06  0.3301319E+04  0.7818609E-02  0.8162560E-01
        2   -1    0    0  501    0  0.00000000000E+00  0.00000000000E+00  0.13731876667E+04  0.13731876667E+04  0.25500000920E-02 0.  1.
       -2   -1    0    0    0  501  0.00000000000E+00  0.00000000000E+00 -0.19841983542E+04  0.19841983542E+04  0.25500000920E-02 0. -1.
    10030    2    1    2    0    0  0.00000000000E+00  0.00000000000E+00 -0.61101068747E+03  0.33573860209E+04  0.33013189535E+04 0.  0.
        2    1    3    3  502    0 -0.12378302781E+04 -0.28935486925E+03 -0.13763489300E+04  0.18735758365E+04  0.25500000920E-02 0. -1.
       -2    1    3    3    0  502  0.12378302781E+04  0.28935486925E+03  0.76533824255E+03  0.14838101844E+04  0.25500000920E-02 0.  1.
</event>
<event>
 5   0  0.3749685E-07  0.3307159E+04  0.7818609E-02  0.8161076E-01
       -1   -1    0    0    0  501  0.00000000000E+00  0.00000000000E+00  0.19588260020E+04  0.19588260020E+04  0.50400001928E-02 0. -1.
        1   -1    0    0  501    0  0.00000000000E+00  0.00000000000E+00 -0.13958998633E+04  0.13958998633E+04  0.50400001928E-02 0.  1.
    10030    2    1    2    0    0  0.00000000000E+00  0.00000000000E+00  0.56292613869E+03  0.33547258653E+04  0.33071588703E+04 0.  0.
        3    1    3    3  502    0 -0.12214460537E+04  0.10235642493E+04 -0.16614395382E+03  0.16022540554E+04  0.10100000352E+00 0.  1.
       -3    1    3    3    0  502  0.12214460537E+04 -0.10235642493E+04  0.72907009250E+03  0.17524718099E+04  0.10100000352E+00 0. -1.
</event>
<event>
 5   0  0.3757406E-07  0.3288117E+04  0.7818609E-02  0.8165926E-01
        1   -1    0    0  501    0  0.00000000000E+00  0.00000000000E+00  0.13826605385E+04  0.13826605385E+04  0.50400001928E-02 0.  1.
       -1   -1    0    0    0  501  0.00000000000E+00  0.00000000000E+00 -0.19548751697E+04  0.19548751697E+04  0.50400001928E-02 0. -1.
    10030    2    1    2    0    0  0.00000000000E+00  0.00000000000E+00 -0.57221463113E+03  0.33375357082E+04  0.32881172454E+04 0.  0.
        1    1    3    3  502    0 -0.30765355735E+03 -0.25131763829E+03  0.13332121763E+04  0.13911383733E+04  0.50400001928E-02 0.  1.
       -1    1    3    3    0  502  0.30765355735E+03  0.25131763829E+03 -0.19054268074E+04  0.19463973349E+04  0.50400001928E-02 0. -1.
</event>
<event>
 5   0  0.3749685E-07  0.3311842E+04  0.7818609E-02  0.8159889E-01
        1   -1    0    0  501    0  0.00000000000E+00  0.00000000000E+00  0.17645488623E+04  0.17645488623E+04  0.50400001928E-02 0. -1.
       -1   -1    0    0    0  501  0.00000000000E+00  0.00000000000E+00 -0.15539808552E+04  0.15539808552E+04  0.50400001928E-02 0.  1.
    10030    2    1    2    0    0  0.00000000000E+00  0.00000000000E+00  0.21056800712E+03  0.33185297176E+04  0.33118424782E+04 0.  0.
        3    1    3    3  502    0 -0.12572547893E+03  0.35938822947E+02 -0.15487995029E+04  0.15543096234E+04  0.10100000352E+00 0.  1.
       -3    1    3    3    0  502  0.12572547893E+03 -0.35938822947E+02  0.17593675100E+04  0.17642200941E+04  0.10100000352E+00 0. -1.
</event>
<event>
 5   0  0.3573375E-07  0.3277601E+04  0.7818609E-02  0.8168618E-01
       -3   -1    0    0    0  501  0.00000000000E+00  0.00000000000E+00  0.17076001783E+04  0.17076001813E+04  0.10100000352E+00 0.  1.
        3   -1    0    0  501    0  0.00000000000E+00  0.00000000000E+00 -0.15727728637E+04  0.15727728670E+04  0.10100000352E+00 0. -1.
    10030    2    1    2    0    0  0.00000000000E+00  0.00000000000E+00  0.13482731459E+03  0.32803730483E+04  0.32776010940E+04 0.  0.
        5    1    3    3  502    0  0.38579488130E+03 -0.18379481937E+03 -0.15160200987E+04  0.15751054745E+04  0.46999998093E+01 0. -1.
       -5    1    3    3    0  502 -0.38579488130E+03  0.18379481937E+03  0.16508474133E+04  0.17052675738E+04  0.46999998093E+01 0.  1.
</event>
<event>
 5   0  0.3709747E-07  0.3289032E+04  0.7818609E-02  0.8165692E-01
        1   -1    0    0  501    0  0.00000000000E+00  0.00000000000E+00  0.15715166250E+04  0.15715166250E+04  0.50400001928E-02 0. -1.
       -1   -1    0    0    0  501  0.00000000000E+00  0.00000000000E+00 -0.17209061722E+04  0.17209061722E+04  0.50400001928E-02 0.  1.
    10030    2    1    2    0    0  0.00000000000E+00  0.00000000000E+00 -0.14938954715E+03  0.32924227972E+04  0.32890318695E+04 0.  0.
        4    1    3    3  502    0 -0.14961014913E+03 -0.11381972037E+04 -0.12534294645E+04  0.16996950040E+04  0.12699999809E+01 0.  1.
       -4    1    3    3    0  502  0.14961014913E+03  0.11381972037E+04  0.11040399174E+04  0.15927277932E+04  0.12699999809E+01 0. -1.
</event>
<event>
 5   0  0.3709747E-07  0.3248066E+04  0.7818609E-02  0.8176237E-01
        1   -1    0    0  501    0  0.00000000000E+00  0.00000000000E+00  0.19734702467E+04  0.19734702467E+04  0.50400001928E-02 0.  1.
       -1   -1    0    0    0  501  0.00000000000E+00  0.00000000000E+00 -0.13364694100E+04  0.13364694100E+04  0.50400001928E-02 0. -1.
    10030    2    1    2    0    0  0.00000000000E+00  0.00000000000E+00  0.63700083673E+03  0.33099396567E+04  0.32480656497E+04 0.  0.
        4    1    3    3  502    0 -0.44358716244E+03 -0.86220078349E+03  0.16461311624E+04  0.19104735482E+04  0.12699999809E+01 0.  1.
       -4    1    3    3    0  502  0.44358716244E+03  0.86220078349E+03 -0.10091303256E+04  0.13994661085E+04  0.12699999809E+01 0. -1.
</event>
<event>
 5   0  0.1116462E-06  0.3283136E+04  0.7818609E-02  0.8167200E-01
       -2   -1    0    0    0  501  0.00000000000E+00  0.00000000000E+00  0.11537409407E+04  0.11537409407E+04  0.25500000920E-02 0.  1.
        2   -1    0    0  501    0  0.00000000000E+00  0.00000000000E+00 -0.23356590170E+04  0.23356590170E+04  0.25500000920E-02 0. -1.
    10030    2    1    2    0    0  0.00000000000E+00  0.00000000000E+00 -0.11819180763E+04  0.34893999576E+04  0.32831359590E+04 0.  0.
        1    1    3    3  502    0  0.14399343559E+04  0.76806716394E+03 -0.40260398371E+03  0.16809009743E+04  0.50400001928E-02 0. -1.
       -1    1    3    3    0  502 -0.14399343559E+04 -0.76806716394E+03 -0.77931409263E+03  0.18084989833E+04  0.50400001928E-02 0.  1.
</event>
<event>
 5   0  0.1129434E-06  0.3316175E+04  0.7818609E-02  0.8158792E-01
        2   -1    0    0  501    0  0.00000000000E+00  0.00000000000E+00  0.25430693756E+04  0.25430693756E+04  0.25500000920E-02 0.  1.
       -2   -1    0    0    0  501  0.00000000000E+00  0.00000000000E+00 -0.10810769518E+04  0.10810769518E+04  0.25500000920E-02 0. -1.
    10030    2    1    2    0    0  0.00000000000E+00  0.00000000000E+00  0.14619924238E+04  0.36241463275E+04  0.33161747173E+04 0.  0.
        3    1    3    3  502    0  0.14506247271E+04  0.75073541993E+03  0.41931198683E+03  0.16863387329E+04  0.10100000352E+00 0. -1.
       -3    1    3    3    0  502 -0.14506247271E+04 -0.75073541993E+03  0.10426804370E+04  0.19378075945E+04  0.10100000352E+00 0.  1.
</event>
<event>
 5   0  0.3573375E-07  0.3279488E+04  0.7818609E-02  0.8168134E-01
        3   -1    0    0  501    0  0.00000000000E+00  0.00000000000E+00  0.16970729398E+04  0.16970729428E+04  0.10100000352E+00 0.  1.
       -3   -1    0    0    0  501  0.00000000000E+00  0.00000000000E+00 -0.15843519555E+04  0.15843519588E+04  0.10100000352E+00 0. -1.
    10030    2    1    2    0    0  0.00000000000E+00  0.00000000000E+00  0.11272098430E+03  0.32814249016E+04  0.32794882778E+04 0.  0.
        1    1    3    3  502    0  0.12722510437E+04  0.68215526337E+03 -0.72178912958E+03  0.16139820535E+04  0.50400001928E-02 0. -1.
       -1    1    3    3    0  502 -0.12722510437E+04 -0.68215526337E+03  0.83451011388E+03  0.16674428481E+04  0.50400001928E-02 0.  1.
</event>
<event>
 5   0  0.1126221E-06  0.3322216E+04  0.7818609E-02  0.8157265E-01
        2   -1    0    0  501    0  0.00000000000E+00  0.00000000000E+00  0.21728487896E+04  0.21728487896E+04  0.25500000920E-02 0. -1.
       -2   -1    0    0    0  501  0.00000000000E+00  0.00000000000E+00 -0.12698906944E+04  0.12698906944E+04  0.25500000920E-02 0.  1.
    10030    2    1    2    0    0  0.00000000000E+00  0.00000000000E+00  0.90295809520E+03  0.34427394841E+04  0.33222164038E+04 0.  0.
        2    1    3    3  502    0  0.13472256774E+04  0.48306862792E+02  0.14572185979E+04  0.19851540547E+04  0.25500000920E-02 0. -1.
       -2    1    3    3    0  502 -0.13472256774E+04 -0.48306862792E+02 -0.55426050271E+03  0.14575854293E+04  0.25500000920E-02 0.  1.
</event>
<event>
 5   0  0.1120545E-06  0.3304050E+04  0.7818609E-02  0.8161866E-01
       -2   -1    0    0    0  501  0.00000000000E+00  0.00000000000E+00  0.10466428342E+04  0.10466428342E+04  0.25500000920E-02 0.  1.
        2   -1    0    0  501    0  0.00000000000E+00  0.00000000000E+00 -0.26075622047E+04  0.26075622047E+04  0.25500000920E-02 0. -1.
    10030    2    1    2    0    0  0.00000000000E+00  0.00000000000E+00 -0.15609193706E+04  0.36542050389E+04  0.33040498158E+04 0.  0.
        4    1    3    3  502    0 -0.18698043546E+02  0.59183089947E+03 -0.24861665935E+04  0.25557072160E+04  0.12699999809E+01 0. -1.
       -4    1    3    3    0  502  0.18698043546E+02 -0.59183089947E+03  0.92524722298E+03  0.10984978229E+04  0.12699999809E+01 0.  1.
</event>
<event>
 5   0  0.3709747E-07  0.3284830E+04  0.7818609E-02  0.8166766E-01
        1   -1    0    0  501    0  0.00000000000E+00  0.00000000000E+00  0.15865017140E+04  0.15865017140E+04  0.50400001928E-02 0. -1.
       -1   -1    0    0    0  501  0.00000000000E+00  0.00000000000E+00 -0.17002991237E+04  0.17002991237E+04  0.50400001928E-02 0.  1.
    10030    2    1    2    0    0  0.00000000000E+00  0.00000000000E+00 -0.11379740964E+03  0.32868008377E+04  0.32848302690E+04 0.  0.
        4    1    3    3  502    0 -0.65709740630E+03  0.12183365778E+04 -0.94140006341E+03  0.16740241069E+04  0.12699999809E+01 0. -1.
       -4    1    3    3    0  502  0.65709740630E+03 -0.12183365778E+04  0.82760265377E+03  0.16127767308E+04  0.12699999809E+01 0.  1.
</event>
<event>
 5   0  0.1146799E-06  0.3270774E+04  0.7818609E-02  0.8170372E-01
       -2   -1    0    0    0  501  0.00000000000E+00  0.00000000000E+00  0.11855509803E+04  0.11855509803E+04  0.25500000920E-02 0.  1.
        2   -1    0    0  501    0  0.00000000000E+00  0.00000000000E+00 -0.22559046919E+04  0.22559046919E+04  0.25500000920E-02 0. -1.
    10030    2    1    2    0    0  0.00000000000E+00  0.00000000000E+00 -0.10703537117E+04  0.34414556722E+04  0.32707736204E+04 0.  0.
        5    1    3    3  502    0 -0.13445354972E+04  0.59200859318E+03  0.22079962980E+03  0.14856057499E+04  0.46999998093E+01 0.  1.
       -5    1    3    3    0  502  0.13445354972E+04 -0.59200859318E+03 -0.12911533415E+04  0.19558499223E+04  0.46999998093E+01 0. -1.
</event>
<event>
 5   0  0.1129434E-06  0.3072765E+04  0.7818609E-02  0.8223252E-01
        2   -1    0    0  501    0  0.00000000000E+00  0.00000000000E+00  0.20979673853E+04  0.20979673853E+04  0.25500000920E-02 0.  1.
       -2   -1    0    0    0  501  0.00000000000E+00  0.00000000000E+00 -0.11251226850E+04  0.11251226850E+04  0.25500000920E-02 0. -1.
    10030    2    1    2    0    0  0.00000000000E+00  0.00000000000E+00  0.97284470026E+03  0.32230900703E+04  0.30727646819E+04 0.  0.
        3    1    3    3  502    0 -0.95249413335E+03 -0.68499827615E+03  0.15269205794E+04  0.19256048864E+04  0.10100000352E+00 0.  1.
       -3    1    3    3    0  502  0.95249413335E+03  0.68499827615E+03 -0.55407587919E+03  0.12974851839E+04  0.10100000352E+00 0. -1.
</event>
<event>
 5   0  0.3709747E-07  0.3236865E+04  0.7818609E-02  0.8179149E-01
        1   -1    0    0  501    0  0.00000000000E+00  0.00000000000E+00  0.16914490278E+04  0.16914490278E+04  0.50400001928E-02 0. -1.
       -1   -1    0    0    0  501  0.00000000000E+00  0.00000000000E+00 -0.15485677793E+04  0.15485677793E+04  0.50400001928E-02 0.  1.
    10030    2    1    2    0    0  0.00000000000E+00  0.00000000000E+00  0.14288124851E+03  0.32400168070E+04  0.32368648193E+04 0.  0.
        4    1    3    3  502    0  0.33103373964E+03 -0.78547047943E+03  0.14485617955E+04  0.16807379627E+04  0.12699999809E+01 0. -1.
       -4    1    3    3    0  502 -0.33103373964E+03  0.78547047943E+03 -0.13056805470E+04  0.15592788444E+04  0.12699999809E+01 0.  1.
</event>
<event>
 5   0  0.3749685E-07  0.3292553E+04  0.7818609E-02  0.8164793E-01
       -1   -1    0    0    0  501  0.00000000000E+00  0.00000000000E+00  0.14239688895E+04  0.14239688895E+04  0.50400001928E-02 0. -1.
        1   -1    0    0  501    0  0.00000000000E+00  0.00000000000E+00 -0.19032904226E+04  0.19032904226E+04  0.50400001928E-02 0.  1.
    10030    2    1    2    0    0  0.00000000000E+00  0.00000000000E+00 -0.47932153311E+03  0.33272593121E+04  0.32925530212E+04 0.  0.
        3    1    3    3  502    0 -0.11665568873E+04  0.88889808000E+03 -0.99536127189E+03  0.17724950888E+04  0.10100000352E+00 0.  1.
       -3    1    3    3    0  502  0.11665568873E+04 -0.88889808000E+03  0.51603973878E+03  0.15547642233E+04  0.10100000352E+00 0. -1.
</event>
<event>
 5   0  0.1120545E-06  0.3304134E+04  0.7818609E-02  0.8161844E-01
        2   -1    0    0  501    0  0.00000000000E+00  0.00000000000E+00  0.27696219215E+04  0.27696219215E+04  0.25500000920E-02 0.  1.
       -2   -1    0    0    0  501  0.00000000000E+00  0.00000000000E+00 -0.98545050027E+03  0.98545050027E+03  0.25500000920E-02 0. -1.
    10030    2    1    2    0    0  0.00000000000E+00  0.00000000000E+00  0.17841714212E+04  0.37550724217E+04  0.33041339610E+04 0.  0.
        4    1    3    3  502    0 -0.14341929340E+03 -0.40294274496E+03 -0.92143817303E+03  0.10158650841E+04  0.12699999809E+01 0. -1.
       -4    1    3    3    0  502  0.14341929340E+03  0.40294274496E+03  0.27056095942E+04  0.27392073377E+04  0.12699999809E+01 0.  1.
</event>
<event>
 5   0  0.1129434E-06  0.3299002E+04  0.7818609E-02  0.8163149E-01
        2   -1    0    0  501    0  0.00000000000E+00  0.00000000000E+00  0.20563288378E+04  0.20563288378E+04  0.25500000920E-02 0. -1.
       -2   -1    0    0    0  501  0.00000000000E+00  0.00000000000E+00 -0.13231610298E+04  0.13231610298E+04  0.25500000920E-02 0.  1.
    10030    2    1    2    0    0  0.00000000000E+00  0.00000000000E+00  0.73316780793E+03  0.33794898676E+04  0.32990023842E+04 0.  0.
        3    1    3    3  502    0  0.62613366770E+03  0.63838034971E+03 -0.10533365026E+04  0.13816984615E+04  0.10100000352E+00 0.  1.
       -3    1    3    3    0  502 -0.62613366770E+03 -0.63838034971E+03  0.17865043105E+04  0.19977914061E+04  0.10100000352E+00 0. -1.
</event>
<event>
 5   0  0.1126221E-06  0.3395960E+04  0.7818609E-02  0.8138899E-01
        2   -1    0    0  501    0  0.00000000000E+00  0.00000000000E+00  0.14330355970E+04  0.14330355970E+04  0.25500000920E-02 0. -1.
       -2   -1    0    0    0  501  0.00000000000E+00  0.00000000000E+00 -0.20119077719E+04  0.20119077719E+04  0.25500000920E-02 0.  1.
    10030    2    1    2    0    0  0.00000000000E+00  0.00000000000E+00 -0.57887217492E+03  0.34449433689E+04  0.33959596317E+04 0.  0.
        2    1    3    3  502    0 -0.20373977115E+03  0.12229033821E+04 -0.14664010485E+04  0.19202433729E+04  0.25500000920E-02 0.  1.
       -2    1    3    3    0  502  0.20373977115E+03 -0.12229033821E+04  0.88752887360E+03  0.15246999960E+04  0.25500000920E-02 0. -1.
</event>
<event>
 5   0  0.1126221E-06  0.3279239E+04  0.7818609E-02  0.8168198E-01
       -2   -1    0    0    0  501  0.00000000000E+00  0.00000000000E+00  0.29865679736E+04  0.29865679736E+04  0.25500000920E-02 0. -1.
        2   -1    0    0  501    0  0.00000000000E+00  0.00000000000E+00 -0.90014772197E+03  0.90014772198E+03  0.25500000920E-02 0.  1.
    10030    2    1    2    0    0  0.00000000000E+00  0.00000000000E+00  0.20864202517E+04  0.38867156956E+04  0.32792391544E+04 0.  0.
        2    1    3    3  502    0  0.79148104887E+03 -0.66992761080E+03 -0.46215303960E+03  0.11352667909E+04  0.25500000920E-02 0.  1.
       -2    1    3    3    0  502 -0.79148104887E+03  0.66992761080E+03  0.25485732913E+04  0.27514489047E+04  0.25500000920E-02 0. -1.
</event>
<event>
 5   0  0.1120545E-06  0.3314440E+04  0.7818609E-02  0.8159231E-01
       -2   -1    0    0    0  501  0.00000000000E+00  0.00000000000E+00  0.11594017641E+04  0.11594017641E+04  0.25500000920E-02 0. -1.
        2   -1    0    0  501    0  0.00000000000E+00  0.00000000000E+00 -0.23687885476E+04  0.23687885476E+04  0.25500000920E-02 0.  1.
    10030    2    1    2    0    0  0.00000000000E+00  0.00000000000E+00 -0.12093867835E+04  0.35281903118E+04  0.33144396938E+04 0.  0.
        4    1    3    3  502    0 -0.17019348708E+02 -0.72927974523E+03  0.97930221582E+03  0.12211359662E+04  0.12699999809E+01 0. -1.
       -4    1    3    3    0  502  0.17019348708E+02  0.72927974523E+03 -0.21886889993E+04  0.23070543456E+04  0.12699999809E+01 0.  1.
</event>
<event>
 5   0  0.1146799E-06  0.3298822E+04  0.7818609E-02  0.8163195E-01
       -2   -1    0    0    0  501  0.00000000000E+00  0.00000000000E+00  0.18429655839E+04  0.18429655839E+04  0.25500000920E-02 0.  1.
        2   -1    0    0  501    0  0.00000000000E+00  0.00000000000E+00 -0.14761843298E+04  0.14761843298E+04  0.25500000920E-02 0. -1.
    10030    2    1    2    0    0  0.00000000000E+00  0.00000000000E+00  0.36678125408E+03  0.33191499138E+04  0.32988221628E+04 0.  0.
        5    1    3    3  502    0  0.75244467653E+03 -0.10804089916E+04  0.11830309239E+04  0.17700397841E+04  0.46999998093E+01 0. -1.
       -5    1    3    3    0  502 -0.75244467653E+03  0.10804089916E+04 -0.81624966986E+03  0.15491101297E+04  0.46999998093E+01 0.  1.
</event>
<event>
 5   0  0.1146799E-06  0.3252448E+04  0.7818609E-02  0.8175102E-01
       -2   -1    0    0    0  501  0.00000000000E+00  0.00000000000E+00  0.17224877881E+04  0.17224877881E+04  0.25500000920E-02 0. -1.
        2   -1    0    0  501    0  0.00000000000E+00  0.00000000000E+00 -0.15353398936E+04  0.15353398936E+04  0.25500000920E-02 0.  1.
    10030    2    1    2    0    0  0.00000000000E+00  0.00000000000E+00  0.18714789453E+03  0.32578276816E+04  0.32524478272E+04 0.  0.
        5    1    3    3  502    0 -0.11925178593E+04 -0.65177067202E+03 -0.80103173447E+03  0.15775226728E+04  0.46999998093E+01 0.  1.
       -5    1    3    3    0  502  0.11925178593E+04  0.65177067202E+03  0.98817962900E+03  0.16803050088E+04  0.46999998093E+01 0. -1.
</event>
<event>
 5   0  0.1129434E-06  0.3287964E+04  0.7818609E-02  0.8165965E-01
       -2   -1    0    0    0  501  0.00000000000E+00  0.00000000000E+00  0.14102590082E+04  0.14102590082E+04  0.25500000920E-02 0. -1.
        2   -1    0    0  501    0  0.00000000000E+00  0.00000000000E+00 -0.19164401489E+04  0.19164401489E+04  0.25500000920E-02 0.  1.
    10030    2    1    2    0    0  0.00000000000E+00  0.00000000000E+00 -0.50618114072E+03  0.33266991572E+04  0.32879641018E+04 0.  0.
        3    1    3    3  502    0 -0.12841280343E+04  0.69492933401E+02 -0.12892959015E+04  0.18210156529E+04  0.10100000352E+00 0.  1.
       -3    1    3    3    0  502  0.12841280343E+04 -0.69492933401E+02  0.78311476082E+03  0.15056835043E+04  0.10100000352E+00 0. -1.
</event>
<event>
 5   0  0.3757406E-07  0.3417469E+04  0.7818609E-02  0.8133632E-01
       -1   -1    0    0    0  501  0.00000000000E+00  0.00000000000E+00  0.11181426531E+04  0.11181426531E+04  0.50400001928E-02 0.  1.
        1   -1    0    0  501    0  0.00000000000E+00  0.00000000000E+00 -0.26112718504E+04  0.26112718504E+04  0.50400001928E-02 0. -1.
    10030    2    1    2    0    0  0.00000000000E+00  0.00000000000E+00 -0.14931291973E+04  0.37294145036E+04  0.34174694936E+04 0.  0.
        1    1    3    3  502    0  0.61897565185E+03 -0.89130991142E+03  0.69384593063E+03  0.12880164561E+04  0.50400001928E-02 0.  1.
       -1    1    3    3    0  502 -0.61897565185E+03  0.89130991142E+03 -0.21869751279E+04  0.24413980474E+04  0.50400001928E-02 0. -1.
</event>
<event>
 5   0  0.3757406E-07  0.3181845E+04  0.7818609E-02  0.8193628E-01
       -1   -1    0    0    0  501  0.00000000000E+00  0.00000000000E+00  0.18281497034E+04  0.18281497034E+04  0.50400001928E-02 0. -1.
        1   -1    0    0  501    0  0.00000000000E+00  0.00000000000E+00 -0.13844783618E+04  0.13844783619E+04  0.50400001928E-02 0.  1.
    10030    2    1    2    0    0  0.00000000000E+00  0.00000000000E+00  0.44367134150E+03  0.32126280652E+04  0.31818445635E+04 0.  0.
        1    1    3    3  502    0  0.26759176540E+03  0.10502950869E+04  0.13977095527E+04  0.17687049263E+04  0.50400001928E-02 0. -1.
       -1    1    3    3    0  502 -0.26759176540E+03 -0.10502950869E+04 -0.95403821124E+03  0.14439231389E+04  0.50400001928E-02 0.  1.
</event>
<event>
 5   0  0.1126221E-06  0.3333326E+04  0.7818609E-02  0.8154467E-01
        2   -1    0    0  501    0  0.00000000000E+00  0.00000000000E+00  0.17361421418E+04  0.17361421418E+04  0.25500000920E-02 0. -1.
       -2   -1    0    0    0  501  0.00000000000E+00  0.00000000000E+00 -0.15999644876E+04  0.15999644876E+04  0.25500000920E-02 0.  1.
    10030    2    1    2    0    0  0.00000000000E+00  0.00000000000E+00  0.13617765419E+03  0.33361066294E+04  0.33333261300E+04 0.  0.
        2    1    3    3  502    0  0.10388777981E+04  0.94043442708E+03 -0.83492860510E+03  0.16311927436E+04  0.25500000920E-02 0.  1.
       -2    1    3    3    0  502 -0.10388777981E+04 -0.94043442708E+03  0.97110625929E+03  0.17049138858E+04  0.25500000920E-02 0. -1.
</event>
<event>
 5   0  0.1120545E-06  0.3313636E+04  0.7818609E-02  0.8159434E-01
       -2   -1    0    0    0  501  0.00000000000E+00  0.00000000000E+00  0.15838458768E+04  0.15838458769E+04  0.25500000920E-02 0. -1.
        2   -1    0    0  501    0  0.00000000000E+00  0.00000000000E+00 -0.17331519353E+04  0.17331519353E+04  0.25500000920E-02 0.  1.
    10030    2    1    2    0    0  0.00000000000E+00  0.00000000000E+00 -0.14930605842E+03  0.33169978121E+04  0.33136357957E+04 0.  0.
        4    1    3    3  502    0 -0.11693029029E+04 -0.11503745983E+04  0.15884945318E+03  0.16479883971E+04  0.12699999809E+01 0. -1.
       -4    1    3    3    0  502  0.11693029029E+04  0.11503745983E+04 -0.30815551160E+03  0.16690094150E+04  0.12699999809E+01 0.  1.
</event>
<event>
 5   0  0.3796529E-07  0.3293269E+04  0.7818609E-02  0.8164610E-01
       -1   -1    0    0    0  501  0.00000000000E+00  0.00000000000E+00  0.23069521319E+04  0.23069521319E+04  0.50400001928E-02 0.  1.
        1   -1    0    0  501    0  0.00000000000E+00  0.00000000000E+00 -0.11753191749E+04  0.11753191749E+04  0.50400001928E-02 0. -1.
    10030    2    1    2    0    0  0.00000000000E+00  0.00000000000E+00  0.11316329570E+04  0.34822713069E+04  0.32932689391E+04 0.  0.
        5    1    3    3  502    0 -0.13741206356E+03 -0.48443612531E+03 -0.10919015806E+04  0.12024273726E+04  0.46999998093E+01 0. -1.
       -5    1    3    3    0  502  0.13741206356E+03  0.48443612531E+03  0.22235345376E+04  0.22798439343E+04  0.46999998093E+01 0.  1.
</event>
<event>
 5   0  0.1116462E-06  0.3289857E+04  0.7818609E-02  0.8165481E-01
        2   -1    0    0  501    0  0.00000000000E+00  0.00000000000E+00  0.16409201491E+04  0.16409201491E+04  0.25500000920E-02 0. -1.
       -2   -1    0    0    0  501  0.00000000000E+00  0.00000000000E+00 -0.16489462236E+04  0.16489462236E+04  0.25500000920E-02 0.  1.
    10030    2    1    2    0    0  0.00000000000E+00  0.00000000000E+00 -0.80260744407E+01  0.32898663727E+04  0.32898565824E+04 0.  0.
        1    1    3    3  502    0 -0.56518985186E+03  0.93329261909E+03 -0.12349977733E+04  0.16479363403E+04  0.50400001928E-02 0.  1.
       -1    1    3    3    0  502  0.56518985186E+03 -0.93329261909E+03  0.12269716989E+04  0.16419300324E+04  0.50400001928E-02 0. -1.
</event>
<event>
 5   0  0.3796529E-07  0.3310955E+04  0.7818609E-02  0.8160113E-01
        1   -1    0    0  501    0  0.00000000000E+00  0.00000000000E+00  0.16366667214E+04  0.16366667214E+04  0.50400001928E-02 0. -1.
       -1   -1    0    0    0  501  0.00000000000E+00  0.00000000000E+00 -0.16745045017E+04  0.16745045017E+04  0.50400001928E-02 0.  1.
    10030    2    1    2    0    0  0.00000000000E+00  0.00000000000E+00 -0.37837780309E+02  0.33111712232E+04  0.33109550241E+04 0.  0.
        5    1    3    3  502    0  0.76918715522E+03 -0.46354871943E+03  0.13718758455E+04  0.16396925689E+04  0.46999998093E+01 0. -1.
       -5    1    3    3    0  502 -0.76918715522E+03  0.46354871943E+03 -0.14097136258E+04  0.16714786543E+04  0.46999998093E+01 0.  1.
</event>
<event>
 5   0  0.3709747E-07  0.3323736E+04  0.7818609E-02  0.8156882E-01
        1   -1    0    0  501    0  0.00000000000E+00  0.00000000000E+00  0.18276318587E+04  0.18276318587E+04  0.50400001928E-02 0.  1.
       -1   -1    0    0    0  501  0.00000000000E+00  0.00000000000E+00 -0.15111383851E+04  0.15111383851E+04  0.50400001928E-02 0. -1.
    10030    2    1    2    0    0  0.00000000000E+00  0.00000000000E+00  0.31649347356E+03  0.33387702439E+04  0.33237356427E+04 0.  0.
        4    1    3    3  502    0 -0.23385277003E+03 -0.15574344849E+03 -0.14871061491E+04  0.15134164832E+04  0.12699999809E+01 0. -1.
       -4    1    3    3    0  502  0.23385277003E+03  0.15574344849E+03  0.18035996227E+04  0.18253537607E+04  0.12699999809E+01 0.  1.
</event>
<event>
 5   0  0.3757406E-07  0.3285628E+04  0.7818609E-02  0.8166562E-01
        1   -1    0    0  501    0  0.00000000000E+00  0.00000000000E+00  0.12467272139E+04  0.12467272140E+04  0.50400001928E-02 0. -1.
       -1   -1    0    0    0  501  0.00000000000E+00  0.00000000000E+00 -0.21647381983E+04  0.21647381983E+04  0.50400001928E-02 0.  1.
    10030    2    1    2    0    0  0.00000000000E+00  0.00000000000E+00 -0.91801098432E+03  0.34114654122E+04  0.32856281122E+04 0.  0.
        1    1    3    3  502    0 -0.12741390786E+04  0.34224950508E+03 -0.14754113788E+04  0.19792432524E+04  0.50400001928E-02 0.  1.
       -1    1    3    3    0  502  0.12741390786E+04 -0.34224950508E+03  0.55740039446E+03  0.14322221599E+04  0.50400001928E-02 0. -1.
</event>
<event>
 5   0  0.3757406E-07  0.3256485E+04  0.7818609E-02  0.8174057E-01
       -1   -1    0    0    0  501  0.00000000000E+00  0.00000000000E+00  0.10181428038E+04  0.10181428038E+04  0.50400001928E-02 0. -1.
        1   -1    0    0  501    0  0.00000000000E+00  0.00000000000E+00 -0.26039306922E+04  0.26039306922E+04  0.50400001928E-02 0.  1.
    10030    2    1    2    0    0  0.00000000000E+00  0.00000000000E+00 -0.15857878884E+04  0.36220734959E+04  0.32564847893E+04 0.  0.
        1    1    3    3  502    0 -0.98253756140E+03  0.31772343106E+02 -0.22366050174E+04  0.24431110382E+04  0.50400001928E-02 0.  1.
       -1    1    3    3    0  502  0.98253756140E+03 -0.31772343106E+02  0.65081712897E+03  0.11789624577E+04  0.50400001928E-02 0. -1.
</event>
<event>
 5   0  0.3757406E-07  0.3292518E+04  0.7818609E-02  0.8164802E-01
        1   -1    0    0  501    0  0.00000000000E+00  0.00000000000E+00  0.19632124109E+04  0.19632124109E+04  0.50400001928E-02 0.  1.
       -1   -1    0    0    0  501  0.00000000000E+00  0.00000000000E+00 -0.13804765042E+04  0.13804765043E+04  0.50400001928E-02 0. -1.
    10030    2    1    2    0    0  0.00000000000E+00  0.00000000000E+00  0.58273590661E+03  0.33436889151E+04  0.32925179459E+04 0.  0.
        1    1    3    3  502    0 -0.13896541367E+04 -0.79307788023E+03  0.68476084971E+03  0.17404047130E+04  0.50400001928E-02 0.  1.
       -1    1    3    3    0  502  0.13896541367E+04  0.79307788023E+03 -0.10202494311E+03  0.16032842021E+04  0.50400001928E-02 0. -1.
</event>
<event>
 5   0  0.3674967E-07  0.3219858E+04  0.7818609E-02  0.8183592E-01
        1   -1    0    0  501    0  0.00000000000E+00  0.00000000000E+00  0.24876702274E+04  0.24876702274E+04  0.50400001928E-02 0.  1.
       -1   -1    0    0    0  501  0.00000000000E+00  0.00000000000E+00 -0.10418870565E+04  0.10418870565E+04  0.50400001928E-02 0. -1.
    10030    2    1    2    0    0  0.00000000000E+00  0.00000000000E+00  0.14457831709E+04  0.35295572838E+04  0.32198580159E+04 0.  0.
        2    1    3    3  502    0  0.42047818997E+03 -0.14955562373E+04  0.25991624104E+03  0.15751339053E+04  0.25500000920E-02 0. -1.
       -2    1    3    3    0  502 -0.42047818997E+03  0.14955562373E+04  0.11858669299E+04  0.19544233785E+04  0.25500000920E-02 0.  1.
</event>
<event>
 5   0  0.3796529E-07  0.3320027E+04  0.7818609E-02  0.8157818E-01
        1   -1    0    0  501    0  0.00000000000E+00  0.00000000000E+00  0.22460440073E+04  0.22460440073E+04  0.50400001928E-02 0. -1.
       -1   -1    0    0    0  501  0.00000000000E+00  0.00000000000E+00 -0.12268882532E+04  0.12268882532E+04  0.50400001928E-02 0.  1.
    10030    2    1    2    0    0  0.00000000000E+00  0.00000000000E+00  0.10191557541E+04  0.34729322604E+04  0.33200271135E+04 0.  0.
        5    1    3    3  502    0 -0.27166027671E+03  0.14997069882E+03  0.22154284851E+04  0.22370596726E+04  0.46999998093E+01 0. -1.
       -5    1    3    3    0  502  0.27166027671E+03 -0.14997069882E+03 -0.11962727310E+04  0.12358725878E+04  0.46999998093E+01 0.  1.
</event>
<event>
 5   0  0.1129434E-06  0.3295709E+04  0.7818609E-02  0.8163988E-01
        2   -1    0    0  501    0  0.00000000000E+00  0.00000000000E+00  0.28204209585E+04  0.28204209585E+04  0.25500000920E-02 0.  1.
       -2   -1    0    0    0  501  0.00000000000E+00  0.00000000000E+00 -0.96277268030E+03  0.96277268031E+03  0.25500000920E-02 0. -1.
    10030    2    1    2    0    0  0.00000000000E+00  0.00000000000E+00  0.18576482782E+04  0.37831936389E+04  0.32957088742E+04 0.  0.
        3    1    3    3  502    0 -0.77739711553E+03  0.50767044076E+03 -0.63392150254E+03  0.11242473185E+04  0.10100000352E+00 0. -1.
       -3    1    3    3    0  502  0.77739711553E+03 -0.50767044076E+03  0.24915697808E+04  0.26589463203E+04  0.10100000352E+00 0.  1.
</event>
<event>
 5   0  0.3749685E-07  0.3259442E+04  0.7818609E-02  0.8173293E-01
        1   -1    0    0  501    0  0.00000000000E+00  0.00000000000E+00  0.19726574227E+04  0.19726574227E+04  0.50400001928E-02 0.  1.
       -1   -1    0    0    0  501  0.00000000000E+00  0.00000000000E+00 -0.13464020737E+04  0.13464020738E+04  0.50400001928E-02 0. -1.
    10030    2    1    2    0    0  0.00000000000E+00  0.00000000000E+00  0.62625534891E+03  0.33190594964E+04  0.32594416974E+04 0.  0.
        3    1    3    3  502    0 -0.35653146478E+03 -0.44271580854E+03  0.18684408103E+04  0.19529933549E+04  0.10100000352E+00 0.  1.
       -3    1    3    3    0  502  0.35653146478E+03  0.44271580854E+03 -0.12421854614E+04  0.13660661416E+04  0.10100000352E+00 0. -1.
</event>
<event>
 5   0  0.3674967E-07  0.3323330E+04  0.7818609E-02  0.8156984E-01
        1   -1    0    0  501    0  0.00000000000E+00  0.00000000000E+00  0.26121444979E+04  0.26121444979E+04  0.50400001928E-02 0.  1.
       -1   -1    0    0    0  501  0.00000000000E+00  0.00000000000E+00 -0.10570358132E+04  0.10570358133E+04  0.50400001928E-02 0. -1.
    10030    2    1    2    0    0  0.00000000000E+00  0.00000000000E+00  0.15551086847E+04  0.36691803112E+04  0.33233298264E+04 0.  0.
        2    1    3    3  502    0  0.34328060475E+02  0.33628187095E+03 -0.10186742997E+04  0.10732945735E+04  0.25500000920E-02 0. -1.
       -2    1    3    3    0  502 -0.34328060475E+02 -0.33628187095E+03  0.25737829844E+04  0.25958857377E+04  0.25500000920E-02 0.  1.
</event>
<event>
 5   0  0.1146799E-06  0.3295611E+04  0.7818609E-02  0.8164013E-01
        2   -1    0    0  501    0  0.00000000000E+00  0.00000000000E+00  0.26541635539E+04  0.26541635539E+04  0.25500000920E-02 0.  1.
       -2   -1    0    0    0  501  0.00000000000E+00  0.00000000000E+00 -0.10230200878E+04  0.10230200878E+04  0.25500000920E-02 0. -1.
    10030    2    1    2    0    0  0.00000000000E+00  0.00000000000E+00  0.16311434661E+04  0.36771836418E+04  0.32956107974E+04 0.  0.
        5    1    3    3  502    0  0.12239974087E+04 -0.94847404272E+03  0.14442512278E+04  0.21174646078E+04  0.46999998093E+01 0.  1.
       -5    1    3    3    0  502 -0.12239974087E+04  0.94847404272E+03  0.18689223836E+03  0.15597190340E+04  0.46999998093E+01 0. -1.
</event>
<event>
 5   0  0.1129434E-06  0.3339741E+04  0.7818609E-02  0.8152856E-01
       -2   -1    0    0    0  501  0.00000000000E+00  0.00000000000E+00  0.27750570950E+04  0.27750570950E+04  0.25500000920E-02 0. -1.
        2   -1    0    0  501    0  0.00000000000E+00  0.00000000000E+00 -0.10048322901E+04  0.10048322901E+04  0.25500000920E-02 0.  1.
    10030    2    1    2    0    0  0.00000000000E+00  0.00000000000E+00  0.17702248049E+04  0.37798893852E+04  0.33397406942E+04 0.  0.
        3    1    3    3  502    0 -0.12687562004E+03  0.37515877987E+03  0.27211365122E+04  0.27498046224E+04  0.10100000352E+00 0. -1.
       -3    1    3    3    0  502  0.12687562004E+03 -0.37515877987E+03 -0.95091170734E+03  0.10300847627E+04  0.10100000352E+00 0.  1.
</event>
<event>
 5   0  0.3757406E-07  0.3301411E+04  0.7818609E-02  0.8162536E-01
       -1   -1    0    0    0  501  0.00000000000E+00  0.00000000000E+00  0.18134322804E+04  0.18134322804E+04  0.50400001928E-02 0. -1.
        1   -1    0    0  501    0  0.00000000000E+00  0.00000000000E+00 -0.15025809843E+04  0.15025809843E+04  0.50400001928E-02 0.  1.
    10030    2    1    2    0    0  0.00000000000E+00  0.00000000000E+00  0.31085129611E+03  0.33160132647E+04  0.33014111291E+04 0.  0.
        1    1    3    3  502    0 -0.46265035788E+03 -0.83246990348E+03  0.15096386963E+04  0.17849539174E+04  0.50400001928E-02 0. -1.
       -1    1    3    3    0  502  0.46265035788E+03  0.83246990348E+03 -0.11987874002E+04  0.15310593472E+04  0.50400001928E-02 0.  1.
</event>
<event>
 5   0  0.1120545E-06  0.3129876E+04  0.7818609E-02  0.8207586E-01
       -2   -1    0    0    0  501  0.00000000000E+00  0.00000000000E+00  0.21533562224E+04  0.21533562224E+04  0.25500000920E-02 0.  1.
        2   -1    0    0  501    0  0.00000000000E+00  0.00000000000E+00 -0.11373090079E+04  0.11373090079E+04  0.25500000920E-02 0. -1.
    10030    2    1    2    0    0  0.00000000000E+00  0.00000000000E+00  0.10160472144E+04  0.32906652303E+04  0.31298763100E+04 0.  0.
        4    1    3    3  502    0  0.87275683917E+02  0.88763570033E+03 -0.84392654898E+03  0.12278956855E+04  0.12699999809E+01 0. -1.
       -4    1    3    3    0  502 -0.87275683917E+02 -0.88763570033E+03  0.18599737634E+04  0.20627695448E+04  0.12699999809E+01 0.  1.
</event>
<event>
 5   0  0.1116462E-06  0.3320376E+04  0.7818609E-02  0.8157730E-01
        2   -1    0    0  501    0  0.00000000000E+00  0.00000000000E+00  0.15404305181E+04  0.15404305181E+04  0.25500000920E-02 0.  1.
       -2   -1    0    0    0  501  0.00000000000E+00  0.00000000000E+00 -0.17892561073E+04  0.17892561073E+04  0.25500000920E-02 0. -1.
    10030    2    1    2    0    0  0.00000000000E+00  0.00000000000E+00 -0.24882558919E+03  0.33296866253E+04  0.33203763114E+04 0.  0.
        1    1    3    3  502    0 -0.24788785221E+03  0.10778637081E+04  0.11171971165E+04  0.15720585096E+04  0.50400001928E-02 0.  1.
       -1    1    3    3    0  502  0.24788785221E+03 -0.10778637081E+04 -0.13660227057E+04  0.17576281157E+04  0.50400001928E-02 0. -1.
</event>
<event>
 5   0  0.1129434E-06  0.3305236E+04  0.7818609E-02  0.8161564E-01
        2   -1    0    0  501    0  0.00000000000E+00  0.00000000000E+00  0.95052132715E+03  0.95052132715E+03  0.25500000920E-02 0.  1.
       -2   -1    0    0    0  501  0.00000000000E+00  0.00000000000E+00 -0.28733147568E+04  0.28733147568E+04  0.25500000920E-02 0. -1.
    10030    2    1    2    0    0  0.00000000000E+00  0.00000000000E+00 -0.19227934296E+04  0.38238360839E+04  0.33052364248E+04 0.  0.
        3    1    3    3  502    0 -0.15358076727E+04  0.57026696878E+03 -0.70995381715E+03  0.17854814634E+04  0.10100000352E+00 0.  1.
       -3    1    3    3    0  502  0.15358076727E+04 -0.57026696878E+03 -0.12128396125E+04  0.20383546205E+04  0.10100000352E+00 0. -1.
</event>
<event>
 5   0  0.3796529E-07  0.3288278E+04  0.7818609E-02  0.8165885E-01
       -1   -1    0    0    0  501  0.00000000000E+00  0.00000000000E+00  0.17160928343E+04  0.17160928343E+04  0.50400001928E-02 0. -1.
        1   -1    0    0  501    0  0.00000000000E+00  0.00000000000E+00 -0.15752017474E+04  0.15752017474E+04  0.50400001928E-02 0.  1.
    10030    2    1    2    0    0  0.00000000000E+00  0.00000000000E+00  0.14089108687E+03  0.32912945817E+04  0.32882776229E+04 0.  0.
        5    1    3    3  502    0 -0.46468257431E+03 -0.15527384553E+04 -0.20593047869E+03  0.16338164087E+04  0.46999998093E+01 0.  1.
       -5    1    3    3    0  502  0.46468257431E+03  0.15527384553E+04  0.34682156556E+03  0.16574781729E+04  0.46999998093E+01 0. -1.
</event>
<event>
 5   0  0.3674967E-07  0.3501723E+04  0.7818609E-02  0.8113382E-01
        1   -1    0    0  501    0  0.00000000000E+00  0.00000000000E+00  0.25192247671E+04  0.25192247671E+04  0.50400001928E-02 0. -1.
       -1   -1    0    0    0  501  0.00000000000E+00  0.00000000000E+00 -0.12168487343E+04  0.12168487343E+04  0.50400001928E-02 0.  1.
    10030    2    1    2    0    0  0.00000000000E+00  0.00000000000E+00  0.13023760329E+04  0.37360735014E+04  0.35017227013E+04 0.  0.
        2    1    3    3  502    0 -0.14419568614E+04 -0.96443919517E+03  0.39840815626E+03  0.17799189898E+04  0.25500000920E-02 0.  1.
       -2    1    3    3    0  502  0.14419568614E+04  0.96443919517E+03  0.90396787661E+03  0.19561545116E+04  0.25500000920E-02 0. -1.
</event>
<event>
 5   0  0.3749685E-07  0.3277017E+04  0.7818609E-02  0.8168768E-01
       -1   -1    0    0    0  501  0.00000000000E+00  0.00000000000E+00  0.95231855840E+03  0.95231855841E+03  0.50400001928E-02 0.  1.
        1   -1    0    0  501    0  0.00000000000E+00  0.00000000000E+00 -0.28191294667E+04  0.28191294667E+04  0.50400001928E-02 0. -1.
    10030    2    1    2    0    0  0.00000000000E+00  0.00000000000E+00 -0.18668109083E+04  0.37714480251E+04  0.32770165149E+04 0.  0.
        3    1    3    3  502    0 -0.28642238806E+03  0.74086846631E+02  0.92132474712E+03  0.96766003590E+03  0.10100000352E+00 0.  1.
       -3    1    3    3    0  502  0.28642238806E+03 -0.74086846631E+02 -0.27881356554E+04  0.28037879892E+04  0.10100000352E+00 0. -1.
</event>
<event>
 5   0  0.1126221E-06  0.3291119E+04  0.7818609E-02  0.8165159E-01
        2   -1    0    0  501    0  0.00000000000E+00  0.00000000000E+00  0.21271942432E+04  0.21271942432E+04  0.25500000920E-02 0. -1.
       -2   -1    0    0    0  501  0.00000000000E+00  0.00000000000E+00 -0.12729750725E+04  0.12729750725E+04  0.25500000920E-02 0.  1.
    10030    2    1    2    0    0  0.00000000000E+00  0.00000000000E+00  0.85421917076E+03  0.34001693157E+04  0.32911185004E+04 0.  0.
        2    1    3    3  502    0  0.15140150952E+04  0.62064701098E+03  0.24691467516E+03  0.16548145750E+04  0.25500000920E-02 0. -1.
       -2    1    3    3    0  502 -0.15140150952E+04 -0.62064701098E+03  0.60730449560E+03  0.17453547408E+04  0.25500000920E-02 0.  1.
</event>
<event>
 5   0  0.1120545E-06  0.3309950E+04  0.7818609E-02  0.8160368E-01
        2   -1    0    0  501    0  0.00000000000E+00  0.00000000000E+00  0.29741025174E+04  0.29741025174E+04  0.25500000920E-02 0.  1.
       -2   -1    0    0    0  501  0.00000000000E+00  0.00000000000E+00 -0.92093067655E+03  0.92093067655E+03  0.25500000920E-02 0. -1.
    10030    2    1    2    0    0  0.00000000000E+00  0.00000000000E+00  0.20531718409E+04  0.38950331940E+04  0.33099499957E+04 0.  0.
        4    1    3    3  502    0 -0.13820774165E+04 -0.66512226102E+03  0.17580899649E+04  0.23331111300E+04  0.12699999809E+01 0.  1.
       -4    1    3    3    0  502  0.13820774165E+04  0.66512226102E+03  0.29508187596E+03  0.15619220639E+04  0.12699999809E+01 0. -1.
</event>
<event>
 5   0  0.3674967E-07  0.3323671E+04  0.7818609E-02  0.8156898E-01
        1   -1    0    0  501    0  0.00000000000E+00  0.00000000000E+00  0.25635013728E+04  0.25635013728E+04  0.50400001928E-02 0. -1.
       -1   -1    0    0    0  501  0.00000000000E+00  0.00000000000E+00 -0.10773145208E+04  0.10773145208E+04  0.50400001928E-02 0.  1.
    10030    2    1    2    0    0  0.00000000000E+00  0.00000000000E+00  0.14861868520E+04  0.36408158936E+04  0.33236710144E+04 0.  0.
        2    1    3    3  502    0  0.12940692182E+04  0.66238958873E+02 -0.39671970642E+03  0.13551344091E+04  0.25500000920E-02 0.  1.
       -2    1    3    3    0  502 -0.12940692182E+04 -0.66238958873E+02  0.18829065584E+04  0.22856814845E+04  0.25500000920E-02 0. -1.
</event>
<event>
 5   0  0.3796529E-07  0.3267406E+04  0.7818609E-02  0.8171239E-01
        1   -1    0    0  501    0  0.00000000000E+00  0.00000000000E+00  0.21042570024E+04  0.21042570024E+04  0.50400001928E-02 0.  1.
       -1   -1    0    0    0  501  0.00000000000E+00  0.00000000000E+00 -0.12683745427E+04  0.12683745427E+04  0.50400001928E-02 0. -1.
    10030    2    1    2    0    0  0.00000000000E+00  0.00000000000E+00  0.83588245968E+03  0.33726315451E+04  0.32674063188E+04 0.  0.
        5    1    3    3  502    0  0.76881517663E+03  0.14143759694E+04  0.70516085640E+03  0.17575010902E+04  0.46999998093E+01 0.  1.
       -5    1    3    3    0  502 -0.76881517663E+03 -0.14143759694E+04  0.13072160328E+03  0.16151304549E+04  0.46999998093E+01 0. -1.
</event>
<event>
 5   0  0.3674967E-07  0.3299992E+04  0.7818609E-02  0.8162897E-01
        1   -1    0    0  501    0  0.00000000000E+00  0.00000000000E+00  0.12071775692E+04  0.12071775692E+04  0.50400001928E-02 0. -1.
       -1   -1    0    0    0  501  0.00000000000E+00  0.00000000000E+00 -0.22552492933E+04  0.22552492933E+04  0.50400001928E-02 0.  1.
    10030    2    1    2    0    0  0.00000000000E+00  0.00000000000E+00 -0.10480717241E+04  0.34624268626E+04  0.32999917333E+04 0.  0.
        2    1    3    3  502    0 -0.10443121091E+04 -0.72942693335E+03  0.57631581656E+03  0.13981385313E+04  0.25500000920E-02 0. -1.
       -2    1    3    3    0  502  0.10443121091E+04  0.72942693335E+03 -0.16243875407E+04  0.20642883313E+04  0.25500000920E-02 0.  1.
</event>
<event>
 5   0  0.1126221E-06  0.3306753E+04  0.7818609E-02  0.8161179E-01
       -2   -1    0    0    0  501  0.00000000000E+00  0.00000000000E+00  0.13054167980E+04  0.13054167981E+04  0.25500000920E-02 0.  1.
        2   -1    0    0  501    0  0.00000000000E+00  0.00000000000E+00 -0.20940852971E+04  0.20940852971E+04  0.25500000920E-02 0. -1.
    10030    2    1    2    0    0  0.00000000000E+00  0.00000000000E+00 -0.78866849906E+03  0.33995020952E+04  0.33067531649E+04 0.  0.
        2    1    3    3  502    0 -0.77489826670E+03  0.51987667719E+03  0.10088350039E+04  0.13742223795E+04  0.25500000920E-02 0.  1.
       -2    1    3    3    0  502  0.77489826670E+03 -0.51987667719E+03 -0.17975035030E+04  0.20252797156E+04  0.25500000920E-02 0. -1.
</event>
<event>
 5   0  0.1129434E-06  0.3311706E+04  0.7818609E-02  0.8159923E-01
       -2   -1    0    0    0  501  0.00000000000E+00  0.00000000000E+00  0.15531345608E+04  0.15531345608E+04  0.25500000920E-02 0. -1.
        2   -1    0    0  501    0  0.00000000000E+00  0.00000000000E+00 -0.17653651601E+04  0.17653651601E+04  0.25500000920E-02 0.  1.
    10030    2    1    2    0    0  0.00000000000E+00  0.00000000000E+00 -0.21223059924E+03  0.33184997209E+04  0.33117062929E+04 0.  0.
        3    1    3    3  502    0 -0.58561403933E+03 -0.20220488982E+03  0.14326189598E+04  0.15608419890E+04  0.10100000352E+00 0. -1.
       -3    1    3    3    0  502  0.58561403933E+03  0.20220488982E+03 -0.16448495590E+04  0.17576577319E+04  0.10100000352E+00 0.  1.
</event>
<event>
 5   0  0.1126221E-06  0.3291757E+04  0.7818609E-02  0.8164996E-01
        2   -1    0    0  501    0  0.00000000000E+00  0.00000000000E+00  0.10975119032E+04  0.10975119032E+04  0.25500000920E-02 0. -1.
       -2   -1    0    0    0  501  0.00000000000E+00  0.00000000000E+00 -0.24682336639E+04  0.24682336639E+04  0.25500000920E-02 0.  1.
    10030    2    1    2    0    0  0.00000000000E+00  0.00000000000E+00 -0.13707217607E+04  0.35657455671E+04  0.32917568719E+04 0.  0.
        2    1    3    3  502    0 -0.71543513636E+03 -0.14461891754E+04 -0.33334247112E+03  0.16475520534E+04  0.25500000920E-02 0. -1.
       -2    1    3    3    0  502  0.71543513636E+03  0.14461891754E+04 -0.10373792896E+04  0.19181935137E+04  0.25500000920E-02 0.  1.
</event>
<event>
 5   0  0.3749685E-07  0.3284397E+04  0.7818609E-02  0.8166877E-01
       -1   -1    0    0    0  501  0.00000000000E+00  0.00000000000E+00  0.27613364604E+04  0.27613364604E+04  0.50400001928E-02 0. -1.
        1   -1    0    0  501    0  0.00000000000E+00  0.00000000000E+00 -0.97663414459E+03  0.97663414460E+03  0.50400001928E-02 0.  1.
    10030    2    1    2    0    0  0.00000000000E+00  0.00000000000E+00  0.17847023159E+04  0.37379706050E+04  0.32843967312E+04 0.  0.
        3    1    3    3  502    0 -0.45922858542E+03  0.99238288629E+03  0.22867441621E+04  0.25347413201E+04  0.10100000352E+00 0. -1.
       -3    1    3    3    0  502  0.45922858542E+03 -0.99238288629E+03 -0.50204184622E+03  0.12032292850E+04  0.10100000352E+00 0.  1.
</event>
<event>
 5   0  0.3796529E-07  0.3307527E+04  0.7818609E-02  0.8160983E-01
       -1   -1    0    0    0  501  0.00000000000E+00  0.00000000000E+00  0.15071392506E+04  0.15071392506E+04  0.50400001928E-02 0. -1.
        1   -1    0    0  501    0  0.00000000000E+00  0.00000000000E+00 -0.18146528482E+04  0.18146528482E+04  0.50400001928E-02 0.  1.
    10030    2    1    2    0    0  0.00000000000E+00  0.00000000000E+00 -0.30751359766E+03  0.33217920988E+04  0.33075274957E+04 0.  0.
        5    1    3    3  502    0  0.23466934491E+03 -0.99340860940E+03  0.11530011928E+04  0.15399234420E+04  0.46999998093E+01 0. -1.
       -5    1    3    3    0  502 -0.23466934491E+03  0.99340860940E+03 -0.14605147905E+04  0.17818686568E+04  0.46999998093E+01 0.  1.
</event>
<event>
 5   0  0.1146799E-06  0.3358157E+04  0.7818609E-02  0.8148253E-01
       -2   -1    0    0    0  501  0.00000000000E+00  0.00000000000E+00  0.12103518243E+04  0.12103518243E+04  0.25500000920E-02 0. -1.
        2   -1    0    0  501    0  0.00000000000E+00  0.00000000000E+00 -0.23293258880E+04  0.23293258880E+04  0.25500000920E-02 0.  1.
    10030    2    1    2    0    0  0.00000000000E+00  0.00000000000E+00 -0.11189740637E+04  0.35396777124E+04  0.33581565408E+04 0.  0.
        5    1    3    3  502    0 -0.16212434085E+04  0.41860639493E+03 -0.69122370680E+03  0.18114838687E+04  0.46999998093E+01 0.  1.
       -5    1    3    3    0  502  0.16212434085E+04 -0.41860639493E+03 -0.42775035691E+03  0.17281938437E+04  0.46999998093E+01 0. -1.
</event>
<event>
 5   0  0.3796529E-07  0.3318971E+04  0.7818609E-02  0.8158085E-01
        1   -1    0    0  501    0  0.00000000000E+00  0.00000000000E+00  0.20959919235E+04  0.20959919235E+04  0.50400001928E-02 0.  1.
       -1   -1    0    0    0  501  0.00000000000E+00  0.00000000000E+00 -0.13138849857E+04  0.13138849857E+04  0.50400001928E-02 0. -1.
    10030    2    1    2    0    0  0.00000000000E+00  0.00000000000E+00  0.78210693772E+03  0.34098769092E+04  0.33189711168E+04 0.  0.
        5    1    3    3  502    0  0.32005026805E+03 -0.42318123610E+03 -0.12243860586E+04  0.13344129208E+04  0.46999998093E+01 0. -1.
       -5    1    3    3    0  502 -0.32005026805E+03  0.42318123610E+03  0.20064929964E+04  0.20754639884E+04  0.46999998093E+01 0.  1.
</event>
<event>
 5   0  0.3674967E-07  0.3309458E+04  0.7818609E-02  0.8160493E-01
        1   -1    0    0  501    0  0.00000000000E+00  0.00000000000E+00  0.22759972340E+04  0.22759972340E+04  0.50400001928E-02 0.  1.
       -1   -1    0    0    0  501  0.00000000000E+00  0.00000000000E+00 -0.12030453883E+04  0.12030453883E+04  0.50400001928E-02 0. -1.
    10030    2    1    2    0    0  0.00000000000E+00  0.00000000000E+00  0.10729518457E+04  0.34790426222E+04  0.33094579472E+04 0.  0.
        2    1    3    3  502    0 -0.37286178660E+03 -0.16082853871E+04  0.65410322315E+03  0.17757980811E+04  0.25500000920E-02 0.  1.
       -2    1    3    3    0  502  0.37286178660E+03  0.16082853871E+04  0.41884862255E+03  0.17032445411E+04  0.25500000920E-02 0. -1.
</event>
<event>
 5   0  0.1146799E-06  0.3298145E+04  0.7818609E-02  0.8163367E-01
       -2   -1    0    0    0  501  0.00000000000E+00  0.00000000000E+00  0.16918585216E+04  0.16918585216E+04  0.25500000920E-02 0. -1.
        2   -1    0    0  501    0  0.00000000000E+00  0.00000000000E+00 -0.16073689624E+04  0.16073689624E+04  0.25500000920E-02 0.  1.
    10030    2    1    2    0    0  0.00000000000E+00  0.00000000000E+00  0.84489559262E+02  0.32992274840E+04  0.32981454646E+04 0.  0.
        5    1    3    3  502    0  0.22108943037E+03  0.34912393836E+03 -0.15547283782E+04  0.16087170294E+04  0.46999998093E+01 0.  1.
       -5    1    3    3    0  502 -0.22108943037E+03 -0.34912393836E+03  0.16392179375E+04  0.16905104546E+04  0.46999998093E+01 0. -1.
</event>
<event>
 5   0  0.3757406E-07  0.3279042E+04  0.7818609E-02  0.8168249E-01
        1   -1    0    0  501    0  0.00000000000E+00  0.00000000000E+00  0.16241529301E+04  0.16241529301E+04  0.50400001928E-02 0. -1.
       -1   -1    0    0    0  501  0.00000000000E+00  0.00000000000E+00 -0.16550347587E+04  0.16550347587E+04  0.50400001928E-02 0.  1.
    10030    2    1    2    0    0  0.00000000000E+00  0.00000000000E+00 -0.30881828613E+02  0.32791876888E+04  0.32790422704E+04 0.  0.
        1    1    3    3  502    0 -0.66498371009E+03  0.56644305361E+03 -0.14029347793E+04  0.16526606011E+04  0.50400001928E-02 0.  1.
       -1    1    3    3    0  502  0.66498371009E+03 -0.56644305361E+03  0.13720529506E+04  0.16265270877E+04  0.50400001928E-02 0. -1.
</event>
<event>
 5   0  0.1129434E-06  0.3300667E+04  0.7818609E-02  0.8162726E-01
        2   -1    0    0  501    0  0.00000000000E+00  0.00000000000E+00  0.27237883537E+04  0.27237883537E+04  0.25500000920E-02 0.  1.
       -2   -1    0    0    0  501  0.00000000000E+00  0.00000000000E+00 -0.99993107312E+03  0.99993107313E+03  0.25500000920E-02 0. -1.
    10030    2    1    2    0    0  0.00000000000E+00  0.00000000000E+00  0.17238572805E+04  0.37237194268E+04  0.33006669698E+04 0.  0.
        3    1    3    3  502    0 -0.49026427225E+03 -0.39554664433E+03 -0.85896216731E+03  0.10651911657E+04  0.10100000352E+00 0. -1.
       -3    1    3    3    0  502  0.49026427225E+03  0.39554664433E+03  0.25828194478E+04  0.26585282611E+04  0.10100000352E+00 0.  1.
</event>
<event>
 5   0  0.1116462E-06  0.3317677E+04  0.7818609E-02  0.8158412E-01
        2   -1    0    0  501    0  0.00000000000E+00  0.00000000000E+00  0.18680766308E+04  0.18680766308E+04  0.25500000920E-02 0. -1.
       -2   -1    0    0    0  501  0.00000000000E+00  0.00000000000E+00 -0.14730364858E+04  0.14730364858E+04  0.25500000920E-02 0.  1.
    10030    2    1    2    0    0  0.00000000000E+00  0.00000000000E+00  0.39504014503E+03  0.33411131166E+04  0.33176769195E+04 0.  0.
        1    1    3    3  502    0  0.16440037722E+04 -0.16416969842E+03  0.47995842581E+02  0.16528773983E+04  0.50400001928E-02 0. -1.
       -1    1    3    3    0  502 -0.16440037722E+04  0.16416969842E+03  0.34704430245E+03  0.16882357184E+04  0.50400001928E-02 0.  1.
</event>
<event>
 5   0  0.1129434E-06  0.3287138E+04  0.7818609E-02  0.8166176E-01
       -2   -1    0    0    0  501  0.00000000000E+00  0.00000000000E+00  0.11602351638E+04  0.11602351638E+04  0.25500000920E-02 0.  1.
        2   -1    0    0  501    0  0.00000000000E+00  0.00000000000E+00 -0.23282510944E+04  0.23282510944E+04  0.25500000920E-02 0. -1.
    10030    2    1    2    0    0  0.00000000000E+00  0.00000000000E+00 -0.11680159305E+04  0.34884862582E+04  0.32871378370E+04 0.  0.
        3    1    3    3  502    0  0.20028932685E+03 -0.80180394499E+03  0.92368671627E+03  0.12394363802E+04  0.10100000352E+00 0.  1.
       -3    1    3    3    0  502 -0.20028932685E+03  0.80180394499E+03 -0.20917026468E+04  0.22490498779E+04  0.10100000352E+00 0. -1.
</event>
<event>
 5   0  0.3674967E-07  0.3092698E+04  0.7818609E-02  0.8217745E-01
       -1   -1    0    0    0  501  0.00000000000E+00  0.00000000000E+00  0.71568981173E+03  0.71568981174E+03  0.50400001928E-02 0. -1.
        1   -1    0    0  501    0  0.00000000000E+00  0.00000000000E+00 -0.33411063557E+04  0.33411063557E+04  0.50400001928E-02 0.  1.
    10030    2    1    2    0    0  0.00000000000E+00  0.00000000000E+00 -0.26254165440E+04  0.40567961674E+04  0.30926983550E+04 0.  0.
        2    1    3    3  502    0  0.66171757299E+03  0.54289773492E+03 -0.30020396223E+04  0.31216742288E+04  0.25500000920E-02 0.  1.
       -2    1    3    3    0  502 -0.66171757299E+03 -0.54289773492E+03  0.37662307833E+03  0.93512193863E+03  0.25500000920E-02 0. -1.
</event>
<event>
 5   0  0.1120545E-06  0.3284019E+04  0.7818609E-02  0.8166974E-01
       -2   -1    0    0    0  501  0.00000000000E+00  0.00000000000E+00  0.12051196105E+04  0.12051196105E+04  0.25500000920E-02 0. -1.
        2   -1    0    0  501    0  0.00000000000E+00  0.00000000000E+00 -0.22372843293E+04  0.22372843293E+04  0.25500000920E-02 0.  1.
    10030    2    1    2    0    0  0.00000000000E+00  0.00000000000E+00 -0.10321647188E+04  0.34424039398E+04  0.32840190131E+04 0.  0.
        4    1    3    3  502    0  0.92544261619E+03 -0.11902082871E+04 -0.11979581823E+04  0.19256544918E+04  0.12699999809E+01 0.  1.
       -4    1    3    3    0  502 -0.92544261619E+03  0.11902082871E+04  0.16579346351E+03  0.15167494480E+04  0.12699999809E+01 0. -1.
</event>
<event>
 5   0  0.3796529E-07  0.3308193E+04  0.7818609E-02  0.8160814E-01
        1   -1    0    0  501    0  0.00000000000E+00  0.00000000000E+00  0.13054785654E+04  0.13054785654E+04  0.50400001928E-02 0. -1.
       -1   -1    0    0    0  501  0.00000000000E+00  0.00000000000E+00 -0.20958104123E+04  0.20958104123E+04  0.50400001928E-02 0.  1.
    10030    2    1    2    0    0  0.00000000000E+00  0.00000000000E+00 -0.79033184688E+03  0.34012889777E+04  0.33081932050E+04 0.  0.
        5    1    3    3  502    0  0.11552743406E+03 -0.15207628179E+04  0.26312323848E+03  0.15476828051E+04  0.46999998093E+01 0. -1.
       -5    1    3    3    0  502 -0.11552743406E+03  0.15207628179E+04 -0.10534550854E+04  0.18536061727E+04  0.46999998093E+01 0.  1.
</event>
<event>
 5   0  0.3674967E-07  0.3283090E+04  0.7818609E-02  0.8167211E-01
        1   -1    0    0  501    0  0.00000000000E+00  0.00000000000E+00  0.19391214853E+04  0.19391214853E+04  0.50400001928E-02 0. -1.
       -1   -1    0    0    0  501  0.00000000000E+00  0.00000000000E+00 -0.13896347374E+04  0.13896347374E+04  0.50400001928E-02 0.  1.
    10030    2    1    2    0    0  0.00000000000E+00  0.00000000000E+00  0.54948674789E+03  0.33287562227E+04  0.32830903589E+04 0.  0.
        2    1    3    3  502    0 -0.12420065356E+04  0.10224251735E+03 -0.80859253082E+03  0.14855489381E+04  0.25500000920E-02 0.  1.
       -2    1    3    3    0  502  0.12420065356E+04 -0.10224251735E+03  0.13580792787E+04  0.18432072846E+04  0.25500000920E-02 0. -1.
</event>
<event>
 5   0  0.3674967E-07  0.3342016E+04  0.7818609E-02  0.8152286E-01
       -1   -1    0    0    0  501  0.00000000000E+00  0.00000000000E+00  0.11873661010E+04  0.11873661010E+04  0.50400001928E-02 0. -1.
        1   -1    0    0  501    0  0.00000000000E+00  0.00000000000E+00 -0.23516490740E+04  0.23516490740E+04  0.50400001928E-02 0.  1.
    10030    2    1    2    0    0  0.00000000000E+00  0.00000000000E+00 -0.11642829731E+04  0.35390151750E+04  0.33420163925E+04 0.  0.
        2    1    3    3  502    0  0.87733821053E+03 -0.48133559014E+03 -0.19992559239E+04  0.22357170070E+04  0.25500000920E-02 0.  1.
       -2    1    3    3    0  502 -0.87733821053E+03  0.48133559014E+03  0.83497295088E+03  0.13032981680E+04  0.25500000920E-02 0. -1.
</event>
<event>
 5   0  0.3749685E-07  0.3304571E+04  0.7818609E-02  0.8161733E-01
       -1   -1    0    0    0  501  0.00000000000E+00  0.00000000000E+00  0.12239179752E+04  0.12239179752E+04  0.50400001928E-02 0.  1.
        1   -1    0    0  501    0  0.00000000000E+00  0.00000000000E+00 -0.22305804129E+04  0.22305804129E+04  0.50400001928E-02 0. -1.
    10030    2    1    2    0    0  0.00000000000E+00  0.00000000000E+00 -0.10066624376E+04  0.34544983881E+04  0.33045710539E+04 0.  0.
        3    1    3    3  502    0 -0.47512682323E+03 -0.14325828912E+04 -0.12061495226E+04  0.19320548438E+04  0.10100000352E+00 0. -1.
       -3    1    3    3    0  502  0.47512682323E+03  0.14325828912E+04  0.19948708493E+03  0.15224435443E+04  0.10100000352E+00 0.  1.
</event>
<event>
 5   0  0.3796529E-07  0.3181932E+04  0.7818609E-02  0.8193605E-01
       -1   -1    0    0    0  501  0.00000000000E+00  0.00000000000E+00  0.18236345288E+04  0.18236345288E+04  0.50400001928E-02 0.  1.
        1   -1    0    0  501    0  0.00000000000E+00  0.00000000000E+00 -0.13879826613E+04  0.13879826613E+04  0.50400001928E-02 0. -1.
    10030    2    1    2    0    0  0.00000000000E+00  0.00000000000E+00  0.43565186744E+03  0.32116171901E+04  0.31819321844E+04 0.  0.
        5    1    3    3  502    0 -0.88965226287E+03  0.11487217514E+04  0.87203029719E+03  0.16945506013E+04  0.46999998093E+01 0.  1.
       -5    1    3    3    0  502  0.88965226287E+03 -0.11487217514E+04 -0.43637842975E+03  0.15170665889E+04  0.46999998093E+01 0. -1.
</event>
<event>
 5   0  0.1146799E-06  0.3340472E+04  0.7818609E-02  0.8152673E-01
       -2   -1    0    0    0  501  0.00000000000E+00  0.00000000000E+00  0.16141984903E+04  0.16141984903E+04  0.25500000920E-02 0. -1.
        2   -1    0    0  501    0  0.00000000000E+00  0.00000000000E+00 -0.17282185253E+04  0.17282185253E+04  0.25500000920E-02 0.  1.
    10030    2    1    2    0    0  0.00000000000E+00  0.00000000000E+00 -0.11402003496E+03  0.33424170156E+04  0.33404716640E+04 0.  0.
        5    1    3    3  502    0 -0.13427296761E+04 -0.87100527465E+03 -0.53487842350E+03  0.16875100561E+04  0.46999998093E+01 0.  1.
       -5    1    3    3    0  502  0.13427296761E+04  0.87100527465E+03  0.42085838854E+03  0.16549069595E+04  0.46999998093E+01 0. -1.
</event>
<event>
 5   0  0.3749685E-07  0.3262849E+04  0.7818609E-02  0.8172413E-01
       -1   -1    0    0    0  501  0.00000000000E+00  0.00000000000E+00  0.12276641762E+04  0.12276641762E+04  0.50400001928E-02 0.  1.
        1   -1    0    0  501    0  0.00000000000E+00  0.00000000000E+00 -0.21679753130E+04  0.21679753130E+04  0.50400001928E-02 0. -1.
    10030    2    1    2    0    0  0.00000000000E+00  0.00000000000E+00 -0.94031113685E+03  0.33956394892E+04  0.32628488329E+04 0.  0.
        3    1    3    3  502    0  0.11930101503E+04  0.11119973936E+04 -0.42681710591E+03  0.16858185769E+04  0.10100000352E+00 0.  1.
       -3    1    3    3    0  502 -0.11930101503E+04 -0.11119973936E+04 -0.51349403094E+03  0.17098209123E+04  0.10100000352E+00 0. -1.
</event>
<event>
 5   0  0.3796529E-07  0.3207976E+04  0.7818609E-02  0.8186714E-01
       -1   -1    0    0    0  501  0.00000000000E+00  0.00000000000E+00  0.15276326674E+04  0.15276326674E+04  0.50400001928E-02 0.  1.
        1   -1    0    0  501    0  0.00000000000E+00  0.00000000000E+00 -0.16841602322E+04  0.16841602322E+04  0.50400001928E-02 0. -1.
    10030    2    1    2    0    0  0.00000000000E+00  0.00000000000E+00 -0.15652756480E+03  0.32117928996E+04  0.32079764263E+04 0.  0.
        5    1    3    3  502    0 -0.11110407122E+04  0.92363597262E+03 -0.77568508733E+03  0.16398854590E+04  0.46999998093E+01 0.  1.
       -5    1    3    3    0  502  0.11110407122E+04 -0.92363597262E+03  0.61915752254E+03  0.15719074406E+04  0.46999998093E+01 0. -1.
</event>
<event>
 5   0  0.3709747E-07  0.3247254E+04  0.7818609E-02  0.8176448E-01
        1   -1    0    0  501    0  0.00000000000E+00  0.00000000000E+00  0.31845226401E+04  0.31845226401E+04  0.50400001928E-02 0.  1.
       -1   -1    0    0    0  501  0.00000000000E+00  0.00000000000E+00 -0.82780515003E+03  0.82780515004E+03  0.50400001928E-02 0. -1.
    10030    2    1    2    0    0  0.00000000000E+00  0.00000000000E+00  0.23567174900E+04  0.40123277901E+04  0.32472537578E+04 0.  0.
        4    1    3    3  502    0  0.20689856323E+03 -0.46016877671E+03  0.30852003401E+04  0.31261837870E+04  0.12699999809E+01 0.  1.
       -4    1    3    3    0  502 -0.20689856323E+03  0.46016877671E+03 -0.72848285007E+03  0.88614400312E+03  0.12699999809E+01 0. -1.
</event>
<event>
 5   0  0.3674967E-07  0.3300383E+04  0.7818609E-02  0.8162798E-01
        1   -1    0    0  501    0  0.00000000000E+00  0.00000000000E+00  0.17103083415E+04  0.17103083415E+04  0.50400001928E-02 0. -1.
       -1   -1    0    0    0  501  0.00000000000E+00  0.00000000000E+00 -0.15921878919E+04  0.15921878919E+04  0.50400001928E-02 0.  1.
    10030    2    1    2    0    0  0.00000000000E+00  0.00000000000E+00  0.11812044959E+03  0.33024962334E+04  0.33003831491E+04 0.  0.
        2    1    3    3  502    0 -0.39284279969E+03 -0.13804929884E+04 -0.75573740899E+03  0.16221052332E+04  0.25500000920E-02 0.  1.
       -2    1    3    3    0  502  0.39284279969E+03  0.13804929884E+04  0.87385785858E+03  0.16803910001E+04  0.25500000920E-02 0. -1.
</event>
<event>
 5   0  0.1126221E-06  0.3244771E+04  0.7818609E-02  0.8177092E-01
        2   -1    0    0  501    0  0.00000000000E+00  0.00000000000E+00  0.21028394402E+04  0.21028394402E+04  0.25500000920E-02 0.  1.
       -2   -1    0    0    0  501  0.00000000000E+00  0.00000000000E+00 -0.12517053981E+04  0.12517053981E+04  0.25500000920E-02 0. -1.
    10030    2    1    2    0    0  0.00000000000E+00  0.00000000000E+00  0.85113404205E+03  0.33545448383E+04  0.32447714734E+04 0.  0.
        2    1    3    3  502    0 -0.66159485966E+01 -0.14484812294E+04  0.11810376905E+04  0.18689546996E+04  0.25500000920E-02 0.  1.
       -2    1    3    3    0  502  0.66159485966E+01  0.14484812294E+04 -0.32990364842E+03  0.14855901387E+04  0.25500000920E-02 0. -1.
</event>
<event>
 5   0  0.1129434E-06  0.3300472E+04  0.7818609E-02  0.8162775E-01
        2   -1    0    0  501    0  0.00000000000E+00  0.00000000000E+00  0.19482248765E+04  0.19482248765E+04  0.25500000920E-02 0. -1.
       -2   -1    0    0    0  501  0.00000000000E+00  0.00000000000E+00 -0.13978255222E+04  0.13978255222E+04  0.25500000920E-02 0.  1.
    10030    2    1    2    0    0  0.00000000000E+00  0.00000000000E+00  0.55039935431E+03  0.33460503987E+04  0.33004717574E+04 0.  0.
        3    1    3    3  502    0 -0.26760114896E+03  0.30012192889E+03  0.18978004634E+04  0.19399304514E+04  0.10100000352E+00 0. -1.
       -3    1    3    3    0  502  0.26760114896E+03 -0.30012192889E+03 -0.13474011091E+04  0.14061199473E+04  0.10100000352E+00 0.  1.
</event>
<event>
 5   0  0.1120545E-06  0.3288023E+04  0.7818609E-02  0.8165950E-01
        2   -1    0    0  501    0  0.00000000000E+00  0.00000000000E+00  0.18166029939E+04  0.18166029939E+04  0.25500000920E-02 0. -1.
       -2   -1    0    0    0  501  0.00000000000E+00  0.00000000000E+00 -0.14878179298E+04  0.14878179298E+04  0.25500000920E-02 0.  1.
    10030    2    1    2    0    0  0.00000000000E+00  0.00000000000E+00  0.32878506411E+03  0.33044209237E+04  0.32880234219E+04 0.  0.
        4    1    3    3  502    0 -0.11148584427E+04 -0.11587519446E+04 -0.17959718867E+03  0.16179839862E+04  0.12699999809E+01 0.  1.
       -4    1    3    3    0  502  0.11148584427E+04  0.11587519446E+04  0.50838225278E+03  0.16864369375E+04  0.12699999809E+01 0. -1.
</event>
<event>
 5   0  0.3796529E-07  0.3354942E+04  0.7818609E-02  0.8149054E-01
        1   -1    0    0  501    0  0.00000000000E+00  0.00000000000E+00  0.20939606478E+04  0.20939606478E+04  0.50400001928E-02 0.  1.
       -1   -1    0    0    0  501  0.00000000000E+00  0.00000000000E+00 -0.13438216915E+04  0.13438216915E+04  0.50400001928E-02 0. -1.
    10030    2    1    2    0    0  0.00000000000E+00  0.00000000000E+00  0.75013895626E+03  0.34377823393E+04  0.33549424672E+04 0.  0.
        5    1    3    3  502    0  0.29646256744E+03 -0.95194956066E+02 -0.13139434145E+04  0.13503412606E+04  0.46999998093E+01 0. -1.
       -5    1    3    3    0  502 -0.29646256744E+03  0.95194956066E+02  0.20640823708E+04  0.20874410787E+04  0.46999998093E+01 0.  1.
</event>
<event>
 5   0  0.1116462E-06  0.3216587E+04  0.7818609E-02  0.8184450E-01
        2   -1    0    0  501    0  0.00000000000E+00  0.00000000000E+00  0.15390566084E+04  0.15390566084E+04  0.25500000920E-02 0.  1.
       -2   -1    0    0    0  501  0.00000000000E+00  0.00000000000E+00 -0.16806450521E+04  0.16806450521E+04  0.25500000920E-02 0. -1.
    10030    2    1    2    0    0  0.00000000000E+00  0.00000000000E+00 -0.14158844364E+03  0.32197016605E+04  0.32165869327E+04 0.  0.
        1    1    3    3  502    0 -0.10611328834E+04 -0.68543860012E+03 -0.10671368035E+04  0.16536656337E+04  0.50400001928E-02 0. -1.
       -1    1    3    3    0  502  0.10611328834E+04  0.68543860012E+03  0.92554835988E+03  0.15660360268E+04  0.50400001928E-02 0.  1.
</event>
<event>
 5   0  0.1146799E-06  0.3314316E+04  0.7818609E-02  0.8159262E-01
        2   -1    0    0  501    0  0.00000000000E+00  0.00000000000E+00  0.24475001767E+04  0.24475001767E+04  0.25500000920E-02 0. -1.
       -2   -1    0    0    0  501  0.00000000000E+00  0.00000000000E+00 -0.11220318005E+04  0.11220318005E+04  0.25500000920E-02 0.  1.
    10030    2    1    2    0    0  0.00000000000E+00  0.00000000000E+00  0.13254683762E+04  0.35695319772E+04  0.33143162372E+04 0.  0.
        5    1    3    3  502    0 -0.41135849433E+03  0.12138004120E+04 -0.46869620118E+03  0.13646338227E+04  0.46999998093E+01 0.  1.
       -5    1    3    3    0  502  0.41135849433E+03 -0.12138004120E+04  0.17941645773E+04  0.22048981545E+04  0.46999998093E+01 0. -1.
</event>
<event>
 5   0  0.3709747E-07  0.3288532E+04  0.7818609E-02  0.8165820E-01
        1   -1    0    0  501    0  0.00000000000E+00  0.00000000000E+00  0.14527798552E+04  0.14527798552E+04  0.50400001928E-02 0.  1.
       -1   -1    0    0    0  501  0.00000000000E+00  0.00000000000E+00 -0.18609908285E+04  0.18609908285E+04  0.50400001928E-02 0. -1.
    10030    2    1    2    0    0  0.00000000000E+00  0.00000000000E+00 -0.40821097328E+03  0.33137706838E+04  0.32885315790E+04 0.  0.
        4    1    3    3  502    0  0.88137613027E+03  0.39765209517E+03  0.11360101683E+04  0.14918015241E+04  0.12699999809E+01 0.  1.
       -4    1    3    3    0  502 -0.88137613027E+03 -0.39765209517E+03 -0.15442211416E+04  0.18219691597E+04  0.12699999809E+01 0. -1.
</event>
<event>
 5   0  0.3674967E-07  0.3297908E+04  0.7818609E-02  0.8163428E-01
        1   -1    0    0  501    0  0.00000000000E+00  0.00000000000E+00  0.15654714902E+04  0.15654714903E+04  0.50400001928E-02 0. -1.
       -1   -1    0    0    0  501  0.00000000000E+00  0.00000000000E+00 -0.17368884188E+04  0.17368884188E+04  0.50400001928E-02 0.  1.
    10030    2    1    2    0    0  0.00000000000E+00  0.00000000000E+00 -0.17141692859E+03  0.33023599091E+04  0.32979080044E+04 0.  0.
        2    1    3    3  502    0  0.13019053363E+04  0.60932081333E+03  0.72335496910E+03  0.16091835724E+04  0.25500000920E-02 0. -1.
       -2    1    3    3    0  502 -0.13019053363E+04 -0.60932081333E+03 -0.89477189769E+03  0.16931763367E+04  0.25500000920E-02 0.  1.
</event>
<event>
 5   0  0.3674967E-07  0.3218129E+04  0.7818609E-02  0.8184046E-01
       -1   -1    0    0    0  501  0.00000000000E+00  0.00000000000E+00  0.15215537193E+04  0.15215537193E+04  0.50400001928E-02 0. -1.
        1   -1    0    0  501    0  0.00000000000E+00  0.00000000000E+00 -0.17016082407E+04  0.17016082407E+04  0.50400001928E-02 0.  1.
    10030    2    1    2    0    0  0.00000000000E+00  0.00000000000E+00 -0.18005452147E+03  0.32231619600E+04  0.32181288647E+04 0.  0.
        2    1    3    3  502    0  0.24382883027E+03 -0.73728799359E+03  0.13214469295E+04  0.15327322243E+04  0.25500000920E-02 0. -1.
       -2    1    3    3    0  502 -0.24382883027E+03  0.73728799359E+03 -0.15015014510E+04  0.16904297357E+04  0.25500000920E-02 0.  1.
</event>
<event>
 5   0  0.3796529E-07  0.3286515E+04  0.7818609E-02  0.8166335E-01
        1   -1    0    0  501    0  0.00000000000E+00  0.00000000000E+00  0.16957018121E+04  0.16957018121E+04  0.50400001928E-02 0. -1.
       -1   -1    0    0    0  501  0.00000000000E+00  0.00000000000E+00 -0.15924349382E+04  0.15924349382E+04  0.50400001928E-02 0.  1.
    10030    2    1    2    0    0  0.00000000000E+00  0.00000000000E+00  0.10326687384E+03  0.32881367503E+04  0.32865147560E+04 0.  0.
        5    1    3    3  502    0 -0.14717607900E+04  0.35982347961E+01  0.78287029872E+03  0.16670335224E+04  0.46999998093E+01 0. -1.
       -5    1    3    3    0  502  0.14717607900E+04 -0.35982347961E+01 -0.67960342488E+03  0.16211032279E+04  0.46999998093E+01 0.  1.
</event>
<event>
 5   0  0.3709747E-07  0.3278538E+04  0.7818609E-02  0.8168378E-01
        1   -1    0    0  501    0  0.00000000000E+00  0.00000000000E+00  0.23237189133E+04  0.23237189133E+04  0.50400001928E-02 0. -1.
       -1   -1    0    0    0  501  0.00000000000E+00  0.00000000000E+00 -0.11564231474E+04  0.11564231474E+04  0.50400001928E-02 0.  1.
    10030    2    1    2    0    0  0.00000000000E+00  0.00000000000E+00  0.11672957659E+04  0.34801420607E+04  0.32785376859E+04 0.  0.
        4    1    3    3  502    0  0.88224980291E+02  0.66829670474E+03 -0.10024915883E+04  0.12080542745E+04  0.12699999809E+01 0.  1.
       -4    1    3    3    0  502 -0.88224980291E+02 -0.66829670474E+03  0.21697873542E+04  0.22720877862E+04  0.12699999809E+01 0. -1.
</event>
<event>
 5   0  0.1126221E-06  0.3289338E+04  0.7818609E-02  0.8165614E-01
        2   -1    0    0  501    0  0.00000000000E+00  0.00000000000E+00  0.18865903816E+04  0.18865903816E+04  0.25500000920E-02 0.  1.
       -2   -1    0    0    0  501  0.00000000000E+00  0.00000000000E+00 -0.14337699072E+04  0.14337699072E+04  0.25500000920E-02 0. -1.
    10030    2    1    2    0    0  0.00000000000E+00  0.00000000000E+00  0.45282047449E+03  0.33203602888E+04  0.32893382412E+04 0.  0.
        2    1    3    3  502    0 -0.14327664104E+04 -0.55902801560E+03 -0.36184183240E+03  0.15799561452E+04  0.25500000920E-02 0. -1.
       -2    1    3    3    0  502  0.14327664104E+04  0.55902801560E+03  0.81466230689E+03  0.17404041436E+04  0.25500000920E-02 0.  1.
</event>
<event>
 5   0  0.1126221E-06  0.3291245E+04  0.7818609E-02  0.8165127E-01
       -2   -1    0    0    0  501  0.00000000000E+00  0.00000000000E+00  0.14078796711E+04  0.14078796711E+04  0.25500000920E-02 0.  1.
        2   -1    0    0  501    0  0.00000000000E+00  0.00000000000E+00 -0.19235115101E+04  0.19235115101E+04  0.25500000920E-02 0. -1.
    10030    2    1    2    0    0  0.00000000000E+00  0.00000000000E+00 -0.51563183895E+03  0.33313911812E+04  0.32912445988E+04 0.  0.
        2    1    3    3  502    0  0.79931847248E+03 -0.14215656249E+04 -0.35330504218E+02  0.16312593574E+04  0.25500000920E-02 0.  1.
       -2    1    3    3    0  502 -0.79931847248E+03  0.14215656249E+04 -0.48030133473E+03  0.17001318239E+04  0.25500000920E-02 0. -1.
</event>
<event>
 5   0  0.1129434E-06  0.3442112E+04  0.7818609E-02  0.8127647E-01
       -2   -1    0    0    0  501  0.00000000000E+00  0.00000000000E+00  0.13412286779E+04  0.13412286779E+04  0.25500000920E-02 0.  1.
        2   -1    0    0  501    0  0.00000000000E+00  0.00000000000E+00 -0.22084483549E+04  0.22084483549E+04  0.25500000920E-02 0. -1.
    10030    2    1    2    0    0  0.00000000000E+00  0.00000000000E+00 -0.86721967703E+03  0.35496770328E+04  0.34421122975E+04 0.  0.
        3    1    3    3  502    0 -0.46210589530E+02  0.81384519436E+03  0.11295261016E+04  0.13929496198E+04  0.10100000352E+00 0.  1.
       -3    1    3    3    0  502  0.46210589530E+02 -0.81384519436E+03 -0.19967457787E+04  0.21567274129E+04  0.10100000352E+00 0. -1.
</event>
<event>
 5   0  0.3757406E-07  0.3331950E+04  0.7818609E-02  0.8154813E-01
        1   -1    0    0  501    0  0.00000000000E+00  0.00000000000E+00  0.12894525123E+04  0.12894525123E+04  0.50400001928E-02 0. -1.
       -1   -1    0    0    0  501  0.00000000000E+00  0.00000000000E+00 -0.21524430351E+04  0.21524430351E+04  0.50400001928E-02 0.  1.
    10030    2    1    2    0    0  0.00000000000E+00  0.00000000000E+00 -0.86299052280E+03  0.34418955474E+04  0.33319502272E+04 0.  0.
        1    1    3    3  502    0  0.74779667138E+02  0.16612942891E+04 -0.53470386773E+03  0.17468253891E+04  0.50400001928E-02 0. -1.
       -1    1    3    3    0  502 -0.74779667138E+02 -0.16612942891E+04 -0.32828665507E+03  0.16950701583E+04  0.50400001928E-02 0.  1.
</event>
<event>
 5   0  0.3674967E-07  0.3285551E+04  0.7818609E-02  0.8166582E-01
       -1   -1    0    0    0  501  0.00000000000E+00  0.00000000000E+00  0.15752000485E+04  0.15752000485E+04  0.50400001928E-02 0. -1.
        1   -1    0    0  501    0  0.00000000000E+00  0.00000000000E+00 -0.17132499134E+04  0.17132499134E+04  0.50400001928E-02 0.  1.
    10030    2    1    2    0    0  0.00000000000E+00  0.00000000000E+00 -0.13804986490E+03  0.32884499619E+04  0.32855510020E+04 0.  0.
        2    1    3    3  502    0  0.60271197891E+03  0.14305993110E+04 -0.60693305922E+03  0.16668064844E+04  0.25500000920E-02 0.  1.
       -2    1    3    3    0  502 -0.60271197891E+03 -0.14305993110E+04  0.46888319432E+03  0.16216434775E+04  0.25500000920E-02 0. -1.
</event>
<event>
 5   0  0.3674967E-07  0.3329139E+04  0.7818609E-02  0.8155520E-01
       -1   -1    0    0    0  501  0.00000000000E+00  0.00000000000E+00  0.10640585192E+04  0.10640585192E+04  0.50400001928E-02 0.  1.
        1   -1    0    0  501    0  0.00000000000E+00  0.00000000000E+00 -0.26039849312E+04  0.26039849312E+04  0.50400001928E-02 0. -1.
    10030    2    1    2    0    0  0.00000000000E+00  0.00000000000E+00 -0.15399264120E+04  0.36680434504E+04  0.33291394383E+04 0.  0.
        2    1    3    3  502    0  0.32955911669E+03 -0.99722261673E+03  0.65290731379E+03  0.12366689610E+04  0.25500000920E-02 0.  1.
       -2    1    3    3    0  502 -0.32955911669E+03  0.99722261673E+03 -0.21928337258E+04  0.24313744894E+04  0.25500000920E-02 0. -1.
</event>
<event>
 5   0  0.1129434E-06  0.3293407E+04  0.7818609E-02  0.8164575E-01
        2   -1    0    0  501    0  0.00000000000E+00  0.00000000000E+00  0.20961432230E+04  0.20961432230E+04  0.25500000920E-02 0.  1.
       -2   -1    0    0    0  501  0.00000000000E+00  0.00000000000E+00 -0.12936293743E+04  0.12936293743E+04  0.25500000920E-02 0. -1.
    10030    2    1    2    0    0  0.00000000000E+00  0.00000000000E+00  0.80251384863E+03  0.33897725973E+04  0.32934070177E+04 0.  0.
        3    1    3    3  502    0 -0.55798392943E+02  0.61632864507E+03  0.19719018332E+04  0.20667296169E+04  0.10100000352E+00 0.  1.
       -3    1    3    3    0  502  0.55798392943E+02 -0.61632864507E+03 -0.11693879846E+04  0.13230429804E+04  0.10100000352E+00 0. -1.
</event>
<event>
 5   0  0.1126221E-06  0.3310113E+04  0.7818609E-02  0.8160327E-01
        2   -1    0    0  501    0  0.00000000000E+00  0.00000000000E+00  0.19922190426E+04  0.19922190426E+04  0.25500000920E-02 0.  1.
       -2   -1    0    0    0  501  0.00000000000E+00  0.00000000000E+00 -0.13749555038E+04  0.13749555038E+04  0.25500000920E-02 0. -1.
    10030    2    1    2    0    0  0.00000000000E+00  0.00000000000E+00  0.61726353877E+03  0.33671745464E+04  0.33101133137E+04 0.  0.
        2    1    3    3  502    0  0.86094098046E+03 -0.10265757224E+04  0.12970481210E+04  0.18647817336E+04  0.25500000920E-02 0.  1.
       -2    1    3    3    0  502 -0.86094098046E+03  0.10265757224E+04 -0.67978458225E+03  0.15023928128E+04  0.25500000920E-02 0. -1.
</event>
<event>
 5   0  0.1126221E-06  0.3303052E+04  0.7818609E-02  0.8162119E-01
        2   -1    0    0  501    0  0.00000000000E+00  0.00000000000E+00  0.17171726678E+04  0.17171726678E+04  0.25500000920E-02 0. -1.
       -2   -1    0    0    0  501  0.00000000000E+00  0.00000000000E+00 -0.15883885860E+04  0.15883885860E+04  0.25500000920E-02 0.  1.
    10030    2    1    2    0    0  0.00000000000E+00  0.00000000000E+00  0.12878408178E+03  0.33055612539E+04  0.33030515986E+04 0.  0.
        2    1    3    3  502    0 -0.25028182692E+03 -0.46393073297E+03  0.16307217213E+04  0.17138045542E+04  0.25500000920E-02 0. -1.
       -2    1    3    3    0  502  0.25028182692E+03  0.46393073297E+03 -0.15019376395E+04  0.15917566996E+04  0.25500000920E-02 0.  1.
</event>
<event>
 5   0  0.3709747E-07  0.3292179E+04  0.7818609E-02  0.8164888E-01
        1   -1    0    0  501    0  0.00000000000E+00  0.00000000000E+00  0.17815162367E+04  0.17815162367E+04  0.50400001928E-02 0.  1.
       -1   -1    0    0    0  501  0.00000000000E+00  0.00000000000E+00 -0.15209575285E+04  0.15209575285E+04  0.50400001928E-02 0. -1.
    10030    2    1    2    0    0  0.00000000000E+00  0.00000000000E+00  0.26055870823E+03  0.33024737653E+04  0.32921789334E+04 0.  0.
        4    1    3    3  502    0 -0.91597000384E+03 -0.75247975841E+03  0.12759462317E+04  0.17416277541E+04  0.12699999809E+01 0.  1.
       -4    1    3    3    0  502  0.91597000384E+03  0.75247975841E+03 -0.10153875235E+04  0.15608460111E+04  0.12699999809E+01 0. -1.
</event>
<event>
 5   0  0.1116462E-06  0.3309848E+04  0.7818609E-02  0.8160394E-01
       -2   -1    0    0    0  501  0.00000000000E+00  0.00000000000E+00  0.26078512997E+04  0.26078512997E+04  0.25500000920E-02 0. -1.
        2   -1    0    0  501    0  0.00000000000E+00  0.00000000000E+00 -0.10502033601E+04  0.10502033601E+04  0.25500000920E-02 0.  1.
    10030    2    1    2    0    0  0.00000000000E+00  0.00000000000E+00  0.15576479396E+04  0.36580546598E+04  0.33098484543E+04 0.  0.
        1    1    3    3  502    0 -0.71404175158E+03  0.31947050747E+03  0.23906243127E+04  0.25153531825E+04  0.50400001928E-02 0. -1.
       -1    1    3    3    0  502  0.71404175158E+03 -0.31947050747E+03 -0.83297637306E+03  0.11427014773E+04  0.50400001928E-02 0.  1.
</event>
<event>
 5   0  0.1129434E-06  0.3245464E+04  0.7818609E-02  0.8176912E-01
        2   -1    0    0  501    0  0.00000000000E+00  0.00000000000E+00  0.12057544784E+04  0.12057544784E+04  0.25500000920E-02 0.  1.
       -2   -1    0    0    0  501  0.00000000000E+00  0.00000000000E+00 -0.21839097143E+04  0.21839097143E+04  0.25500000920E-02 0. -1.
    10030    2    1    2    0    0  0.00000000000E+00  0.00000000000E+00 -0.97815523593E+03  0.33896641927E+04  0.32454638611E+04 0.  0.
        3    1    3    3  502    0 -0.11657206401E+04 -0.97344023471E+03 -0.10861128063E+04  0.18671185124E+04  0.10100000352E+00 0.  1.
       -3    1    3    3    0  502  0.11657206401E+04  0.97344023471E+03  0.10795757037E+03  0.15225456803E+04  0.10100000352E+00 0. -1.
</event>
<event>
 5   0  0.3674967E-07  0.3300027E+04  0.7818609E-02  0.8162888E-01
       -1   -1    0    0    0  501  0.00000000000E+00  0.00000000000E+00  0.91436531631E+03  0.91436531632E+03  0.50400001928E-02 0. -1.
        1   -1    0    0  501    0  0.00000000000E+00  0.00000000000E+00 -0.29775244305E+04  0.29775244305E+04  0.50400001928E-02 0.  1.
    10030    2    1    2    0    0  0.00000000000E+00  0.00000000000E+00 -0.20631591142E+04  0.38918897468E+04  0.33000273137E+04 0.  0.
        2    1    3    3  502    0  0.66292339796E+03  0.12748288334E+04 -0.19881552339E+04  0.24530424415E+04  0.25500000920E-02 0.  1.
       -2    1    3    3    0  502 -0.66292339796E+03 -0.12748288334E+04 -0.75003880320E+02  0.14388473053E+04  0.25500000920E-02 0. -1.
</event>
<event>
 5   0  0.1129434E-06  0.3285203E+04  0.7818609E-02  0.8166671E-01
       -2   -1    0    0    0  501  0.00000000000E+00  0.00000000000E+00  0.13099416115E+04  0.13099416115E+04  0.25500000920E-02 0.  1.
        2   -1    0    0  501    0  0.00000000000E+00  0.00000000000E+00 -0.20597406535E+04  0.20597406535E+04  0.25500000920E-02 0. -1.
    10030    2    1    2    0    0  0.00000000000E+00  0.00000000000E+00 -0.74979904197E+03  0.33696822650E+04  0.32852031846E+04 0.  0.
        3    1    3    3  502    0  0.67154626159E+03  0.11390229521E+04  0.62473453272E+03  0.14624092838E+04  0.10100000352E+00 0.  1.
       -3    1    3    3    0  502 -0.67154626159E+03 -0.11390229521E+04 -0.13745335747E+04  0.19072729812E+04  0.10100000352E+00 0. -1.
</event>
<event>
 5   0  0.1126221E-06  0.3323688E+04  0.7818609E-02  0.8156894E-01
        2   -1    0    0  501    0  0.00000000000E+00  0.00000000000E+00  0.13022499125E+04  0.13022499125E+04  0.25500000920E-02 0. -1.
       -2   -1    0    0    0  501  0.00000000000E+00  0.00000000000E+00 -0.21207332541E+04  0.21207332541E+04  0.25500000920E-02 0.  1.
    10030    2    1    2    0    0  0.00000000000E+00  0.00000000000E+00 -0.81848334158E+03  0.34229831666E+04  0.33236875271E+04 0.  0.
        2    1    3    3  502    0 -0.37996732028E+03 -0.49536122606E+03  0.11768886883E+04  0.13322255415E+04  0.25500000920E-02 0. -1.
       -2    1    3    3    0  502  0.37996732028E+03  0.49536122606E+03 -0.19953720299E+04  0.20907576250E+04  0.25500000920E-02 0.  1.
</event>
<event>
 5   0  0.1146799E-06  0.3284117E+04  0.7818609E-02  0.8166949E-01
        2   -1    0    0  501    0  0.00000000000E+00  0.00000000000E+00  0.22915504906E+04  0.22915504906E+04  0.25500000920E-02 0. -1.
       -2   -1    0    0    0  501  0.00000000000E+00  0.00000000000E+00 -0.11766512561E+04  0.11766512561E+04  0.25500000920E-02 0.  1.
    10030    2    1    2    0    0  0.00000000000E+00  0.00000000000E+00  0.11148992345E+04  0.34682017467E+04  0.32841167842E+04 0.  0.
        5    1    3    3  502    0 -0.11969888624E+04 -0.40151589155E+03  0.16662230715E+04  0.20905307369E+04  0.46999998093E+01 0. -1.
       -5    1    3    3    0  502  0.11969888624E+04  0.40151589155E+03 -0.55132383703E+03  0.13776710098E+04  0.46999998093E+01 0.  1.
</event>
<event>
 5   0  0.3796529E-07  0.3297609E+04  0.7818609E-02  0.8163504E-01
       -1   -1    0    0    0  501  0.00000000000E+00  0.00000000000E+00  0.12479627514E+04  0.12479627515E+04  0.50400001928E-02 0. -1.
        1   -1    0    0  501    0  0.00000000000E+00  0.00000000000E+00 -0.21783954249E+04  0.21783954249E+04  0.50400001928E-02 0.  1.
    10030    2    1    2    0    0  0.00000000000E+00  0.00000000000E+00 -0.93043267342E+03  0.34263581763E+04  0.32976090418E+04 0.  0.
        5    1    3    3  502    0  0.50693058821E+03 -0.16626424093E+03  0.11557948673E+04  0.12729910779E+04  0.46999998093E+01 0. -1.
       -5    1    3    3    0  502 -0.50693058821E+03  0.16626424093E+03 -0.20862275407E+04  0.21533670985E+04  0.46999998093E+01 0.  1.
</event>
<event>
 5   0  0.3796529E-07  0.3311811E+04  0.7818609E-02  0.8159896E-01
       -1   -1    0    0    0  501  0.00000000000E+00  0.00000000000E+00  0.14181875789E+04  0.14181875789E+04  0.50400001928E-02 0.  1.
        1   -1    0    0  501    0  0.00000000000E+00  0.00000000000E+00 -0.19334703405E+04  0.19334703405E+04  0.50400001928E-02 0. -1.
    10030    2    1    2    0    0  0.00000000000E+00  0.00000000000E+00 -0.51528276158E+03  0.33516579194E+04  0.33118113600E+04 0.  0.
        5    1    3    3  502    0  0.75767314135E+03 -0.14702299788E+04 -0.17695286888E+03  0.16634239350E+04  0.46999998093E+01 0.  1.
       -5    1    3    3    0  502 -0.75767314135E+03  0.14702299788E+04 -0.33832989270E+03  0.16882339844E+04  0.46999998093E+01 0. -1.
</event>
<event>
 5   0  0.1116462E-06  0.3300937E+04  0.7818609E-02  0.8162657E-01
       -2   -1    0    0    0  501  0.00000000000E+00  0.00000000000E+00  0.14065701814E+04  0.14065701814E+04  0.25500000920E-02 0. -1.
        2   -1    0    0  501    0  0.00000000000E+00  0.00000000000E+00 -0.19366586267E+04  0.19366586267E+04  0.25500000920E-02 0.  1.
    10030    2    1    2    0    0  0.00000000000E+00  0.00000000000E+00 -0.53008844526E+03  0.33432288081E+04  0.33009370038E+04 0.  0.
        1    1    3    3  502    0  0.13998680964E+04 -0.23671841090E+03  0.58739221276E+03  0.15364556307E+04  0.50400001928E-02 0. -1.
       -1    1    3    3    0  502 -0.13998680964E+04  0.23671841090E+03 -0.11174806580E+04  0.18067731774E+04  0.50400001928E-02 0.  1.
</event>
<event>
 5   0  0.3709747E-07  0.3298429E+04  0.7818609E-02  0.8163295E-01
       -1   -1    0    0    0  501  0.00000000000E+00  0.00000000000E+00  0.18365497132E+04  0.18365497133E+04  0.50400001928E-02 0. -1.
        1   -1    0    0  501    0  0.00000000000E+00  0.00000000000E+00 -0.14809884954E+04  0.14809884954E+04  0.50400001928E-02 0.  1.
    10030    2    1    2    0    0  0.00000000000E+00  0.00000000000E+00  0.35556121784E+03  0.33175382087E+04  0.32984293211E+04 0.  0.
        4    1    3    3  502    0  0.66085964744E+02  0.10809507223E+04  0.14288054056E+04  0.17928492180E+04  0.12699999809E+01 0. -1.
       -4    1    3    3    0  502 -0.66085964744E+02 -0.10809507223E+04 -0.10732441877E+04  0.15246889906E+04  0.12699999809E+01 0.  1.
</event>
<event>
 5   0  0.1126221E-06  0.3319541E+04  0.7818609E-02  0.8157941E-01
        2   -1    0    0  501    0  0.00000000000E+00  0.00000000000E+00  0.24286820513E+04  0.24286820513E+04  0.25500000920E-02 0. -1.
       -2   -1    0    0    0  501  0.00000000000E+00  0.00000000000E+00 -0.11342933053E+04  0.11342933053E+04  0.25500000920E-02 0.  1.
    10030    2    1    2    0    0  0.00000000000E+00  0.00000000000E+00  0.12943887460E+04  0.35629753566E+04  0.33195408065E+04 0.  0.
        2    1    3    3  502    0  0.22198679515E+03  0.92355040012E+03  0.21081173322E+04  0.23122245058E+04  0.25500000920E-02 0. -1.
       -2    1    3    3    0  502 -0.22198679515E+03 -0.92355040012E+03 -0.81372858623E+03  0.12507508508E+04  0.25500000920E-02 0.  1.
</event>
<event>
 5   0  0.3757406E-07  0.3291625E+04  0.7818609E-02  0.8165030E-01
        1   -1    0    0  501    0  0.00000000000E+00  0.00000000000E+00  0.18378840914E+04  0.18378840914E+04  0.50400001928E-02 0. -1.
       -1   -1    0    0    0  501  0.00000000000E+00  0.00000000000E+00 -0.14738136072E+04  0.14738136073E+04  0.50400001928E-02 0.  1.
    10030    2    1    2    0    0  0.00000000000E+00  0.00000000000E+00  0.36407048416E+03  0.33116976987E+04  0.32916248769E+04 0.  0.
        1    1    3    3  502    0  0.13269008287E+04 -0.85646336906E+03 -0.28393406345E+03  0.16046226548E+04  0.50400001928E-02 0.  1.
       -1    1    3    3    0  502 -0.13269008287E+04  0.85646336906E+03  0.64800454761E+03  0.17070750439E+04  0.50400001928E-02 0. -1.
</event>
<event>
 5   0  0.1120545E-06  0.3302607E+04  0.7818609E-02  0.8162232E-01
       -2   -1    0    0    0  501  0.00000000000E+00  0.00000000000E+00  0.15167147602E+04  0.15167147602E+04  0.25500000920E-02 0. -1.
        2   -1    0    0  501    0  0.00000000000E+00  0.00000000000E+00 -0.17978354939E+04  0.17978354939E+04  0.25500000920E-02 0.  1.
    10030    2    1    2    0    0  0.00000000000E+00  0.00000000000E+00 -0.28112073373E+03  0.33145502541E+04  0.33026072306E+04 0.  0.
        4    1    3    3  502    0 -0.83063739186E+03 -0.57141755827E+03 -0.14530838062E+04  0.17685956755E+04  0.12699999809E+01 0.  1.
       -4    1    3    3    0  502  0.83063739186E+03  0.57141755827E+03  0.11719630725E+04  0.15459545785E+04  0.12699999809E+01 0. -1.
</event>
<event>
 5   0  0.3709747E-07  0.3275337E+04  0.7818609E-02  0.8169199E-01
       -1   -1    0    0    0  501  0.00000000000E+00  0.00000000000E+00  0.19200778395E+04  0.19200778395E+04  0.50400001928E-02 0. -1.
        1   -1    0    0  501    0  0.00000000000E+00  0.00000000000E+00 -0.13967967356E+04  0.13967967356E+04  0.50400001928E-02 0.  1.
    10030    2    1    2    0    0  0.00000000000E+00  0.00000000000E+00  0.52328110393E+03  0.33168745750E+04  0.32753372090E+04 0.  0.
        4    1    3    3  502    0  0.17781568070E+02 -0.15204723099E+04 -0.35418711213E+03  0.15612822783E+04  0.12699999809E+01 0. -1.
       -4    1    3    3    0  502 -0.17781568070E+02  0.15204723099E+04  0.87746821606E+03  0.17555922967E+04  0.12699999809E+01 0.  1.
</event>
<event>
 5   0  0.3674967E-07  0.3299415E+04  0.7818609E-02  0.8163044E-01
        1   -1    0    0  501    0  0.00000000000E+00  0.00000000000E+00  0.25589833995E+04  0.25589833995E+04  0.50400001928E-02 0. -1.
       -1   -1    0    0    0  501  0.00000000000E+00  0.00000000000E+00 -0.10635218482E+04  0.10635218482E+04  0.50400001928E-02 0.  1.
    10030    2    1    2    0    0  0.00000000000E+00  0.00000000000E+00  0.14954615513E+04  0.36225052477E+04  0.32994149509E+04 0.  0.
        2    1    3    3  502    0 -0.64342284024E+03 -0.45441372996E+03 -0.84370924593E+03  0.11542660356E+04  0.25500000920E-02 0.  1.
       -2    1    3    3    0  502  0.64342284024E+03  0.45441372996E+03  0.23391707972E+04  0.24682392120E+04  0.25500000920E-02 0. -1.
</event>
<event>
 5   0  0.3709747E-07  0.3283036E+04  0.7818609E-02  0.8167225E-01
       -1   -1    0    0    0  501  0.00000000000E+00  0.00000000000E+00  0.23363044788E+04  0.23363044788E+04  0.50400001928E-02 0.  1.
        1   -1    0    0  501    0  0.00000000000E+00  0.00000000000E+00 -0.11533518882E+04  0.11533518882E+04  0.50400001928E-02 0. -1.
    10030    2    1    2    0    0  0.00000000000E+00  0.00000000000E+00  0.11829525906E+04  0.34896563670E+04  0.32830359011E+04 0.  0.
        4    1    3    3  502    0  0.84461455526E+03  0.10934564509E+04 -0.35062235968E+03  0.14254677860E+04  0.12699999809E+01 0. -1.
       -4    1    3    3    0  502 -0.84461455526E+03 -0.10934564509E+04  0.15335749502E+04  0.20641885810E+04  0.12699999809E+01 0.  1.
</event>
<event>
 5   0  0.3796529E-07  0.3318337E+04  0.7818609E-02  0.8158245E-01
        1   -1    0    0  501    0  0.00000000000E+00  0.00000000000E+00  0.25563657151E+04  0.25563657151E+04  0.50400001928E-02 0.  1.
       -1   -1    0    0    0  501  0.00000000000E+00  0.00000000000E+00 -0.10768566077E+04  0.10768566077E+04  0.50400001928E-02 0. -1.
    10030    2    1    2    0    0  0.00000000000E+00  0.00000000000E+00  0.14795091074E+04  0.36332223228E+04  0.33183365182E+04 0.  0.
        5    1    3    3  502    0  0.84335937555E+03  0.88948534757E+03 -0.48455773796E+03  0.13180506482E+04  0.46999998093E+01 0.  1.
       -5    1    3    3    0  502 -0.84335937555E+03 -0.88948534757E+03  0.19640668454E+04  0.23151716746E+04  0.46999998093E+01 0. -1.
</event>
<event>
 5   0  0.1116462E-06  0.3314848E+04  0.7818609E-02  0.8159128E-01
       -2   -1    0    0    0  501  0.00000000000E+00  0.00000000000E+00  0.15536338691E+04  0.15536338691E+04  0.25500000920E-02 0. -1.
        2   -1    0    0  501    0  0.00000000000E+00  0.00000000000E+00 -0.17681473101E+04  0.17681473101E+04  0.25500000920E-02 0.  1.
    10030    2    1    2    0    0  0.00000000000E+00  0.00000000000E+00 -0.21451344099E+03  0.33217811792E+04  0.33148475358E+04 0.  0.
        1    1    3    3  502    0 -0.63445212164E+03  0.14948651680E+04  0.22495168622E+03  0.16394372895E+04  0.50400001928E-02 0. -1.
       -1    1    3    3    0  502  0.63445212164E+03 -0.14948651680E+04 -0.43946512721E+03  0.16823438897E+04  0.50400001928E-02 0.  1.
</event>
<event>
 5   0  0.3796529E-07  0.3287752E+04  0.7818609E-02  0.8166019E-01
        1   -1    0    0  501    0  0.00000000000E+00  0.00000000000E+00  0.17216535729E+04  0.17216535729E+04  0.50400001928E-02 0.  1.
       -1   -1    0    0    0  501  0.00000000000E+00  0.00000000000E+00 -0.15696118781E+04  0.15696118781E+04  0.50400001928E-02 0. -1.
    10030    2    1    2    0    0  0.00000000000E+00  0.00000000000E+00  0.15204169482E+03  0.32912654509E+04  0.32877517533E+04 0.  0.
        5    1    3    3  502    0  0.48792784981E+03  0.12784702835E+04 -0.83585657926E+03  0.16035080803E+04  0.46999998093E+01 0. -1.
       -5    1    3    3    0  502 -0.48792784981E+03 -0.12784702835E+04  0.98789827409E+03  0.16877573707E+04  0.46999998093E+01 0.  1.
</event>
<event>
 5   0  0.1116462E-06  0.3306368E+04  0.7818609E-02  0.8161277E-01
        2   -1    0    0  501    0  0.00000000000E+00  0.00000000000E+00  0.20804430226E+04  0.20804430226E+04  0.25500000920E-02 0. -1.
       -2   -1    0    0    0  501  0.00000000000E+00  0.00000000000E+00 -0.13136708226E+04  0.13136708226E+04  0.25500000920E-02 0.  1.
    10030    2    1    2    0    0  0.00000000000E+00  0.00000000000E+00  0.76677220003E+03  0.33941138452E+04  0.33063679752E+04 0.  0.
        1    1    3    3  502    0 -0.69160396258E+03 -0.13273168949E+04 -0.33733682494E+03  0.15342367203E+04  0.50400001928E-02 0. -1.
       -1    1    3    3    0  502  0.69160396258E+03  0.13273168949E+04  0.11041090250E+04  0.18598771248E+04  0.50400001928E-02 0.  1.
</event>
<event>
 5   0  0.3749685E-07  0.3293742E+04  0.7818609E-02  0.8164490E-01
        1   -1    0    0  501    0  0.00000000000E+00  0.00000000000E+00  0.13988227603E+04  0.13988227603E+04  0.50400001928E-02 0. -1.
       -1   -1    0    0    0  501  0.00000000000E+00  0.00000000000E+00 -0.19389046322E+04  0.19389046322E+04  0.50400001928E-02 0.  1.
    10030    2    1    2    0    0  0.00000000000E+00  0.00000000000E+00 -0.54008187194E+03  0.33377273926E+04  0.32937419022E+04 0.  0.
        3    1    3    3  502    0  0.15623676795E+04  0.45213706553E+03 -0.82045731402E+01  0.16264956247E+04  0.10100000352E+00 0. -1.
       -3    1    3    3    0  502 -0.15623676795E+04 -0.45213706553E+03 -0.53187729880E+03  0.17112317678E+04  0.10100000352E+00 0.  1.
</event>
<event>
 5   0  0.3796529E-07  0.3290498E+04  0.7818609E-02  0.8165317E-01
       -1   -1    0    0    0  501  0.00000000000E+00  0.00000000000E+00  0.31478620220E+04  0.31478620220E+04  0.50400001928E-02 0. -1.
        1   -1    0    0  501    0  0.00000000000E+00  0.00000000000E+00 -0.85989940045E+03  0.85989940047E+03  0.50400001928E-02 0.  1.
    10030    2    1    2    0    0  0.00000000000E+00  0.00000000000E+00  0.22879626216E+04  0.40077614225E+04  0.32904982392E+04 0.  0.
        5    1    3    3  502    0  0.33538943827E+02  0.13959713172E+04  0.22036672663E+04  0.26088373445E+04  0.46999998093E+01 0. -1.
       -5    1    3    3    0  502 -0.33538943827E+02 -0.13959713172E+04  0.84295355237E+02  0.13989240780E+04  0.46999998093E+01 0.  1.
</event>
<event>
 5   0  0.1120545E-06  0.3280728E+04  0.7818609E-02  0.8167817E-01
       -2   -1    0    0    0  501  0.00000000000E+00  0.00000000000E+00  0.93233019734E+03  0.93233019735E+03  0.25500000920E-02 0. -1.
        2   -1    0    0  501    0  0.00000000000E+00  0.00000000000E+00 -0.28860954327E+04  0.28860954327E+04  0.25500000920E-02 0.  1.
    10030    2    1    2    0    0  0.00000000000E+00  0.00000000000E+00 -0.19537652353E+04  0.38184256300E+04  0.32807279219E+04 0.  0.
        4    1    3    3  502    0 -0.14940760085E+04 -0.49173721990E+03 -0.43504728253E+03  0.16319731504E+04  0.12699999809E+01 0. -1.
       -4    1    3    3    0  502  0.14940760085E+04  0.49173721990E+03 -0.15187179528E+04  0.21864524796E+04  0.12699999809E+01 0.  1.
</event>
<event>
 5   0  0.1126221E-06  0.3312326E+04  0.7818609E-02  0.8159766E-01
        2   -1    0    0  501    0  0.00000000000E+00  0.00000000000E+00  0.25352004929E+04  0.25352004929E+04  0.25500000920E-02 0.  1.
       -2   -1    0    0    0  501  0.00000000000E+00  0.00000000000E+00 -0.10819170325E+04  0.10819170325E+04  0.25500000920E-02 0. -1.
    10030    2    1    2    0    0  0.00000000000E+00  0.00000000000E+00  0.14532834605E+04  0.36171175254E+04  0.33123264296E+04 0.  0.
        2    1    3    3  502    0  0.13432775085E+04  0.31414886111E+03  0.17273684998E+04  0.22106302056E+04  0.25500000920E-02 0.  1.
       -2    1    3    3    0  502 -0.13432775085E+04 -0.31414886111E+03 -0.27408503940E+03  0.14064873198E+04  0.25500000920E-02 0. -1.
</event>
<event>
 5   0  0.3709747E-07  0.3216570E+04  0.7818609E-02  0.8184455E-01
        1   -1    0    0  501    0  0.00000000000E+00  0.00000000000E+00  0.95579019607E+03  0.95579019609E+03  0.50400001928E-02 0.  1.
       -1   -1    0    0    0  501  0.00000000000E+00  0.00000000000E+00 -0.27062224146E+04  0.27062224146E+04  0.50400001928E-02 0. -1.
    10030    2    1    2    0    0  0.00000000000E+00  0.00000000000E+00 -0.17504322186E+04  0.36620126107E+04  0.32165701313E+04 0.  0.
        4    1    3    3  502    0 -0.15966574983E+04 -0.48593955894E+02 -0.66252157869E+03  0.17293388895E+04  0.12699999809E+01 0.  1.
       -4    1    3    3    0  502  0.15966574983E+04  0.48593955894E+02 -0.10879106399E+04  0.19326737213E+04  0.12699999809E+01 0. -1.
</event>
<event>
 5   0  0.1146799E-06  0.3343805E+04  0.7818609E-02  0.8151838E-01
        2   -1    0    0  501    0  0.00000000000E+00  0.00000000000E+00  0.24416782634E+04  0.24416782634E+04  0.25500000920E-02 0. -1.
       -2   -1    0    0    0  501  0.00000000000E+00  0.00000000000E+00 -0.11448098203E+04  0.11448098203E+04  0.25500000920E-02 0.  1.
    10030    2    1    2    0    0  0.00000000000E+00  0.00000000000E+00  0.12968684431E+04  0.35864880836E+04  0.33438045719E+04 0.  0.
        5    1    3    3  502    0  0.11021193929E+04  0.10656766698E+04 -0.66984522496E+02  0.15345497506E+04  0.46999998093E+01 0.  1.
       -5    1    3    3    0  502 -0.11021193929E+04 -0.10656766698E+04  0.13638529656E+04  0.20519383331E+04  0.46999998093E+01 0. -1.
</event>
<event>
 5   0  0.3757406E-07  0.3303618E+04  0.7818609E-02  0.8161975E-01
       -1   -1    0    0    0  501  0.00000000000E+00  0.00000000000E+00  0.20500121870E+04  0.20500121870E+04  0.50400001928E-02 0.  1.
        1   -1    0    0  501    0  0.00000000000E+00  0.00000000000E+00 -0.13309547286E+04  0.13309547286E+04  0.50400001928E-02 0. -1.
    10030    2    1    2    0    0  0.00000000000E+00  0.00000000000E+00  0.71905745840E+03  0.33809669156E+04  0.33036182672E+04 0.  0.
        1    1    3    3  502    0  0.15176853591E+04 -0.65190453838E+03  0.34808490134E+03  0.16880496068E+04  0.50400001928E-02 0.  1.
       -1    1    3    3    0  502 -0.15176853591E+04  0.65190453838E+03  0.37097255706E+03  0.16929173088E+04  0.50400001928E-02 0. -1.
</event>
<event>
 5   0  0.1120545E-06  0.3295872E+04  0.7818609E-02  0.8163946E-01
       -2   -1    0    0    0  501  0.00000000000E+00  0.00000000000E+00  0.11689546777E+04  0.11689546777E+04  0.25500000920E-02 0.  1.
        2   -1    0    0  501    0  0.00000000000E+00  0.00000000000E+00 -0.23231811002E+04  0.23231811002E+04  0.25500000920E-02 0. -1.
    10030    2    1    2    0    0  0.00000000000E+00  0.00000000000E+00 -0.11542264225E+04  0.34921357780E+04  0.32958722150E+04 0.  0.
        4    1    3    3  502    0 -0.91953532387E+03 -0.53696724753E+03 -0.19097085625E+04  0.21865194816E+04  0.12699999809E+01 0. -1.
       -4    1    3    3    0  502  0.91953532387E+03  0.53696724753E+03  0.75548213995E+03  0.13056162964E+04  0.12699999809E+01 0.  1.
</event>
<event>
 5   0  0.3709747E-07  0.3279794E+04  0.7818609E-02  0.8168056E-01
       -1   -1    0    0    0  501  0.00000000000E+00  0.00000000000E+00  0.30115244732E+04  0.30115244733E+04  0.50400001928E-02 0. -1.
        1   -1    0    0  501    0  0.00000000000E+00  0.00000000000E+00 -0.89299045639E+03  0.89299045640E+03  0.50400001928E-02 0.  1.
    10030    2    1    2    0    0  0.00000000000E+00  0.00000000000E+00  0.21185340169E+04  0.39045149297E+04  0.32797942703E+04 0.  0.
        4    1    3    3  502    0 -0.65366457802E+03 -0.25168419364E+03  0.28244812299E+04  0.29100374817E+04  0.12699999809E+01 0. -1.
       -4    1    3    3    0  502  0.65366457802E+03  0.25168419364E+03 -0.70594721308E+03  0.99447744793E+03  0.12699999809E+01 0.  1.
</event>
<event>
 5   0  0.3674967E-07  0.3305627E+04  0.7818609E-02  0.8161465E-01
        1   -1    0    0  501    0  0.00000000000E+00  0.00000000000E+00  0.28977846898E+04  0.28977846898E+04  0.50400001928E-02 0. -1.
       -1   -1    0    0    0  501  0.00000000000E+00  0.00000000000E+00 -0.94271767188E+03  0.94271767190E+03  0.50400001928E-02 0.  1.
    10030    2    1    2    0    0  0.00000000000E+00  0.00000000000E+00  0.19550670179E+04  0.38405023617E+04  0.33056272242E+04 0.  0.
        2    1    3    3  502    0 -0.13623637400E+04  0.92898978700E+03  0.84641978260E+03  0.18535057143E+04  0.25500000920E-02 0. -1.
       -2    1    3    3    0  502  0.13623637400E+04 -0.92898978700E+03  0.11086472353E+04  0.19869966474E+04  0.25500000920E-02 0.  1.
</event>
<event>
 5   0  0.1126221E-06  0.3251735E+04  0.7818609E-02  0.8175286E-01
       -2   -1    0    0    0  501  0.00000000000E+00  0.00000000000E+00  0.14478465468E+04  0.14478465468E+04  0.25500000920E-02 0.  1.
        2   -1    0    0  501    0  0.00000000000E+00  0.00000000000E+00 -0.18257772022E+04  0.18257772022E+04  0.25500000920E-02 0. -1.
    10030    2    1    2    0    0  0.00000000000E+00  0.00000000000E+00 -0.37793065533E+03  0.32736237490E+04  0.32517350553E+04 0.  0.
        2    1    3    3  502    0  0.11281091080E+04 -0.11697667060E+04 -0.13902382658E+03  0.16310462686E+04  0.25500000920E-02 0. -1.
       -2    1    3    3    0  502 -0.11281091080E+04  0.11697667060E+04 -0.23890682876E+03  0.16425774803E+04  0.25500000920E-02 0.  1.
</event>
<event>
 5   0  0.3796529E-07  0.3295830E+04  0.7818609E-02  0.8163957E-01
       -1   -1    0    0    0  501  0.00000000000E+00  0.00000000000E+00  0.20070353064E+04  0.20070353064E+04  0.50400001928E-02 0.  1.
        1   -1    0    0  501    0  0.00000000000E+00  0.00000000000E+00 -0.13530525417E+04  0.13530525417E+04  0.50400001928E-02 0. -1.
    10030    2    1    2    0    0  0.00000000000E+00  0.00000000000E+00  0.65398276463E+03  0.33600878481E+04  0.32958302278E+04 0.  0.
        5    1    3    3  502    0 -0.10343848548E+04 -0.12784422273E+04  0.21892677578E+03  0.16590110245E+04  0.46999998093E+01 0. -1.
       -5    1    3    3    0  502  0.10343848548E+04  0.12784422273E+04  0.43505598885E+03  0.17010768236E+04  0.46999998093E+01 0.  1.
</event>
<event>
 5   0  0.3757406E-07  0.3293837E+04  0.7818609E-02  0.8164465E-01
        1   -1    0    0  501    0  0.00000000000E+00  0.00000000000E+00  0.25692305446E+04  0.25692305446E+04  0.50400001928E-02 0.  1.
       -1   -1    0    0    0  501  0.00000000000E+00  0.00000000000E+00 -0.10557016296E+04  0.10557016296E+04  0.50400001928E-02 0. -1.
    10030    2    1    2    0    0  0.00000000000E+00  0.00000000000E+00  0.15135289150E+04  0.36249321742E+04  0.32938371986E+04 0.  0.
        1    1    3    3  502    0  0.16007085917E+04 -0.29329163563E+03  0.10352913487E+04  0.19287602640E+04  0.50400001928E-02 0.  1.
       -1    1    3    3    0  502 -0.16007085917E+04  0.29329163563E+03  0.47823756634E+03  0.16961719102E+04  0.50400001928E-02 0. -1.
</event>
<event>
 5   0  0.3796529E-07  0.3274020E+04  0.7818609E-02  0.8169538E-01
        1   -1    0    0  501    0  0.00000000000E+00  0.00000000000E+00  0.25830465364E+04  0.25830465364E+04  0.50400001928E-02 0.  1.
       -1   -1    0    0    0  501  0.00000000000E+00  0.00000000000E+00 -0.10374579075E+04  0.10374579076E+04  0.50400001928E-02 0. -1.
    10030    2    1    2    0    0  0.00000000000E+00  0.00000000000E+00  0.15455886288E+04  0.36205044439E+04  0.32740201922E+04 0.  0.
        5    1    3    3  502    0 -0.64801117173E+03 -0.44983134449E+03 -0.81340972462E+03  0.11331037849E+04  0.46999998093E+01 0. -1.
       -5    1    3    3    0  502  0.64801117173E+03  0.44983134449E+03  0.23589983534E+04  0.24874006591E+04  0.46999998093E+01 0.  1.
</event>
<event>
 5   0  0.1126221E-06  0.3362516E+04  0.7818609E-02  0.8147168E-01
       -2   -1    0    0    0  501  0.00000000000E+00  0.00000000000E+00  0.17693876169E+04  0.17693876169E+04  0.25500000920E-02 0.  1.
        2   -1    0    0  501    0  0.00000000000E+00  0.00000000000E+00 -0.15975182816E+04  0.15975182816E+04  0.25500000920E-02 0. -1.
    10030    2    1    2    0    0  0.00000000000E+00  0.00000000000E+00  0.17186933527E+03  0.33669058985E+04  0.33625163585E+04 0.  0.
        2    1    3    3  502    0 -0.71600639171E+03  0.54822129467E+03  0.15067363845E+04  0.17559801460E+04  0.25500000920E-02 0.  1.
       -2    1    3    3    0  502  0.71600639171E+03 -0.54822129467E+03 -0.13348670492E+04  0.16109257525E+04  0.25500000920E-02 0. -1.
</event>
<event>
 5   0  0.1126221E-06  0.3640880E+04  0.7818609E-02  0.8081191E-01
       -2   -1    0    0    0  501  0.00000000000E+00  0.00000000000E+00  0.15442556383E+04  0.15442556384E+04  0.25500000920E-02 0.  1.
        2   -1    0    0  501    0  0.00000000000E+00  0.00000000000E+00 -0.21460194822E+04  0.21460194822E+04  0.25500000920E-02 0. -1.
    10030    2    1    2    0    0  0.00000000000E+00  0.00000000000E+00 -0.60176384382E+03  0.36902751205E+04  0.36408804899E+04 0.  0.
        2    1    3    3  502    0 -0.29127352500E+03  0.17305713991E+04  0.18971476549E+03  0.17651371975E+04  0.25500000920E-02 0.  1.
       -2    1    3    3    0  502  0.29127352500E+03 -0.17305713991E+04 -0.79147860932E+03  0.19251379230E+04  0.25500000920E-02 0. -1.
</event>
<event>
 5   0  0.3757406E-07  0.3278688E+04  0.7818609E-02  0.8168339E-01
        1   -1    0    0  501    0  0.00000000000E+00  0.00000000000E+00  0.16851450508E+04  0.16851450508E+04  0.50400001928E-02 0. -1.
       -1   -1    0    0    0  501  0.00000000000E+00  0.00000000000E+00 -0.15947880906E+04  0.15947880906E+04  0.50400001928E-02 0.  1.
    10030    2    1    2    0    0  0.00000000000E+00  0.00000000000E+00  0.90356960257E+02  0.32799331414E+04  0.32786883097E+04 0.  0.
        1    1    3    3  502    0  0.69585489495E+03 -0.26345497737E+03  0.15064954620E+04  0.16802235378E+04  0.50400001928E-02 0. -1.
       -1    1    3    3    0  502 -0.69585489495E+03  0.26345497737E+03 -0.14161385017E+04  0.15997096037E+04  0.50400001928E-02 0.  1.
</event>
<event>
 5   0  0.1129434E-06  0.3324442E+04  0.7818609E-02  0.8156704E-01
       -2   -1    0    0    0  501  0.00000000000E+00  0.00000000000E+00  0.18639459008E+04  0.18639459008E+04  0.25500000920E-02 0.  1.
        2   -1    0    0  501    0  0.00000000000E+00  0.00000000000E+00 -0.14823280279E+04  0.14823280279E+04  0.25500000920E-02 0. -1.
    10030    2    1    2    0    0  0.00000000000E+00  0.00000000000E+00  0.38161787290E+03  0.33462739287E+04  0.33244423600E+04 0.  0.
        3    1    3    3  502    0 -0.10488131537E+04 -0.61664930171E+03 -0.94919821055E+03  0.15431275533E+04  0.10100000352E+00 0. -1.
       -3    1    3    3    0  502  0.10488131537E+04  0.61664930171E+03  0.13308160835E+04  0.18031463753E+04  0.10100000352E+00 0.  1.
</event>
<event>
 5   0  0.1129434E-06  0.3298845E+04  0.7818609E-02  0.8163189E-01
        2   -1    0    0  501    0  0.00000000000E+00  0.00000000000E+00  0.10886449289E+04  0.10886449289E+04  0.25500000920E-02 0. -1.
       -2   -1    0    0    0  501  0.00000000000E+00  0.00000000000E+00 -0.24990650468E+04  0.24990650468E+04  0.25500000920E-02 0.  1.
    10030    2    1    2    0    0  0.00000000000E+00  0.00000000000E+00 -0.14104201179E+04  0.35877099757E+04  0.32988449435E+04 0.  0.
        3    1    3    3  502    0 -0.21966060917E+03  0.99677646264E+03 -0.21143442995E+04  0.23478215278E+04  0.10100000352E+00 0.  1.
       -3    1    3    3    0  502  0.21966060917E+03 -0.99677646264E+03  0.70392418154E+03  0.12398884479E+04  0.10100000352E+00 0. -1.
</event>
<event>
 5   0  0.1120545E-06  0.3310898E+04  0.7818609E-02  0.8160128E-01
       -2   -1    0    0    0  501  0.00000000000E+00  0.00000000000E+00  0.90666618089E+03  0.90666618089E+03  0.25500000920E-02 0.  1.
        2   -1    0    0  501    0  0.00000000000E+00  0.00000000000E+00 -0.30226239111E+04  0.30226239111E+04  0.25500000920E-02 0. -1.
    10030    2    1    2    0    0  0.00000000000E+00  0.00000000000E+00 -0.21159577302E+04  0.39292900920E+04  0.33108976896E+04 0.  0.
        4    1    3    3  502    0  0.10720059389E+04 -0.10750739884E+04 -0.27477179758E+03  0.15428810606E+04  0.12699999809E+01 0.  1.
       -4    1    3    3    0  502 -0.10720059389E+04  0.10750739884E+04 -0.18411859326E+04  0.23864090314E+04  0.12699999809E+01 0. -1.
</event>
<event>
 5   0  0.3709747E-07  0.3298521E+04  0.7818609E-02  0.8163272E-01
       -1   -1    0    0    0  501  0.00000000000E+00  0.00000000000E+00  0.15148952931E+04  0.15148952931E+04  0.50400001928E-02 0. -1.
        1   -1    0    0  501    0  0.00000000000E+00  0.00000000000E+00 -0.17955437658E+04  0.17955437658E+04  0.50400001928E-02 0.  1.
    10030    2    1    2    0    0  0.00000000000E+00  0.00000000000E+00 -0.28064847263E+03  0.33104390589E+04  0.32985213653E+04 0.  0.
        4    1    3    3  502    0  0.11506620280E+04 -0.10212060015E+04 -0.73675618032E+03  0.17057831288E+04  0.12699999809E+01 0.  1.
       -4    1    3    3    0  502 -0.11506620280E+04  0.10212060015E+04  0.45610770769E+03  0.16046559301E+04  0.12699999809E+01 0. -1.
</event>
<event>
 5   0  0.3709747E-07  0.3293516E+04  0.7818609E-02  0.8164547E-01
       -1   -1    0    0    0  501  0.00000000000E+00  0.00000000000E+00  0.15090725296E+04  0.15090725296E+04  0.50400001928E-02 0.  1.
        1   -1    0    0  501    0  0.00000000000E+00  0.00000000000E+00 -0.17970055058E+04  0.17970055058E+04  0.50400001928E-02 0. -1.
    10030    2    1    2    0    0  0.00000000000E+00  0.00000000000E+00 -0.28793297621E+03  0.33060780354E+04  0.32935158384E+04 0.  0.
        4    1    3    3  502    0 -0.51688441386E+03  0.96777671537E+03  0.10887438450E+04  0.15456797990E+04  0.12699999809E+01 0.  1.
       -4    1    3    3    0  502  0.51688441386E+03 -0.96777671537E+03 -0.13766768212E+04  0.17603982365E+04  0.12699999809E+01 0. -1.
</event>
<event>
 5   0  0.1146799E-06  0.3268123E+04  0.7818609E-02  0.8171054E-01
       -2   -1    0    0    0  501  0.00000000000E+00  0.00000000000E+00  0.11173964264E+04  0.11173964264E+04  0.25500000920E-02 0.  1.
        2   -1    0    0  501    0  0.00000000000E+00  0.00000000000E+00 -0.23896239267E+04  0.23896239267E+04  0.25500000920E-02 0. -1.
    10030    2    1    2    0    0  0.00000000000E+00  0.00000000000E+00 -0.12722275003E+04  0.35070203531E+04  0.32681231532E+04 0.  0.
        5    1    3    3  502    0 -0.66644174321E+03  0.84210301139E+03 -0.19577490494E+04  0.22329544351E+04  0.46999998093E+01 0. -1.
       -5    1    3    3    0  502  0.66644174321E+03 -0.84210301139E+03  0.68552154915E+03  0.12740659179E+04  0.46999998093E+01 0.  1.
</event>
<event>
 5   0  0.3709747E-07  0.3287732E+04  0.7818609E-02  0.8166024E-01
        1   -1    0    0  501    0  0.00000000000E+00  0.00000000000E+00  0.23506448848E+04  0.23506448848E+04  0.50400001928E-02 0. -1.
       -1   -1    0    0    0  501  0.00000000000E+00  0.00000000000E+00 -0.11495972776E+04  0.11495972776E+04  0.50400001928E-02 0.  1.
    10030    2    1    2    0    0  0.00000000000E+00  0.00000000000E+00  0.12010476072E+04  0.35002421624E+04  0.32877317166E+04 0.  0.
        4    1    3    3  502    0  0.31114357577E+03  0.10268320028E+04  0.19264565240E+04  0.22050919795E+04  0.12699999809E+01 0. -1.
       -4    1    3    3    0  502 -0.31114357577E+03 -0.10268320028E+04 -0.72540891675E+03  0.12951501828E+04  0.12699999809E+01 0.  1.
</event>
<event>
 5   0  0.1129434E-06  0.3306419E+04  0.7818609E-02  0.8161264E-01
       -2   -1    0    0    0  501  0.00000000000E+00  0.00000000000E+00  0.11966605198E+04  0.11966605198E+04  0.25500000920E-02 0.  1.
        2   -1    0    0  501    0  0.00000000000E+00  0.00000000000E+00 -0.22839408656E+04  0.22839408656E+04  0.25500000920E-02 0. -1.
    10030    2    1    2    0    0  0.00000000000E+00  0.00000000000E+00 -0.10872803459E+04  0.34806013854E+04  0.33064191285E+04 0.  0.
        3    1    3    3  502    0 -0.10805041949E+04 -0.19651240555E+03 -0.18444543159E+04  0.21466527838E+04  0.10100000352E+00 0. -1.
       -3    1    3    3    0  502  0.10805041949E+04  0.19651240555E+03  0.75717397002E+03  0.13339486016E+04  0.10100000352E+00 0.  1.
</event>
<event>
 5   0  0.1146799E-06  0.3303621E+04  0.7818609E-02  0.8161975E-01
        2   -1    0    0  501    0  0.00000000000E+00  0.00000000000E+00  0.24419854957E+04  0.24419854957E+04  0.25500000920E-02 0.  1.
       -2   -1    0    0    0  501  0.00000000000E+00  0.00000000000E+00 -0.11173195789E+04  0.11173195789E+04  0.25500000920E-02 0. -1.
    10030    2    1    2    0    0  0.00000000000E+00  0.00000000000E+00  0.13246659168E+04  0.35593050746E+04  0.33036211682E+04 0.  0.
        5    1    3    3  502    0  0.63183359042E+03  0.71059565885E+03 -0.79286693753E+03  0.12380710589E+04  0.46999998093E+01 0. -1.
       -5    1    3    3    0  502 -0.63183359042E+03 -0.71059565885E+03  0.21175328543E+04  0.23212340157E+04  0.46999998093E+01 0.  1.
</event>
<event>
 5   0  0.3709747E-07  0.3294765E+04  0.7818609E-02  0.8164229E-01
        1   -1    0    0  501    0  0.00000000000E+00  0.00000000000E+00  0.14431148856E+04  0.14431148856E+04  0.50400001928E-02 0.  1.
       -1   -1    0    0    0  501  0.00000000000E+00  0.00000000000E+00 -0.18805634754E+04  0.18805634754E+04  0.50400001928E-02 0. -1.
    10030    2    1    2    0    0  0.00000000000E+00  0.00000000000E+00 -0.43744858978E+03  0.33236783610E+04  0.32947650263E+04 0.  0.
        4    1    3    3  502    0 -0.17038525858E+03  0.13320552989E+04  0.74383210990E+03  0.15351515483E+04  0.12699999809E+01 0.  1.
       -4    1    3    3    0  502  0.17038525858E+03 -0.13320552989E+04 -0.11812806997E+04  0.17885268127E+04  0.12699999809E+01 0. -1.
</event>
<event>
 5   0  0.3749685E-07  0.3295583E+04  0.7818609E-02  0.8164020E-01
       -1   -1    0    0    0  501  0.00000000000E+00  0.00000000000E+00  0.19910748647E+04  0.19910748647E+04  0.50400001928E-02 0.  1.
        1   -1    0    0  501    0  0.00000000000E+00  0.00000000000E+00 -0.13636941390E+04  0.13636941390E+04  0.50400001928E-02 0. -1.
    10030    2    1    2    0    0  0.00000000000E+00  0.00000000000E+00  0.62738072563E+03  0.33547690037E+04  0.32955831795E+04 0.  0.
        3    1    3    3  502    0  0.15748294596E+04 -0.33688021475E+02  0.80610740971E+03  0.17694722026E+04  0.10100000352E+00 0.  1.
       -3    1    3    3    0  502 -0.15748294596E+04  0.33688021475E+02 -0.17872668408E+03  0.15852968011E+04  0.10100000352E+00 0. -1.
</event>
<event>
 5   0  0.3709747E-07  0.3291132E+04  0.7818609E-02  0.8165155E-01
       -1   -1    0    0    0  501  0.00000000000E+00  0.00000000000E+00  0.28691906321E+04  0.28691906321E+04  0.50400001928E-02 0.  1.
        1   -1    0    0  501    0  0.00000000000E+00  0.00000000000E+00 -0.94378116855E+03  0.94378116856E+03  0.50400001928E-02 0. -1.
    10030    2    1    2    0    0  0.00000000000E+00  0.00000000000E+00  0.19254094636E+04  0.38129718007E+04  0.32911323812E+04 0.  0.
        4    1    3    3  502    0 -0.15772743438E+04 -0.30165580258E+03  0.54643535771E+03  0.16962852920E+04  0.12699999809E+01 0. -1.
       -4    1    3    3    0  502  0.15772743438E+04  0.30165580258E+03  0.13789741059E+04  0.21166865087E+04  0.12699999809E+01 0.  1.
</event>
<event>
 5   0  0.1146799E-06  0.3259395E+04  0.7818609E-02  0.8173305E-01
        2   -1    0    0  501    0  0.00000000000E+00  0.00000000000E+00  0.17606969868E+04  0.17606969868E+04  0.25500000920E-02 0. -1.
       -2   -1    0    0    0  501  0.00000000000E+00  0.00000000000E+00 -0.15084448481E+04  0.15084448481E+04  0.25500000920E-02 0.  1.
    10030    2    1    2    0    0  0.00000000000E+00  0.00000000000E+00  0.25225213868E+03  0.32691418349E+04  0.32593952192E+04 0.  0.
        5    1    3    3  502    0  0.53975542954E+03  0.23008317944E+03  0.16510731550E+04  0.17522382391E+04  0.46999998093E+01 0. -1.
       -5    1    3    3    0  502 -0.53975542954E+03 -0.23008317944E+03 -0.13988210163E+04  0.15169035958E+04  0.46999998093E+01 0.  1.
</event>
<event>
 5   0  0.3709747E-07  0.3351362E+04  0.7818609E-02  0.8149948E-01
       -1   -1    0    0    0  501  0.00000000000E+00  0.00000000000E+00  0.11392305964E+04  0.11392305964E+04  0.50400001928E-02 0.  1.
        1   -1    0    0  501    0  0.00000000000E+00  0.00000000000E+00 -0.24647399152E+04  0.24647399152E+04  0.50400001928E-02 0. -1.
    10030    2    1    2    0    0  0.00000000000E+00  0.00000000000E+00 -0.13255093188E+04  0.36039705116E+04  0.33513621849E+04 0.  0.
        4    1    3    3  502    0 -0.89009675386E+03 -0.68523309388E+03  0.67438599429E+03  0.13101964381E+04  0.12699999809E+01 0.  1.
       -4    1    3    3    0  502  0.89009675386E+03  0.68523309388E+03 -0.19998953131E+04  0.22937740735E+04  0.12699999809E+01 0. -1.
</event>
<event>
 5   0  0.3674967E-07  0.3307237E+04  0.7818609E-02  0.8161056E-01
        1   -1    0    0  501    0  0.00000000000E+00  0.00000000000E+00  0.20635522209E+04  0.20635522209E+04  0.50400001928E-02 0.  1.
       -1   -1    0    0    0  501  0.00000000000E+00  0.00000000000E+00 -0.13251202150E+04  0.13251202150E+04  0.50400001928E-02 0. -1.
    10030    2    1    2    0    0  0.00000000000E+00  0.00000000000E+00  0.73843200593E+03  0.33886724360E+04  0.33072373744E+04 0.  0.
        2    1    3    3  502    0 -0.12088794952E+04  0.10543438054E+04  0.78088545077E+03  0.17840438843E+04  0.25500000920E-02 0.  1.
       -2    1    3    3    0  502  0.12088794952E+04 -0.10543438054E+04 -0.42453444840E+02  0.16046285517E+04  0.25500000920E-02 0. -1.
</event>
<event>
 5   0  0.3796529E-07  0.3281662E+04  0.7818609E-02  0.8167577E-01
       -1   -1    0    0    0  501  0.00000000000E+00  0.00000000000E+00  0.16721472687E+04  0.16721472688E+04  0.50400001928E-02 0.  1.
        1   -1    0    0  501    0  0.00000000000E+00  0.00000000000E+00 -0.16101008276E+04  0.16101008276E+04  0.50400001928E-02 0. -1.
    10030    2    1    2    0    0  0.00000000000E+00  0.00000000000E+00  0.62046441162E+02  0.32822480963E+04  0.32816615921E+04 0.  0.
        5    1    3    3  502    0  0.16055996826E+04  0.20656407396E+03 -0.23676434344E+03  0.16360618881E+04  0.46999998093E+01 0. -1.
       -5    1    3    3    0  502 -0.16055996826E+04 -0.20656407396E+03  0.29881078460E+03  0.16461862083E+04  0.46999998093E+01 0.  1.
</event>
<event>
 5   0  0.1126221E-06  0.3213216E+04  0.7818609E-02  0.8185335E-01
        2   -1    0    0  501    0  0.00000000000E+00  0.00000000000E+00  0.15468933378E+04  0.15468933378E+04  0.25500000920E-02 0. -1.
       -2   -1    0    0    0  501  0.00000000000E+00  0.00000000000E+00 -0.16686281400E+04  0.16686281400E+04  0.25500000920E-02 0.  1.
    10030    2    1    2    0    0  0.00000000000E+00  0.00000000000E+00 -0.12173480219E+03  0.32155214778E+04  0.32132163033E+04 0.  0.
        2    1    3    3  502    0  0.63901291948E+03 -0.14723918514E+04  0.92862272624E+01  0.16051048281E+04  0.25500000920E-02 0. -1.
       -2    1    3    3    0  502 -0.63901291948E+03  0.14723918514E+04 -0.13102102945E+03  0.16104166496E+04  0.25500000920E-02 0.  1.
</event>
<event>
 5   0  0.1120545E-06  0.3360467E+04  0.7818609E-02  0.8147678E-01
       -2   -1    0    0    0  501  0.00000000000E+00  0.00000000000E+00  0.23664542863E+04  0.23664542863E+04  0.25500000920E-02 0. -1.
        2   -1    0    0  501    0  0.00000000000E+00  0.00000000000E+00 -0.11930022411E+04  0.11930022411E+04  0.25500000920E-02 0.  1.
    10030    2    1    2    0    0  0.00000000000E+00  0.00000000000E+00  0.11734520453E+04  0.35594565274E+04  0.33604673883E+04 0.  0.
        4    1    3    3  502    0 -0.91606029492E+03 -0.12191529948E+04 -0.16051461667E+03  0.15333841801E+04  0.12699999809E+01 0.  1.
       -4    1    3    3    0  502  0.91606029492E+03  0.12191529948E+04  0.13339666619E+04  0.20260723473E+04  0.12699999809E+01 0. -1.
</event>
<event>
 5   0  0.1129434E-06  0.3310770E+04  0.7818609E-02  0.8160160E-01
       -2   -1    0    0    0  501  0.00000000000E+00  0.00000000000E+00  0.20758802542E+04  0.20758802542E+04  0.25500000920E-02 0. -1.
        2   -1    0    0  501    0  0.00000000000E+00  0.00000000000E+00 -0.13200664308E+04  0.13200664308E+04  0.25500000920E-02 0.  1.
    10030    2    1    2    0    0  0.00000000000E+00  0.00000000000E+00  0.75581382336E+03  0.33959466850E+04  0.33107702052E+04 0.  0.
        3    1    3    3  502    0  0.74900790673E+03  0.38211633893E+03 -0.10847072970E+04  0.13724487864E+04  0.10100000352E+00 0.  1.
       -3    1    3    3    0  502 -0.74900790673E+03 -0.38211633893E+03  0.18405211204E+04  0.20234978986E+04  0.10100000352E+00 0. -1.
</event>
<event>
 5   0  0.3757406E-07  0.3268904E+04  0.7818609E-02  0.8170853E-01
        1   -1    0    0  501    0  0.00000000000E+00  0.00000000000E+00  0.22210353970E+04  0.22210353970E+04  0.50400001928E-02 0.  1.
       -1   -1    0    0    0  501  0.00000000000E+00  0.00000000000E+00 -0.12027876557E+04  0.12027876557E+04  0.50400001928E-02 0. -1.
    10030    2    1    2    0    0  0.00000000000E+00  0.00000000000E+00  0.10182477413E+04  0.34238230527E+04  0.32689043781E+04 0.  0.
        1    1    3    3  502    0  0.64675363897E+03 -0.84320804802E+03 -0.79155936227E+03  0.13250872823E+04  0.50400001928E-02 0. -1.
       -1    1    3    3    0  502 -0.64675363897E+03  0.84320804802E+03  0.18098071035E+04  0.20987357703E+04  0.50400001928E-02 0.  1.
</event>
<event>
 5   0  0.3749685E-07  0.3297831E+04  0.7818609E-02  0.8163447E-01
        1   -1    0    0  501    0  0.00000000000E+00  0.00000000000E+00  0.24717587283E+04  0.24717587283E+04  0.50400001928E-02 0. -1.
       -1   -1    0    0    0  501  0.00000000000E+00  0.00000000000E+00 -0.10999950515E+04  0.10999950515E+04  0.50400001928E-02 0.  1.
    10030    2    1    2    0    0  0.00000000000E+00  0.00000000000E+00  0.13717636768E+04  0.35717537798E+04  0.32978310264E+04 0.  0.
        3    1    3    3  502    0  0.13665556190E+04  0.31835722599E+03 -0.25213743725E+03  0.14256222783E+04  0.10100000352E+00 0.  1.
       -3    1    3    3    0  502 -0.13665556190E+04 -0.31835722599E+03  0.16239011141E+04  0.21461315015E+04  0.10100000352E+00 0. -1.
</event>
<event>
 5   0  0.3796529E-07  0.3299570E+04  0.7818609E-02  0.8163005E-01
       -1   -1    0    0    0  501  0.00000000000E+00  0.00000000000E+00  0.15405882186E+04  0.15405882186E+04  0.50400001928E-02 0. -1.
        1   -1    0    0  501    0  0.00000000000E+00  0.00000000000E+00 -0.17667220472E+04  0.17667220472E+04  0.50400001928E-02 0.  1.
    10030    2    1    2    0    0  0.00000000000E+00  0.00000000000E+00 -0.22613382863E+03  0.33073102659E+04  0.32995703790E+04 0.  0.
        5    1    3    3  502    0 -0.37823838342E+03 -0.13926797770E+04  0.68827564260E+03  0.15988641862E+04  0.46999998093E+01 0. -1.
       -5    1    3    3    0  502  0.37823838342E+03  0.13926797770E+04 -0.91440947123E+03  0.17084460796E+04  0.46999998093E+01 0.  1.
</event>
<event>
 5   0  0.3796529E-07  0.3307318E+04  0.7818609E-02  0.8161036E-01
        1   -1    0    0  501    0  0.00000000000E+00  0.00000000000E+00  0.18202784693E+04  0.18202784693E+04  0.50400001928E-02 0. -1.
       -1   -1    0    0    0  501  0.00000000000E+00  0.00000000000E+00 -0.15022914084E+04  0.15022914084E+04  0.50400001928E-02 0.  1.
    10030    2    1    2    0    0  0.00000000000E+00  0.00000000000E+00  0.31798706084E+03  0.33225698777E+04  0.33073183732E+04 0.  0.
        5    1    3    3  502    0  0.51678747655E+01 -0.55393255853E+03 -0.14062989772E+04  0.15114783788E+04  0.46999998093E+01 0.  1.
       -5    1    3    3    0  502 -0.51678747655E+01  0.55393255853E+03  0.17242860381E+04  0.18110914989E+04  0.46999998093E+01 0. -1.
</event>
<event>
 5   0  0.1126221E-06  0.3268018E+04  0.7818609E-02  0.8171081E-01
       -2   -1    0    0    0  501  0.00000000000E+00  0.00000000000E+00  0.15443596547E+04  0.15443596547E+04  0.25500000920E-02 0. -1.
        2   -1    0    0  501    0  0.00000000000E+00  0.00000000000E+00 -0.17288622623E+04  0.17288622623E+04  0.25500000920E-02 0.  1.
    10030    2    1    2    0    0  0.00000000000E+00  0.00000000000E+00 -0.18450260756E+03  0.32732219171E+04  0.32680178252E+04 0.  0.
        2    1    3    3  502    0  0.13956411744E+04 -0.84910575126E+03 -0.57696191531E+02  0.16346631809E+04  0.25500000920E-02 0.  1.
       -2    1    3    3    0  502 -0.13956411744E+04  0.84910575126E+03 -0.12680641603E+03  0.16385587361E+04  0.25500000920E-02 0. -1.
</event>
<event>
 5   0  0.1126221E-06  0.3302460E+04  0.7818609E-02  0.8162270E-01
       -2   -1    0    0    0  501  0.00000000000E+00  0.00000000000E+00  0.11453819849E+04  0.11453819849E+04  0.25500000920E-02 0. -1.
        2   -1    0    0  501    0  0.00000000000E+00  0.00000000000E+00 -0.23804818544E+04  0.23804818544E+04  0.25500000920E-02 0.  1.
    10030    2    1    2    0    0  0.00000000000E+00  0.00000000000E+00 -0.12350998696E+04  0.35258638393E+04  0.33024603140E+04 0.  0.
        2    1    3    3  502    0  0.11916891741E+04 -0.10854886268E+04 -0.23534941295E+03  0.16290481861E+04  0.25500000920E-02 0. -1.
       -2    1    3    3    0  502 -0.11916891741E+04  0.10854886268E+04 -0.99975045662E+03  0.18968156532E+04  0.25500000920E-02 0.  1.
</event>
<event>
 5   0  0.3749685E-07  0.3262078E+04  0.7818609E-02  0.8172612E-01
       -1   -1    0    0    0  501  0.00000000000E+00  0.00000000000E+00  0.17107832647E+04  0.17107832647E+04  0.50400001928E-02 0. -1.
        1   -1    0    0  501    0  0.00000000000E+00  0.00000000000E+00 -0.15550117646E+04  0.15550117646E+04  0.50400001928E-02 0.  1.
    10030    2    1    2    0    0  0.00000000000E+00  0.00000000000E+00  0.15577150007E+03  0.32657950293E+04  0.32620779288E+04 0.  0.
        3    1    3    3  502    0  0.55315295623E+03  0.14750438490E+04  0.50092558200E+03  0.16530756179E+04  0.10100000352E+00 0.  1.
       -3    1    3    3    0  502 -0.55315295623E+03 -0.14750438490E+04 -0.34515408193E+03  0.16127194114E+04  0.10100000352E+00 0. -1.
</event>
<event>
 5   0  0.3757406E-07  0.3034202E+04  0.7818609E-02  0.8234031E-01
       -1   -1    0    0    0  501  0.00000000000E+00  0.00000000000E+00  0.10343605976E+04  0.10343605976E+04  0.50400001928E-02 0.  1.
        1   -1    0    0  501    0  0.00000000000E+00  0.00000000000E+00 -0.22251384348E+04  0.22251384348E+04  0.50400001928E-02 0. -1.
    10030    2    1    2    0    0  0.00000000000E+00  0.00000000000E+00 -0.11907778373E+04  0.32594990324E+04  0.30342020507E+04 0.  0.
        1    1    3    3  502    0  0.69082315242E+02  0.41388875402E+03 -0.21615588459E+04  0.22019111951E+04  0.50400001928E-02 0. -1.
       -1    1    3    3    0  502 -0.69082315242E+02 -0.41388875402E+03  0.97078100858E+03  0.10575878373E+04  0.50400001928E-02 0.  1.
</event>
<event>
 5   0  0.1116462E-06  0.2888664E+04  0.7818609E-02  0.8276258E-01
        2   -1    0    0  501    0  0.00000000000E+00  0.00000000000E+00  0.27292396200E+04  0.27292396200E+04  0.25500000920E-02 0. -1.
       -2   -1    0    0    0  501  0.00000000000E+00  0.00000000000E+00 -0.76435039188E+03  0.76435039189E+03  0.25500000920E-02 0.  1.
    10030    2    1    2    0    0  0.00000000000E+00  0.00000000000E+00  0.19648892281E+04  0.34935900119E+04  0.28886643094E+04 0.  0.
        1    1    3    3  502    0  0.94408039786E+03  0.43422067633E+03 -0.23074857078E+03  0.10644624448E+04  0.50400001928E-02 0.  1.
       -1    1    3    3    0  502 -0.94408039786E+03 -0.43422067633E+03  0.21956377989E+04  0.24291275671E+04  0.50400001928E-02 0. -1.
</event>
<event>
 5   0  0.1146799E-06  0.3305921E+04  0.7818609E-02  0.8161390E-01
       -2   -1    0    0    0  501  0.00000000000E+00  0.00000000000E+00  0.84701792205E+03  0.84701792206E+03  0.25500000920E-02 0. -1.
        2   -1    0    0  501    0  0.00000000000E+00  0.00000000000E+00 -0.32257620586E+04  0.32257620586E+04  0.25500000920E-02 0.  1.
    10030    2    1    2    0    0  0.00000000000E+00  0.00000000000E+00 -0.23787441365E+04  0.40727799806E+04  0.33059209161E+04 0.  0.
        5    1    3    3  502    0  0.43170215221E+03  0.14193024493E+04 -0.29124483694E+03  0.15118306241E+04  0.46999998093E+01 0. -1.
       -5    1    3    3    0  502 -0.43170215221E+03 -0.14193024493E+04 -0.20874992996E+04  0.25609493565E+04  0.46999998093E+01 0.  1.
</event>
<event>
 5   0  0.3674967E-07  0.3252346E+04  0.7818609E-02  0.8175128E-01
       -1   -1    0    0    0  501  0.00000000000E+00  0.00000000000E+00  0.15813399932E+04  0.15813399932E+04  0.50400001928E-02 0.  1.
        1   -1    0    0  501    0  0.00000000000E+00  0.00000000000E+00 -0.16722773192E+04  0.16722773192E+04  0.50400001928E-02 0. -1.
    10030    2    1    2    0    0  0.00000000000E+00  0.00000000000E+00 -0.90937326019E+02  0.32536173124E+04  0.32523462329E+04 0.  0.
        2    1    3    3  502    0  0.17545987139E+03 -0.81648569451E+03  0.13504275006E+04  0.15877939067E+04  0.25500000920E-02 0.  1.
       -2    1    3    3    0  502 -0.17545987139E+03  0.81648569451E+03 -0.14413648266E+04  0.16658234057E+04  0.25500000920E-02 0. -1.
</event>
<event>
 5   0  0.3674967E-07  0.3450474E+04  0.7818609E-02  0.8125628E-01
       -1   -1    0    0    0  501  0.00000000000E+00  0.00000000000E+00  0.22167751471E+04  0.22167751471E+04  0.50400001928E-02 0. -1.
        1   -1    0    0  501    0  0.00000000000E+00  0.00000000000E+00 -0.13426904245E+04  0.13426904245E+04  0.50400001928E-02 0.  1.
    10030    2    1    2    0    0  0.00000000000E+00  0.00000000000E+00  0.87408472259E+03  0.35594655715E+04  0.34504740330E+04 0.  0.
        2    1    3    3  502    0  0.15553207328E+04 -0.74654699637E+03  0.42737822920E+03  0.17773596008E+04  0.25500000920E-02 0.  1.
       -2    1    3    3    0  502 -0.15553207328E+04  0.74654699637E+03  0.44670649339E+03  0.17821059707E+04  0.25500000920E-02 0. -1.
</event>
<event>
 5   0  0.3749685E-07  0.3156591E+04  0.7818609E-02  0.8200376E-01
        1   -1    0    0  501    0  0.00000000000E+00  0.00000000000E+00  0.28185750788E+04  0.28185750788E+04  0.50400001928E-02 0.  1.
       -1   -1    0    0    0  501  0.00000000000E+00  0.00000000000E+00 -0.88378561880E+03  0.88378561881E+03  0.50400001928E-02 0. -1.
    10030    2    1    2    0    0  0.00000000000E+00  0.00000000000E+00  0.19347894600E+04  0.37023606976E+04  0.31565906419E+04 0.  0.
        3    1    3    3  502    0  0.11666453359E+04  0.65955880975E+02  0.22117757846E+04  0.25014722964E+04  0.10100000352E+00 0.  1.
       -3    1    3    3    0  502 -0.11666453359E+04 -0.65955880975E+02 -0.27698632466E+03  0.12008884012E+04  0.10100000352E+00 0. -1.
</event>
<event>
 5   0  0.1129434E-06  0.3288084E+04  0.7818609E-02  0.8165934E-01
        2   -1    0    0  501    0  0.00000000000E+00  0.00000000000E+00  0.21298554018E+04  0.21298554018E+04  0.25500000920E-02 0. -1.
       -2   -1    0    0    0  501  0.00000000000E+00  0.00000000000E+00 -0.12690411654E+04  0.12690411654E+04  0.25500000920E-02 0.  1.
    10030    2    1    2    0    0  0.00000000000E+00  0.00000000000E+00  0.86081423635E+03  0.33988965672E+04  0.32880840508E+04 0.  0.
        3    1    3    3  502    0 -0.98310754997E+02  0.79931663220E+02  0.21248008340E+04  0.21285752675E+04  0.10100000352E+00 0. -1.
       -3    1    3    3    0  502  0.98310754997E+02 -0.79931663220E+02 -0.12639865976E+04  0.12703212997E+04  0.10100000352E+00 0.  1.
</event>
<event>
 5   0  0.3796529E-07  0.3307380E+04  0.7818609E-02  0.8161020E-01
        1   -1    0    0  501    0  0.00000000000E+00  0.00000000000E+00  0.20660720131E+04  0.20660720131E+04  0.50400001928E-02 0.  1.
       -1   -1    0    0    0  501  0.00000000000E+00  0.00000000000E+00 -0.13236184953E+04  0.13236184953E+04  0.50400001928E-02 0. -1.
    10030    2    1    2    0    0  0.00000000000E+00  0.00000000000E+00  0.74245351777E+03  0.33896905084E+04  0.33073803103E+04 0.  0.
        5    1    3    3  502    0  0.31921764091E+03  0.28580891767E+03  0.20081870853E+04  0.20533933133E+04  0.46999998093E+01 0.  1.
       -5    1    3    3    0  502 -0.31921764091E+03 -0.28580891767E+03 -0.12657335675E+04  0.13362971951E+04  0.46999998093E+01 0. -1.
</event>
<event>
 5   0  0.3709747E-07  0.3224576E+04  0.7818609E-02  0.8182357E-01
        1   -1    0    0  501    0  0.00000000000E+00  0.00000000000E+00  0.22880315752E+04  0.22880315752E+04  0.50400001928E-02 0. -1.
       -1   -1    0    0    0  501  0.00000000000E+00  0.00000000000E+00 -0.11361177586E+04  0.11361177586E+04  0.50400001928E-02 0.  1.
    10030    2    1    2    0    0  0.00000000000E+00  0.00000000000E+00  0.11519138165E+04  0.34241493338E+04  0.32245764403E+04 0.  0.
        4    1    3    3  502    0  0.86727094362E+03  0.10566139886E+04 -0.33186981889E+03  0.14066738073E+04  0.12699999809E+01 0.  1.
       -4    1    3    3    0  502 -0.86727094362E+03 -0.10566139886E+04  0.14837836354E+04  0.20174755265E+04  0.12699999809E+01 0. -1.
</event>
<event>
 5   0  0.1129434E-06  0.3306207E+04  0.7818609E-02  0.8161318E-01
        2   -1    0    0  501    0  0.00000000000E+00  0.00000000000E+00  0.22566146511E+04  0.22566146511E+04  0.25500000920E-02 0.  1.
       -2   -1    0    0    0  501  0.00000000000E+00  0.00000000000E+00 -0.12109961528E+04  0.12109961528E+04  0.25500000920E-02 0. -1.
    10030    2    1    2    0    0  0.00000000000E+00  0.00000000000E+00  0.10456184984E+04  0.34676108039E+04  0.33062072898E+04 0.  0.
        3    1    3    3  502    0 -0.69285269994E+03 -0.10903704346E+04  0.16045671554E+04  0.20599971638E+04  0.10100000352E+00 0. -1.
       -3    1    3    3    0  502  0.69285269994E+03  0.10903704346E+04 -0.55894865704E+03  0.14076136401E+04  0.10100000352E+00 0.  1.
</event>
<event>
 5   0  0.1146799E-06  0.3297809E+04  0.7818609E-02  0.8163453E-01
        2   -1    0    0  501    0  0.00000000000E+00  0.00000000000E+00  0.27470076891E+04  0.27470076891E+04  0.25500000920E-02 0. -1.
       -2   -1    0    0    0  501  0.00000000000E+00  0.00000000000E+00 -0.98976270504E+03  0.98976270505E+03  0.25500000920E-02 0.  1.
    10030    2    1    2    0    0  0.00000000000E+00  0.00000000000E+00  0.17572449841E+04  0.37367703942E+04  0.32978088248E+04 0.  0.
        5    1    3    3  502    0  0.12332609661E+04  0.71353712047E+03  0.18190302319E+04  0.23106191611E+04  0.46999998093E+01 0. -1.
       -5    1    3    3    0  502 -0.12332609661E+04 -0.71353712047E+03 -0.61785247853E+02  0.14261512331E+04  0.46999998093E+01 0.  1.
</event>
<event>
 5   0  0.1146799E-06  0.3292321E+04  0.7818609E-02  0.8164852E-01
        2   -1    0    0  501    0  0.00000000000E+00  0.00000000000E+00  0.14219709718E+04  0.14219709718E+04  0.25500000920E-02 0. -1.
       -2   -1    0    0    0  501  0.00000000000E+00  0.00000000000E+00 -0.19056959000E+04  0.19056959000E+04  0.25500000920E-02 0.  1.
    10030    2    1    2    0    0  0.00000000000E+00  0.00000000000E+00 -0.48372492816E+03  0.33276668718E+04  0.32923209144E+04 0.  0.
        5    1    3    3  502    0 -0.11692760872E+04 -0.23730871036E+03 -0.13881903191E+04  0.18304689137E+04  0.46999998093E+01 0.  1.
       -5    1    3    3    0  502  0.11692760872E+04  0.23730871036E+03  0.90446539096E+03  0.14971979580E+04  0.46999998093E+01 0. -1.
</event>
<event>
 5   0  0.1146799E-06  0.3350921E+04  0.7818609E-02  0.8150058E-01
       -2   -1    0    0    0  501  0.00000000000E+00  0.00000000000E+00  0.13373379066E+04  0.13373379066E+04  0.25500000920E-02 0. -1.
        2   -1    0    0  501    0  0.00000000000E+00  0.00000000000E+00 -0.20990712877E+04  0.20990712877E+04  0.25500000920E-02 0.  1.
    10030    2    1    2    0    0  0.00000000000E+00  0.00000000000E+00 -0.76173338111E+03  0.34364091943E+04  0.33509208296E+04 0.  0.
        5    1    3    3  502    0 -0.15832996205E+04  0.54643990718E+03 -0.33844405947E+03  0.17088009632E+04  0.46999998093E+01 0. -1.
       -5    1    3    3    0  502  0.15832996205E+04 -0.54643990718E+03 -0.42328932164E+03  0.17276082311E+04  0.46999998093E+01 0.  1.
</event>
<event>
 5   0  0.1126221E-06  0.3449670E+04  0.7818609E-02  0.8125822E-01
        2   -1    0    0  501    0  0.00000000000E+00  0.00000000000E+00  0.22353621081E+04  0.22353621081E+04  0.25500000920E-02 0.  1.
       -2   -1    0    0    0  501  0.00000000000E+00  0.00000000000E+00 -0.13309057438E+04  0.13309057438E+04  0.25500000920E-02 0. -1.
    10030    2    1    2    0    0  0.00000000000E+00  0.00000000000E+00  0.90445636430E+03  0.35662678519E+04  0.34496702852E+04 0.  0.
        2    1    3    3  502    0  0.14325224449E+04  0.56992011527E+03  0.12517549222E+04  0.19859053044E+04  0.25500000920E-02 0.  1.
       -2    1    3    3    0  502 -0.14325224449E+04 -0.56992011527E+03 -0.34729855789E+03  0.15803625474E+04  0.25500000920E-02 0. -1.
</event>
<event>
 5   0  0.1120545E-06  0.3269329E+04  0.7818609E-02  0.8170744E-01
       -2   -1    0    0    0  501  0.00000000000E+00  0.00000000000E+00  0.20883848946E+04  0.20883848946E+04  0.25500000920E-02 0.  1.
        2   -1    0    0  501    0  0.00000000000E+00  0.00000000000E+00 -0.12795187654E+04  0.12795187654E+04  0.25500000920E-02 0. -1.
    10030    2    1    2    0    0  0.00000000000E+00  0.00000000000E+00  0.80886612919E+03  0.33679036600E+04  0.32693287764E+04 0.  0.
        4    1    3    3  502    0  0.68110294019E+03  0.31260540947E+03  0.19009926674E+04  0.20433790866E+04  0.12699999809E+01 0.  1.
       -4    1    3    3    0  502 -0.68110294019E+03 -0.31260540947E+03 -0.10921265382E+04  0.13245245734E+04  0.12699999809E+01 0. -1.
</event>
<event>
 5   0  0.1146799E-06  0.3270748E+04  0.7818609E-02  0.8170379E-01
        2   -1    0    0  501    0  0.00000000000E+00  0.00000000000E+00  0.14718510951E+04  0.14718510951E+04  0.25500000920E-02 0. -1.
       -2   -1    0    0    0  501  0.00000000000E+00  0.00000000000E+00 -0.18170641421E+04  0.18170641421E+04  0.25500000920E-02 0.  1.
    10030    2    1    2    0    0  0.00000000000E+00  0.00000000000E+00 -0.34521304705E+03  0.32889152372E+04  0.32707478334E+04 0.  0.
        5    1    3    3  502    0  0.12414823831E+04 -0.39221786572E+03 -0.11677054193E+04  0.17489057716E+04  0.46999998093E+01 0.  1.
       -5    1    3    3    0  502 -0.12414823831E+04  0.39221786572E+03  0.82249237221E+03  0.15400094656E+04  0.46999998093E+01 0. -1.
</event>
<event>
 5   0  0.1146799E-06  0.3352721E+04  0.7818609E-02  0.8149609E-01
       -2   -1    0    0    0  501  0.00000000000E+00  0.00000000000E+00  0.21561056258E+04  0.21561056258E+04  0.25500000920E-02 0.  1.
        2   -1    0    0  501    0  0.00000000000E+00  0.00000000000E+00 -0.13033613631E+04  0.13033613631E+04  0.25500000920E-02 0. -1.
    10030    2    1    2    0    0  0.00000000000E+00  0.00000000000E+00  0.85274426269E+03  0.34594669888E+04  0.33527211440E+04 0.  0.
        5    1    3    3  502    0  0.14988826128E+04 -0.68256169084E+03  0.74876699796E+03  0.18092024917E+04  0.46999998093E+01 0. -1.
       -5    1    3    3    0  502 -0.14988826128E+04  0.68256169084E+03  0.10397726473E+03  0.16502644971E+04  0.46999998093E+01 0.  1.
</event>
<event>
 5   0  0.1116462E-06  0.3332907E+04  0.7818609E-02  0.8154572E-01
        2   -1    0    0  501    0  0.00000000000E+00  0.00000000000E+00  0.21838086527E+04  0.21838086527E+04  0.25500000920E-02 0.  1.
       -2   -1    0    0    0  501  0.00000000000E+00  0.00000000000E+00 -0.12716624849E+04  0.12716624849E+04  0.25500000920E-02 0. -1.
    10030    2    1    2    0    0  0.00000000000E+00  0.00000000000E+00  0.91214616776E+03  0.34554711376E+04  0.33329071621E+04 0.  0.
        1    1    3    3  502    0  0.16209114165E+04 -0.37224917075E+03  0.56552160965E+03  0.17566268688E+04  0.50400001928E-02 0. -1.
       -1    1    3    3    0  502 -0.16209114165E+04  0.37224917075E+03  0.34662455811E+03  0.16988442688E+04  0.50400001928E-02 0.  1.
</event>
<event>
 5   0  0.1116462E-06  0.3291664E+04  0.7818609E-02  0.8165020E-01
       -2   -1    0    0    0  501  0.00000000000E+00  0.00000000000E+00  0.13581079945E+04  0.13581079945E+04  0.25500000920E-02 0. -1.
        2   -1    0    0  501    0  0.00000000000E+00  0.00000000000E+00 -0.19945118699E+04  0.19945118699E+04  0.25500000920E-02 0.  1.
    10030    2    1    2    0    0  0.00000000000E+00  0.00000000000E+00 -0.63640387536E+03  0.33526198644E+04  0.32916637226E+04 0.  0.
        1    1    3    3  502    0  0.10931311761E+04 -0.60649835647E+03 -0.14085335449E+04  0.18832797911E+04  0.50400001928E-02 0.  1.
       -1    1    3    3    0  502 -0.10931311761E+04  0.60649835647E+03  0.77212966949E+03  0.14693400733E+04  0.50400001928E-02 0. -1.
</event>
<event>
 5   0  0.3674967E-07  0.3290132E+04  0.7818609E-02  0.8165411E-01
       -1   -1    0    0    0  501  0.00000000000E+00  0.00000000000E+00  0.12724742468E+04  0.12724742468E+04  0.50400001928E-02 0. -1.
        1   -1    0    0  501    0  0.00000000000E+00  0.00000000000E+00 -0.21267565677E+04  0.21267565677E+04  0.50400001928E-02 0.  1.
    10030    2    1    2    0    0  0.00000000000E+00  0.00000000000E+00 -0.85428232085E+03  0.33992308145E+04  0.32901324969E+04 0.  0.
        2    1    3    3  502    0 -0.10289330164E+04 -0.10250360835E+04  0.37103092066E+03  0.14990217039E+04  0.25500000920E-02 0. -1.
       -2    1    3    3    0  502  0.10289330164E+04  0.10250360835E+04 -0.12253132415E+04  0.19002091107E+04  0.25500000920E-02 0.  1.
</event>
<event>
 5   0  0.1129434E-06  0.3306049E+04  0.7818609E-02  0.8161358E-01
        2   -1    0    0  501    0  0.00000000000E+00  0.00000000000E+00  0.19329581352E+04  0.19329581352E+04  0.25500000920E-02 0. -1.
       -2   -1    0    0    0  501  0.00000000000E+00  0.00000000000E+00 -0.14136309567E+04  0.14136309567E+04  0.25500000920E-02 0.  1.
    10030    2    1    2    0    0  0.00000000000E+00  0.00000000000E+00  0.51932717851E+03  0.33465890920E+04  0.33060486736E+04 0.  0.
        3    1    3    3  502    0  0.17080953283E+02  0.12174185932E+04 -0.87212087728E+03  0.14976630545E+04  0.10100000352E+00 0.  1.
       -3    1    3    3    0  502 -0.17080953283E+02 -0.12174185932E+04  0.13914480558E+04  0.18489260375E+04  0.10100000352E+00 0. -1.
</event>
<event>
 5   0  0.3709747E-07  0.3241612E+04  0.7818609E-02  0.8177913E-01
        1   -1    0    0  501    0  0.00000000000E+00  0.00000000000E+00  0.99318348957E+03  0.99318348959E+03  0.50400001928E-02 0.  1.
       -1   -1    0    0    0  501  0.00000000000E+00  0.00000000000E+00 -0.26450421682E+04  0.26450421682E+04  0.50400001928E-02 0. -1.
    10030    2    1    2    0    0  0.00000000000E+00  0.00000000000E+00 -0.16518586786E+04  0.36382256578E+04  0.32416120747E+04 0.  0.
        4    1    3    3  502    0  0.10524630312E+04  0.11973101033E+04 -0.11546472280E+04  0.19683601677E+04  0.12699999809E+01 0. -1.
       -4    1    3    3    0  502 -0.10524630312E+04 -0.11973101033E+04 -0.49721145056E+03  0.16698654901E+04  0.12699999809E+01 0.  1.
</event>
<event>
 5   0  0.3757406E-07  0.3291862E+04  0.7818609E-02  0.8164969E-01
        1   -1    0    0  501    0  0.00000000000E+00  0.00000000000E+00  0.20572716119E+04  0.20572716119E+04  0.50400001928E-02 0.  1.
       -1   -1    0    0    0  501  0.00000000000E+00  0.00000000000E+00 -0.13168360451E+04  0.13168360451E+04  0.50400001928E-02 0. -1.
    10030    2    1    2    0    0  0.00000000000E+00  0.00000000000E+00  0.74043556678E+03  0.33741076570E+04  0.32918623380E+04 0.  0.
        1    1    3    3  502    0 -0.62617146733E+03  0.70541458174E+03 -0.10123296792E+04  0.13836588518E+04  0.50400001928E-02 0. -1.
       -1    1    3    3    0  502  0.62617146733E+03 -0.70541458174E+03  0.17527652460E+04  0.19904488052E+04  0.50400001928E-02 0.  1.
</event>
<event>
 5   0  0.3796529E-07  0.3293641E+04  0.7818609E-02  0.8164515E-01
        1   -1    0    0  501    0  0.00000000000E+00  0.00000000000E+00  0.92636747141E+03  0.92636747143E+03  0.50400001928E-02 0. -1.
       -1   -1    0    0    0  501  0.00000000000E+00  0.00000000000E+00 -0.29275829584E+04  0.29275829584E+04  0.50400001928E-02 0.  1.
    10030    2    1    2    0    0  0.00000000000E+00  0.00000000000E+00 -0.20012154870E+04  0.38539504298E+04  0.32936409170E+04 0.  0.
        5    1    3    3  502    0  0.15347649121E+04  0.53877237821E+03 -0.69950614791E+03  0.17706241701E+04  0.46999998093E+01 0. -1.
       -5    1    3    3    0  502 -0.15347649121E+04 -0.53877237821E+03 -0.13017093391E+04  0.20833262597E+04  0.46999998093E+01 0.  1.
</event>
<event>
 5   0  0.1120545E-06  0.3277287E+04  0.7818609E-02  0.8168699E-01
       -2   -1    0    0    0  501  0.00000000000E+00  0.00000000000E+00  0.15855131889E+04  0.15855131890E+04  0.25500000920E-02 0.  1.
        2   -1    0    0  501    0  0.00000000000E+00  0.00000000000E+00 -0.16935545542E+04  0.16935545542E+04  0.25500000920E-02 0. -1.
    10030    2    1    2    0    0  0.00000000000E+00  0.00000000000E+00 -0.10804136529E+03  0.32790677432E+04  0.32772873429E+04 0.  0.
        4    1    3    3  502    0  0.19002473027E+03 -0.43846891471E+02  0.15738602774E+04  0.15858971385E+04  0.12699999809E+01 0.  1.
       -4    1    3    3    0  502 -0.19002473027E+03  0.43846891471E+02 -0.16819016427E+04  0.16931706047E+04  0.12699999809E+01 0. -1.
</event>
<event>
 5   0  0.3709747E-07  0.3313385E+04  0.7818609E-02  0.8159498E-01
       -1   -1    0    0    0  501  0.00000000000E+00  0.00000000000E+00  0.12869709619E+04  0.12869709619E+04  0.50400001928E-02 0.  1.
        1   -1    0    0  501    0  0.00000000000E+00  0.00000000000E+00 -0.21326279708E+04  0.21326279708E+04  0.50400001928E-02 0. -1.
    10030    2    1    2    0    0  0.00000000000E+00  0.00000000000E+00 -0.84565700887E+03  0.34195989327E+04  0.33133851396E+04 0.  0.
        4    1    3    3  502    0 -0.84328736045E+03 -0.88325558333E+03 -0.15782494676E+04  0.19955317568E+04  0.12699999809E+01 0. -1.
       -4    1    3    3    0  502  0.84328736045E+03  0.88325558333E+03  0.73259245870E+03  0.14240671758E+04  0.12699999809E+01 0.  1.
</event>
<event>
 5   0  0.1126221E-06  0.3297219E+04  0.7818609E-02  0.8163603E-01
       -2   -1    0    0    0  501  0.00000000000E+00  0.00000000000E+00  0.13360007897E+04  0.13360007897E+04  0.25500000920E-02 0. -1.
        2   -1    0    0  501    0  0.00000000000E+00  0.00000000000E+00 -0.20343647408E+04  0.20343647408E+04  0.25500000920E-02 0.  1.
    10030    2    1    2    0    0  0.00000000000E+00  0.00000000000E+00 -0.69836395110E+03  0.33703655305E+04  0.32972187675E+04 0.  0.
        2    1    3    3  502    0 -0.14658060317E+04  0.24197845610E+03  0.38135597861E+03  0.15338100529E+04  0.25500000920E-02 0.  1.
       -2    1    3    3    0  502  0.14658060317E+04 -0.24197845610E+03 -0.10797199297E+04  0.18365554776E+04  0.25500000920E-02 0. -1.
</event>
<event>
 5   0  0.1116462E-06  0.3317795E+04  0.7818609E-02  0.8158382E-01
       -2   -1    0    0    0  501  0.00000000000E+00  0.00000000000E+00  0.13399905958E+04  0.13399905958E+04  0.25500000920E-02 0. -1.
        2   -1    0    0  501    0  0.00000000000E+00  0.00000000000E+00 -0.20537021930E+04  0.20537021930E+04  0.25500000920E-02 0.  1.
    10030    2    1    2    0    0  0.00000000000E+00  0.00000000000E+00 -0.71371159722E+03  0.33936927887E+04  0.33177954277E+04 0.  0.
        1    1    3    3  502    0  0.12804335044E+04  0.33838814245E+03  0.66495832469E+03  0.14819534635E+04  0.50400001928E-02 0. -1.
       -1    1    3    3    0  502 -0.12804335044E+04 -0.33838814245E+03 -0.13786699219E+04  0.19117393253E+04  0.50400001928E-02 0.  1.
</event>
<event>
 5   0  0.1146799E-06  0.3253593E+04  0.7818609E-02  0.8174805E-01
        2   -1    0    0  501    0  0.00000000000E+00  0.00000000000E+00  0.19522202678E+04  0.19522202678E+04  0.25500000920E-02 0. -1.
       -2   -1    0    0    0  501  0.00000000000E+00  0.00000000000E+00 -0.13556193706E+04  0.13556193706E+04  0.25500000920E-02 0.  1.
    10030    2    1    2    0    0  0.00000000000E+00  0.00000000000E+00  0.59660089719E+03  0.33078396383E+04  0.32535934661E+04 0.  0.
        5    1    3    3  502    0 -0.53785233820E+03 -0.15346950924E+04  0.25432002586E+03  0.16459875242E+04  0.46999998093E+01 0.  1.
       -5    1    3    3    0  502  0.53785233820E+03  0.15346950924E+04  0.34228087133E+03  0.16618521141E+04  0.46999998093E+01 0. -1.
</event>
<event>
 5   0  0.3674967E-07  0.3239894E+04  0.7818609E-02  0.8178360E-01
       -1   -1    0    0    0  501  0.00000000000E+00  0.00000000000E+00  0.18889307191E+04  0.18889307191E+04  0.50400001928E-02 0. -1.
        1   -1    0    0  501    0  0.00000000000E+00  0.00000000000E+00 -0.13892662172E+04  0.13892662173E+04  0.50400001928E-02 0.  1.
    10030    2    1    2    0    0  0.00000000000E+00  0.00000000000E+00  0.49966450185E+03  0.32781969364E+04  0.32398936000E+04 0.  0.
        2    1    3    3  502    0 -0.78524540849E+03  0.14136856167E+04  0.15325614627E+03  0.16243782875E+04  0.25500000920E-02 0. -1.
       -2    1    3    3    0  502  0.78524540849E+03 -0.14136856167E+04  0.34640835558E+03  0.16538186489E+04  0.25500000920E-02 0.  1.
</event>
<event>
 5   0  0.3709747E-07  0.3149632E+04  0.7818609E-02  0.8202247E-01
       -1   -1    0    0    0  501  0.00000000000E+00  0.00000000000E+00  0.13647935535E+04  0.13647935535E+04  0.50400001928E-02 0.  1.
        1   -1    0    0  501    0  0.00000000000E+00  0.00000000000E+00 -0.18171575451E+04  0.18171575451E+04  0.50400001928E-02 0. -1.
    10030    2    1    2    0    0  0.00000000000E+00  0.00000000000E+00 -0.45236399154E+03  0.31819510986E+04  0.31496316631E+04 0.  0.
        4    1    3    3  502    0 -0.92288910905E+03  0.92913615765E+03  0.65745022226E+03  0.14653534436E+04  0.12699999809E+01 0.  1.
       -4    1    3    3    0  502  0.92288910905E+03 -0.92913615765E+03 -0.11098142138E+04  0.17165976550E+04  0.12699999809E+01 0. -1.
</event>
<event>
 5   0  0.1120545E-06  0.3313316E+04  0.7818609E-02  0.8159515E-01
        2   -1    0    0  501    0  0.00000000000E+00  0.00000000000E+00  0.16627209828E+04  0.16627209828E+04  0.25500000920E-02 0.  1.
       -2   -1    0    0    0  501  0.00000000000E+00  0.00000000000E+00 -0.16506167964E+04  0.16506167964E+04  0.25500000920E-02 0. -1.
    10030    2    1    2    0    0  0.00000000000E+00  0.00000000000E+00  0.12104186470E+02  0.33133377792E+04  0.33133156698E+04 0.  0.
        4    1    3    3  502    0 -0.50998996558E+03  0.15686522259E+04 -0.14807225662E+03  0.16561058471E+04  0.12699999809E+01 0.  1.
       -4    1    3    3    0  502  0.50998996558E+03 -0.15686522259E+04  0.16017644309E+03  0.16572319321E+04  0.12699999809E+01 0. -1.
</event>
<event>
 5   0  0.1129434E-06  0.3304370E+04  0.7818609E-02  0.8161784E-01
        2   -1    0    0  501    0  0.00000000000E+00  0.00000000000E+00  0.10073244230E+04  0.10073244230E+04  0.25500000920E-02 0. -1.
       -2   -1    0    0    0  501  0.00000000000E+00  0.00000000000E+00 -0.27098663609E+04  0.27098663609E+04  0.25500000920E-02 0.  1.
    10030    2    1    2    0    0  0.00000000000E+00  0.00000000000E+00 -0.17025419380E+04  0.37171907839E+04  0.33043695727E+04 0.  0.
        3    1    3    3  502    0 -0.16075497570E+04 -0.37943498804E+03 -0.89523590166E+03  0.18787321420E+04  0.10100000352E+00 0.  1.
       -3    1    3    3    0  502  0.16075497570E+04  0.37943498804E+03 -0.80730603629E+03  0.18384586419E+04  0.10100000352E+00 0. -1.
</event>
<event>
 5   0  0.3757406E-07  0.3314672E+04  0.7818609E-02  0.8159172E-01
        1   -1    0    0  501    0  0.00000000000E+00  0.00000000000E+00  0.24008014457E+04  0.24008014457E+04  0.50400001928E-02 0.  1.
       -1   -1    0    0    0  501  0.00000000000E+00  0.00000000000E+00 -0.11441026609E+04  0.11441026609E+04  0.50400001928E-02 0. -1.
    10030    2    1    2    0    0  0.00000000000E+00  0.00000000000E+00  0.12566987848E+04  0.35449041066E+04  0.33146724257E+04 0.  0.
        1    1    3    3  502    0  0.10763620039E+04 -0.18436426083E+03  0.19616247130E+04  0.22451095427E+04  0.50400001928E-02 0.  1.
       -1    1    3    3    0  502 -0.10763620039E+04  0.18436426083E+03 -0.70492592821E+03  0.12997945639E+04  0.50400001928E-02 0. -1.
</event>
<event>
 5   0  0.3749685E-07  0.3316572E+04  0.7818609E-02  0.8158691E-01
        1   -1    0    0  501    0  0.00000000000E+00  0.00000000000E+00  0.21110628410E+04  0.21110628410E+04  0.50400001928E-02 0. -1.
       -1   -1    0    0    0  501  0.00000000000E+00  0.00000000000E+00 -0.13026202833E+04  0.13026202833E+04  0.50400001928E-02 0.  1.
    10030    2    1    2    0    0  0.00000000000E+00  0.00000000000E+00  0.80844255768E+03  0.34136831244E+04  0.33165724935E+04 0.  0.
        3    1    3    3  502    0 -0.13347859063E+04 -0.17542376057E+03 -0.59236794830E+03  0.14708251792E+04  0.10100000352E+00 0.  1.
       -3    1    3    3    0  502  0.13347859063E+04  0.17542376057E+03  0.14008105060E+04  0.19428579452E+04  0.10100000352E+00 0. -1.
</event>
<event>
 5   0  0.3674967E-07  0.3297208E+04  0.7818609E-02  0.8163606E-01
       -1   -1    0    0    0  501  0.00000000000E+00  0.00000000000E+00  0.15386750929E+04  0.15386750929E+04  0.50400001928E-02 0.  1.
        1   -1    0    0  501    0  0.00000000000E+00  0.00000000000E+00 -0.17663861688E+04  0.17663861688E+04  0.50400001928E-02 0. -1.
    10030    2    1    2    0    0  0.00000000000E+00  0.00000000000E+00 -0.22771107589E+03  0.33050612618E+04  0.32972075473E+04 0.  0.
        2    1    3    3  502    0 -0.72424138487E+02 -0.74871454386E+03  0.13566342008E+04  0.15512172893E+04  0.25500000920E-02 0.  1.
       -2    1    3    3    0  502  0.72424138487E+02  0.74871454386E+03 -0.15843452767E+04  0.17538439724E+04  0.25500000920E-02 0. -1.
</event>
<event>
 5   0  0.3674967E-07  0.3273290E+04  0.7818609E-02  0.8169725E-01
        1   -1    0    0  501    0  0.00000000000E+00  0.00000000000E+00  0.16469280562E+04  0.16469280562E+04  0.50400001928E-02 0. -1.
       -1   -1    0    0    0  501  0.00000000000E+00  0.00000000000E+00 -0.16264265775E+04  0.16264265776E+04  0.50400001928E-02 0.  1.
    10030    2    1    2    0    0  0.00000000000E+00  0.00000000000E+00  0.20501478652E+02  0.32733546338E+04  0.32732904313E+04 0.  0.
        2    1    3    3  502    0 -0.41722978179E+03  0.10131714099E+04  0.12260091632E+04  0.16442917822E+04  0.25500000920E-02 0. -1.
       -2    1    3    3    0  502  0.41722978179E+03 -0.10131714099E+04 -0.12055076846E+04  0.16290628515E+04  0.25500000920E-02 0.  1.
</event>
<event>
 5   0  0.1146799E-06  0.3280469E+04  0.7818609E-02  0.8167883E-01
       -2   -1    0    0    0  501  0.00000000000E+00  0.00000000000E+00  0.28072007316E+04  0.28072007316E+04  0.25500000920E-02 0. -1.
        2   -1    0    0  501    0  0.00000000000E+00  0.00000000000E+00 -0.95838173712E+03  0.95838173712E+03  0.25500000920E-02 0.  1.
    10030    2    1    2    0    0  0.00000000000E+00  0.00000000000E+00  0.18488189944E+04  0.37655824687E+04  0.32804694259E+04 0.  0.
        5    1    3    3  502    0 -0.95976249003E+03 -0.82411571209E+03  0.21228509010E+04  0.24711998668E+04  0.46999998093E+01 0. -1.
       -5    1    3    3    0  502  0.95976249003E+03  0.82411571209E+03 -0.27403190651E+03  0.12943826018E+04  0.46999998093E+01 0.  1.
</event>
<event>
 5   0  0.3796529E-07  0.3278639E+04  0.7818609E-02  0.8168352E-01
        1   -1    0    0  501    0  0.00000000000E+00  0.00000000000E+00  0.23689543684E+04  0.23689543684E+04  0.50400001928E-02 0. -1.
       -1   -1    0    0    0  501  0.00000000000E+00  0.00000000000E+00 -0.11344111434E+04  0.11344111434E+04  0.50400001928E-02 0.  1.
    10030    2    1    2    0    0  0.00000000000E+00  0.00000000000E+00  0.12345432250E+04  0.35033655118E+04  0.32786388844E+04 0.  0.
        5    1    3    3  502    0  0.74867818487E+03 -0.26337099877E+03  0.21499741087E+04  0.22917883989E+04  0.46999998093E+01 0. -1.
       -5    1    3    3    0  502 -0.74867818487E+03  0.26337099877E+03 -0.91543088369E+03  0.12115771128E+04  0.46999998093E+01 0.  1.
</event>
<event>
 5   0  0.3749685E-07  0.3302236E+04  0.7818609E-02  0.8162327E-01
       -1   -1    0    0    0  501  0.00000000000E+00  0.00000000000E+00  0.19423531205E+04  0.19423531205E+04  0.50400001928E-02 0.  1.
        1   -1    0    0  501    0  0.00000000000E+00  0.00000000000E+00 -0.14035503364E+04  0.14035503364E+04  0.50400001928E-02 0. -1.
    10030    2    1    2    0    0  0.00000000000E+00  0.00000000000E+00  0.53880278409E+03  0.33459034569E+04  0.33022358339E+04 0.  0.
        3    1    3    3  502    0 -0.54149078368E+03  0.96895378876E+03  0.15079017016E+04  0.18723918568E+04  0.10100000352E+00 0.  1.
       -3    1    3    3    0  502  0.54149078368E+03 -0.96895378876E+03 -0.96909891747E+03  0.14735116001E+04  0.10100000352E+00 0. -1.
</event>
<event>
 5   0  0.3796529E-07  0.3286963E+04  0.7818609E-02  0.8166221E-01
       -1   -1    0    0    0  501  0.00000000000E+00  0.00000000000E+00  0.22523295676E+04  0.22523295676E+04  0.50400001928E-02 0. -1.
        1   -1    0    0  501    0  0.00000000000E+00  0.00000000000E+00 -0.11992167717E+04  0.11992167717E+04  0.50400001928E-02 0.  1.
    10030    2    1    2    0    0  0.00000000000E+00  0.00000000000E+00  0.10531127959E+04  0.34515463393E+04  0.32869629708E+04 0.  0.
        5    1    3    3  502    0 -0.31168208405E+03 -0.14437204141E+04 -0.23032229600E+03  0.14948393912E+04  0.46999998093E+01 0.  1.
       -5    1    3    3    0  502  0.31168208405E+03  0.14437204141E+04  0.12834350919E+04  0.19567069481E+04  0.46999998093E+01 0. -1.
</event>
<event>
 5   0  0.3757406E-07  0.3308083E+04  0.7818609E-02  0.8160842E-01
        1   -1    0    0  501    0  0.00000000000E+00  0.00000000000E+00  0.17729725501E+04  0.17729725501E+04  0.50400001928E-02 0.  1.
       -1   -1    0    0    0  501  0.00000000000E+00  0.00000000000E+00 -0.15430885091E+04  0.15430885091E+04  0.50400001928E-02 0. -1.
    10030    2    1    2    0    0  0.00000000000E+00  0.00000000000E+00  0.22988404095E+03  0.33160610592E+04  0.33080831725E+04 0.  0.
        1    1    3    3  502    0  0.10125945021E+03 -0.16350264862E+04  0.34416023008E+03  0.16739209512E+04  0.50400001928E-02 0.  1.
       -1    1    3    3    0  502 -0.10125945021E+03  0.16350264862E+04 -0.11427618913E+03  0.16421401080E+04  0.50400001928E-02 0. -1.
</event>
<event>
 5   0  0.1126221E-06  0.3293592E+04  0.7818609E-02  0.8164528E-01
        2   -1    0    0  501    0  0.00000000000E+00  0.00000000000E+00  0.12621533438E+04  0.12621533438E+04  0.25500000920E-02 0. -1.
       -2   -1    0    0    0  501  0.00000000000E+00  0.00000000000E+00 -0.21486582921E+04  0.21486582921E+04  0.25500000920E-02 0.  1.
    10030    2    1    2    0    0  0.00000000000E+00  0.00000000000E+00 -0.88650494828E+03  0.34108116359E+04  0.32935915035E+04 0.  0.
        2    1    3    3  502    0  0.17699125106E+03 -0.81933599334E+03 -0.19111991262E+04  0.20869402179E+04  0.25500000920E-02 0.  1.
       -2    1    3    3    0  502 -0.17699125106E+03  0.81933599334E+03  0.10246941780E+04  0.13238714180E+04  0.25500000920E-02 0. -1.
</event>
<event>
 5   0  0.1116462E-06  0.3355856E+04  0.7818609E-02  0.8148826E-01
       -2   -1    0    0    0  501  0.00000000000E+00  0.00000000000E+00  0.23068060969E+04  0.23068060969E+04  0.25500000920E-02 0.  1.
        2   -1    0    0  501    0  0.00000000000E+00  0.00000000000E+00 -0.12204938591E+04  0.12204938591E+04  0.25500000920E-02 0. -1.
    10030    2    1    2    0    0  0.00000000000E+00  0.00000000000E+00  0.10863122379E+04  0.35272999560E+04  0.33558561801E+04 0.  0.
        1    1    3    3  502    0  0.11917894772E+03  0.14515424197E+04 -0.33263647582E+03  0.14939297315E+04  0.50400001928E-02 0. -1.
       -1    1    3    3    0  502 -0.11917894772E+03 -0.14515424197E+04  0.14189487137E+04  0.20333702245E+04  0.50400001928E-02 0.  1.
</event>
<event>
 5   0  0.3573375E-07  0.3282174E+04  0.7818609E-02  0.8167446E-01
        3   -1    0    0  501    0  0.00000000000E+00  0.00000000000E+00  0.15658799929E+04  0.15658799961E+04  0.10100000352E+00 0.  1.
       -3   -1    0    0    0  501  0.00000000000E+00  0.00000000000E+00 -0.17199058591E+04  0.17199058621E+04  0.10100000352E+00 0. -1.
    10030    2    1    2    0    0  0.00000000000E+00  0.00000000000E+00 -0.15402586622E+03  0.32857858582E+04  0.32821737825E+04 0.  0.
        4    1    3    3  502    0  0.38934543984E+03  0.97068670894E+03 -0.13430556434E+04  0.17022404744E+04  0.12699999809E+01 0. -1.
       -4    1    3    3    0  502 -0.38934543984E+03 -0.97068670894E+03  0.11890297772E+04  0.15835453838E+04  0.12699999809E+01 0.  1.
</event>
<event>
 5   0  0.3674967E-07  0.3315697E+04  0.7818609E-02  0.8158913E-01
        1   -1    0    0  501    0  0.00000000000E+00  0.00000000000E+00  0.11563723097E+04  0.11563723097E+04  0.50400001928E-02 0.  1.
       -1   -1    0    0    0  501  0.00000000000E+00  0.00000000000E+00 -0.23767968663E+04  0.23767968663E+04  0.50400001928E-02 0. -1.
    10030    2    1    2    0    0  0.00000000000E+00  0.00000000000E+00 -0.12204245566E+04  0.35331691760E+04  0.33156972612E+04 0.  0.
        2    1    3    3  502    0 -0.12338478975E+04  0.17934199826E+03 -0.17745441703E+04  0.21687672071E+04  0.25500000920E-02 0. -1.
       -2    1    3    3    0  502  0.12338478975E+04 -0.17934199826E+03  0.55411961367E+03  0.13644019689E+04  0.25500000920E-02 0.  1.
</event>
<event>
 5   0  0.3749685E-07  0.3255870E+04  0.7818609E-02  0.8174216E-01
        1   -1    0    0  501    0  0.00000000000E+00  0.00000000000E+00  0.18342739268E+04  0.18342739268E+04  0.50400001928E-02 0.  1.
       -1   -1    0    0    0  501  0.00000000000E+00  0.00000000000E+00 -0.14448069972E+04  0.14448069972E+04  0.50400001928E-02 0. -1.
    10030    2    1    2    0    0  0.00000000000E+00  0.00000000000E+00  0.38946692952E+03  0.32790809240E+04  0.32558696560E+04 0.  0.
        3    1    3    3  502    0 -0.15197545825E+03 -0.14660714532E+04  0.89082632037E+03  0.17222176369E+04  0.10100000352E+00 0.  1.
       -3    1    3    3    0  502  0.15197545825E+03  0.14660714532E+04 -0.50135939084E+03  0.15568632871E+04  0.10100000352E+00 0. -1.
</event>
<event>
 5   0  0.1126221E-06  0.3302602E+04  0.7818609E-02  0.8162234E-01
       -2   -1    0    0    0  501  0.00000000000E+00  0.00000000000E+00  0.17013463984E+04  0.17013463984E+04  0.25500000920E-02 0.  1.
        2   -1    0    0  501    0  0.00000000000E+00  0.00000000000E+00 -0.16027274006E+04  0.16027274006E+04  0.25500000920E-02 0. -1.
    10030    2    1    2    0    0  0.00000000000E+00  0.00000000000E+00  0.98618997844E+02  0.33040737990E+04  0.33026016960E+04 0.  0.
        2    1    3    3  502    0 -0.65711959278E+03 -0.11041176566E+04  0.10870338847E+04  0.16830105838E+04  0.25500000920E-02 0.  1.
       -2    1    3    3    0  502  0.65711959278E+03  0.11041176566E+04 -0.98841488686E+03  0.16210632151E+04  0.25500000920E-02 0. -1.
</event>
<event>
 5   0  0.1116462E-06  0.3309879E+04  0.7818609E-02  0.8160386E-01
       -2   -1    0    0    0  501  0.00000000000E+00  0.00000000000E+00  0.19596689917E+04  0.19596689917E+04  0.25500000920E-02 0.  1.
        2   -1    0    0  501    0  0.00000000000E+00  0.00000000000E+00 -0.13975956339E+04  0.13975956340E+04  0.25500000920E-02 0. -1.
    10030    2    1    2    0    0  0.00000000000E+00  0.00000000000E+00  0.56207335774E+03  0.33572646256E+04  0.33098790472E+04 0.  0.
        1    1    3    3  502    0 -0.53023639141E+02  0.60006461884E+03  0.18445111672E+04  0.19403892648E+04  0.50400001928E-02 0.  1.
       -1    1    3    3    0  502  0.53023639141E+02 -0.60006461884E+03 -0.12824378094E+04  0.14168753608E+04  0.50400001928E-02 0. -1.
</event>
<event>
 5   0  0.3757406E-07  0.3263096E+04  0.7818609E-02  0.8172349E-01
       -1   -1    0    0    0  501  0.00000000000E+00  0.00000000000E+00  0.20715323938E+04  0.20715323938E+04  0.50400001928E-02 0. -1.
        1   -1    0    0  501    0  0.00000000000E+00  0.00000000000E+00 -0.12850147259E+04  0.12850147259E+04  0.50400001928E-02 0.  1.
    10030    2    1    2    0    0  0.00000000000E+00  0.00000000000E+00  0.78651766789E+03  0.33565471197E+04  0.32630964627E+04 0.  0.
        1    1    3    3  502    0  0.64188910683E+03  0.11332898158E+04 -0.61752307707E+03  0.14414236653E+04  0.50400001928E-02 0. -1.
       -1    1    3    3    0  502 -0.64188910683E+03 -0.11332898158E+04  0.14040407450E+04  0.19151234544E+04  0.50400001928E-02 0.  1.
</event>
<event>
 5   0  0.1126221E-06  0.3252870E+04  0.7818609E-02  0.8174992E-01
       -2   -1    0    0    0  501  0.00000000000E+00  0.00000000000E+00  0.18466567475E+04  0.18466567475E+04  0.25500000920E-02 0.  1.
        2   -1    0    0  501    0  0.00000000000E+00  0.00000000000E+00 -0.14324754472E+04  0.14324754472E+04  0.25500000920E-02 0. -1.
    10030    2    1    2    0    0  0.00000000000E+00  0.00000000000E+00  0.41418130033E+03  0.32791321947E+04  0.32528697793E+04 0.  0.
        2    1    3    3  502    0 -0.35382294671E+03 -0.15778340902E+04  0.30924611689E+02  0.16173148813E+04  0.25500000920E-02 0. -1.
       -2    1    3    3    0  502  0.35382294671E+03  0.15778340902E+04  0.38325668864E+03  0.16618173134E+04  0.25500000920E-02 0.  1.
</event>
<event>
 5   0  0.3709747E-07  0.3308708E+04  0.7818609E-02  0.8160683E-01
       -1   -1    0    0    0  501  0.00000000000E+00  0.00000000000E+00  0.15426877122E+04  0.15426877122E+04  0.50400001928E-02 0.  1.
        1   -1    0    0  501    0  0.00000000000E+00  0.00000000000E+00 -0.17741027459E+04  0.17741027459E+04  0.50400001928E-02 0. -1.
    10030    2    1    2    0    0  0.00000000000E+00  0.00000000000E+00 -0.23141503376E+03  0.33167904581E+04  0.33087076065E+04 0.  0.
        4    1    3    3  502    0  0.86213758462E+03  0.30036262667E+03 -0.14987103746E+04  0.17548884073E+04  0.12699999809E+01 0. -1.
       -4    1    3    3    0  502 -0.86213758462E+03 -0.30036262667E+03  0.12672953409E+04  0.15619020508E+04  0.12699999809E+01 0.  1.
</event>
<event>
 5   0  0.3749685E-07  0.3290446E+04  0.7818609E-02  0.8165331E-01
       -1   -1    0    0    0  501  0.00000000000E+00  0.00000000000E+00  0.14427641699E+04  0.14427641699E+04  0.50400001928E-02 0. -1.
        1   -1    0    0  501    0  0.00000000000E+00  0.00000000000E+00 -0.18760919052E+04  0.18760919052E+04  0.50400001928E-02 0.  1.
    10030    2    1    2    0    0  0.00000000000E+00  0.00000000000E+00 -0.43332773536E+03  0.33188560751E+04  0.32904456721E+04 0.  0.
        3    1    3    3  502    0  0.23982696735E+03  0.12820565939E+04  0.79477653811E+03  0.15273689273E+04  0.10100000352E+00 0. -1.
       -3    1    3    3    0  502 -0.23982696735E+03 -0.12820565939E+04 -0.12281042735E+04  0.17914871479E+04  0.10100000352E+00 0.  1.
</event>
<event>
 5   0  0.1146799E-06  0.3447299E+04  0.7818609E-02  0.8126394E-01
       -2   -1    0    0    0  501  0.00000000000E+00  0.00000000000E+00  0.20354501319E+04  0.20354501319E+04  0.25500000920E-02 0.  1.
        2   -1    0    0  501    0  0.00000000000E+00  0.00000000000E+00 -0.14596119065E+04  0.14596119065E+04  0.25500000920E-02 0. -1.
    10030    2    1    2    0    0  0.00000000000E+00  0.00000000000E+00  0.57583822538E+03  0.34950620385E+04  0.34472987963E+04 0.  0.
        5    1    3    3  502    0 -0.77313161293E+03  0.15405234916E+04  0.28811878165E+03  0.17475639162E+04  0.46999998093E+01 0. -1.
       -5    1    3    3    0  502  0.77313161293E+03 -0.15405234916E+04  0.28771944373E+03  0.17474981222E+04  0.46999998093E+01 0.  1.
</event>
<event>
 5   0  0.1126221E-06  0.2993854E+04  0.7818609E-02  0.8245488E-01
       -2   -1    0    0    0  501  0.00000000000E+00  0.00000000000E+00  0.20983814946E+04  0.20983814946E+04  0.25500000920E-02 0.  1.
        2   -1    0    0  501    0  0.00000000000E+00  0.00000000000E+00 -0.10678658653E+04  0.10678658653E+04  0.25500000920E-02 0. -1.
    10030    2    1    2    0    0  0.00000000000E+00  0.00000000000E+00  0.10305156292E+04  0.31662473599E+04  0.29938536842E+04 0.  0.
        2    1    3    3  502    0  0.69772976477E+03  0.12366897498E+04  0.10164243045E+04  0.17462378786E+04  0.25500000920E-02 0.  1.
       -2    1    3    3    0  502 -0.69772976477E+03 -0.12366897498E+04  0.14091324778E+02  0.14200094814E+04  0.25500000920E-02 0. -1.
</event>
<event>
 5   0  0.3573375E-07  0.3289195E+04  0.7818609E-02  0.8165650E-01
        3   -1    0    0  501    0  0.00000000000E+00  0.00000000000E+00  0.11606143100E+04  0.11606143144E+04  0.10100000352E+00 0. -1.
       -3   -1    0    0    0  501  0.00000000000E+00  0.00000000000E+00 -0.23304051892E+04  0.23304051914E+04  0.10100000352E+00 0.  1.
    10030    2    1    2    0    0  0.00000000000E+00  0.00000000000E+00 -0.11697908792E+04  0.34910195058E+04  0.32891954166E+04 0.  0.
        2    1    3    3  502    0 -0.14537152792E+04  0.71774899071E+03 -0.29181811048E+03  0.16473037171E+04  0.25500000920E-02 0. -1.
       -2    1    3    3    0  502  0.14537152792E+04 -0.71774899071E+03 -0.87797276876E+03  0.18437157887E+04  0.25500000920E-02 0.  1.
</event>
<event>
 5   0  0.3674967E-07  0.3286434E+04  0.7818609E-02  0.8166356E-01
        1   -1    0    0  501    0  0.00000000000E+00  0.00000000000E+00  0.12204687920E+04  0.12204687920E+04  0.50400001928E-02 0. -1.
       -1   -1    0    0    0  501  0.00000000000E+00  0.00000000000E+00 -0.22123977199E+04  0.22123977200E+04  0.50400001928E-02 0.  1.
    10030    2    1    2    0    0  0.00000000000E+00  0.00000000000E+00 -0.99192892794E+03  0.34328665120E+04  0.32864341604E+04 0.  0.
        2    1    3    3  502    0  0.13684658345E+04 -0.68236619819E+03 -0.11242980431E+04  0.18979906371E+04  0.25500000920E-02 0. -1.
       -2    1    3    3    0  502 -0.13684658345E+04  0.68236619819E+03  0.13236911514E+03  0.15348758749E+04  0.25500000920E-02 0.  1.
</event>
<event>
 5   0  0.3757406E-07  0.3301037E+04  0.7818609E-02  0.8162632E-01
        1   -1    0    0  501    0  0.00000000000E+00  0.00000000000E+00  0.19655998587E+04  0.19655998587E+04  0.50400001928E-02 0. -1.
       -1   -1    0    0    0  501  0.00000000000E+00  0.00000000000E+00 -0.13859441112E+04  0.13859441112E+04  0.50400001928E-02 0.  1.
    10030    2    1    2    0    0  0.00000000000E+00  0.00000000000E+00  0.57965574748E+03  0.33515439699E+04  0.33010371396E+04 0.  0.
        1    1    3    3  502    0 -0.48840025580E+03 -0.64205584052E+01  0.18905399953E+04  0.19526181161E+04  0.50400001928E-02 0. -1.
       -1    1    3    3    0  502  0.48840025580E+03  0.64205584052E+01 -0.13108842478E+04  0.13989258539E+04  0.50400001928E-02 0.  1.
</event>
<event>
 5   0  0.1126221E-06  0.3275606E+04  0.7818609E-02  0.8169130E-01
       -2   -1    0    0    0  501  0.00000000000E+00  0.00000000000E+00  0.13224659871E+04  0.13224659871E+04  0.25500000920E-02 0.  1.
        2   -1    0    0  501    0  0.00000000000E+00  0.00000000000E+00 -0.20283315306E+04  0.20283315306E+04  0.25500000920E-02 0. -1.
    10030    2    1    2    0    0  0.00000000000E+00  0.00000000000E+00 -0.70586554353E+03  0.33507975178E+04  0.32756064842E+04 0.  0.
        2    1    3    3  502    0 -0.33962633827E+03 -0.11290739677E+04  0.80993131426E+03  0.14304344822E+04  0.25500000920E-02 0.  1.
       -2    1    3    3    0  502  0.33962633827E+03  0.11290739677E+04 -0.15157968578E+04  0.19203630355E+04  0.25500000920E-02 0. -1.
</event>
<event>
 5   0  0.3757406E-07  0.3175340E+04  0.7818609E-02  0.8195360E-01
        1   -1    0    0  501    0  0.00000000000E+00  0.00000000000E+00  0.12376348815E+04  0.12376348815E+04  0.50400001928E-02 0. -1.
       -1   -1    0    0    0  501  0.00000000000E+00  0.00000000000E+00 -0.20367039584E+04  0.20367039584E+04  0.50400001928E-02 0.  1.
    10030    2    1    2    0    0  0.00000000000E+00  0.00000000000E+00 -0.79906907692E+03  0.32743388398E+04  0.31753398949E+04 0.  0.
        1    1    3    3  502    0  0.95794677842E+03  0.79060702255E+03 -0.14192925734E+04  0.18860309921E+04  0.50400001928E-02 0.  1.
       -1    1    3    3    0  502 -0.95794677842E+03 -0.79060702255E+03  0.62022349648E+03  0.13883078477E+04  0.50400001928E-02 0. -1.
</event>
<event>
 5   0  0.3573375E-07  0.3253861E+04  0.7818609E-02  0.8174736E-01
       -4   -1    0    0    0  501  0.00000000000E+00  0.00000000000E+00  0.12799402425E+04  0.12799408726E+04  0.12699999809E+01 0.  1.
        4   -1    0    0  501    0  0.00000000000E+00  0.00000000000E+00 -0.20679877209E+04  0.20679881109E+04  0.12699999809E+01 0. -1.
    10030    2    1    2    0    0  0.00000000000E+00  0.00000000000E+00 -0.78804747842E+03  0.33479289835E+04  0.32538607300E+04 0.  0.
        1    1    3    3  502    0  0.62797933272E+01  0.58090993998E+03 -0.19576302841E+04  0.20420117834E+04  0.50400001928E-02 0. -1.
       -1    1    3    3    0  502 -0.62797933272E+01 -0.58090993998E+03  0.11695828057E+04  0.13059172001E+04  0.50400001928E-02 0.  1.
</event>
<event>
 5   0  0.3749685E-07  0.3284168E+04  0.7818609E-02  0.8166936E-01
        1   -1    0    0  501    0  0.00000000000E+00  0.00000000000E+00  0.20519613594E+04  0.20519613595E+04  0.50400001928E-02 0.  1.
       -1   -1    0    0    0  501  0.00000000000E+00  0.00000000000E+00 -0.13140792466E+04  0.13140792467E+04  0.50400001928E-02 0. -1.
    10030    2    1    2    0    0  0.00000000000E+00  0.00000000000E+00  0.73788211280E+03  0.33660406061E+04  0.32841679844E+04 0.  0.
        3    1    3    3  502    0  0.20191343669E+03  0.10683371212E+04  0.16301985551E+04  0.19595051875E+04  0.10100000352E+00 0.  1.
       -3    1    3    3    0  502 -0.20191343669E+03 -0.10683371212E+04 -0.89231644230E+03  0.14065354186E+04  0.10100000352E+00 0. -1.
</event>
<event>
 5   0  0.3573375E-07  0.3308942E+04  0.7818609E-02  0.8160624E-01
        3   -1    0    0  501    0  0.00000000000E+00  0.00000000000E+00  0.19146026325E+04  0.19146026351E+04  0.10100000352E+00 0.  1.
       -3   -1    0    0    0  501  0.00000000000E+00  0.00000000000E+00 -0.14296827651E+04  0.14296827687E+04  0.10100000352E+00 0. -1.
    10030    2    1    2    0    0  0.00000000000E+00  0.00000000000E+00  0.48491986736E+03  0.33442854038E+04  0.33089420642E+04 0.  0.
        5    1    3    3  502    0  0.11335595169E+04  0.10545228583E+04 -0.34710311577E+03  0.15866563270E+04  0.46999998093E+01 0. -1.
       -5    1    3    3    0  502 -0.11335595169E+04 -0.10545228583E+04  0.83202298313E+03  0.17576290768E+04  0.46999998093E+01 0.  1.
</event>
<event>
 5   0  0.3796529E-07  0.3264923E+04  0.7818609E-02  0.8171878E-01
       -1   -1    0    0    0  501  0.00000000000E+00  0.00000000000E+00  0.12857083620E+04  0.12857083620E+04  0.50400001928E-02 0.  1.
        1   -1    0    0  501    0  0.00000000000E+00  0.00000000000E+00 -0.20727336105E+04  0.20727336105E+04  0.50400001928E-02 0. -1.
    10030    2    1    2    0    0  0.00000000000E+00  0.00000000000E+00 -0.78702524858E+03  0.33584419725E+04  0.32649232366E+04 0.  0.
        5    1    3    3  502    0  0.87996092502E+03 -0.12371331565E+04  0.22374131864E+03  0.15345722349E+04  0.46999998093E+01 0.  1.
       -5    1    3    3    0  502 -0.87996092502E+03  0.12371331565E+04 -0.10107665672E+04  0.18238697376E+04  0.46999998093E+01 0. -1.
</event>
<event>
 5   0  0.1126221E-06  0.3308828E+04  0.7818609E-02  0.8160653E-01
       -2   -1    0    0    0  501  0.00000000000E+00  0.00000000000E+00  0.11941822276E+04  0.11941822276E+04  0.25500000920E-02 0. -1.
        2   -1    0    0  501    0  0.00000000000E+00  0.00000000000E+00 -0.22920170137E+04  0.22920170137E+04  0.25500000920E-02 0.  1.
    10030    2    1    2    0    0  0.00000000000E+00  0.00000000000E+00 -0.10978347862E+04  0.34861992413E+04  0.33088281811E+04 0.  0.
        2    1    3    3  502    0 -0.96462541225E+03  0.86702802650E+03  0.53319546889E+03  0.14023327682E+04  0.25500000920E-02 0. -1.
       -2    1    3    3    0  502  0.96462541225E+03 -0.86702802650E+03 -0.16310302550E+04  0.20838664731E+04  0.25500000920E-02 0.  1.
</event>
<event>
 5   0  0.3757406E-07  0.3292282E+04  0.7818609E-02  0.8164862E-01
        1   -1    0    0  501    0  0.00000000000E+00  0.00000000000E+00  0.24217518132E+04  0.24217518132E+04  0.50400001928E-02 0.  1.
       -1   -1    0    0    0  501  0.00000000000E+00  0.00000000000E+00 -0.11189339226E+04  0.11189339226E+04  0.50400001928E-02 0. -1.
    10030    2    1    2    0    0  0.00000000000E+00  0.00000000000E+00  0.13028178906E+04  0.35406857358E+04  0.32922820389E+04 0.  0.
        1    1    3    3  502    0 -0.12047129996E+04 -0.10732640877E+04  0.10024591252E+04  0.18995140198E+04  0.50400001928E-02 0.  1.
       -1    1    3    3    0  502  0.12047129996E+04  0.10732640877E+04  0.30035876540E+03  0.16411717160E+04  0.50400001928E-02 0. -1.
</event>
<event>
 5   0  0.1126221E-06  0.3308193E+04  0.7818609E-02  0.8160814E-01
        2   -1    0    0  501    0  0.00000000000E+00  0.00000000000E+00  0.24766510581E+04  0.24766510581E+04  0.25500000920E-02 0.  1.
       -2   -1    0    0    0  501  0.00000000000E+00  0.00000000000E+00 -0.11047321258E+04  0.11047321258E+04  0.25500000920E-02 0. -1.
    10030    2    1    2    0    0  0.00000000000E+00  0.00000000000E+00  0.13719189324E+04  0.35813831839E+04  0.33081934576E+04 0.  0.
        2    1    3    3  502    0 -0.11579456081E+04 -0.88170666580E+03 -0.16494497427E+03  0.14647359900E+04  0.25500000920E-02 0.  1.
       -2    1    3    3    0  502  0.11579456081E+04  0.88170666580E+03  0.15368639066E+04  0.21166471939E+04  0.25500000920E-02 0. -1.
</event>
<event>
 5   0  0.3674967E-07  0.3272792E+04  0.7818609E-02  0.8169853E-01
        1   -1    0    0  501    0  0.00000000000E+00  0.00000000000E+00  0.11957985107E+04  0.11957985107E+04  0.50400001928E-02 0. -1.
       -1   -1    0    0    0  501  0.00000000000E+00  0.00000000000E+00 -0.22393332401E+04  0.22393332401E+04  0.50400001928E-02 0.  1.
    10030    2    1    2    0    0  0.00000000000E+00  0.00000000000E+00 -0.10435347294E+04  0.34351317508E+04  0.32727916850E+04 0.  0.
        2    1    3    3  502    0 -0.27597250852E+02  0.79590244360E+03 -0.20222110266E+04  0.21733751963E+04  0.25500000920E-02 0.  1.
       -2    1    3    3    0  502  0.27597250852E+02 -0.79590244360E+03  0.97867629718E+03  0.12617565544E+04  0.25500000920E-02 0. -1.
</event>
<event>
 5   0  0.3674967E-07  0.3306854E+04  0.7818609E-02  0.8161154E-01
        1   -1    0    0  501    0  0.00000000000E+00  0.00000000000E+00  0.18818355463E+04  0.18818355463E+04  0.50400001928E-02 0. -1.
       -1   -1    0    0    0  501  0.00000000000E+00  0.00000000000E+00 -0.14527416695E+04  0.14527416695E+04  0.50400001928E-02 0.  1.
    10030    2    1    2    0    0  0.00000000000E+00  0.00000000000E+00  0.42909387681E+03  0.33345772157E+04  0.33068540416E+04 0.  0.
        2    1    3    3  502    0  0.44800624331E+03  0.45431230902E+03  0.17526910731E+04  0.18652172169E+04  0.25500000920E-02 0. -1.
       -2    1    3    3    0  502 -0.44800624331E+03 -0.45431230902E+03 -0.13235971963E+04  0.14693599989E+04  0.25500000920E-02 0.  1.
</event>
<event>
 5   0  0.3709747E-07  0.3248545E+04  0.7818609E-02  0.8176113E-01
        1   -1    0    0  501    0  0.00000000000E+00  0.00000000000E+00  0.16454069760E+04  0.16454069760E+04  0.50400001928E-02 0. -1.
       -1   -1    0    0    0  501  0.00000000000E+00  0.00000000000E+00 -0.16034090145E+04  0.16034090146E+04  0.50400001928E-02 0.  1.
    10030    2    1    2    0    0  0.00000000000E+00  0.00000000000E+00  0.41997961415E+02  0.32488159905E+04  0.32485445220E+04 0.  0.
        4    1    3    3  502    0 -0.12128822431E+04 -0.10419871987E+04 -0.26439849412E+03  0.16207186167E+04  0.12699999809E+01 0.  1.
       -4    1    3    3    0  502  0.12128822431E+04  0.10419871987E+04  0.30639645553E+03  0.16280973738E+04  0.12699999809E+01 0. -1.
</event>
<event>
 5   0  0.3709747E-07  0.3274526E+04  0.7818609E-02  0.8169408E-01
       -1   -1    0    0    0  501  0.00000000000E+00  0.00000000000E+00  0.18501161681E+04  0.18501161681E+04  0.50400001928E-02 0. -1.
        1   -1    0    0  501    0  0.00000000000E+00  0.00000000000E+00 -0.14488980310E+04  0.14488980310E+04  0.50400001928E-02 0.  1.
    10030    2    1    2    0    0  0.00000000000E+00  0.00000000000E+00  0.40121813710E+03  0.32990141992E+04  0.32745257203E+04 0.  0.
        4    1    3    3  502    0  0.32412052218E+02  0.16351620330E+04  0.12373215599E+03  0.16401575152E+04  0.12699999809E+01 0. -1.
       -4    1    3    3    0  502 -0.32412052218E+02 -0.16351620330E+04  0.27748598111E+03  0.16588566840E+04  0.12699999809E+01 0.  1.
</event>
<event>
 5   0  0.3796529E-07  0.3276262E+04  0.7818609E-02  0.8168962E-01
       -1   -1    0    0    0  501  0.00000000000E+00  0.00000000000E+00  0.14385188769E+04  0.14385188769E+04  0.50400001928E-02 0.  1.
        1   -1    0    0  501    0  0.00000000000E+00  0.00000000000E+00 -0.18654416808E+04  0.18654416808E+04  0.50400001928E-02 0. -1.
    10030    2    1    2    0    0  0.00000000000E+00  0.00000000000E+00 -0.42692280388E+03  0.33039605577E+04  0.32762619380E+04 0.  0.
        5    1    3    3  502    0  0.54220040599E+03 -0.15457906782E+04 -0.21251504153E+03  0.16518579944E+04  0.46999998093E+01 0. -1.
       -5    1    3    3    0  502 -0.54220040599E+03  0.15457906782E+04 -0.21440776236E+03  0.16521025632E+04  0.46999998093E+01 0.  1.
</event>
<event>
 5   0  0.3749685E-07  0.3320675E+04  0.7818609E-02  0.8157655E-01
        1   -1    0    0  501    0  0.00000000000E+00  0.00000000000E+00  0.19432384538E+04  0.19432384538E+04  0.50400001928E-02 0.  1.
       -1   -1    0    0    0  501  0.00000000000E+00  0.00000000000E+00 -0.14186216268E+04  0.14186216268E+04  0.50400001928E-02 0. -1.
    10030    2    1    2    0    0  0.00000000000E+00  0.00000000000E+00  0.52461682702E+03  0.33618600805E+04  0.33206746884E+04 0.  0.
        3    1    3    3  502    0  0.32606108157E+03  0.57801054182E+03  0.18031268372E+04  0.19213740960E+04  0.10100000352E+00 0.  1.
       -3    1    3    3    0  502 -0.32606108157E+03 -0.57801054182E+03 -0.12785100102E+04  0.14404859846E+04  0.10100000352E+00 0. -1.
</event>
<event>
 5   0  0.1146799E-06  0.3329020E+04  0.7818609E-02  0.8155550E-01
       -2   -1    0    0    0  501  0.00000000000E+00  0.00000000000E+00  0.10820175840E+04  0.10820175840E+04  0.25500000920E-02 0. -1.
        2   -1    0    0  501    0  0.00000000000E+00  0.00000000000E+00 -0.25605808928E+04  0.25605808928E+04  0.25500000920E-02 0.  1.
    10030    2    1    2    0    0  0.00000000000E+00  0.00000000000E+00 -0.14785633088E+04  0.36425984769E+04  0.33290200068E+04 0.  0.
        5    1    3    3  502    0  0.68298571273E+03  0.15101233652E+04 -0.90747981401E+03  0.18895723761E+04  0.46999998093E+01 0. -1.
       -5    1    3    3    0  502 -0.68298571273E+03 -0.15101233652E+04 -0.57108349478E+03  0.17530261007E+04  0.46999998093E+01 0.  1.
</event>
<event>
 5   0  0.3796529E-07  0.3318507E+04  0.7818609E-02  0.8158202E-01
        1   -1    0    0  501    0  0.00000000000E+00  0.00000000000E+00  0.10901917449E+04  0.10901917449E+04  0.50400001928E-02 0.  1.
       -1   -1    0    0    0  501  0.00000000000E+00  0.00000000000E+00 -0.25253552140E+04  0.25253552140E+04  0.50400001928E-02 0. -1.
    10030    2    1    2    0    0  0.00000000000E+00  0.00000000000E+00 -0.14351634691E+04  0.36155469589E+04  0.33185065359E+04 0.  0.
        5    1    3    3  502    0  0.77784764158E+03  0.50854934564E+03  0.78002134397E+03  0.12133114924E+04  0.46999998093E+01 0.  1.
       -5    1    3    3    0  502 -0.77784764158E+03 -0.50854934564E+03 -0.22151848131E+04  0.24022354665E+04  0.46999998093E+01 0. -1.
</event>
<event>
 5   0  0.1116462E-06  0.3296087E+04  0.7818609E-02  0.8163892E-01
        2   -1    0    0  501    0  0.00000000000E+00  0.00000000000E+00  0.17057352792E+04  0.17057352792E+04  0.25500000920E-02 0.  1.
       -2   -1    0    0    0  501  0.00000000000E+00  0.00000000000E+00 -0.15923027875E+04  0.15923027875E+04  0.25500000920E-02 0. -1.
    10030    2    1    2    0    0  0.00000000000E+00  0.00000000000E+00  0.11343249170E+03  0.32980380667E+04  0.32960867949E+04 0.  0.
        1    1    3    3  502    0  0.65891188519E+03  0.21092803751E+03 -0.14399605297E+04  0.15975424365E+04  0.50400001928E-02 0. -1.
       -1    1    3    3    0  502 -0.65891188519E+03 -0.21092803751E+03  0.15533930214E+04  0.17004956302E+04  0.50400001928E-02 0.  1.
</event>
<event>
 5   0  0.3749685E-07  0.3307196E+04  0.7818609E-02  0.8161067E-01
       -1   -1    0    0    0  501  0.00000000000E+00  0.00000000000E+00  0.13855536408E+04  0.13855536408E+04  0.50400001928E-02 0. -1.
        1   -1    0    0  501    0  0.00000000000E+00  0.00000000000E+00 -0.19734975775E+04  0.19734975775E+04  0.50400001928E-02 0.  1.
    10030    2    1    2    0    0  0.00000000000E+00  0.00000000000E+00 -0.58794393668E+03  0.33590512183E+04  0.33071962467E+04 0.  0.
        3    1    3    3  502    0  0.12648825310E+04  0.55391095347E+02 -0.13743182261E+04  0.18686215742E+04  0.10100000352E+00 0.  1.
       -3    1    3    3    0  502 -0.12648825310E+04 -0.55391095347E+02  0.78637428943E+03  0.14904296441E+04  0.10100000352E+00 0. -1.
</event>
<event>
 5   0  0.3709747E-07  0.3305205E+04  0.7818609E-02  0.8161572E-01
       -1   -1    0    0    0  501  0.00000000000E+00  0.00000000000E+00  0.21255635753E+04  0.21255635753E+04  0.50400001928E-02 0.  1.
        1   -1    0    0  501    0  0.00000000000E+00  0.00000000000E+00 -0.12848803725E+04  0.12848803725E+04  0.50400001928E-02 0. -1.
    10030    2    1    2    0    0  0.00000000000E+00  0.00000000000E+00  0.84068320283E+03  0.34104439478E+04  0.33052049367E+04 0.  0.
        4    1    3    3  502    0  0.93446249151E+03 -0.86066909275E+03 -0.67025163617E+03  0.14363879364E+04  0.12699999809E+01 0. -1.
       -4    1    3    3    0  502 -0.93446249151E+03  0.86066909275E+03  0.15109348390E+04  0.19740560113E+04  0.12699999809E+01 0.  1.
</event>
<event>
 5   0  0.1116462E-06  0.3323092E+04  0.7818609E-02  0.8157044E-01
        2   -1    0    0  501    0  0.00000000000E+00  0.00000000000E+00  0.20191413552E+04  0.20191413552E+04  0.25500000920E-02 0. -1.
       -2   -1    0    0    0  501  0.00000000000E+00  0.00000000000E+00 -0.13672818195E+04  0.13672818195E+04  0.25500000920E-02 0.  1.
    10030    2    1    2    0    0  0.00000000000E+00  0.00000000000E+00  0.65185953572E+03  0.33864231747E+04  0.33230920938E+04 0.  0.
        1    1    3    3  502    0  0.27186220827E+03  0.15989205912E+04 -0.41891050785E+02  0.16224090043E+04  0.50400001928E-02 0.  1.
       -1    1    3    3    0  502 -0.27186220827E+03 -0.15989205912E+04  0.69375058651E+03  0.17640141704E+04  0.50400001928E-02 0. -1.
</event>
<event>
 5   0  0.1129434E-06  0.3295544E+04  0.7818609E-02  0.8164030E-01
        2   -1    0    0  501    0  0.00000000000E+00  0.00000000000E+00  0.21214763960E+04  0.21214763960E+04  0.25500000920E-02 0. -1.
       -2   -1    0    0    0  501  0.00000000000E+00  0.00000000000E+00 -0.12798411080E+04  0.12798411080E+04  0.25500000920E-02 0.  1.
    10030    2    1    2    0    0  0.00000000000E+00  0.00000000000E+00  0.84163528800E+03  0.34013175040E+04  0.32955440833E+04 0.  0.
        3    1    3    3  502    0  0.15987075725E+04  0.39083920948E+03  0.50422926246E+03  0.17212984486E+04  0.10100000352E+00 0. -1.
       -3    1    3    3    0  502 -0.15987075725E+04 -0.39083920948E+03  0.33740602554E+03  0.16800190553E+04  0.10100000352E+00 0.  1.
</event>
<event>
 5   0  0.1116462E-06  0.3382478E+04  0.7818609E-02  0.8142220E-01
        2   -1    0    0  501    0  0.00000000000E+00  0.00000000000E+00  0.15701418586E+04  0.15701418586E+04  0.25500000920E-02 0.  1.
       -2   -1    0    0    0  501  0.00000000000E+00  0.00000000000E+00 -0.18216757048E+04  0.18216757048E+04  0.25500000920E-02 0. -1.
    10030    2    1    2    0    0  0.00000000000E+00  0.00000000000E+00 -0.25153384619E+03  0.33918175633E+04  0.33824779537E+04 0.  0.
        1    1    3    3  502    0  0.32356336025E+03  0.97095296920E+03  0.12243706067E+04  0.15957839137E+04  0.50400001928E-02 0.  1.
       -1    1    3    3    0  502 -0.32356336025E+03 -0.97095296920E+03 -0.14759044529E+04  0.17960336497E+04  0.50400001928E-02 0. -1.
</event>
<event>
 5   0  0.1129434E-06  0.3330948E+04  0.7818609E-02  0.8155065E-01
       -2   -1    0    0    0  501  0.00000000000E+00  0.00000000000E+00  0.16168452439E+04  0.16168452439E+04  0.25500000920E-02 0.  1.
        2   -1    0    0  501    0  0.00000000000E+00  0.00000000000E+00 -0.17155648958E+04  0.17155648958E+04  0.25500000920E-02 0. -1.
    10030    2    1    2    0    0  0.00000000000E+00  0.00000000000E+00 -0.98719651842E+02  0.33324101397E+04  0.33309475783E+04 0.  0.
        3    1    3    3  502    0  0.88631642711E+03  0.11089840858E+04 -0.92060409004E+03  0.16920148972E+04  0.10100000352E+00 0. -1.
       -3    1    3    3    0  502 -0.88631642711E+03 -0.11089840858E+04  0.82188443820E+03  0.16403952425E+04  0.10100000352E+00 0.  1.
</event>
<event>
 5   0  0.1126221E-06  0.3323282E+04  0.7818609E-02  0.8156997E-01
        2   -1    0    0  501    0  0.00000000000E+00  0.00000000000E+00  0.25233453000E+04  0.25233453000E+04  0.25500000920E-02 0.  1.
       -2   -1    0    0    0  501  0.00000000000E+00  0.00000000000E+00 -0.10942022786E+04  0.10942022786E+04  0.25500000920E-02 0. -1.
    10030    2    1    2    0    0  0.00000000000E+00  0.00000000000E+00  0.14291430214E+04  0.36175475786E+04  0.33232816173E+04 0.  0.
        2    1    3    3  502    0 -0.67028619672E+03 -0.59760593822E+03 -0.80730635742E+03  0.12075429589E+04  0.25500000920E-02 0. -1.
       -2    1    3    3    0  502  0.67028619672E+03  0.59760593822E+03  0.22364493788E+04  0.24100046197E+04  0.25500000920E-02 0.  1.
</event>
<event>
 5   0  0.1116462E-06  0.3303934E+04  0.7818609E-02  0.8161895E-01
       -2   -1    0    0    0  501  0.00000000000E+00  0.00000000000E+00  0.10962169028E+04  0.10962169028E+04  0.25500000920E-02 0.  1.
        2   -1    0    0  501    0  0.00000000000E+00  0.00000000000E+00 -0.24894665181E+04  0.24894665182E+04  0.25500000920E-02 0. -1.
    10030    2    1    2    0    0  0.00000000000E+00  0.00000000000E+00 -0.13932496153E+04  0.35856834210E+04  0.33039341859E+04 0.  0.
        1    1    3    3  502    0 -0.12993149751E+04 -0.20823950797E+03  0.38724692238E+03  0.13716935795E+04  0.50400001928E-02 0.  1.
       -1    1    3    3    0  502  0.12993149751E+04  0.20823950797E+03 -0.17804965377E+04  0.22139898414E+04  0.50400001928E-02 0. -1.
</event>
<event>
 5   0  0.3796529E-07  0.3269252E+04  0.7818609E-02  0.8170763E-01
        1   -1    0    0  501    0  0.00000000000E+00  0.00000000000E+00  0.19884770822E+04  0.19884770822E+04  0.50400001928E-02 0.  1.
       -1   -1    0    0    0  501  0.00000000000E+00  0.00000000000E+00 -0.13437433751E+04  0.13437433752E+04  0.50400001928E-02 0. -1.
    10030    2    1    2    0    0  0.00000000000E+00  0.00000000000E+00  0.64473370702E+03  0.33322204573E+04  0.32692524563E+04 0.  0.
        5    1    3    3  502    0 -0.96685985814E+03  0.10688364007E+04 -0.46368839077E+03  0.15140205581E+04  0.46999998093E+01 0. -1.
       -5    1    3    3    0  502  0.96685985814E+03 -0.10688364007E+04  0.11084220978E+04  0.18181998992E+04  0.46999998093E+01 0.  1.
</event>
<event>
 5   0  0.3796529E-07  0.3279610E+04  0.7818609E-02  0.8168103E-01
       -1   -1    0    0    0  501  0.00000000000E+00  0.00000000000E+00  0.20415410791E+04  0.20415410791E+04  0.50400001928E-02 0. -1.
        1   -1    0    0  501    0  0.00000000000E+00  0.00000000000E+00 -0.13171225065E+04  0.13171225065E+04  0.50400001928E-02 0.  1.
    10030    2    1    2    0    0  0.00000000000E+00  0.00000000000E+00  0.72441857253E+03  0.33586635856E+04  0.32796095519E+04 0.  0.
        5    1    3    3  502    0  0.16423120204E+03  0.16065038951E+04  0.65387416431E+03  0.17422399851E+04  0.46999998093E+01 0. -1.
       -5    1    3    3    0  502 -0.16423120204E+03 -0.16065038951E+04  0.70544408224E+02  0.16164236005E+04  0.46999998093E+01 0.  1.
</event>
<event>
 5   0  0.1126221E-06  0.3310959E+04  0.7818609E-02  0.8160113E-01
       -2   -1    0    0    0  501  0.00000000000E+00  0.00000000000E+00  0.17361917439E+04  0.17361917439E+04  0.25500000920E-02 0.  1.
        2   -1    0    0  501    0  0.00000000000E+00  0.00000000000E+00 -0.15785189538E+04  0.15785189538E+04  0.25500000920E-02 0. -1.
    10030    2    1    2    0    0  0.00000000000E+00  0.00000000000E+00  0.15767279008E+03  0.33147106978E+04  0.33109585170E+04 0.  0.
        2    1    3    3  502    0  0.97672041973E+03  0.77519759893E+03  0.11689677689E+04  0.17092102680E+04  0.25500000920E-02 0.  1.
       -2    1    3    3    0  502 -0.97672041973E+03 -0.77519759893E+03 -0.10112949788E+04  0.16055004297E+04  0.25500000920E-02 0. -1.
</event>
<event>
 5   0  0.3749685E-07  0.3302718E+04  0.7818609E-02  0.8162204E-01
       -1   -1    0    0    0  501  0.00000000000E+00  0.00000000000E+00  0.22108157805E+04  0.22108157805E+04  0.50400001928E-02 0.  1.
        1   -1    0    0  501    0  0.00000000000E+00  0.00000000000E+00 -0.12334753038E+04  0.12334753038E+04  0.50400001928E-02 0. -1.
    10030    2    1    2    0    0  0.00000000000E+00  0.00000000000E+00  0.97734047668E+03  0.34442910844E+04  0.33027180725E+04 0.  0.
        3    1    3    3  502    0 -0.90802937792E+03 -0.52294333877E+03 -0.84236278125E+03  0.13444560804E+04  0.10100000352E+00 0. -1.
       -3    1    3    3    0  502  0.90802937792E+03  0.52294333877E+03  0.18197032579E+04  0.20998350040E+04  0.10100000352E+00 0.  1.
</event>
<event>
 5   0  0.3796529E-07  0.3298728E+04  0.7818609E-02  0.8163219E-01
       -1   -1    0    0    0  501  0.00000000000E+00  0.00000000000E+00  0.20216278663E+04  0.20216278663E+04  0.50400001928E-02 0. -1.
        1   -1    0    0  501    0  0.00000000000E+00  0.00000000000E+00 -0.13456488985E+04  0.13456488985E+04  0.50400001928E-02 0.  1.
    10030    2    1    2    0    0  0.00000000000E+00  0.00000000000E+00  0.67597896780E+03  0.33672767649E+04  0.32987278224E+04 0.  0.
        5    1    3    3  502    0  0.16393875251E+04 -0.17809070531E+03  0.30457603393E+03  0.16769306507E+04  0.46999998093E+01 0.  1.
       -5    1    3    3    0  502 -0.16393875251E+04  0.17809070531E+03  0.37140293387E+03  0.16903461142E+04  0.46999998093E+01 0. -1.
</event>
<event>
 5   0  0.3674967E-07  0.3295366E+04  0.7818609E-02  0.8164076E-01
        1   -1    0    0  501    0  0.00000000000E+00  0.00000000000E+00  0.20236708992E+04  0.20236708992E+04  0.50400001928E-02 0.  1.
       -1   -1    0    0    0  501  0.00000000000E+00  0.00000000000E+00 -0.13415515536E+04  0.13415515536E+04  0.50400001928E-02 0. -1.
    10030    2    1    2    0    0  0.00000000000E+00  0.00000000000E+00  0.68211934561E+03  0.33652224528E+04  0.32953657392E+04 0.  0.
        2    1    3    3  502    0 -0.62981567221E+03  0.23730381460E+03 -0.11947759615E+04  0.13713024756E+04  0.25500000920E-02 0. -1.
       -2    1    3    3    0  502  0.62981567221E+03 -0.23730381460E+03  0.18768953071E+04  0.19939199772E+04  0.25500000920E-02 0.  1.
</event>
<event>
 5   0  0.1129434E-06  0.3322813E+04  0.7818609E-02  0.8157115E-01
       -2   -1    0    0    0  501  0.00000000000E+00  0.00000000000E+00  0.16910569738E+04  0.16910569738E+04  0.25500000920E-02 0. -1.
        2   -1    0    0  501    0  0.00000000000E+00  0.00000000000E+00 -0.16322758080E+04  0.16322758080E+04  0.25500000920E-02 0.  1.
    10030    2    1    2    0    0  0.00000000000E+00  0.00000000000E+00  0.58781165787E+02  0.33233327819E+04  0.33228128978E+04 0.  0.
        3    1    3    3  502    0  0.77358070901E+03 -0.21695112442E+03  0.14838452154E+04  0.16873919335E+04  0.10100000352E+00 0. -1.
       -3    1    3    3    0  502 -0.77358070901E+03  0.21695112442E+03 -0.14250640496E+04  0.16359408484E+04  0.10100000352E+00 0.  1.
</event>
<event>
 5   0  0.3573375E-07  0.3317484E+04  0.7818609E-02  0.8158461E-01
        3   -1    0    0  501    0  0.00000000000E+00  0.00000000000E+00  0.22697850078E+04  0.22697850100E+04  0.10100000352E+00 0.  1.
       -3   -1    0    0    0  501  0.00000000000E+00  0.00000000000E+00 -0.12121962351E+04  0.12121962393E+04  0.10100000352E+00 0. -1.
    10030    2    1    2    0    0  0.00000000000E+00  0.00000000000E+00  0.10575887727E+04  0.34819812493E+04  0.33174838973E+04 0.  0.
        4    1    3    3  502    0 -0.63082981798E+02 -0.16429761997E+04  0.75892168756E+03  0.18108876266E+04  0.12699999809E+01 0. -1.
       -4    1    3    3    0  502  0.63082981798E+02  0.16429761997E+04  0.29866708510E+03  0.16710936227E+04  0.12699999809E+01 0.  1.
</event>
<event>
 5   0  0.1126221E-06  0.3343581E+04  0.7818609E-02  0.8151894E-01
        2   -1    0    0  501    0  0.00000000000E+00  0.00000000000E+00  0.21777480811E+04  0.21777480811E+04  0.25500000920E-02 0.  1.
       -2   -1    0    0    0  501  0.00000000000E+00  0.00000000000E+00 -0.12833821752E+04  0.12833821752E+04  0.25500000920E-02 0. -1.
    10030    2    1    2    0    0  0.00000000000E+00  0.00000000000E+00  0.89436590583E+03  0.34611302563E+04  0.33435807568E+04 0.  0.
        2    1    3    3  502    0 -0.39736722966E+03  0.15699284204E+04  0.17490501394E+02  0.16195313761E+04  0.25500000920E-02 0.  1.
       -2    1    3    3    0  502  0.39736722966E+03 -0.15699284204E+04  0.87687540444E+03  0.18415988802E+04  0.25500000920E-02 0. -1.
</event>
<event>
 5   0  0.3757406E-07  0.3313154E+04  0.7818609E-02  0.8159556E-01
        1   -1    0    0  501    0  0.00000000000E+00  0.00000000000E+00  0.11644078062E+04  0.11644078062E+04  0.50400001928E-02 0. -1.
       -1   -1    0    0    0  501  0.00000000000E+00  0.00000000000E+00 -0.23567755294E+04  0.23567755294E+04  0.50400001928E-02 0.  1.
    10030    2    1    2    0    0  0.00000000000E+00  0.00000000000E+00 -0.11923677232E+04  0.35211833356E+04  0.33131542819E+04 0.  0.
        1    1    3    3  502    0 -0.23394711691E+03  0.28783449134E+03 -0.23120753812E+04  0.23416388527E+04  0.50400001928E-02 0.  1.
       -1    1    3    3    0  502  0.23394711691E+03 -0.28783449134E+03  0.11197076580E+04  0.11795444830E+04  0.50400001928E-02 0. -1.
</event>
<event>
 5   0  0.1129434E-06  0.3280742E+04  0.7818609E-02  0.8167813E-01
        2   -1    0    0  501    0  0.00000000000E+00  0.00000000000E+00  0.25786439009E+04  0.25786439009E+04  0.25500000920E-02 0. -1.
       -2   -1    0    0    0  501  0.00000000000E+00  0.00000000000E+00 -0.10435010408E+04  0.10435010408E+04  0.25500000920E-02 0.  1.
    10030    2    1    2    0    0  0.00000000000E+00  0.00000000000E+00  0.15351428602E+04  0.36221449417E+04  0.32807423516E+04 0.  0.
        3    1    3    3  502    0 -0.15573302915E+04  0.46288100822E+03  0.51755275531E+03  0.17051091840E+04  0.10100000352E+00 0. -1.
       -3    1    3    3    0  502  0.15573302915E+04 -0.46288100822E+03  0.10175901049E+04  0.19170357577E+04  0.10100000352E+00 0.  1.
</event>
<event>
 5   0  0.3674967E-07  0.3310691E+04  0.7818609E-02  0.8160180E-01
        1   -1    0    0  501    0  0.00000000000E+00  0.00000000000E+00  0.21923179927E+04  0.21923179927E+04  0.50400001928E-02 0.  1.
       -1   -1    0    0    0  501  0.00000000000E+00  0.00000000000E+00 -0.12498956775E+04  0.12498956775E+04  0.50400001928E-02 0. -1.
    10030    2    1    2    0    0  0.00000000000E+00  0.00000000000E+00  0.94242231521E+03  0.34422136702E+04  0.33106910353E+04 0.  0.
        2    1    3    3  502    0 -0.11525374959E+04 -0.11107087533E+04  0.32362546096E+02  0.16009571977E+04  0.25500000920E-02 0. -1.
       -2    1    3    3    0  502  0.11525374959E+04  0.11107087533E+04  0.91005976911E+03  0.18412564725E+04  0.25500000920E-02 0.  1.
</event>
<event>
 5   0  0.3749685E-07  0.3291991E+04  0.7818609E-02  0.8164936E-01
        1   -1    0    0  501    0  0.00000000000E+00  0.00000000000E+00  0.24538502320E+04  0.24538502320E+04  0.50400001928E-02 0.  1.
       -1   -1    0    0    0  501  0.00000000000E+00  0.00000000000E+00 -0.11041019424E+04  0.11041019424E+04  0.50400001928E-02 0. -1.
    10030    2    1    2    0    0  0.00000000000E+00  0.00000000000E+00  0.13497482895E+04  0.35579521744E+04  0.32919907701E+04 0.  0.
        3    1    3    3  502    0 -0.25498074473E+02 -0.11189087764E+03 -0.10997729332E+04  0.11057441997E+04  0.10100000352E+00 0. -1.
       -3    1    3    3    0  502  0.25498074473E+02  0.11189087764E+03  0.24495212228E+04  0.24522079747E+04  0.10100000352E+00 0.  1.
</event>
<event>
 5   0  0.3796529E-07  0.3296008E+04  0.7818609E-02  0.8163912E-01
        1   -1    0    0  501    0  0.00000000000E+00  0.00000000000E+00  0.16392983395E+04  0.16392983395E+04  0.50400001928E-02 0. -1.
       -1   -1    0    0    0  501  0.00000000000E+00  0.00000000000E+00 -0.16567555722E+04  0.16567555722E+04  0.50400001928E-02 0.  1.
    10030    2    1    2    0    0  0.00000000000E+00  0.00000000000E+00 -0.17457232727E+02  0.32960539117E+04  0.32960076811E+04 0.  0.
        5    1    3    3  502    0  0.29875626578E+03  0.13340835869E+04 -0.92899162329E+03  0.16529010404E+04  0.46999998093E+01 0.  1.
       -5    1    3    3    0  502 -0.29875626578E+03 -0.13340835869E+04  0.91153439056E+03  0.16431528713E+04  0.46999998093E+01 0. -1.
</event>
<event>
 5   0  0.3674967E-07  0.3332737E+04  0.7818609E-02  0.8154615E-01
        1   -1    0    0  501    0  0.00000000000E+00  0.00000000000E+00  0.21557123934E+04  0.21557123934E+04  0.50400001928E-02 0.  1.
       -1   -1    0    0    0  501  0.00000000000E+00  0.00000000000E+00 -0.12881048521E+04  0.12881048521E+04  0.50400001928E-02 0. -1.
    10030    2    1    2    0    0  0.00000000000E+00  0.00000000000E+00  0.86760754132E+03  0.34438172455E+04  0.33327367694E+04 0.  0.
        2    1    3    3  502    0  0.12227508051E+04  0.99455263732E+03 -0.12508274475E+03  0.15811072616E+04  0.25500000920E-02 0. -1.
       -2    1    3    3    0  502 -0.12227508051E+04 -0.99455263732E+03  0.99269028607E+03  0.18627099838E+04  0.25500000920E-02 0.  1.
</event>
<event>
 5   0  0.1120545E-06  0.3257340E+04  0.7818609E-02  0.8173836E-01
       -2   -1    0    0    0  501  0.00000000000E+00  0.00000000000E+00  0.11504769229E+04  0.11504769229E+04  0.25500000920E-02 0. -1.
        2   -1    0    0  501    0  0.00000000000E+00  0.00000000000E+00 -0.23056222851E+04  0.23056222851E+04  0.25500000920E-02 0.  1.
    10030    2    1    2    0    0  0.00000000000E+00  0.00000000000E+00 -0.11551453621E+04  0.34560992080E+04  0.32573395475E+04 0.  0.
        4    1    3    3  502    0 -0.15153761797E+04 -0.32620003465E+03 -0.11078616545E+04  0.19052901319E+04  0.12699999809E+01 0. -1.
       -4    1    3    3    0  502  0.15153761797E+04  0.32620003465E+03 -0.47283707626E+02  0.15508090761E+04  0.12699999809E+01 0.  1.
</event>
<event>
 5   0  0.3709747E-07  0.3290358E+04  0.7818609E-02  0.8165353E-01
        1   -1    0    0  501    0  0.00000000000E+00  0.00000000000E+00  0.15804368909E+04  0.15804368909E+04  0.50400001928E-02 0. -1.
       -1   -1    0    0    0  501  0.00000000000E+00  0.00000000000E+00 -0.17125731188E+04  0.17125731188E+04  0.50400001928E-02 0.  1.
    10030    2    1    2    0    0  0.00000000000E+00  0.00000000000E+00 -0.13213622792E+03  0.32930100098E+04  0.32903578744E+04 0.  0.
        4    1    3    3  502    0  0.11635925220E+04 -0.10877308841E+04 -0.47811113842E+03  0.16630387569E+04  0.12699999809E+01 0.  1.
       -4    1    3    3    0  502 -0.11635925220E+04  0.10877308841E+04  0.34597491051E+03  0.16299712528E+04  0.12699999809E+01 0. -1.
</event>
<event>
 5   0  0.3796529E-07  0.3311885E+04  0.7818609E-02  0.8159878E-01
        1   -1    0    0  501    0  0.00000000000E+00  0.00000000000E+00  0.22871239150E+04  0.22871239150E+04  0.50400001928E-02 0.  1.
       -1   -1    0    0    0  501  0.00000000000E+00  0.00000000000E+00 -0.11989491301E+04  0.11989491301E+04  0.50400001928E-02 0. -1.
    10030    2    1    2    0    0  0.00000000000E+00  0.00000000000E+00  0.10881747849E+04  0.34860730451E+04  0.33118847977E+04 0.  0.
        5    1    3    3  502    0  0.82162116698E+03  0.64369936705E+03  0.18972811087E+04  0.21654348091E+04  0.46999998093E+01 0.  1.
       -5    1    3    3    0  502 -0.82162116698E+03 -0.64369936705E+03 -0.80910632380E+03  0.13206382360E+04  0.46999998093E+01 0. -1.
</event>
<event>
 5   0  0.3674967E-07  0.3319160E+04  0.7818609E-02  0.8158037E-01
        1   -1    0    0  501    0  0.00000000000E+00  0.00000000000E+00  0.22134079207E+04  0.22134079207E+04  0.50400001928E-02 0. -1.
       -1   -1    0    0    0  501  0.00000000000E+00  0.00000000000E+00 -0.12443280570E+04  0.12443280570E+04  0.50400001928E-02 0.  1.
    10030    2    1    2    0    0  0.00000000000E+00  0.00000000000E+00  0.96907986373E+03  0.34577359777E+04  0.33191598800E+04 0.  0.
        2    1    3    3  502    0 -0.15639418849E+04 -0.18756030143E+03  0.10289603921E+04  0.18814495939E+04  0.25500000920E-02 0.  1.
       -2    1    3    3    0  502  0.15639418849E+04  0.18756030143E+03 -0.59880528377E+02  0.15762863837E+04  0.25500000920E-02 0. -1.
</event>
<event>
 5   0  0.1116462E-06  0.3301294E+04  0.7818609E-02  0.8162566E-01
       -2   -1    0    0    0  501  0.00000000000E+00  0.00000000000E+00  0.15088166469E+04  0.15088166469E+04  0.25500000920E-02 0.  1.
        2   -1    0    0  501    0  0.00000000000E+00  0.00000000000E+00 -0.18058094888E+04  0.18058094888E+04  0.25500000920E-02 0. -1.
    10030    2    1    2    0    0  0.00000000000E+00  0.00000000000E+00 -0.29699284192E+03  0.33146261358E+04  0.33012939390E+04 0.  0.
        1    1    3    3  502    0  0.99755328510E+03 -0.34639794034E+03  0.11253001429E+04  0.15431799964E+04  0.50400001928E-02 0.  1.
       -1    1    3    3    0  502 -0.99755328510E+03  0.34639794034E+03 -0.14222929849E+04  0.17714461393E+04  0.50400001928E-02 0. -1.
</event>
<event>
 5   0  0.1129434E-06  0.3276432E+04  0.7818609E-02  0.8168918E-01
        2   -1    0    0  501    0  0.00000000000E+00  0.00000000000E+00  0.17873765133E+04  0.17873765133E+04  0.25500000920E-02 0. -1.
       -2   -1    0    0    0  501  0.00000000000E+00  0.00000000000E+00 -0.15015030716E+04  0.15015030716E+04  0.25500000920E-02 0.  1.
    10030    2    1    2    0    0  0.00000000000E+00  0.00000000000E+00  0.28587344168E+03  0.32888795849E+04  0.32764317937E+04 0.  0.
        3    1    3    3  502    0 -0.10489912579E+03  0.46608158056E+03  0.17158985248E+04  0.17811635590E+04  0.10100000352E+00 0. -1.
       -3    1    3    3    0  502  0.10489912579E+03 -0.46608158056E+03 -0.14300250831E+04  0.15077160259E+04  0.10100000352E+00 0.  1.
</event>
<event>
 5   0  0.1129434E-06  0.3332864E+04  0.7818609E-02  0.8154583E-01
        2   -1    0    0  501    0  0.00000000000E+00  0.00000000000E+00  0.20992702784E+04  0.20992702784E+04  0.25500000920E-02 0. -1.
       -2   -1    0    0    0  501  0.00000000000E+00  0.00000000000E+00 -0.13228382468E+04  0.13228382468E+04  0.25500000920E-02 0.  1.
    10030    2    1    2    0    0  0.00000000000E+00  0.00000000000E+00  0.77643203161E+03  0.34221085253E+04  0.33328636424E+04 0.  0.
        3    1    3    3  502    0 -0.97576634295E+02 -0.16132839740E+03  0.20882834797E+04  0.20967775163E+04  0.10100000352E+00 0. -1.
       -3    1    3    3    0  502  0.97576634295E+02  0.16132839740E+03 -0.13118514480E+04  0.13253310090E+04  0.10100000352E+00 0.  1.
</event>
<event>
 5   0  0.3709747E-07  0.3287447E+04  0.7818609E-02  0.8166097E-01
       -1   -1    0    0    0  501  0.00000000000E+00  0.00000000000E+00  0.12213590611E+04  0.12213590612E+04  0.50400001928E-02 0.  1.
        1   -1    0    0  501    0  0.00000000000E+00  0.00000000000E+00 -0.22121480422E+04  0.22121480422E+04  0.50400001928E-02 0. -1.
    10030    2    1    2    0    0  0.00000000000E+00  0.00000000000E+00 -0.99078898108E+03  0.34335071034E+04  0.32874470679E+04 0.  0.
        4    1    3    3  502    0 -0.11088801800E+04 -0.35455381994E+03  0.71654977192E+03  0.13670292072E+04  0.12699999809E+01 0.  1.
       -4    1    3    3    0  502  0.11088801800E+04  0.35455381994E+03 -0.17073387530E+04  0.20664778962E+04  0.12699999809E+01 0. -1.
</event>
<event>
 5   0  0.1116462E-06  0.3281448E+04  0.7818609E-02  0.8167632E-01
       -2   -1    0    0    0  501  0.00000000000E+00  0.00000000000E+00  0.16353175601E+04  0.16353175601E+04  0.25500000920E-02 0. -1.
        2   -1    0    0  501    0  0.00000000000E+00  0.00000000000E+00 -0.16461482212E+04  0.16461482212E+04  0.25500000920E-02 0.  1.
    10030    2    1    2    0    0  0.00000000000E+00  0.00000000000E+00 -0.10830661115E+02  0.32814657813E+04  0.32814479077E+04 0.  0.
        1    1    3    3  502    0  0.54515328260E+03  0.13151260878E+03  0.15365033848E+04  0.16356437018E+04  0.50400001928E-02 0. -1.
       -1    1    3    3    0  502 -0.54515328260E+03 -0.13151260878E+03 -0.15473340459E+04  0.16458220795E+04  0.50400001928E-02 0.  1.
</event>
<event>
 5   0  0.3674967E-07  0.3300891E+04  0.7818609E-02  0.8162669E-01
        1   -1    0    0  501    0  0.00000000000E+00  0.00000000000E+00  0.15522262280E+04  0.15522262280E+04  0.50400001928E-02 0. -1.
       -1   -1    0    0    0  501  0.00000000000E+00  0.00000000000E+00 -0.17548794304E+04  0.17548794304E+04  0.50400001928E-02 0.  1.
    10030    2    1    2    0    0  0.00000000000E+00  0.00000000000E+00 -0.20265320239E+03  0.33071056585E+04  0.33008907155E+04 0.  0.
        2    1    3    3  502    0 -0.13716527865E+04  0.59915405792E+03 -0.79801556742E+03  0.16962446161E+04  0.25500000920E-02 0.  1.
       -2    1    3    3    0  502  0.13716527865E+04 -0.59915405792E+03  0.59536236502E+03  0.16108610423E+04  0.25500000920E-02 0. -1.
</event>
<event>
 5   0  0.3749685E-07  0.3223080E+04  0.7818609E-02  0.8182748E-01
       -1   -1    0    0    0  501  0.00000000000E+00  0.00000000000E+00  0.18174561308E+04  0.18174561308E+04  0.50400001928E-02 0. -1.
        1   -1    0    0  501    0  0.00000000000E+00  0.00000000000E+00 -0.14289539172E+04  0.14289539172E+04  0.50400001928E-02 0.  1.
    10030    2    1    2    0    0  0.00000000000E+00  0.00000000000E+00  0.38850221357E+03  0.32464100480E+04  0.32230799291E+04 0.  0.
        3    1    3    3  502    0 -0.43227697170E+03 -0.15103936080E+03 -0.13620495776E+04  0.14369604486E+04  0.10100000352E+00 0.  1.
       -3    1    3    3    0  502  0.43227697170E+03  0.15103936080E+03  0.17505517912E+04  0.18094495993E+04  0.10100000352E+00 0. -1.
</event>
<event>
 5   0  0.3796529E-07  0.3278184E+04  0.7818609E-02  0.8168469E-01
        1   -1    0    0  501    0  0.00000000000E+00  0.00000000000E+00  0.30666227576E+04  0.30666227576E+04  0.50400001928E-02 0.  1.
       -1   -1    0    0    0  501  0.00000000000E+00  0.00000000000E+00 -0.87608494583E+03  0.87608494585E+03  0.50400001928E-02 0. -1.
    10030    2    1    2    0    0  0.00000000000E+00  0.00000000000E+00  0.21905378118E+04  0.39427077035E+04  0.32781836633E+04 0.  0.
        5    1    3    3  502    0  0.39700582419E+03  0.31250122252E+03 -0.78008480432E+03  0.92942187969E+03  0.46999998093E+01 0. -1.
       -5    1    3    3    0  502 -0.39700582419E+03 -0.31250122252E+03  0.29706226161E+04  0.30132858238E+04  0.46999998093E+01 0.  1.
</event>
<event>
 5   0  0.1126221E-06  0.3300576E+04  0.7818609E-02  0.8162749E-01
       -2   -1    0    0    0  501  0.00000000000E+00  0.00000000000E+00  0.99557768270E+03  0.99557768271E+03  0.25500000920E-02 0.  1.
        2   -1    0    0  501    0  0.00000000000E+00  0.00000000000E+00 -0.27355480750E+04  0.27355480751E+04  0.25500000920E-02 0. -1.
    10030    2    1    2    0    0  0.00000000000E+00  0.00000000000E+00 -0.17399703923E+04  0.37311257578E+04  0.33005760791E+04 0.  0.
        2    1    3    3  502    0  0.75909777202E+03 -0.99222146048E+03 -0.20889391275E+04  0.24340089426E+04  0.25500000920E-02 0. -1.
       -2    1    3    3    0  502 -0.75909777202E+03  0.99222146048E+03  0.34896873515E+03  0.12971168152E+04  0.25500000920E-02 0.  1.
</event>
<event>
 5   0  0.1116462E-06  0.3282428E+04  0.7818609E-02  0.8167381E-01
       -2   -1    0    0    0  501  0.00000000000E+00  0.00000000000E+00  0.15835488772E+04  0.15835488772E+04  0.25500000920E-02 0. -1.
        2   -1    0    0  501    0  0.00000000000E+00  0.00000000000E+00 -0.17009786996E+04  0.17009786996E+04  0.25500000920E-02 0.  1.
    10030    2    1    2    0    0  0.00000000000E+00  0.00000000000E+00 -0.11742982240E+03  0.32845275768E+04  0.32824277051E+04 0.  0.
        1    1    3    3  502    0  0.11388466392E+04 -0.11779842230E+02  0.11237654409E+04  0.15999872495E+04  0.50400001928E-02 0. -1.
       -1    1    3    3    0  502 -0.11388466392E+04  0.11779842230E+02 -0.12411952633E+04  0.16845403272E+04  0.50400001928E-02 0.  1.
</event>
<event>
 5   0  0.1146799E-06  0.3075828E+04  0.7818609E-02  0.8222403E-01
        2   -1    0    0  501    0  0.00000000000E+00  0.00000000000E+00  0.12960985404E+04  0.12960985404E+04  0.25500000920E-02 0.  1.
       -2   -1    0    0    0  501  0.00000000000E+00  0.00000000000E+00 -0.18248453986E+04  0.18248453986E+04  0.25500000920E-02 0. -1.
    10030    2    1    2    0    0  0.00000000000E+00  0.00000000000E+00 -0.52874685819E+03  0.31209439391E+04  0.30758279911E+04 0.  0.
        5    1    3    3  502    0 -0.74904288182E+03  0.19916468424E+03  0.10834270073E+04  0.13321291155E+04  0.46999998093E+01 0.  1.
       -5    1    3    3    0  502  0.74904288182E+03 -0.19916468424E+03 -0.16121738655E+04  0.17888148235E+04  0.46999998093E+01 0. -1.
</event>
<event>
 5   0  0.3674967E-07  0.3364931E+04  0.7818609E-02  0.8146567E-01
        1   -1    0    0  501    0  0.00000000000E+00  0.00000000000E+00  0.19079428765E+04  0.19079428765E+04  0.50400001928E-02 0. -1.
       -1   -1    0    0    0  501  0.00000000000E+00  0.00000000000E+00 -0.14836347633E+04  0.14836347633E+04  0.50400001928E-02 0.  1.
    10030    2    1    2    0    0  0.00000000000E+00  0.00000000000E+00  0.42430811319E+03  0.33915776398E+04  0.33649311303E+04 0.  0.
        2    1    3    3  502    0 -0.11852285233E+04  0.19437091703E+03  0.13996791413E+04  0.18443558237E+04  0.25500000920E-02 0. -1.
       -2    1    3    3    0  502  0.11852285233E+04 -0.19437091703E+03 -0.97537102809E+03  0.15472218161E+04  0.25500000920E-02 0.  1.
</event>
<event>
 5   0  0.1120545E-06  0.3279567E+04  0.7818609E-02  0.8168114E-01
       -2   -1    0    0    0  501  0.00000000000E+00  0.00000000000E+00  0.27392159805E+04  0.27392159805E+04  0.25500000920E-02 0.  1.
        2   -1    0    0  501    0  0.00000000000E+00  0.00000000000E+00 -0.98162769272E+03  0.98162769273E+03  0.25500000920E-02 0. -1.
    10030    2    1    2    0    0  0.00000000000E+00  0.00000000000E+00  0.17575882877E+04  0.37208436732E+04  0.32795672049E+04 0.  0.
        4    1    3    3  502    0 -0.67863339437E+03 -0.36101178305E+03  0.25221411292E+04  0.26366778871E+04  0.12699999809E+01 0.  1.
       -4    1    3    3    0  502  0.67863339437E+03  0.36101178305E+03 -0.76455284150E+03  0.10841657861E+04  0.12699999809E+01 0. -1.
</event>
<event>
 5   0  0.1116462E-06  0.3306364E+04  0.7818609E-02  0.8161278E-01
       -2   -1    0    0    0  501  0.00000000000E+00  0.00000000000E+00  0.13005032846E+04  0.13005032846E+04  0.25500000920E-02 0.  1.
        2   -1    0    0  501    0  0.00000000000E+00  0.00000000000E+00 -0.21015022441E+04  0.21015022441E+04  0.25500000920E-02 0. -1.
    10030    2    1    2    0    0  0.00000000000E+00  0.00000000000E+00 -0.80099895946E+03  0.34020055288E+04  0.33063639069E+04 0.  0.
        1    1    3    3  502    0  0.16401325579E+04 -0.63309147080E+02 -0.19738689300E+03  0.16531800994E+04  0.50400001928E-02 0. -1.
       -1    1    3    3    0  502 -0.16401325579E+04  0.63309147080E+02 -0.60361206646E+03  0.17488254293E+04  0.50400001928E-02 0.  1.
</event>
<event>
 5   0  0.3757406E-07  0.3293881E+04  0.7818609E-02  0.8164454E-01
        1   -1    0    0  501    0  0.00000000000E+00  0.00000000000E+00  0.16409378004E+04  0.16409378004E+04  0.50400001928E-02 0. -1.
       -1   -1    0    0    0  501  0.00000000000E+00  0.00000000000E+00 -0.16529650394E+04  0.16529650394E+04  0.50400001928E-02 0.  1.
    10030    2    1    2    0    0  0.00000000000E+00  0.00000000000E+00 -0.12027239035E+02  0.32939028399E+04  0.32938808819E+04 0.  0.
        1    1    3    3  502    0 -0.90228550617E+03  0.71968088325E+03 -0.11809057471E+04  0.16512413790E+04  0.50400001928E-02 0.  1.
       -1    1    3    3    0  502  0.90228550617E+03 -0.71968088325E+03  0.11688785080E+04  0.16426614608E+04  0.50400001928E-02 0. -1.
</event>
<event>
 5   0  0.3796529E-07  0.3286940E+04  0.7818609E-02  0.8166226E-01
       -1   -1    0    0    0  501  0.00000000000E+00  0.00000000000E+00  0.14214406993E+04  0.14214406993E+04  0.50400001928E-02 0. -1.
        1   -1    0    0  501    0  0.00000000000E+00  0.00000000000E+00 -0.19001803611E+04  0.19001803611E+04  0.50400001928E-02 0.  1.
    10030    2    1    2    0    0  0.00000000000E+00  0.00000000000E+00 -0.47873966185E+03  0.33216210604E+04  0.32869400368E+04 0.  0.
        5    1    3    3  502    0 -0.35590969943E+03  0.10645486260E+04  0.97372775207E+03  0.14859688141E+04  0.46999998093E+01 0. -1.
       -5    1    3    3    0  502  0.35590969943E+03 -0.10645486260E+04 -0.14524674139E+04  0.18356522464E+04  0.46999998093E+01 0.  1.
</event>
<event>
 5   0  0.1146799E-06  0.3284549E+04  0.7818609E-02  0.8166838E-01
       -2   -1    0    0    0  501  0.00000000000E+00  0.00000000000E+00  0.14291564802E+04  0.14291564802E+04  0.25500000920E-02 0.  1.
        2   -1    0    0  501    0  0.00000000000E+00  0.00000000000E+00 -0.18871729943E+04  0.18871729943E+04  0.25500000920E-02 0. -1.
    10030    2    1    2    0    0  0.00000000000E+00  0.00000000000E+00 -0.45801651407E+03  0.33163294745E+04  0.32845489882E+04 0.  0.
        5    1    3    3  502    0 -0.15682048487E+04 -0.31653537116E+03  0.14550161119E+03  0.16064413769E+04  0.46999998093E+01 0.  1.
       -5    1    3    3    0  502  0.15682048487E+04  0.31653537116E+03 -0.60351812526E+03  0.17098880976E+04  0.46999998093E+01 0. -1.
</event>
<event>
 5   0  0.1146799E-06  0.3297992E+04  0.7818609E-02  0.8163406E-01
        2   -1    0    0  501    0  0.00000000000E+00  0.00000000000E+00  0.17682096120E+04  0.17682096120E+04  0.25500000920E-02 0. -1.
       -2   -1    0    0    0  501  0.00000000000E+00  0.00000000000E+00 -0.15378202900E+04  0.15378202901E+04  0.25500000920E-02 0.  1.
    10030    2    1    2    0    0  0.00000000000E+00  0.00000000000E+00  0.23038932191E+03  0.33060299020E+04  0.32979924914E+04 0.  0.
        5    1    3    3  502    0  0.57889783948E+02 -0.49867339791E+03 -0.14593465234E+04  0.15432889393E+04  0.46999998093E+01 0.  1.
       -5    1    3    3    0  502 -0.57889783948E+02  0.49867339791E+03  0.16897358453E+04  0.17627409627E+04  0.46999998093E+01 0. -1.
</event>
<event>
 5   0  0.1146799E-06  0.3235867E+04  0.7818609E-02  0.8179408E-01
       -2   -1    0    0    0  501  0.00000000000E+00  0.00000000000E+00  0.13955565627E+04  0.13955565627E+04  0.25500000920E-02 0. -1.
        2   -1    0    0  501    0  0.00000000000E+00  0.00000000000E+00 -0.18757455929E+04  0.18757455929E+04  0.25500000920E-02 0.  1.
    10030    2    1    2    0    0  0.00000000000E+00  0.00000000000E+00 -0.48018903026E+03  0.32713021556E+04  0.32358671618E+04 0.  0.
        5    1    3    3  502    0  0.20658754828E+03 -0.27503802191E+03  0.13581551171E+04  0.14010466590E+04  0.46999998093E+01 0. -1.
       -5    1    3    3    0  502 -0.20658754828E+03  0.27503802191E+03 -0.18383441473E+04  0.18702554966E+04  0.46999998093E+01 0.  1.
</event>
<event>
 5   0  0.1120545E-06  0.3322736E+04  0.7818609E-02  0.8157134E-01
       -2   -1    0    0    0  501  0.00000000000E+00  0.00000000000E+00  0.15729947259E+04  0.15729947259E+04  0.25500000920E-02 0.  1.
        2   -1    0    0  501    0  0.00000000000E+00  0.00000000000E+00 -0.17547061171E+04  0.17547061171E+04  0.25500000920E-02 0. -1.
    10030    2    1    2    0    0  0.00000000000E+00  0.00000000000E+00 -0.18171139113E+03  0.33277008430E+04  0.33227359014E+04 0.  0.
        4    1    3    3  502    0 -0.40063112178E+03  0.15936547429E+03  0.15159852979E+04  0.15761077649E+04  0.12699999809E+01 0.  1.
       -4    1    3    3    0  502  0.40063112178E+03 -0.15936547429E+03 -0.16976966891E+04  0.17515930781E+04  0.12699999809E+01 0. -1.
</event>
<event>
 5   0  0.1120545E-06  0.3316288E+04  0.7818609E-02  0.8158763E-01
        2   -1    0    0  501    0  0.00000000000E+00  0.00000000000E+00  0.14758150337E+04  0.14758150337E+04  0.25500000920E-02 0.  1.
       -2   -1    0    0    0  501  0.00000000000E+00  0.00000000000E+00 -0.18629989200E+04  0.18629989200E+04  0.25500000920E-02 0. -1.
    10030    2    1    2    0    0  0.00000000000E+00  0.00000000000E+00 -0.38718388633E+03  0.33388139538E+04  0.33162881744E+04 0.  0.
        4    1    3    3  502    0 -0.34363673734E+03  0.13170590069E+04 -0.11469715523E+04  0.17799651653E+04  0.12699999809E+01 0. -1.
       -4    1    3    3    0  502  0.34363673734E+03 -0.13170590069E+04  0.75978766596E+03  0.15588487885E+04  0.12699999809E+01 0.  1.
</event>
<event>
 5   0  0.3796529E-07  0.3329991E+04  0.7818609E-02  0.8155306E-01
       -1   -1    0    0    0  501  0.00000000000E+00  0.00000000000E+00  0.12908806197E+04  0.12908806197E+04  0.50400001928E-02 0.  1.
        1   -1    0    0  501    0  0.00000000000E+00  0.00000000000E+00 -0.21475333666E+04  0.21475333666E+04  0.50400001928E-02 0. -1.
    10030    2    1    2    0    0  0.00000000000E+00  0.00000000000E+00 -0.85665274687E+03  0.34384139863E+04  0.33299905124E+04 0.  0.
        5    1    3    3  502    0 -0.15047249591E+04  0.49332273110E+02 -0.11625019028E+04  0.19021208268E+04  0.46999998093E+01 0. -1.
       -5    1    3    3    0  502  0.15047249591E+04 -0.49332273110E+02  0.30584915590E+03  0.15362931595E+04  0.46999998093E+01 0.  1.
</event>
<event>
 5   0  0.1129434E-06  0.3246129E+04  0.7818609E-02  0.8176740E-01
       -2   -1    0    0    0  501  0.00000000000E+00  0.00000000000E+00  0.17443331821E+04  0.17443331821E+04  0.25500000920E-02 0.  1.
        2   -1    0    0  501    0  0.00000000000E+00  0.00000000000E+00 -0.15102265502E+04  0.15102265502E+04  0.25500000920E-02 0. -1.
    10030    2    1    2    0    0  0.00000000000E+00  0.00000000000E+00  0.23410663190E+03  0.32545597323E+04  0.32461289463E+04 0.  0.
        3    1    3    3  502    0  0.22015716467E+03 -0.92213449742E+03  0.14378726759E+04  0.17222888988E+04  0.10100000352E+00 0.  1.
       -3    1    3    3    0  502 -0.22015716467E+03  0.92213449742E+03 -0.12037660440E+04  0.15322708336E+04  0.10100000352E+00 0. -1.
</event>
<event>
 5   0  0.1126221E-06  0.3306498E+04  0.7818609E-02  0.8161244E-01
       -2   -1    0    0    0  501  0.00000000000E+00  0.00000000000E+00  0.13820475230E+04  0.13820475230E+04  0.25500000920E-02 0. -1.
        2   -1    0    0  501    0  0.00000000000E+00  0.00000000000E+00 -0.19776693419E+04  0.19776693419E+04  0.25500000920E-02 0.  1.
    10030    2    1    2    0    0  0.00000000000E+00  0.00000000000E+00 -0.59562181891E+03  0.33597168649E+04  0.33064984592E+04 0.  0.
        2    1    3    3  502    0  0.59301432347E+03 -0.15206739809E+04 -0.56494474716E+03  0.17272168107E+04  0.25500000920E-02 0.  1.
       -2    1    3    3    0  502 -0.59301432347E+03  0.15206739809E+04 -0.30677071755E+02  0.16325000541E+04  0.25500000920E-02 0. -1.
</event>
<event>
 5   0  0.3749685E-07  0.3283738E+04  0.7818609E-02  0.8167046E-01
        1   -1    0    0  501    0  0.00000000000E+00  0.00000000000E+00  0.21209692789E+04  0.21209692789E+04  0.50400001928E-02 0. -1.
       -1   -1    0    0    0  501  0.00000000000E+00  0.00000000000E+00 -0.12709915367E+04  0.12709915368E+04  0.50400001928E-02 0.  1.
    10030    2    1    2    0    0  0.00000000000E+00  0.00000000000E+00  0.84997774219E+03  0.33919608157E+04  0.32837381158E+04 0.  0.
        3    1    3    3  502    0 -0.97885561152E+03 -0.76130854123E+03 -0.68657334913E+03  0.14174385267E+04  0.10100000352E+00 0.  1.
       -3    1    3    3    0  502  0.97885561152E+03  0.76130854123E+03  0.15365510913E+04  0.19745222890E+04  0.10100000352E+00 0. -1.
</event>
<event>
 5   0  0.1146799E-06  0.3295826E+04  0.7818609E-02  0.8163958E-01
        2   -1    0    0  501    0  0.00000000000E+00  0.00000000000E+00  0.24059303113E+04  0.24059303113E+04  0.25500000920E-02 0. -1.
       -2   -1    0    0    0  501  0.00000000000E+00  0.00000000000E+00 -0.11287178417E+04  0.11287178417E+04  0.25500000920E-02 0.  1.
    10030    2    1    2    0    0  0.00000000000E+00  0.00000000000E+00  0.12772124697E+04  0.35346481530E+04  0.32958255222E+04 0.  0.
        5    1    3    3  502    0  0.85539258576E+03  0.13015318937E+02 -0.87190198849E+03  0.12215158787E+04  0.46999998093E+01 0.  1.
       -5    1    3    3    0  502 -0.85539258576E+03 -0.13015318937E+02  0.21491144582E+04  0.23131322743E+04  0.46999998093E+01 0. -1.
</event>
<event>
 5   0  0.1126221E-06  0.3306956E+04  0.7818609E-02  0.8161128E-01
       -2   -1    0    0    0  501  0.00000000000E+00  0.00000000000E+00  0.13585119558E+04  0.13585119558E+04  0.25500000920E-02 0. -1.
        2   -1    0    0  501    0  0.00000000000E+00  0.00000000000E+00 -0.20124886992E+04  0.20124886992E+04  0.25500000920E-02 0.  1.
    10030    2    1    2    0    0  0.00000000000E+00  0.00000000000E+00 -0.65397674336E+03  0.33710006550E+04  0.33069562796E+04 0.  0.
        2    1    3    3  502    0 -0.85074986557E+03 -0.13830378215E+04 -0.64515651688E+03  0.17472251946E+04  0.25500000920E-02 0.  1.
       -2    1    3    3    0  502  0.85074986557E+03  0.13830378215E+04 -0.88202264836E+01  0.16237754604E+04  0.25500000920E-02 0. -1.
</event>
<event>
 5   0  0.3757406E-07  0.3311390E+04  0.7818609E-02  0.8160003E-01
       -1   -1    0    0    0  501  0.00000000000E+00  0.00000000000E+00  0.95281861382E+03  0.95281861384E+03  0.50400001928E-02 0. -1.
        1   -1    0    0  501    0  0.00000000000E+00  0.00000000000E+00 -0.28770703027E+04  0.28770703027E+04  0.50400001928E-02 0.  1.
    10030    2    1    2    0    0  0.00000000000E+00  0.00000000000E+00 -0.19242516889E+04  0.38298889166E+04  0.33113901237E+04 0.  0.
        1    1    3    3  502    0 -0.26531937149E+03 -0.12844584424E+03  0.92222491924E+03  0.96818980860E+03  0.50400001928E-02 0. -1.
       -1    1    3    3    0  502  0.26531937149E+03  0.12844584424E+03 -0.28464766081E+04  0.28616991080E+04  0.50400001928E-02 0.  1.
</event>
<event>
 5   0  0.1146799E-06  0.3311915E+04  0.7818609E-02  0.8159870E-01
        2   -1    0    0  501    0  0.00000000000E+00  0.00000000000E+00  0.21962049256E+04  0.21962049256E+04  0.25500000920E-02 0. -1.
       -2   -1    0    0    0  501  0.00000000000E+00  0.00000000000E+00 -0.12486066437E+04  0.12486066437E+04  0.25500000920E-02 0.  1.
    10030    2    1    2    0    0  0.00000000000E+00  0.00000000000E+00  0.94759828195E+03  0.34448115693E+04  0.33119154947E+04 0.  0.
        5    1    3    3  502    0  0.10732756489E+04  0.98708924466E+03 -0.34249035594E+03  0.14978609847E+04  0.46999998093E+01 0.  1.
       -5    1    3    3    0  502 -0.10732756489E+04 -0.98708924466E+03  0.12900886379E+04  0.19469505847E+04  0.46999998093E+01 0. -1.
</event>
<event>
 5   0  0.3674967E-07  0.3291770E+04  0.7818609E-02  0.8164993E-01
        1   -1    0    0  501    0  0.00000000000E+00  0.00000000000E+00  0.19594631691E+04  0.19594631691E+04  0.50400001928E-02 0. -1.
       -1   -1    0    0    0  501  0.00000000000E+00  0.00000000000E+00 -0.13824897435E+04  0.13824897435E+04  0.50400001928E-02 0.  1.
    10030    2    1    2    0    0  0.00000000000E+00  0.00000000000E+00  0.57697342563E+03  0.33419529127E+04  0.32917701828E+04 0.  0.
        2    1    3    3  502    0  0.60849984565E+03 -0.11137884618E+04  0.13523843877E+04  0.18546536960E+04  0.25500000920E-02 0. -1.
       -2    1    3    3    0  502 -0.60849984565E+03  0.11137884618E+04 -0.77541096205E+03  0.14872992167E+04  0.25500000920E-02 0.  1.
</event>
<event>
 5   0  0.1129434E-06  0.3305853E+04  0.7818609E-02  0.8161408E-01
       -2   -1    0    0    0  501  0.00000000000E+00  0.00000000000E+00  0.13677395639E+04  0.13677395639E+04  0.25500000920E-02 0.  1.
        2   -1    0    0  501    0  0.00000000000E+00  0.00000000000E+00 -0.19975775684E+04  0.19975775684E+04  0.25500000920E-02 0. -1.
    10030    2    1    2    0    0  0.00000000000E+00  0.00000000000E+00 -0.62983800449E+03  0.33653171323E+04  0.33058529140E+04 0.  0.
        3    1    3    3  502    0 -0.11819479503E+04 -0.60914423522E+03  0.68463292129E+03  0.14955868091E+04  0.10100000352E+00 0.  1.
       -3    1    3    3    0  502  0.11819479503E+04  0.60914423522E+03 -0.13144709258E+04  0.18697303232E+04  0.10100000352E+00 0. -1.
</event>
<event>
 5   0  0.3674967E-07  0.3287568E+04  0.7818609E-02  0.8166066E-01
        1   -1    0    0  501    0  0.00000000000E+00  0.00000000000E+00  0.16912936384E+04  0.16912936384E+04  0.50400001928E-02 0.  1.
       -1   -1    0    0    0  501  0.00000000000E+00  0.00000000000E+00 -0.15976085422E+04  0.15976085422E+04  0.50400001928E-02 0. -1.
    10030    2    1    2    0    0  0.00000000000E+00  0.00000000000E+00  0.93685096265E+02  0.32889021806E+04  0.32875675896E+04 0.  0.
        2    1    3    3  502    0 -0.51804008161E+03 -0.12056320040E+04  0.10372500523E+04  0.16726630642E+04  0.25500000920E-02 0.  1.
       -2    1    3    3    0  502  0.51804008161E+03  0.12056320040E+04 -0.94356495606E+03  0.16162391164E+04  0.25500000920E-02 0. -1.
</event>
<event>
 5   0  0.3796529E-07  0.3259662E+04  0.7818609E-02  0.8173236E-01
       -1   -1    0    0    0  501  0.00000000000E+00  0.00000000000E+00  0.97649675269E+03  0.97649675271E+03  0.50400001928E-02 0. -1.
        1   -1    0    0  501    0  0.00000000000E+00  0.00000000000E+00 -0.27202849660E+04  0.27202849660E+04  0.50400001928E-02 0.  1.
    10030    2    1    2    0    0  0.00000000000E+00  0.00000000000E+00 -0.17437882133E+04  0.36967817187E+04  0.32596622130E+04 0.  0.
        5    1    3    3  502    0 -0.10893738934E+04  0.65171283488E+03 -0.20311537801E+04  0.23952187514E+04  0.46999998093E+01 0.  1.
       -5    1    3    3    0  502  0.10893738934E+04 -0.65171283488E+03  0.28736556683E+03  0.13015629673E+04  0.46999998093E+01 0. -1.
</event>
<event>
 5   0  0.1126221E-06  0.3300645E+04  0.7818609E-02  0.8162731E-01
       -2   -1    0    0    0  501  0.00000000000E+00  0.00000000000E+00  0.15150046693E+04  0.15150046693E+04  0.25500000920E-02 0.  1.
        2   -1    0    0  501    0  0.00000000000E+00  0.00000000000E+00 -0.17977271548E+04  0.17977271548E+04  0.25500000920E-02 0. -1.
    10030    2    1    2    0    0  0.00000000000E+00  0.00000000000E+00 -0.28272248551E+03  0.33127318241E+04  0.33006454119E+04 0.  0.
        2    1    3    3  502    0  0.80912219596E+03 -0.18928175304E+03 -0.15724361632E+04  0.17784998728E+04  0.25500000920E-02 0. -1.
       -2    1    3    3    0  502 -0.80912219596E+03  0.18928175304E+03  0.12897136777E+04  0.15342319514E+04  0.25500000920E-02 0.  1.
</event>
<event>
 5   0  0.1116462E-06  0.3331306E+04  0.7818609E-02  0.8154975E-01
       -2   -1    0    0    0  501  0.00000000000E+00  0.00000000000E+00  0.11268005443E+04  0.11268005443E+04  0.25500000920E-02 0.  1.
        2   -1    0    0  501    0  0.00000000000E+00  0.00000000000E+00 -0.24621923933E+04  0.24621923933E+04  0.25500000920E-02 0. -1.
    10030    2    1    2    0    0  0.00000000000E+00  0.00000000000E+00 -0.13353918490E+04  0.35889929376E+04  0.33313058875E+04 0.  0.
        1    1    3    3  502    0  0.11760670771E+04 -0.72362911884E+03 -0.16712125801E+04  0.21678847662E+04  0.50400001928E-02 0. -1.
       -1    1    3    3    0  502 -0.11760670771E+04  0.72362911884E+03  0.33582073104E+03  0.14211081715E+04  0.50400001928E-02 0.  1.
</event>
<event>
 5   0  0.3709747E-07  0.3301058E+04  0.7818609E-02  0.8162626E-01
        1   -1    0    0  501    0  0.00000000000E+00  0.00000000000E+00  0.12769043878E+04  0.12769043878E+04  0.50400001928E-02 0. -1.
       -1   -1    0    0    0  501  0.00000000000E+00  0.00000000000E+00 -0.21334765349E+04  0.21334765349E+04  0.50400001928E-02 0.  1.
    10030    2    1    2    0    0  0.00000000000E+00  0.00000000000E+00 -0.85657214708E+03  0.34103809227E+04  0.33010577388E+04 0.  0.
        4    1    3    3  502    0  0.50815883858E+03  0.78018601879E+03 -0.18362583662E+04  0.20588254004E+04  0.12699999809E+01 0.  1.
       -4    1    3    3    0  502 -0.50815883858E+03 -0.78018601879E+03  0.97968621909E+03  0.13515555223E+04  0.12699999809E+01 0. -1.
</event>
<event>
 5   0  0.3749685E-07  0.3312898E+04  0.7818609E-02  0.8159621E-01
        1   -1    0    0  501    0  0.00000000000E+00  0.00000000000E+00  0.21212906926E+04  0.21212906926E+04  0.50400001928E-02 0. -1.
       -1   -1    0    0    0  501  0.00000000000E+00  0.00000000000E+00 -0.12934688262E+04  0.12934688262E+04  0.50400001928E-02 0.  1.
    10030    2    1    2    0    0  0.00000000000E+00  0.00000000000E+00  0.82782186634E+03  0.34147595188E+04  0.33128980559E+04 0.  0.
        3    1    3    3  502    0  0.74541201137E+03 -0.41362311529E+03  0.18778256981E+04  0.20622687776E+04  0.10100000352E+00 0. -1.
       -3    1    3    3    0  502 -0.74541201137E+03  0.41362311529E+03 -0.10500038318E+04  0.13524907412E+04  0.10100000352E+00 0.  1.
</event>
<event>
 5   0  0.1126221E-06  0.3429071E+04  0.7818609E-02  0.8130808E-01
       -2   -1    0    0    0  501  0.00000000000E+00  0.00000000000E+00  0.20467649180E+04  0.20467649180E+04  0.25500000920E-02 0.  1.
        2   -1    0    0  501    0  0.00000000000E+00  0.00000000000E+00 -0.14362329360E+04  0.14362329360E+04  0.25500000920E-02 0. -1.
    10030    2    1    2    0    0  0.00000000000E+00  0.00000000000E+00  0.61053198204E+03  0.34829978540E+04  0.34290705373E+04 0.  0.
        2    1    3    3  502    0  0.15715168573E+03  0.38917645404E+03 -0.13832479635E+04  0.14455206305E+04  0.25500000920E-02 0. -1.
       -2    1    3    3    0  502 -0.15715168573E+03 -0.38917645404E+03  0.19937799456E+04  0.20374772235E+04  0.25500000920E-02 0.  1.
</event>
<event>
 5   0  0.3749685E-07  0.3314342E+04  0.7818609E-02  0.8159256E-01
       -1   -1    0    0    0  501  0.00000000000E+00  0.00000000000E+00  0.14952918768E+04  0.14952918768E+04  0.50400001928E-02 0.  1.
        1   -1    0    0  501    0  0.00000000000E+00  0.00000000000E+00 -0.18365748681E+04  0.18365748681E+04  0.50400001928E-02 0. -1.
    10030    2    1    2    0    0  0.00000000000E+00  0.00000000000E+00 -0.34128299128E+03  0.33318667449E+04  0.33143418540E+04 0.  0.
        3    1    3    3  502    0 -0.11194962872E+04  0.11437149961E+04  0.26158487354E+03  0.16216604409E+04  0.10100000352E+00 0. -1.
       -3    1    3    3    0  502  0.11194962872E+04 -0.11437149961E+04 -0.60286786483E+03  0.17102063039E+04  0.10100000352E+00 0.  1.
</event>
<event>
 5   0  0.3757406E-07  0.3278644E+04  0.7818609E-02  0.8168351E-01
       -1   -1    0    0    0  501  0.00000000000E+00  0.00000000000E+00  0.19781407705E+04  0.19781407705E+04  0.50400001928E-02 0. -1.
        1   -1    0    0  501    0  0.00000000000E+00  0.00000000000E+00 -0.13585366366E+04  0.13585366366E+04  0.50400001928E-02 0.  1.
    10030    2    1    2    0    0  0.00000000000E+00  0.00000000000E+00  0.61960413387E+03  0.33366774071E+04  0.32786440545E+04 0.  0.
        1    1    3    3  502    0 -0.15128248411E+04 -0.35926000569E+03 -0.21868727587E+03  0.15702009031E+04  0.50400001928E-02 0. -1.
       -1    1    3    3    0  502  0.15128248411E+04  0.35926000569E+03  0.83829140974E+03  0.17664765040E+04  0.50400001928E-02 0.  1.
</event>
<event>
 5   0  0.3674967E-07  0.3309373E+04  0.7818609E-02  0.8160515E-01
        1   -1    0    0  501    0  0.00000000000E+00  0.00000000000E+00  0.20460090877E+04  0.20460090877E+04  0.50400001928E-02 0.  1.
       -1   -1    0    0    0  501  0.00000000000E+00  0.00000000000E+00 -0.13382086347E+04  0.13382086347E+04  0.50400001928E-02 0. -1.
    10030    2    1    2    0    0  0.00000000000E+00  0.00000000000E+00  0.70780045299E+03  0.33842177225E+04  0.33093727671E+04 0.  0.
        2    1    3    3  502    0  0.15676984712E+04  0.48101226009E+03  0.12768300014E+03  0.16447961088E+04  0.25500000920E-02 0. -1.
       -2    1    3    3    0  502 -0.15676984712E+04 -0.48101226009E+03  0.58011745284E+03  0.17394216137E+04  0.25500000920E-02 0.  1.
</event>
<event>
 5   0  0.1120545E-06  0.3301721E+04  0.7818609E-02  0.8162458E-01
        2   -1    0    0  501    0  0.00000000000E+00  0.00000000000E+00  0.24574474448E+04  0.24574474448E+04  0.25500000920E-02 0.  1.
       -2   -1    0    0    0  501  0.00000000000E+00  0.00000000000E+00 -0.11090124902E+04  0.11090124902E+04  0.25500000920E-02 0. -1.
    10030    2    1    2    0    0  0.00000000000E+00  0.00000000000E+00  0.13484349546E+04  0.35664599350E+04  0.33017207091E+04 0.  0.
        4    1    3    3  502    0 -0.61725906327E+03 -0.13753481080E+04 -0.52599173234E+02  0.15084294664E+04  0.12699999809E+01 0. -1.
       -4    1    3    3    0  502  0.61725906327E+03  0.13753481080E+04  0.14010341279E+04  0.20580304686E+04  0.12699999809E+01 0.  1.
</event>
<event>
 5   0  0.3674967E-07  0.3299269E+04  0.7818609E-02  0.8163081E-01
        1   -1    0    0  501    0  0.00000000000E+00  0.00000000000E+00  0.19358822211E+04  0.19358822211E+04  0.50400001928E-02 0.  1.
       -1   -1    0    0    0  501  0.00000000000E+00  0.00000000000E+00 -0.14057125734E+04  0.14057125734E+04  0.50400001928E-02 0. -1.
    10030    2    1    2    0    0  0.00000000000E+00  0.00000000000E+00  0.53016964771E+03  0.33415947944E+04  0.32992689971E+04 0.  0.
        2    1    3    3  502    0  0.40983837256E+03  0.20103324630E+03 -0.13404684123E+04  0.14160640600E+04  0.25500000920E-02 0. -1.
       -2    1    3    3    0  502 -0.40983837256E+03 -0.20103324630E+03  0.18706380600E+04  0.19255307344E+04  0.25500000920E-02 0.  1.
</event>
<event>
 5   0  0.1120545E-06  0.3290088E+04  0.7818609E-02  0.8165422E-01
        2   -1    0    0  501    0  0.00000000000E+00  0.00000000000E+00  0.20066267325E+04  0.20066267325E+04  0.25500000920E-02 0. -1.
       -2   -1    0    0    0  501  0.00000000000E+00  0.00000000000E+00 -0.13486163830E+04  0.13486163830E+04  0.25500000920E-02 0.  1.
    10030    2    1    2    0    0  0.00000000000E+00  0.00000000000E+00  0.65801034953E+03  0.33552431155E+04  0.32900879539E+04 0.  0.
        4    1    3    3  502    0  0.99418943186E+01  0.15650888819E+04  0.84555956556E+03  0.17789251365E+04  0.12699999809E+01 0.  1.
       -4    1    3    3    0  502 -0.99418943186E+01 -0.15650888819E+04 -0.18754921603E+03  0.15763179790E+04  0.12699999809E+01 0. -1.
</event>
<event>
 5   0  0.1116462E-06  0.3302046E+04  0.7818609E-02  0.8162375E-01
       -2   -1    0    0    0  501  0.00000000000E+00  0.00000000000E+00  0.22930115959E+04  0.22930115959E+04  0.25500000920E-02 0.  1.
        2   -1    0    0  501    0  0.00000000000E+00  0.00000000000E+00 -0.11887755680E+04  0.11887755680E+04  0.25500000920E-02 0. -1.
    10030    2    1    2    0    0  0.00000000000E+00  0.00000000000E+00  0.11042360279E+04  0.34817871639E+04  0.33020455250E+04 0.  0.
        1    1    3    3  502    0  0.36484665281E+03 -0.55188920999E+03  0.21471316017E+04  0.22467462908E+04  0.50400001928E-02 0.  1.
       -1    1    3    3    0  502 -0.36484665281E+03  0.55188920999E+03 -0.10428955739E+04  0.12350408731E+04  0.50400001928E-02 0. -1.
</event>
<event>
 5   0  0.3573375E-07  0.3289725E+04  0.7818609E-02  0.8165515E-01
        4   -1    0    0  501    0  0.00000000000E+00  0.00000000000E+00  0.23630624993E+04  0.23630628406E+04  0.12699999809E+01 0. -1.
       -4   -1    0    0    0  501  0.00000000000E+00  0.00000000000E+00 -0.11449423375E+04  0.11449430419E+04  0.12699999809E+01 0.  1.
    10030    2    1    2    0    0  0.00000000000E+00  0.00000000000E+00  0.12181201618E+04  0.35080058825E+04  0.32897246911E+04 0.  0.
        5    1    3    3  502    0 -0.90732475588E+03  0.12640574933E+03  0.20658447921E+04  0.22598569471E+04  0.46999998093E+01 0. -1.
       -5    1    3    3    0  502  0.90732475588E+03 -0.12640574933E+03 -0.84772463033E+03  0.12481489354E+04  0.46999998093E+01 0.  1.
</event>
<event>
 5   0  0.1129434E-06  0.3324614E+04  0.7818609E-02  0.8156660E-01
        2   -1    0    0  501    0  0.00000000000E+00  0.00000000000E+00  0.25390147616E+04  0.25390147616E+04  0.25500000920E-02 0.  1.
       -2   -1    0    0    0  501  0.00000000000E+00  0.00000000000E+00 -0.10883217467E+04  0.10883217467E+04  0.25500000920E-02 0. -1.
    10030    2    1    2    0    0  0.00000000000E+00  0.00000000000E+00  0.14506930149E+04  0.36273365083E+04  0.33246142515E+04 0.  0.
        3    1    3    3  502    0 -0.12795227704E+04  0.30709713114E+03  0.18336014450E+04  0.22568964170E+04  0.10100000352E+00 0.  1.
       -3    1    3    3    0  502  0.12795227704E+04 -0.30709713114E+03 -0.38290843004E+03  0.13704400913E+04  0.10100000352E+00 0. -1.
</event>
<event>
 5   0  0.1120545E-06  0.3327583E+04  0.7818609E-02  0.8155912E-01
        2   -1    0    0  501    0  0.00000000000E+00  0.00000000000E+00  0.14136620647E+04  0.14136620647E+04  0.25500000920E-02 0. -1.
       -2   -1    0    0    0  501  0.00000000000E+00  0.00000000000E+00 -0.19581779923E+04  0.19581779923E+04  0.25500000920E-02 0.  1.
    10030    2    1    2    0    0  0.00000000000E+00  0.00000000000E+00 -0.54451592757E+03  0.33718400570E+04  0.33275828727E+04 0.  0.
        4    1    3    3  502    0  0.47897984414E+03 -0.90165527412E+02 -0.18842170930E+04  0.19462341020E+04  0.12699999809E+01 0.  1.
       -4    1    3    3    0  502 -0.47897984414E+03  0.90165527412E+02  0.13397011654E+04  0.14256059550E+04  0.12699999809E+01 0. -1.
</event>
<event>
 5   0  0.3749685E-07  0.3290621E+04  0.7818609E-02  0.8165286E-01
       -1   -1    0    0    0  501  0.00000000000E+00  0.00000000000E+00  0.22209055112E+04  0.22209055112E+04  0.50400001928E-02 0. -1.
        1   -1    0    0  501    0  0.00000000000E+00  0.00000000000E+00 -0.12188932892E+04  0.12188932892E+04  0.50400001928E-02 0.  1.
    10030    2    1    2    0    0  0.00000000000E+00  0.00000000000E+00  0.10020122220E+04  0.34397988004E+04  0.32906211107E+04 0.  0.
        3    1    3    3  502    0  0.14142717167E+04  0.83855529901E+03  0.56465430385E+03  0.17384400971E+04  0.10100000352E+00 0.  1.
       -3    1    3    3    0  502 -0.14142717167E+04 -0.83855529901E+03  0.43735791816E+03  0.17013587032E+04  0.10100000352E+00 0. -1.
</event>
<event>
 5   0  0.3674967E-07  0.3296837E+04  0.7818609E-02  0.8163701E-01
       -1   -1    0    0    0  501  0.00000000000E+00  0.00000000000E+00  0.13735530620E+04  0.13735530620E+04  0.50400001928E-02 0. -1.
        1   -1    0    0  501    0  0.00000000000E+00  0.00000000000E+00 -0.19782884811E+04  0.19782884811E+04  0.50400001928E-02 0.  1.
    10030    2    1    2    0    0  0.00000000000E+00  0.00000000000E+00 -0.60473541904E+03  0.33518415431E+04  0.32968373941E+04 0.  0.
        2    1    3    3  502    0  0.33623866319E+02  0.16457265731E+04 -0.39179939451E+03  0.16920559339E+04  0.25500000920E-02 0.  1.
       -2    1    3    3    0  502 -0.33623866319E+02 -0.16457265731E+04 -0.21293602453E+03  0.16597856092E+04  0.25500000920E-02 0. -1.
</event>
<event>
 5   0  0.3796529E-07  0.3190411E+04  0.7818609E-02  0.8191354E-01
       -1   -1    0    0    0  501  0.00000000000E+00  0.00000000000E+00  0.17242082192E+04  0.17242082193E+04  0.50400001928E-02 0.  1.
        1   -1    0    0  501    0  0.00000000000E+00  0.00000000000E+00 -0.14758543865E+04  0.14758543865E+04  0.50400001928E-02 0. -1.
    10030    2    1    2    0    0  0.00000000000E+00  0.00000000000E+00  0.24835383276E+03  0.32000626058E+04  0.31904107971E+04 0.  0.
        5    1    3    3  502    0  0.14538649934E+04  0.10573022723E+03  0.77402263128E+03  0.16504652143E+04  0.46999998093E+01 0.  1.
       -5    1    3    3    0  502 -0.14538649934E+04 -0.10573022723E+03 -0.52566879852E+03  0.15495973915E+04  0.46999998093E+01 0. -1.
</event>
<event>
 5   0  0.1120545E-06  0.3303160E+04  0.7818609E-02  0.8162092E-01
        2   -1    0    0  501    0  0.00000000000E+00  0.00000000000E+00  0.88000303246E+03  0.88000303246E+03  0.25500000920E-02 0.  1.
       -2   -1    0    0    0  501  0.00000000000E+00  0.00000000000E+00 -0.30996672400E+04  0.30996672400E+04  0.25500000920E-02 0. -1.
    10030    2    1    2    0    0  0.00000000000E+00  0.00000000000E+00 -0.22196642075E+04  0.39796702725E+04  0.33031600451E+04 0.  0.
        4    1    3    3  502    0  0.27583885343E+03  0.13146474680E+04  0.47867617285E+02  0.13441272112E+04  0.12699999809E+01 0.  1.
       -4    1    3    3    0  502 -0.27583885343E+03 -0.13146474680E+04 -0.22675318248E+04  0.26355430612E+04  0.12699999809E+01 0. -1.
</event>
<event>
 5   0  0.3757406E-07  0.3292377E+04  0.7818609E-02  0.8164838E-01
       -1   -1    0    0    0  501  0.00000000000E+00  0.00000000000E+00  0.16571403528E+04  0.16571403529E+04  0.50400001928E-02 0.  1.
        1   -1    0    0  501    0  0.00000000000E+00  0.00000000000E+00 -0.16353089781E+04  0.16353089781E+04  0.50400001928E-02 0. -1.
    10030    2    1    2    0    0  0.00000000000E+00  0.00000000000E+00  0.21831374708E+02  0.32924493310E+04  0.32923769511E+04 0.  0.
        1    1    3    3  502    0  0.20455300826E+03 -0.71212917323E+02 -0.16209974150E+04  0.16354038744E+04  0.50400001928E-02 0. -1.
       -1    1    3    3    0  502 -0.20455300826E+03  0.71212917323E+02  0.16428287898E+04  0.16570454566E+04  0.50400001928E-02 0.  1.
</event>
<event>
 5   0  0.3796529E-07  0.3332389E+04  0.7818609E-02  0.8154702E-01
       -1   -1    0    0    0  501  0.00000000000E+00  0.00000000000E+00  0.99878906384E+03  0.99878906385E+03  0.50400001928E-02 0. -1.
        1   -1    0    0  501    0  0.00000000000E+00  0.00000000000E+00 -0.27795705387E+04  0.27795705387E+04  0.50400001928E-02 0.  1.
    10030    2    1    2    0    0  0.00000000000E+00  0.00000000000E+00 -0.17807814749E+04  0.37783596026E+04  0.33323893268E+04 0.  0.
        5    1    3    3  502    0 -0.40790496684E+03  0.12924333584E+04  0.20855344312E+03  0.13712356021E+04  0.46999998093E+01 0. -1.
       -5    1    3    3    0  502  0.40790496684E+03 -0.12924333584E+04 -0.19893349180E+04  0.24071240005E+04  0.46999998093E+01 0.  1.
</event>
<event>
 5   0  0.3757406E-07  0.3315180E+04  0.7818609E-02  0.8159043E-01
        1   -1    0    0  501    0  0.00000000000E+00  0.00000000000E+00  0.13117596123E+04  0.13117596123E+04  0.50400001928E-02 0.  1.
       -1   -1    0    0    0  501  0.00000000000E+00  0.00000000000E+00 -0.20945949300E+04  0.20945949300E+04  0.50400001928E-02 0. -1.
    10030    2    1    2    0    0  0.00000000000E+00  0.00000000000E+00 -0.78283531767E+03  0.34063545423E+04  0.33151802565E+04 0.  0.
        1    1    3    3  502    0  0.13882731938E+04  0.27694403378E+03  0.49462315571E+03  0.14995507743E+04  0.50400001928E-02 0.  1.
       -1    1    3    3    0  502 -0.13882731938E+04 -0.27694403378E+03 -0.12774584734E+04  0.19068037680E+04  0.50400001928E-02 0. -1.
</event>
<event>
 5   0  0.3674967E-07  0.3322956E+04  0.7818609E-02  0.8157079E-01
       -1   -1    0    0    0  501  0.00000000000E+00  0.00000000000E+00  0.12578937276E+04  0.12578937276E+04  0.50400001928E-02 0. -1.
        1   -1    0    0  501    0  0.00000000000E+00  0.00000000000E+00 -0.21945491162E+04  0.21945491162E+04  0.50400001928E-02 0.  1.
    10030    2    1    2    0    0  0.00000000000E+00  0.00000000000E+00 -0.93665538860E+03  0.34524428437E+04  0.33229562549E+04 0.  0.
        2    1    3    3  502    0  0.12509050427E+04 -0.10878188393E+04 -0.58400500308E+03  0.17576049319E+04  0.25500000920E-02 0.  1.
       -2    1    3    3    0  502 -0.12509050427E+04  0.10878188393E+04 -0.35265038552E+03  0.16948379118E+04  0.25500000920E-02 0. -1.
</event>
<event>
 5   0  0.1146799E-06  0.3270079E+04  0.7818609E-02  0.8170551E-01
       -2   -1    0    0    0  501  0.00000000000E+00  0.00000000000E+00  0.10011137179E+04  0.10011137179E+04  0.25500000920E-02 0. -1.
        2   -1    0    0  501    0  0.00000000000E+00  0.00000000000E+00 -0.26703804426E+04  0.26703804426E+04  0.25500000920E-02 0.  1.
    10030    2    1    2    0    0  0.00000000000E+00  0.00000000000E+00 -0.16692667248E+04  0.36714941605E+04  0.32700791997E+04 0.  0.
        5    1    3    3  502    0 -0.87219911063E+03 -0.13822281373E+04 -0.88542468139E+03  0.18588396565E+04  0.46999998093E+01 0. -1.
       -5    1    3    3    0  502  0.87219911063E+03  0.13822281373E+04 -0.78384204338E+03  0.18126545040E+04  0.46999998093E+01 0.  1.
</event>
<event>
 5   0  0.1120545E-06  0.3290693E+04  0.7818609E-02  0.8165268E-01
       -2   -1    0    0    0  501  0.00000000000E+00  0.00000000000E+00  0.12001130333E+04  0.12001130333E+04  0.25500000920E-02 0. -1.
        2   -1    0    0  501    0  0.00000000000E+00  0.00000000000E+00 -0.22557582885E+04  0.22557582885E+04  0.25500000920E-02 0.  1.
    10030    2    1    2    0    0  0.00000000000E+00  0.00000000000E+00 -0.10556452552E+04  0.34558713219E+04  0.32906928888E+04 0.  0.
        4    1    3    3  502    0  0.22373473054E+03  0.80582545082E+02 -0.22376148381E+04  0.22502161124E+04  0.12699999809E+01 0.  1.
       -4    1    3    3    0  502 -0.22373473054E+03 -0.80582545082E+02  0.11819695829E+04  0.12056552094E+04  0.12699999809E+01 0. -1.
</event>
<event>
 5   0  0.3749685E-07  0.3312389E+04  0.7818609E-02  0.8159750E-01
       -1   -1    0    0    0  501  0.00000000000E+00  0.00000000000E+00  0.11666063527E+04  0.11666063527E+04  0.50400001928E-02 0.  1.
        1   -1    0    0  501    0  0.00000000000E+00  0.00000000000E+00 -0.23512473121E+04  0.23512473121E+04  0.50400001928E-02 0. -1.
    10030    2    1    2    0    0  0.00000000000E+00  0.00000000000E+00 -0.11846409594E+04  0.35178536648E+04  0.33123888969E+04 0.  0.
        3    1    3    3  502    0 -0.15300904303E+04  0.56756713857E+03 -0.29255183817E+03  0.16579794239E+04  0.10100000352E+00 0.  1.
       -3    1    3    3    0  502  0.15300904303E+04 -0.56756713857E+03 -0.89208912120E+03  0.18598742409E+04  0.10100000352E+00 0. -1.
</event>
<event>
 5   0  0.3674967E-07  0.3284922E+04  0.7818609E-02  0.8166743E-01
       -1   -1    0    0    0  501  0.00000000000E+00  0.00000000000E+00  0.11021943933E+04  0.11021943933E+04  0.50400001928E-02 0. -1.
        1   -1    0    0  501    0  0.00000000000E+00  0.00000000000E+00 -0.24475518583E+04  0.24475518583E+04  0.50400001928E-02 0.  1.
    10030    2    1    2    0    0  0.00000000000E+00  0.00000000000E+00 -0.13453574650E+04  0.35497462516E+04  0.32849218776E+04 0.  0.
        2    1    3    3  502    0 -0.68462579282E+03 -0.61768844033E+03  0.79609819688E+03  0.12182051652E+04  0.25500000920E-02 0. -1.
       -2    1    3    3    0  502  0.68462579282E+03  0.61768844033E+03 -0.21414556619E+04  0.23315410863E+04  0.25500000920E-02 0.  1.
</event>
<event>
 5   0  0.1120545E-06  0.3311873E+04  0.7818609E-02  0.8159881E-01
        2   -1    0    0  501    0  0.00000000000E+00  0.00000000000E+00  0.29808417683E+04  0.29808417683E+04  0.25500000920E-02 0.  1.
       -2   -1    0    0    0  501  0.00000000000E+00  0.00000000000E+00 -0.91991637375E+03  0.91991637375E+03  0.25500000920E-02 0. -1.
    10030    2    1    2    0    0  0.00000000000E+00  0.00000000000E+00  0.20609253945E+04  0.39007581420E+04  0.33118726728E+04 0.  0.
        4    1    3    3  502    0  0.19571455682E+03 -0.49547351827E+03  0.28771572626E+04  0.29260611274E+04  0.12699999809E+01 0.  1.
       -4    1    3    3    0  502 -0.19571455682E+03  0.49547351827E+03 -0.81623186801E+03  0.97469701462E+03  0.12699999809E+01 0. -1.
</event>
<event>
 5   0  0.3757406E-07  0.3281663E+04  0.7818609E-02  0.8167577E-01
        1   -1    0    0  501    0  0.00000000000E+00  0.00000000000E+00  0.17731484280E+04  0.17731484280E+04  0.50400001928E-02 0.  1.
       -1   -1    0    0    0  501  0.00000000000E+00  0.00000000000E+00 -0.15183879971E+04  0.15183879971E+04  0.50400001928E-02 0. -1.
    10030    2    1    2    0    0  0.00000000000E+00  0.00000000000E+00  0.25476043089E+03  0.32915364251E+04  0.32816625604E+04 0.  0.
        1    1    3    3  502    0 -0.12335532180E+04  0.10807927184E+04  0.76623130886E+02  0.16418396834E+04  0.50400001928E-02 0. -1.
       -1    1    3    3    0  502  0.12335532180E+04 -0.10807927184E+04  0.17813730001E+03  0.16496967417E+04  0.50400001928E-02 0.  1.
</event>
<event>
 5   0  0.1116462E-06  0.3264674E+04  0.7818609E-02  0.8171943E-01
       -2   -1    0    0    0  501  0.00000000000E+00  0.00000000000E+00  0.11767370182E+04  0.11767370183E+04  0.25500000920E-02 0.  1.
        2   -1    0    0  501    0  0.00000000000E+00  0.00000000000E+00 -0.22643326544E+04  0.22643326544E+04  0.25500000920E-02 0. -1.
    10030    2    1    2    0    0  0.00000000000E+00  0.00000000000E+00 -0.10875956361E+04  0.34410696727E+04  0.32646739844E+04 0.  0.
        1    1    3    3  502    0  0.14904662349E+04  0.60865395344E+03 -0.25984469964E+03  0.16307876932E+04  0.50400001928E-02 0.  1.
       -1    1    3    3    0  502 -0.14904662349E+04 -0.60865395344E+03 -0.82775093651E+03  0.18102819795E+04  0.50400001928E-02 0. -1.
</event>
<event>
 5   0  0.3757406E-07  0.3307708E+04  0.7818609E-02  0.8160937E-01
       -1   -1    0    0    0  501  0.00000000000E+00  0.00000000000E+00  0.15709294342E+04  0.15709294342E+04  0.50400001928E-02 0. -1.
        1   -1    0    0  501    0  0.00000000000E+00  0.00000000000E+00 -0.17411562141E+04  0.17411562141E+04  0.50400001928E-02 0.  1.
    10030    2    1    2    0    0  0.00000000000E+00  0.00000000000E+00 -0.17022677990E+03  0.33120856482E+04  0.33077082980E+04 0.  0.
        1    1    3    3  502    0  0.75646921587E+03  0.67406881358E+02  0.13859953217E+04  0.15804342422E+04  0.50400001928E-02 0. -1.
       -1    1    3    3    0  502 -0.75646921587E+03 -0.67406881358E+02 -0.15562221016E+04  0.17316514060E+04  0.50400001928E-02 0.  1.
</event>
<event>
 5   0  0.3757406E-07  0.3289887E+04  0.7818609E-02  0.8165473E-01
       -1   -1    0    0    0  501  0.00000000000E+00  0.00000000000E+00  0.13681334525E+04  0.13681334525E+04  0.50400001928E-02 0.  1.
        1   -1    0    0  501    0  0.00000000000E+00  0.00000000000E+00 -0.19777598858E+04  0.19777598858E+04  0.50400001928E-02 0. -1.
    10030    2    1    2    0    0  0.00000000000E+00  0.00000000000E+00 -0.60962643329E+03  0.33458933384E+04  0.32898872083E+04 0.  0.
        1    1    3    3  502    0 -0.33506538507E+03  0.11400996130E+04  0.85197851961E+03  0.14621776013E+04  0.50400001928E-02 0.  1.
       -1    1    3    3    0  502  0.33506538507E+03 -0.11400996130E+04 -0.14616049529E+04  0.18837157371E+04  0.50400001928E-02 0. -1.
</event>
<event>
 5   0  0.1146799E-06  0.3292940E+04  0.7818609E-02  0.8164694E-01
        2   -1    0    0  501    0  0.00000000000E+00  0.00000000000E+00  0.15554026153E+04  0.15554026153E+04  0.25500000920E-02 0.  1.
       -2   -1    0    0    0  501  0.00000000000E+00  0.00000000000E+00 -0.17428688399E+04  0.17428688399E+04  0.25500000920E-02 0. -1.
    10030    2    1    2    0    0  0.00000000000E+00  0.00000000000E+00 -0.18746622456E+03  0.32982714552E+04  0.32929395693E+04 0.  0.
        5    1    3    3  502    0 -0.40993360214E+03  0.15490418078E+04 -0.47284905950E+03  0.16706838131E+04  0.46999998093E+01 0.  1.
       -5    1    3    3    0  502  0.40993360214E+03 -0.15490418078E+04  0.28538283494E+03  0.16275876421E+04  0.46999998093E+01 0. -1.
</event>
<event>
 5   0  0.3573375E-07  0.2900075E+04  0.7818609E-02  0.8272855E-01
       -3   -1    0    0    0  501  0.00000000000E+00  0.00000000000E+00  0.87782333723E+03  0.87782334304E+03  0.10100000352E+00 0. -1.
        3   -1    0    0  501    0  0.00000000000E+00  0.00000000000E+00 -0.23952535014E+04  0.23952535035E+04  0.10100000352E+00 0.  1.
    10030    2    1    2    0    0  0.00000000000E+00  0.00000000000E+00 -0.15174301642E+04  0.32730768465E+04  0.29000754715E+04 0.  0.
        4    1    3    3  502    0  0.97541568864E+03 -0.10719472112E+04 -0.70698013553E+03  0.16125536004E+04  0.12699999809E+01 0.  1.
       -4    1    3    3    0  502 -0.97541568864E+03  0.10719472112E+04 -0.81045002863E+03  0.16605232462E+04  0.12699999809E+01 0. -1.
</event>
<event>
 5   0  0.1129434E-06  0.3324784E+04  0.7818609E-02  0.8156618E-01
       -2   -1    0    0    0  501  0.00000000000E+00  0.00000000000E+00  0.16510408012E+04  0.16510408012E+04  0.25500000920E-02 0. -1.
        2   -1    0    0  501    0  0.00000000000E+00  0.00000000000E+00 -0.16738212029E+04  0.16738212029E+04  0.25500000920E-02 0.  1.
    10030    2    1    2    0    0  0.00000000000E+00  0.00000000000E+00 -0.22780401678E+02  0.33248620040E+04  0.33247839628E+04 0.  0.
        3    1    3    3  502    0 -0.56431642235E+03  0.13357238552E+04 -0.82438889443E+03  0.16680012894E+04  0.10100000352E+00 0.  1.
       -3    1    3    3    0  502  0.56431642235E+03 -0.13357238552E+04  0.80160849275E+03  0.16568607147E+04  0.10100000352E+00 0. -1.
</event>
<event>
 5   0  0.1120545E-06  0.3265428E+04  0.7818609E-02  0.8171748E-01
        2   -1    0    0  501    0  0.00000000000E+00  0.00000000000E+00  0.25231286979E+04  0.25231286979E+04  0.25500000920E-02 0. -1.
       -2   -1    0    0    0  501  0.00000000000E+00  0.00000000000E+00 -0.10565277166E+04  0.10565277166E+04  0.25500000920E-02 0.  1.
    10030    2    1    2    0    0  0.00000000000E+00  0.00000000000E+00  0.14666009813E+04  0.35796564145E+04  0.32654282426E+04 0.  0.
        4    1    3    3  502    0  0.41053272485E+03  0.62561437845E+03  0.23240879718E+04  0.24415808368E+04  0.12699999809E+01 0. -1.
       -4    1    3    3    0  502 -0.41053272485E+03 -0.62561437845E+03 -0.85748699057E+03  0.11380755777E+04  0.12699999809E+01 0.  1.
</event>
<event>
 5   0  0.1129434E-06  0.3294607E+04  0.7818609E-02  0.8164269E-01
        2   -1    0    0  501    0  0.00000000000E+00  0.00000000000E+00  0.19087742769E+04  0.19087742769E+04  0.25500000920E-02 0. -1.
       -2   -1    0    0    0  501  0.00000000000E+00  0.00000000000E+00 -0.14216498299E+04  0.14216498299E+04  0.25500000920E-02 0.  1.
    10030    2    1    2    0    0  0.00000000000E+00  0.00000000000E+00  0.48712444702E+03  0.33304241069E+04  0.32946068817E+04 0.  0.
        3    1    3    3  502    0 -0.75484144327E+03  0.88299566768E+03  0.14242244714E+04  0.18379016047E+04  0.10100000352E+00 0. -1.
       -3    1    3    3    0  502  0.75484144327E+03 -0.88299566768E+03 -0.93710002433E+03  0.14925225022E+04  0.10100000352E+00 0.  1.
</event>
<event>
 5   0  0.1116462E-06  0.3298191E+04  0.7818609E-02  0.8163356E-01
        2   -1    0    0  501    0  0.00000000000E+00  0.00000000000E+00  0.22775816335E+04  0.22775816335E+04  0.25500000920E-02 0.  1.
       -2   -1    0    0    0  501  0.00000000000E+00  0.00000000000E+00 -0.11940364016E+04  0.11940364016E+04  0.25500000920E-02 0. -1.
    10030    2    1    2    0    0  0.00000000000E+00  0.00000000000E+00  0.10835452319E+04  0.34716180351E+04  0.32981906422E+04 0.  0.
        1    1    3    3  502    0  0.83625599649E+03 -0.11022953958E+04 -0.40270320258E+03  0.14410236295E+04  0.50400001928E-02 0. -1.
       -1    1    3    3    0  502 -0.83625599649E+03  0.11022953958E+04  0.14862484345E+04  0.20305944057E+04  0.50400001928E-02 0.  1.
</event>
<event>
 5   0  0.3674967E-07  0.3320167E+04  0.7818609E-02  0.8157783E-01
       -1   -1    0    0    0  501  0.00000000000E+00  0.00000000000E+00  0.15898846650E+04  0.15898846650E+04  0.50400001928E-02 0.  1.
        1   -1    0    0  501    0  0.00000000000E+00  0.00000000000E+00 -0.17333816422E+04  0.17333816422E+04  0.50400001928E-02 0. -1.
    10030    2    1    2    0    0  0.00000000000E+00  0.00000000000E+00 -0.14349697727E+03  0.33232663072E+04  0.33201667979E+04 0.  0.
        2    1    3    3  502    0  0.93821600454E+03 -0.96824925984E+03  0.89772216903E+03  0.16197718954E+04  0.25500000920E-02 0.  1.
       -2    1    3    3    0  502 -0.93821600454E+03  0.96824925984E+03 -0.10412191463E+04  0.17034944118E+04  0.25500000920E-02 0. -1.
</event>
<event>
 5   0  0.3709747E-07  0.3292569E+04  0.7818609E-02  0.8164789E-01
       -1   -1    0    0    0  501  0.00000000000E+00  0.00000000000E+00  0.18399598102E+04  0.18399598102E+04  0.50400001928E-02 0.  1.
        1   -1    0    0  501    0  0.00000000000E+00  0.00000000000E+00 -0.14729954474E+04  0.14729954474E+04  0.50400001928E-02 0. -1.
    10030    2    1    2    0    0  0.00000000000E+00  0.00000000000E+00  0.36696436282E+03  0.33129552576E+04  0.32925688596E+04 0.  0.
        4    1    3    3  502    0  0.19781221930E+03 -0.95982926545E+03  0.15144911471E+04  0.18039087949E+04  0.12699999809E+01 0.  1.
       -4    1    3    3    0  502 -0.19781221930E+03  0.95982926545E+03 -0.11475267843E+04  0.15090464627E+04  0.12699999809E+01 0. -1.
</event>
<event>
 5   0  0.1146799E-06  0.3321175E+04  0.7818609E-02  0.8157528E-01
       -2   -1    0    0    0  501  0.00000000000E+00  0.00000000000E+00  0.13277440099E+04  0.13277440099E+04  0.25500000920E-02 0. -1.
        2   -1    0    0  501    0  0.00000000000E+00  0.00000000000E+00 -0.20768699561E+04  0.20768699561E+04  0.25500000920E-02 0.  1.
    10030    2    1    2    0    0  0.00000000000E+00  0.00000000000E+00 -0.74912594625E+03  0.34046139660E+04  0.33211754807E+04 0.  0.
        5    1    3    3  502    0 -0.91316952623E+03 -0.34771253146E+03  0.10018331475E+04  0.13994550131E+04  0.46999998093E+01 0. -1.
       -5    1    3    3    0  502  0.91316952623E+03  0.34771253146E+03 -0.17509590938E+04  0.20051589529E+04  0.46999998093E+01 0.  1.
</event>
<event>
 5   0  0.3757406E-07  0.3424796E+04  0.7818609E-02  0.8131847E-01
       -1   -1    0    0    0  501  0.00000000000E+00  0.00000000000E+00  0.89920744581E+03  0.89920744582E+03  0.50400001928E-02 0. -1.
        1   -1    0    0  501    0  0.00000000000E+00  0.00000000000E+00 -0.32609897704E+04  0.32609897704E+04  0.50400001928E-02 0.  1.
    10030    2    1    2    0    0  0.00000000000E+00  0.00000000000E+00 -0.23617823246E+04  0.41601972162E+04  0.34247956332E+04 0.  0.
        1    1    3    3  502    0  0.92054036170E+03  0.12364056447E+04 -0.20868318184E+04  0.25944094731E+04  0.50400001928E-02 0. -1.
       -1    1    3    3    0  502 -0.92054036170E+03 -0.12364056447E+04 -0.27495050624E+03  0.15657877432E+04  0.50400001928E-02 0.  1.
</event>
<event>
 5   0  0.3709747E-07  0.3289335E+04  0.7818609E-02  0.8165615E-01
        1   -1    0    0  501    0  0.00000000000E+00  0.00000000000E+00  0.13574776610E+04  0.13574776611E+04  0.50400001928E-02 0.  1.
       -1   -1    0    0    0  501  0.00000000000E+00  0.00000000000E+00 -0.19926151111E+04  0.19926151111E+04  0.50400001928E-02 0. -1.
    10030    2    1    2    0    0  0.00000000000E+00  0.00000000000E+00 -0.63513745010E+03  0.33500927722E+04  0.32893345834E+04 0.  0.
        4    1    3    3  502    0  0.27194279164E+03  0.57346720727E+03 -0.18628656750E+04  0.19680161727E+04  0.12699999809E+01 0. -1.
       -4    1    3    3    0  502 -0.27194279164E+03 -0.57346720727E+03  0.12277282249E+04  0.13820765995E+04  0.12699999809E+01 0.  1.
</event>
<event>
 5   0  0.3796529E-07  0.3287417E+04  0.7818609E-02  0.8166104E-01
       -1   -1    0    0    0  501  0.00000000000E+00  0.00000000000E+00  0.11553560073E+04  0.11553560073E+04  0.50400001928E-02 0.  1.
        1   -1    0    0  501    0  0.00000000000E+00  0.00000000000E+00 -0.23384807947E+04  0.23384807947E+04  0.50400001928E-02 0. -1.
    10030    2    1    2    0    0  0.00000000000E+00  0.00000000000E+00 -0.11831247875E+04  0.34938368020E+04  0.32874171223E+04 0.  0.
        5    1    3    3  502    0  0.73329724368E+03 -0.35960668293E+03 -0.21075633718E+04  0.22602847763E+04  0.46999998093E+01 0. -1.
       -5    1    3    3    0  502 -0.73329724368E+03  0.35960668293E+03  0.92443858428E+03  0.12335520257E+04  0.46999998093E+01 0.  1.
</event>
<event>
 5   0  0.1120545E-06  0.3345677E+04  0.7818609E-02  0.8151369E-01
        2   -1    0    0  501    0  0.00000000000E+00  0.00000000000E+00  0.17982126092E+04  0.17982126092E+04  0.25500000920E-02 0. -1.
       -2   -1    0    0    0  501  0.00000000000E+00  0.00000000000E+00 -0.15562052883E+04  0.15562052883E+04  0.25500000920E-02 0.  1.
    10030    2    1    2    0    0  0.00000000000E+00  0.00000000000E+00  0.24200732088E+03  0.33544178976E+04  0.33456765965E+04 0.  0.
        4    1    3    3  502    0  0.10586138140E+04  0.51454163327E+03 -0.10707862047E+04  0.15912262594E+04  0.12699999809E+01 0.  1.
       -4    1    3    3    0  502 -0.10586138140E+04 -0.51454163327E+03  0.13127935255E+04  0.17631916382E+04  0.12699999809E+01 0. -1.
</event>
<event>
 5   0  0.3757406E-07  0.3591658E+04  0.7818609E-02  0.8092405E-01
       -1   -1    0    0    0  501  0.00000000000E+00  0.00000000000E+00  0.23771121637E+04  0.23771121637E+04  0.50400001928E-02 0.  1.
        1   -1    0    0  501    0  0.00000000000E+00  0.00000000000E+00 -0.13566890739E+04  0.13566890739E+04  0.50400001928E-02 0. -1.
    10030    2    1    2    0    0  0.00000000000E+00  0.00000000000E+00  0.10204230898E+04  0.37338012376E+04  0.35916581685E+04 0.  0.
        1    1    3    3  502    0 -0.15948582135E+04  0.41429534662E+03  0.12524634485E+04  0.20697531363E+04  0.50400001928E-02 0.  1.
       -1    1    3    3    0  502  0.15948582135E+04 -0.41429534662E+03 -0.23204035868E+03  0.16640481013E+04  0.50400001928E-02 0. -1.
</event>
<event>
 5   0  0.1126221E-06  0.3302331E+04  0.7818609E-02  0.8162302E-01
       -2   -1    0    0    0  501  0.00000000000E+00  0.00000000000E+00  0.22494363055E+04  0.22494363055E+04  0.25500000920E-02 0. -1.
        2   -1    0    0  501    0  0.00000000000E+00  0.00000000000E+00 -0.12120138147E+04  0.12120138147E+04  0.25500000920E-02 0.  1.
    10030    2    1    2    0    0  0.00000000000E+00  0.00000000000E+00  0.10374224908E+04  0.34614501202E+04  0.33023312236E+04 0.  0.
        2    1    3    3  502    0  0.65921581576E+03 -0.91095613695E+03 -0.74865581358E+03  0.13508856733E+04  0.25500000920E-02 0.  1.
       -2    1    3    3    0  502 -0.65921581576E+03  0.91095613695E+03  0.17860783044E+04  0.21105644469E+04  0.25500000920E-02 0. -1.
</event>
<event>
 5   0  0.1146799E-06  0.3300637E+04  0.7818609E-02  0.8162733E-01
        2   -1    0    0  501    0  0.00000000000E+00  0.00000000000E+00  0.21790076984E+04  0.21790076984E+04  0.25500000920E-02 0.  1.
       -2   -1    0    0    0  501  0.00000000000E+00  0.00000000000E+00 -0.12499045950E+04  0.12499045950E+04  0.25500000920E-02 0. -1.
    10030    2    1    2    0    0  0.00000000000E+00  0.00000000000E+00  0.92910310344E+03  0.34289122933E+04  0.33006373534E+04 0.  0.
        5    1    3    3  502    0 -0.11195748554E+04  0.82328438206E+03 -0.46014487077E+03  0.14638990480E+04  0.46999998093E+01 0. -1.
       -5    1    3    3    0  502  0.11195748554E+04 -0.82328438206E+03  0.13892479742E+04  0.19650132454E+04  0.46999998093E+01 0.  1.
</event>
<event>
 5   0  0.3749685E-07  0.3304775E+04  0.7818609E-02  0.8161682E-01
       -1   -1    0    0    0  501  0.00000000000E+00  0.00000000000E+00  0.12915735129E+04  0.12915735129E+04  0.50400001928E-02 0. -1.
        1   -1    0    0  501    0  0.00000000000E+00  0.00000000000E+00 -0.21139978857E+04  0.21139978858E+04  0.50400001928E-02 0.  1.
    10030    2    1    2    0    0  0.00000000000E+00  0.00000000000E+00 -0.82242437285E+03  0.34055713987E+04  0.33047745312E+04 0.  0.
        3    1    3    3  502    0  0.73756554295E+03 -0.41242109682E+03  0.10520582794E+04  0.13494149564E+04  0.10100000352E+00 0. -1.
       -3    1    3    3    0  502 -0.73756554295E+03  0.41242109682E+03 -0.18744826522E+04  0.20561564422E+04  0.10100000352E+00 0.  1.
</event>
<event>
 5   0  0.3796529E-07  0.3290767E+04  0.7818609E-02  0.8165249E-01
       -1   -1    0    0    0  501  0.00000000000E+00  0.00000000000E+00  0.16279165886E+04  0.16279165886E+04  0.50400001928E-02 0.  1.
        1   -1    0    0  501    0  0.00000000000E+00  0.00000000000E+00 -0.16630380944E+04  0.16630380944E+04  0.50400001928E-02 0. -1.
    10030    2    1    2    0    0  0.00000000000E+00  0.00000000000E+00 -0.35121505782E+02  0.32909546830E+04  0.32907672670E+04 0.  0.
        5    1    3    3  502    0 -0.12601250019E+04 -0.20830409924E+03 -0.10549045498E+04  0.16565480124E+04  0.46999998093E+01 0. -1.
       -5    1    3    3    0  502  0.12601250019E+04  0.20830409924E+03  0.10197830441E+04  0.16344066706E+04  0.46999998093E+01 0.  1.
</event>
<event>
 5   0  0.1126221E-06  0.3306851E+04  0.7818609E-02  0.8161154E-01
        2   -1    0    0  501    0  0.00000000000E+00  0.00000000000E+00  0.14678277606E+04  0.14678277606E+04  0.25500000920E-02 0.  1.
       -2   -1    0    0    0  501  0.00000000000E+00  0.00000000000E+00 -0.18624910422E+04  0.18624910422E+04  0.25500000920E-02 0. -1.
    10030    2    1    2    0    0  0.00000000000E+00  0.00000000000E+00 -0.39466328161E+03  0.33303188029E+04  0.33068511038E+04 0.  0.
        2    1    3    3  502    0  0.11749877646E+04  0.80660515169E+03  0.64683404534E+03  0.15651205704E+04  0.25500000920E-02 0.  1.
       -2    1    3    3    0  502 -0.11749877646E+04 -0.80660515169E+03 -0.10414973270E+04  0.17651982324E+04  0.25500000920E-02 0. -1.
</event>
<event>
 5   0  0.3709747E-07  0.3310850E+04  0.7818609E-02  0.8160140E-01
        1   -1    0    0  501    0  0.00000000000E+00  0.00000000000E+00  0.14670102212E+04  0.14670102212E+04  0.50400001928E-02 0. -1.
       -1   -1    0    0    0  501  0.00000000000E+00  0.00000000000E+00 -0.18680384202E+04  0.18680384202E+04  0.50400001928E-02 0.  1.
    10030    2    1    2    0    0  0.00000000000E+00  0.00000000000E+00 -0.40102819894E+03  0.33350486414E+04  0.33108497133E+04 0.  0.
        4    1    3    3  502    0 -0.57266653460E+03  0.41201164553E+03  0.13080061075E+04  0.14861299224E+04  0.12699999809E+01 0. -1.
       -4    1    3    3    0  502  0.57266653460E+03 -0.41201164553E+03 -0.17090343065E+04  0.18489187190E+04  0.12699999809E+01 0.  1.
</event>
<event>
 5   0  0.1129434E-06  0.3281077E+04  0.7818609E-02  0.8167727E-01
       -2   -1    0    0    0  501  0.00000000000E+00  0.00000000000E+00  0.16959640414E+04  0.16959640414E+04  0.25500000920E-02 0.  1.
        2   -1    0    0  501    0  0.00000000000E+00  0.00000000000E+00 -0.15869242072E+04  0.15869242072E+04  0.25500000920E-02 0. -1.
    10030    2    1    2    0    0  0.00000000000E+00  0.00000000000E+00  0.10903983420E+03  0.32828882486E+04  0.32810768914E+04 0.  0.
        3    1    3    3  502    0 -0.15467933606E+03 -0.12292801975E+04  0.11304325265E+04  0.16771801359E+04  0.10100000352E+00 0.  1.
       -3    1    3    3    0  502  0.15467933606E+03  0.12292801975E+04 -0.10213926923E+04  0.16057081127E+04  0.10100000352E+00 0. -1.
</event>
<event>
 5   0  0.1146799E-06  0.3316486E+04  0.7818609E-02  0.8158713E-01
       -2   -1    0    0    0  501  0.00000000000E+00  0.00000000000E+00  0.25942781796E+04  0.25942781796E+04  0.25500000920E-02 0. -1.
        2   -1    0    0  501    0  0.00000000000E+00  0.00000000000E+00 -0.10599363726E+04  0.10599363726E+04  0.25500000920E-02 0.  1.
    10030    2    1    2    0    0  0.00000000000E+00  0.00000000000E+00  0.15343418069E+04  0.36542145522E+04  0.33164859736E+04 0.  0.
        5    1    3    3  502    0 -0.10863060878E+03  0.10845923565E+04 -0.60972683075E+03  0.12489716118E+04  0.46999998093E+01 0.  1.
       -5    1    3    3    0  502  0.10863060878E+03 -0.10845923565E+04  0.21440686377E+04  0.24052429404E+04  0.46999998093E+01 0. -1.
</event>
<event>
 5   0  0.1116462E-06  0.3391537E+04  0.7818609E-02  0.8139987E-01
        2   -1    0    0  501    0  0.00000000000E+00  0.00000000000E+00  0.19998525908E+04  0.19998525908E+04  0.25500000920E-02 0.  1.
       -2   -1    0    0    0  501  0.00000000000E+00  0.00000000000E+00 -0.14379210640E+04  0.14379210640E+04  0.25500000920E-02 0. -1.
    10030    2    1    2    0    0  0.00000000000E+00  0.00000000000E+00  0.56193152675E+03  0.34377736548E+04  0.33915366224E+04 0.  0.
        1    1    3    3  502    0  0.73452768850E+03  0.14670183838E+04  0.71571427411E+03  0.17899499394E+04  0.50400001928E-02 0.  1.
       -1    1    3    3    0  502 -0.73452768850E+03 -0.14670183838E+04 -0.15378274736E+03  0.16478237154E+04  0.50400001928E-02 0. -1.
</event>
<event>
 5   0  0.3757406E-07  0.3283936E+04  0.7818609E-02  0.8166995E-01
       -1   -1    0    0    0  501  0.00000000000E+00  0.00000000000E+00  0.11760847914E+04  0.11760847914E+04  0.50400001928E-02 0.  1.
        1   -1    0    0  501    0  0.00000000000E+00  0.00000000000E+00 -0.22924019840E+04  0.22924019840E+04  0.50400001928E-02 0. -1.
    10030    2    1    2    0    0  0.00000000000E+00  0.00000000000E+00 -0.11163171925E+04  0.34684867754E+04  0.32839361195E+04 0.  0.
        1    1    3    3  502    0 -0.15980484916E+04  0.33528506954E+03 -0.37557360840E+03  0.16754792135E+04  0.50400001928E-02 0. -1.
       -1    1    3    3    0  502  0.15980484916E+04 -0.33528506954E+03 -0.74074358414E+03  0.17930075619E+04  0.50400001928E-02 0.  1.
</event>
<event>
 5   0  0.1116462E-06  0.3309828E+04  0.7818609E-02  0.8160399E-01
        2   -1    0    0  501    0  0.00000000000E+00  0.00000000000E+00  0.17801625548E+04  0.17801625548E+04  0.25500000920E-02 0. -1.
       -2   -1    0    0    0  501  0.00000000000E+00  0.00000000000E+00 -0.15384772959E+04  0.15384772959E+04  0.25500000920E-02 0.  1.
    10030    2    1    2    0    0  0.00000000000E+00  0.00000000000E+00  0.24168525889E+03  0.33186398507E+04  0.33098275928E+04 0.  0.
        1    1    3    3  502    0 -0.18027386898E+03  0.15210081513E+04  0.74922904240E+03  0.17050831716E+04  0.50400001928E-02 0.  1.
       -1    1    3    3    0  502  0.18027386898E+03 -0.15210081513E+04 -0.50754378352E+03  0.16135566790E+04  0.50400001928E-02 0. -1.
</event>
<event>
 5   0  0.3757406E-07  0.3204630E+04  0.7818609E-02  0.8187595E-01
       -1   -1    0    0    0  501  0.00000000000E+00  0.00000000000E+00  0.20785163561E+04  0.20785163561E+04  0.50400001928E-02 0. -1.
        1   -1    0    0  501    0  0.00000000000E+00  0.00000000000E+00 -0.12352144332E+04  0.12352144332E+04  0.50400001928E-02 0.  1.
    10030    2    1    2    0    0  0.00000000000E+00  0.00000000000E+00  0.84330192286E+03  0.33137307893E+04  0.32046300272E+04 0.  0.
        1    1    3    3  502    0 -0.13170820679E+04  0.57856792253E+02  0.13633477363E+04  0.18965151283E+04  0.50400001928E-02 0. -1.
       -1    1    3    3    0  502  0.13170820679E+04 -0.57856792253E+02 -0.52004581339E+03  0.14172156610E+04  0.50400001928E-02 0.  1.
</event>
<event>
 5   0  0.1120545E-06  0.3395789E+04  0.7818609E-02  0.8138941E-01
       -2   -1    0    0    0  501  0.00000000000E+00  0.00000000000E+00  0.12979268740E+04  0.12979268740E+04  0.25500000920E-02 0.  1.
        2   -1    0    0  501    0  0.00000000000E+00  0.00000000000E+00 -0.22211161363E+04  0.22211161363E+04  0.25500000920E-02 0. -1.
    10030    2    1    2    0    0  0.00000000000E+00  0.00000000000E+00 -0.92318926223E+03  0.35190430103E+04  0.33957893478E+04 0.  0.
        4    1    3    3  502    0 -0.11030218093E+04 -0.17205028585E+03  0.86412988818E+03  0.14117296091E+04  0.12699999809E+01 0.  1.
       -4    1    3    3    0  502  0.11030218093E+04  0.17205028585E+03 -0.17873191504E+04  0.21073134012E+04  0.12699999809E+01 0. -1.
</event>
<event>
 5   0  0.3757406E-07  0.3314325E+04  0.7818609E-02  0.8159260E-01
        1   -1    0    0  501    0  0.00000000000E+00  0.00000000000E+00  0.32790073812E+04  0.32790073812E+04  0.50400001928E-02 0. -1.
       -1   -1    0    0    0  501  0.00000000000E+00  0.00000000000E+00 -0.83750559707E+03  0.83750559708E+03  0.50400001928E-02 0.  1.
    10030    2    1    2    0    0  0.00000000000E+00  0.00000000000E+00  0.24415017841E+04  0.41165129783E+04  0.33143246882E+04 0.  0.
        1    1    3    3  502    0  0.32543265465E+03 -0.11039677336E+04  0.27016086598E+04  0.29365524890E+04  0.50400001928E-02 0. -1.
       -1    1    3    3    0  502 -0.32543265465E+03  0.11039677336E+04 -0.26010687568E+03  0.11799604893E+04  0.50400001928E-02 0.  1.
</event>
<event>
 5   0  0.1146799E-06  0.3299726E+04  0.7818609E-02  0.8162965E-01
       -2   -1    0    0    0  501  0.00000000000E+00  0.00000000000E+00  0.16041801889E+04  0.16041801889E+04  0.25500000920E-02 0. -1.
        2   -1    0    0  501    0  0.00000000000E+00  0.00000000000E+00 -0.16968463329E+04  0.16968463329E+04  0.25500000920E-02 0.  1.
    10030    2    1    2    0    0  0.00000000000E+00  0.00000000000E+00 -0.92666144025E+02  0.33010265219E+04  0.32997256073E+04 0.  0.
        5    1    3    3  502    0  0.16022820365E+04  0.34824057790E+03 -0.22928753020E+03  0.16556491434E+04  0.46999998093E+01 0.  1.
       -5    1    3    3    0  502 -0.16022820365E+04 -0.34824057790E+03  0.13662138617E+03  0.16453773785E+04  0.46999998093E+01 0. -1.
</event>
<event>
 5   0  0.1146799E-06  0.3286316E+04  0.7818609E-02  0.8166386E-01
        2   -1    0    0  501    0  0.00000000000E+00  0.00000000000E+00  0.16953604550E+04  0.16953604551E+04  0.25500000920E-02 0.  1.
       -2   -1    0    0    0  501  0.00000000000E+00  0.00000000000E+00 -0.15925625939E+04  0.15925625939E+04  0.25500000920E-02 0. -1.
    10030    2    1    2    0    0  0.00000000000E+00  0.00000000000E+00  0.10279786120E+03  0.32879230489E+04  0.32863156536E+04 0.  0.
        5    1    3    3  502    0  0.14073785251E+04  0.28824595842E+03 -0.74657848805E+03  0.16190125306E+04  0.46999998093E+01 0. -1.
       -5    1    3    3    0  502 -0.14073785251E+04 -0.28824595842E+03  0.84937634924E+03  0.16689105183E+04  0.46999998093E+01 0.  1.
</event>
<event>
 5   0  0.1126221E-06  0.3300674E+04  0.7818609E-02  0.8162724E-01
        2   -1    0    0  501    0  0.00000000000E+00  0.00000000000E+00  0.24899558268E+04  0.24899558268E+04  0.25500000920E-02 0.  1.
       -2   -1    0    0    0  501  0.00000000000E+00  0.00000000000E+00 -0.10938396594E+04  0.10938396594E+04  0.25500000920E-02 0. -1.
    10030    2    1    2    0    0  0.00000000000E+00  0.00000000000E+00  0.13961161674E+04  0.35837954862E+04  0.33006741333E+04 0.  0.
        2    1    3    3  502    0 -0.14302677593E+04  0.79706884006E+03  0.92223309643E+03  0.18792281616E+04  0.25500000920E-02 0.  1.
       -2    1    3    3    0  502  0.14302677593E+04 -0.79706884006E+03  0.47388307096E+03  0.17045673246E+04  0.25500000920E-02 0. -1.
</event>
<event>
 5   0  0.1126221E-06  0.3295084E+04  0.7818609E-02  0.8164147E-01
        2   -1    0    0  501    0  0.00000000000E+00  0.00000000000E+00  0.15325187567E+04  0.15325187567E+04  0.25500000920E-02 0. -1.
       -2   -1    0    0    0  501  0.00000000000E+00  0.00000000000E+00 -0.17711981709E+04  0.17711981709E+04  0.25500000920E-02 0.  1.
    10030    2    1    2    0    0  0.00000000000E+00  0.00000000000E+00 -0.23867941424E+03  0.33037169276E+04  0.32950838646E+04 0.  0.
        2    1    3    3  502    0 -0.37599495703E+03  0.15943519397E+04  0.57372181668E+02  0.16390917858E+04  0.25500000920E-02 0.  1.
       -2    1    3    3    0  502  0.37599495703E+03 -0.15943519397E+04 -0.29605159591E+03  0.16646251418E+04  0.25500000920E-02 0. -1.
</event>
<event>
 5   0  0.1116462E-06  0.3307587E+04  0.7818609E-02  0.8160967E-01
       -2   -1    0    0    0  501  0.00000000000E+00  0.00000000000E+00  0.16420103677E+04  0.16420103677E+04  0.25500000920E-02 0. -1.
        2   -1    0    0  501    0  0.00000000000E+00  0.00000000000E+00 -0.16656614159E+04  0.16656614159E+04  0.25500000920E-02 0.  1.
    10030    2    1    2    0    0  0.00000000000E+00  0.00000000000E+00 -0.23651048233E+02  0.33076717836E+04  0.33075872257E+04 0.  0.
        1    1    3    3  502    0  0.39436627235E+03  0.14912174465E+04  0.58466192378E+03  0.16495707910E+04  0.50400001928E-02 0. -1.
       -1    1    3    3    0  502 -0.39436627235E+03 -0.14912174465E+04 -0.60831297201E+03  0.16581009925E+04  0.50400001928E-02 0.  1.
</event>
<event>
 5   0  0.3796529E-07  0.3289098E+04  0.7818609E-02  0.8165675E-01
       -1   -1    0    0    0  501  0.00000000000E+00  0.00000000000E+00  0.15063266972E+04  0.15063266972E+04  0.50400001928E-02 0. -1.
        1   -1    0    0  501    0  0.00000000000E+00  0.00000000000E+00 -0.17954547356E+04  0.17954547357E+04  0.50400001928E-02 0.  1.
    10030    2    1    2    0    0  0.00000000000E+00  0.00000000000E+00 -0.28912803841E+03  0.33017814329E+04  0.32890979931E+04 0.  0.
        5    1    3    3  502    0 -0.11239494282E+04  0.83519248305E+03  0.72114804166E+03  0.15750826610E+04  0.46999998093E+01 0.  1.
       -5    1    3    3    0  502  0.11239494282E+04 -0.83519248305E+03 -0.10102760801E+04  0.17266987719E+04  0.46999998093E+01 0. -1.
</event>
<event>
 5   0  0.3749685E-07  0.3186904E+04  0.7818609E-02  0.8192284E-01
       -1   -1    0    0    0  501  0.00000000000E+00  0.00000000000E+00  0.16103631711E+04  0.16103631711E+04  0.50400001928E-02 0.  1.
        1   -1    0    0  501    0  0.00000000000E+00  0.00000000000E+00 -0.15767185603E+04  0.15767185603E+04  0.50400001928E-02 0. -1.
    10030    2    1    2    0    0  0.00000000000E+00  0.00000000000E+00  0.33644610834E+02  0.31870817314E+04  0.31869041408E+04 0.  0.
        3    1    3    3  502    0 -0.88063287963E+03 -0.60475261589E+02  0.13435152289E+04  0.16075461755E+04  0.10100000352E+00 0.  1.
       -3    1    3    3    0  502  0.88063287963E+03  0.60475261589E+02 -0.13098706181E+04  0.15795355559E+04  0.10100000352E+00 0. -1.
</event>
<event>
 5   0  0.1129434E-06  0.3299503E+04  0.7818609E-02  0.8163022E-01
       -2   -1    0    0    0  501  0.00000000000E+00  0.00000000000E+00  0.10191084615E+04  0.10191084615E+04  0.25500000920E-02 0.  1.
        2   -1    0    0  501    0  0.00000000000E+00  0.00000000000E+00 -0.26706488160E+04  0.26706488160E+04  0.25500000920E-02 0. -1.
    10030    2    1    2    0    0  0.00000000000E+00  0.00000000000E+00 -0.16515403545E+04  0.36897572775E+04  0.32995034815E+04 0.  0.
        3    1    3    3  502    0 -0.10795432391E+04 -0.12193974001E+04 -0.11202342181E+04  0.19766811422E+04  0.10100000352E+00 0.  1.
       -3    1    3    3    0  502  0.10795432391E+04  0.12193974001E+04 -0.53130613641E+03  0.17130761353E+04  0.10100000352E+00 0. -1.
</event>
<event>
 5   0  0.3757406E-07  0.3304314E+04  0.7818609E-02  0.8161799E-01
       -1   -1    0    0    0  501  0.00000000000E+00  0.00000000000E+00  0.15292195213E+04  0.15292195213E+04  0.50400001928E-02 0. -1.
        1   -1    0    0  501    0  0.00000000000E+00  0.00000000000E+00 -0.17849771974E+04  0.17849771974E+04  0.50400001928E-02 0.  1.
    10030    2    1    2    0    0  0.00000000000E+00  0.00000000000E+00 -0.25575767613E+03  0.33141967187E+04  0.33043135295E+04 0.  0.
        1    1    3    3  502    0  0.13711121069E+04 -0.45668918321E+02  0.79552018858E+03  0.15858393457E+04  0.50400001928E-02 0. -1.
       -1    1    3    3    0  502 -0.13711121069E+04  0.45668918321E+02 -0.10512778647E+04  0.17283573730E+04  0.50400001928E-02 0.  1.
</event>
<event>
 5   0  0.1126221E-06  0.3284624E+04  0.7818609E-02  0.8166819E-01
       -2   -1    0    0    0  501  0.00000000000E+00  0.00000000000E+00  0.17529639191E+04  0.17529639191E+04  0.25500000920E-02 0. -1.
        2   -1    0    0  501    0  0.00000000000E+00  0.00000000000E+00 -0.15386445838E+04  0.15386445838E+04  0.25500000920E-02 0.  1.
    10030    2    1    2    0    0  0.00000000000E+00  0.00000000000E+00  0.21431933524E+03  0.32916085029E+04  0.32846238383E+04 0.  0.
        2    1    3    3  502    0  0.15645769568E+04  0.49710285779E+03  0.15390792657E+03  0.16488480690E+04  0.25500000920E-02 0. -1.
       -2    1    3    3    0  502 -0.15645769568E+04 -0.49710285779E+03  0.60411408674E+02  0.16427604339E+04  0.25500000920E-02 0.  1.
</event>
<event>
 5   0  0.3709747E-07  0.3410208E+04  0.7818609E-02  0.8135406E-01
        1   -1    0    0  501    0  0.00000000000E+00  0.00000000000E+00  0.23665383945E+04  0.23665383945E+04  0.50400001928E-02 0.  1.
       -1   -1    0    0    0  501  0.00000000000E+00  0.00000000000E+00 -0.12285365197E+04  0.12285365197E+04  0.50400001928E-02 0. -1.
    10030    2    1    2    0    0  0.00000000000E+00  0.00000000000E+00  0.11380018748E+04  0.35950749142E+04  0.34102075262E+04 0.  0.
        4    1    3    3  502    0  0.11530453744E+04  0.12496049841E+04  0.43419810840E+03  0.17548663374E+04  0.12699999809E+01 0. -1.
       -4    1    3    3    0  502 -0.11530453744E+04 -0.12496049841E+04  0.70380376645E+03  0.18402085768E+04  0.12699999809E+01 0.  1.
</event>
<event>
 5   0  0.3757406E-07  0.3335215E+04  0.7818609E-02  0.8153992E-01
        1   -1    0    0  501    0  0.00000000000E+00  0.00000000000E+00  0.20476258982E+04  0.20476258982E+04  0.50400001928E-02 0. -1.
       -1   -1    0    0    0  501  0.00000000000E+00  0.00000000000E+00 -0.13581166028E+04  0.13581166028E+04  0.50400001928E-02 0.  1.
    10030    2    1    2    0    0  0.00000000000E+00  0.00000000000E+00  0.68950929542E+03  0.34057425010E+04  0.33352149728E+04 0.  0.
        1    1    3    3  502    0 -0.15755023900E+04  0.53454848804E+03  0.22848351056E+03  0.16793315878E+04  0.50400001928E-02 0. -1.
       -1    1    3    3    0  502  0.15755023900E+04 -0.53454848804E+03  0.46102578486E+03  0.17264109132E+04  0.50400001928E-02 0.  1.
</event>
<event>
 5   0  0.3674967E-07  0.3250890E+04  0.7818609E-02  0.8175505E-01
        1   -1    0    0  501    0  0.00000000000E+00  0.00000000000E+00  0.13436572761E+04  0.13436572761E+04  0.50400001928E-02 0.  1.
       -1   -1    0    0    0  501  0.00000000000E+00  0.00000000000E+00 -0.19663277900E+04  0.19663277900E+04  0.50400001928E-02 0. -1.
    10030    2    1    2    0    0  0.00000000000E+00  0.00000000000E+00 -0.62267051387E+03  0.33099850661E+04  0.32508895043E+04 0.  0.
        2    1    3    3  502    0  0.28656867202E+03 -0.47028915876E+03 -0.18684415024E+04  0.19479135362E+04  0.25500000920E-02 0. -1.
       -2    1    3    3    0  502 -0.28656867202E+03  0.47028915876E+03  0.12457709886E+04  0.13620715299E+04  0.25500000920E-02 0.  1.
</event>
<event>
 5   0  0.3796529E-07  0.3304905E+04  0.7818609E-02  0.8161648E-01
       -1   -1    0    0    0  501  0.00000000000E+00  0.00000000000E+00  0.18952607613E+04  0.18952607613E+04  0.50400001928E-02 0.  1.
        1   -1    0    0  501    0  0.00000000000E+00  0.00000000000E+00 -0.14407514887E+04  0.14407514888E+04  0.50400001928E-02 0. -1.
    10030    2    1    2    0    0  0.00000000000E+00  0.00000000000E+00  0.45450927254E+03  0.33360122501E+04  0.33049053018E+04 0.  0.
        5    1    3    3  502    0 -0.81810975105E+03 -0.10130427530E+04 -0.79967969029E+03  0.15280932174E+04  0.46999998093E+01 0. -1.
       -5    1    3    3    0  502  0.81810975105E+03  0.10130427530E+04  0.12541889628E+04  0.18079190326E+04  0.46999998093E+01 0.  1.
</event>
<event>
 5   0  0.1120545E-06  0.3309862E+04  0.7818609E-02  0.8160390E-01
        2   -1    0    0  501    0  0.00000000000E+00  0.00000000000E+00  0.16486564449E+04  0.16486564449E+04  0.25500000920E-02 0.  1.
       -2   -1    0    0    0  501  0.00000000000E+00  0.00000000000E+00 -0.16612298634E+04  0.16612298634E+04  0.25500000920E-02 0. -1.
    10030    2    1    2    0    0  0.00000000000E+00  0.00000000000E+00 -0.12573418514E+02  0.33098863083E+04  0.33098624266E+04 0.  0.
        4    1    3    3  502    0  0.98056885001E+03  0.13330188139E+04 -0.24760604582E+02  0.16550133318E+04  0.12699999809E+01 0. -1.
       -4    1    3    3    0  502 -0.98056885001E+03 -0.13330188139E+04  0.12187186068E+02  0.16548729765E+04  0.12699999809E+01 0.  1.
</event>
<event>
 5   0  0.1120545E-06  0.3340688E+04  0.7818609E-02  0.8152619E-01
       -2   -1    0    0    0  501  0.00000000000E+00  0.00000000000E+00  0.16485996815E+04  0.16485996815E+04  0.25500000920E-02 0. -1.
        2   -1    0    0  501    0  0.00000000000E+00  0.00000000000E+00 -0.16923747473E+04  0.16923747473E+04  0.25500000920E-02 0.  1.
    10030    2    1    2    0    0  0.00000000000E+00  0.00000000000E+00 -0.43775065841E+02  0.33409744288E+04  0.33406876354E+04 0.  0.
        4    1    3    3  502    0 -0.11060502813E+04  0.70284238987E+03  0.10139195902E+04  0.16569155676E+04  0.12699999809E+01 0. -1.
       -4    1    3    3    0  502  0.11060502813E+04 -0.70284238987E+03 -0.10576946560E+04  0.16840588612E+04  0.12699999809E+01 0.  1.
</event>
<event>
 5   0  0.3674967E-07  0.3302366E+04  0.7818609E-02  0.8162294E-01
        1   -1    0    0  501    0  0.00000000000E+00  0.00000000000E+00  0.25753927162E+04  0.25753927162E+04  0.50400001928E-02 0.  1.
       -1   -1    0    0    0  501  0.00000000000E+00  0.00000000000E+00 -0.10586368839E+04  0.10586368839E+04  0.50400001928E-02 0. -1.
    10030    2    1    2    0    0  0.00000000000E+00  0.00000000000E+00  0.15167558323E+04  0.36340296002E+04  0.33023662547E+04 0.  0.
        2    1    3    3  502    0  0.10287599935E+04 -0.12305160741E+04  0.32669316188E+03  0.16368400517E+04  0.25500000920E-02 0. -1.
       -2    1    3    3    0  502 -0.10287599935E+04  0.12305160741E+04  0.11900626704E+04  0.19971895484E+04  0.25500000920E-02 0.  1.
</event>
<event>
 5   0  0.1120545E-06  0.3316378E+04  0.7818609E-02  0.8158740E-01
        2   -1    0    0  501    0  0.00000000000E+00  0.00000000000E+00  0.19064213718E+04  0.19064213718E+04  0.25500000920E-02 0.  1.
       -2   -1    0    0    0  501  0.00000000000E+00  0.00000000000E+00 -0.14422788315E+04  0.14422788315E+04  0.25500000920E-02 0. -1.
    10030    2    1    2    0    0  0.00000000000E+00  0.00000000000E+00  0.46414254036E+03  0.33487002033E+04  0.33163782586E+04 0.  0.
        4    1    3    3  502    0 -0.38720682380E+03 -0.92785850158E+03 -0.10993926836E+04  0.14898041512E+04  0.12699999809E+01 0. -1.
       -4    1    3    3    0  502  0.38720682380E+03  0.92785850158E+03  0.15635352239E+04  0.18588960521E+04  0.12699999809E+01 0.  1.
</event>
<event>
 5   0  0.1116462E-06  0.3294800E+04  0.7818609E-02  0.8164220E-01
       -2   -1    0    0    0  501  0.00000000000E+00  0.00000000000E+00  0.11950113674E+04  0.11950113674E+04  0.25500000920E-02 0.  1.
        2   -1    0    0  501    0  0.00000000000E+00  0.00000000000E+00 -0.22710470422E+04  0.22710470422E+04  0.25500000920E-02 0. -1.
    10030    2    1    2    0    0  0.00000000000E+00  0.00000000000E+00 -0.10760356748E+04  0.34660584097E+04  0.32948001648E+04 0.  0.
        1    1    3    3  502    0 -0.35628094226E+03  0.60168599479E+03 -0.21071819921E+04  0.22201752394E+04  0.50400001928E-02 0. -1.
       -1    1    3    3    0  502  0.35628094226E+03 -0.60168599479E+03  0.10311463173E+04  0.12458831702E+04  0.50400001928E-02 0.  1.
</event>
<event>
 5   0  0.1120545E-06  0.3308202E+04  0.7818609E-02  0.8160811E-01
       -2   -1    0    0    0  501  0.00000000000E+00  0.00000000000E+00  0.12435513446E+04  0.12435513446E+04  0.25500000920E-02 0. -1.
        2   -1    0    0  501    0  0.00000000000E+00  0.00000000000E+00 -0.22001913507E+04  0.22001913507E+04  0.25500000920E-02 0.  1.
    10030    2    1    2    0    0  0.00000000000E+00  0.00000000000E+00 -0.95664000611E+03  0.34437426952E+04  0.33082024802E+04 0.  0.
        4    1    3    3  502    0 -0.10512743889E+03  0.20981456878E+03 -0.21827729789E+04  0.21953526874E+04  0.12699999809E+01 0.  1.
       -4    1    3    3    0  502  0.10512743889E+03 -0.20981456878E+03  0.12261329728E+04  0.12483900078E+04  0.12699999809E+01 0. -1.
</event>
<event>
 5   0  0.3796529E-07  0.3267333E+04  0.7818609E-02  0.8171258E-01
        1   -1    0    0  501    0  0.00000000000E+00  0.00000000000E+00  0.18968818058E+04  0.18968818058E+04  0.50400001928E-02 0.  1.
       -1   -1    0    0    0  501  0.00000000000E+00  0.00000000000E+00 -0.14069753251E+04  0.14069753251E+04  0.50400001928E-02 0. -1.
    10030    2    1    2    0    0  0.00000000000E+00  0.00000000000E+00  0.48990648073E+03  0.33038571309E+04  0.32673327932E+04 0.  0.
        5    1    3    3  502    0 -0.94693955323E+03 -0.12163375483E+04  0.79199271363E+03  0.17330453246E+04  0.46999998093E+01 0.  1.
       -5    1    3    3    0  502  0.94693955323E+03  0.12163375483E+04 -0.30208623290E+03  0.15708118063E+04  0.46999998093E+01 0. -1.
</event>
<event>
 5   0  0.1146799E-06  0.3197230E+04  0.7818609E-02  0.8189549E-01
        2   -1    0    0  501    0  0.00000000000E+00  0.00000000000E+00  0.25656118818E+04  0.25656118818E+04  0.25500000920E-02 0.  1.
       -2   -1    0    0    0  501  0.00000000000E+00  0.00000000000E+00 -0.99608575767E+03  0.99608575768E+03  0.25500000920E-02 0. -1.
    10030    2    1    2    0    0  0.00000000000E+00  0.00000000000E+00  0.15695261242E+04  0.35616976395E+04  0.31972297104E+04 0.  0.
        5    1    3    3  502    0  0.71858345142E+02  0.14880151489E+04  0.14306828864E+04  0.20654850076E+04  0.46999998093E+01 0.  1.
       -5    1    3    3    0  502 -0.71858345142E+02 -0.14880151489E+04  0.13884323772E+03  0.14962126319E+04  0.46999998093E+01 0. -1.
</event>
<event>
 5   0  0.3796529E-07  0.3311825E+04  0.7818609E-02  0.8159893E-01
       -1   -1    0    0    0  501  0.00000000000E+00  0.00000000000E+00  0.14430098024E+04  0.14430098024E+04  0.50400001928E-02 0.  1.
        1   -1    0    0  501    0  0.00000000000E+00  0.00000000000E+00 -0.19002273351E+04  0.19002273351E+04  0.50400001928E-02 0. -1.
    10030    2    1    2    0    0  0.00000000000E+00  0.00000000000E+00 -0.45721753267E+03  0.33432371375E+04  0.33118252800E+04 0.  0.
        5    1    3    3  502    0  0.78447720255E+03 -0.34593073233E+03 -0.16587148740E+04  0.18671983494E+04  0.46999998093E+01 0. -1.
       -5    1    3    3    0  502 -0.78447720255E+03  0.34593073233E+03  0.12014973413E+04  0.14760387881E+04  0.46999998093E+01 0.  1.
</event>
<event>
 5   0  0.3749685E-07  0.3084320E+04  0.7818609E-02  0.8220054E-01
        1   -1    0    0  501    0  0.00000000000E+00  0.00000000000E+00  0.15799994247E+04  0.15799994247E+04  0.50400001928E-02 0.  1.
       -1   -1    0    0    0  501  0.00000000000E+00  0.00000000000E+00 -0.15052272304E+04  0.15052272305E+04  0.50400001928E-02 0. -1.
    10030    2    1    2    0    0  0.00000000000E+00  0.00000000000E+00  0.74772194219E+02  0.30852266551E+04  0.30843204491E+04 0.  0.
        3    1    3    3  502    0  0.85225638111E+03 -0.14898043413E+03  0.13143668483E+04  0.15735616706E+04  0.10100000352E+00 0.  1.
       -3    1    3    3    0  502 -0.85225638111E+03  0.14898043413E+03 -0.12395946541E+04  0.15116649846E+04  0.10100000352E+00 0. -1.
</event>
<event>
 5   0  0.1146799E-06  0.3305175E+04  0.7818609E-02  0.8161580E-01
       -2   -1    0    0    0  501  0.00000000000E+00  0.00000000000E+00  0.11496019528E+04  0.11496019528E+04  0.25500000920E-02 0. -1.
        2   -1    0    0  501    0  0.00000000000E+00  0.00000000000E+00 -0.23756436933E+04  0.23756436933E+04  0.25500000920E-02 0.  1.
    10030    2    1    2    0    0  0.00000000000E+00  0.00000000000E+00 -0.12260417405E+04  0.35252456461E+04  0.33051745061E+04 0.  0.
        5    1    3    3  502    0 -0.16069618702E+04  0.38538125545E+03 -0.59881588469E+03  0.17576824850E+04  0.46999998093E+01 0. -1.
       -5    1    3    3    0  502  0.16069618702E+04 -0.38538125545E+03 -0.62722585579E+03  0.17675631611E+04  0.46999998093E+01 0.  1.
</event>
<event>
 5   0  0.3757406E-07  0.3303830E+04  0.7818609E-02  0.8161922E-01
       -1   -1    0    0    0  501  0.00000000000E+00  0.00000000000E+00  0.20174957370E+04  0.20174957370E+04  0.50400001928E-02 0.  1.
        1   -1    0    0  501    0  0.00000000000E+00  0.00000000000E+00 -0.13525791422E+04  0.13525791422E+04  0.50400001928E-02 0. -1.
    10030    2    1    2    0    0  0.00000000000E+00  0.00000000000E+00  0.66491659485E+03  0.33700748792E+04  0.33038296889E+04 0.  0.
        1    1    3    3  502    0 -0.44553186448E+03 -0.18029677348E+02 -0.12900318520E+04  0.13649197378E+04  0.50400001928E-02 0. -1.
       -1    1    3    3    0  502  0.44553186448E+03  0.18029677348E+02  0.19549484468E+04  0.20051551414E+04  0.50400001928E-02 0.  1.
</event>
<event>
 5   0  0.3709747E-07  0.3315407E+04  0.7818609E-02  0.8158986E-01
        1   -1    0    0  501    0  0.00000000000E+00  0.00000000000E+00  0.17558704991E+04  0.17558704991E+04  0.50400001928E-02 0. -1.
       -1   -1    0    0    0  501  0.00000000000E+00  0.00000000000E+00 -0.15650251019E+04  0.15650251019E+04  0.50400001928E-02 0.  1.
    10030    2    1    2    0    0  0.00000000000E+00  0.00000000000E+00  0.19084539717E+03  0.33208956010E+04  0.33154073093E+04 0.  0.
        4    1    3    3  502    0  0.89234478574E+03 -0.10892608533E+04 -0.78078898466E+03  0.16100936229E+04  0.12699999809E+01 0.  1.
       -4    1    3    3    0  502 -0.89234478574E+03  0.10892608533E+04  0.97163438183E+03  0.17108019780E+04  0.12699999809E+01 0. -1.
</event>
<event>
 5   0  0.3796529E-07  0.3254447E+04  0.7818609E-02  0.8174584E-01
        1   -1    0    0  501    0  0.00000000000E+00  0.00000000000E+00  0.10969356802E+04  0.10969356802E+04  0.50400001928E-02 0.  1.
       -1   -1    0    0    0  501  0.00000000000E+00  0.00000000000E+00 -0.24138671085E+04  0.24138671085E+04  0.50400001928E-02 0. -1.
    10030    2    1    2    0    0  0.00000000000E+00  0.00000000000E+00 -0.13169314284E+04  0.35108027887E+04  0.32544473931E+04 0.  0.
        5    1    3    3  502    0 -0.31771094728E+03 -0.37628611871E+03 -0.23315357055E+04  0.23829839121E+04  0.46999998093E+01 0. -1.
       -5    1    3    3    0  502  0.31771094728E+03  0.37628611871E+03  0.10146042772E+04  0.11278188766E+04  0.46999998093E+01 0.  1.
</event>
<event>
 5   0  0.3757406E-07  0.3318652E+04  0.7818609E-02  0.8158166E-01
        1   -1    0    0  501    0  0.00000000000E+00  0.00000000000E+00  0.27070388489E+04  0.27070388489E+04  0.50400001928E-02 0.  1.
       -1   -1    0    0    0  501  0.00000000000E+00  0.00000000000E+00 -0.10171124612E+04  0.10171124612E+04  0.50400001928E-02 0. -1.
    10030    2    1    2    0    0  0.00000000000E+00  0.00000000000E+00  0.16899263877E+04  0.37241513101E+04  0.33186521037E+04 0.  0.
        1    1    3    3  502    0 -0.12361851472E+04 -0.13920450786E+03  0.20772416979E+04  0.24212527098E+04  0.50400001928E-02 0.  1.
       -1    1    3    3    0  502  0.12361851472E+04  0.13920450786E+03 -0.38731531021E+03  0.13028986004E+04  0.50400001928E-02 0. -1.
</event>
<event>
 5   0  0.3757406E-07  0.3288977E+04  0.7818609E-02  0.8165706E-01
       -1   -1    0    0    0  501  0.00000000000E+00  0.00000000000E+00  0.14180019680E+04  0.14180019680E+04  0.50400001928E-02 0. -1.
        1   -1    0    0  501    0  0.00000000000E+00  0.00000000000E+00 -0.19071497485E+04  0.19071497485E+04  0.50400001928E-02 0.  1.
    10030    2    1    2    0    0  0.00000000000E+00  0.00000000000E+00 -0.48914778054E+03  0.33251517165E+04  0.32889767993E+04 0.  0.
        1    1    3    3  502    0  0.14418851592E+04  0.36938329357E+03  0.46230538145E+03  0.15585900987E+04  0.50400001928E-02 0. -1.
       -1    1    3    3    0  502 -0.14418851592E+04 -0.36938329357E+03 -0.95145316199E+03  0.17665616178E+04  0.50400001928E-02 0.  1.
</event>
<event>
 5   0  0.1120545E-06  0.3293064E+04  0.7818609E-02  0.8164662E-01
       -2   -1    0    0    0  501  0.00000000000E+00  0.00000000000E+00  0.12474750191E+04  0.12474750191E+04  0.25500000920E-02 0. -1.
        2   -1    0    0  501    0  0.00000000000E+00  0.00000000000E+00 -0.21732446701E+04  0.21732446701E+04  0.25500000920E-02 0.  1.
    10030    2    1    2    0    0  0.00000000000E+00  0.00000000000E+00 -0.92576965103E+03  0.34207196892E+04  0.32930644915E+04 0.  0.
        4    1    3    3  502    0 -0.33649336947E+03  0.62368214214E+03  0.10809516922E+04  0.12925422143E+04  0.12699999809E+01 0. -1.
       -4    1    3    3    0  502  0.33649336947E+03 -0.62368214214E+03 -0.20067213432E+04  0.21281774748E+04  0.12699999809E+01 0.  1.
</event>
<event>
 5   0  0.3709747E-07  0.3316192E+04  0.7818609E-02  0.8158788E-01
       -1   -1    0    0    0  501  0.00000000000E+00  0.00000000000E+00  0.13703467386E+04  0.13703467386E+04  0.50400001928E-02 0.  1.
        1   -1    0    0  501    0  0.00000000000E+00  0.00000000000E+00 -0.20062674013E+04  0.20062674013E+04  0.50400001928E-02 0. -1.
    10030    2    1    2    0    0  0.00000000000E+00  0.00000000000E+00 -0.63592066269E+03  0.33766141399E+04  0.33161917858E+04 0.  0.
        4    1    3    3  502    0  0.15398317195E+03 -0.15969517655E+04 -0.74429520745E+03  0.17685990861E+04  0.12699999809E+01 0. -1.
       -4    1    3    3    0  502 -0.15398317195E+03  0.15969517655E+04  0.10837454476E+03  0.16080150538E+04  0.12699999809E+01 0.  1.
</event>
<event>
 5   0  0.3757406E-07  0.3687187E+04  0.7818609E-02  0.8070807E-01
       -1   -1    0    0    0  501  0.00000000000E+00  0.00000000000E+00  0.23417381217E+04  0.23417381217E+04  0.50400001928E-02 0. -1.
        1   -1    0    0  501    0  0.00000000000E+00  0.00000000000E+00 -0.14514160799E+04  0.14514160799E+04  0.50400001928E-02 0.  1.
    10030    2    1    2    0    0  0.00000000000E+00  0.00000000000E+00  0.89032204180E+03  0.37931542016E+04  0.36871866591E+04 0.  0.
        1    1    3    3  502    0  0.16330570154E+04  0.37642164999E+03 -0.34520808137E+03  0.17110631471E+04  0.50400001928E-02 0. -1.
       -1    1    3    3    0  502 -0.16330570154E+04 -0.37642164999E+03  0.12355301232E+04  0.20820910545E+04  0.50400001928E-02 0.  1.
</event>
<event>
 5   0  0.3749685E-07  0.3272920E+04  0.7818609E-02  0.8169820E-01
        1   -1    0    0  501    0  0.00000000000E+00  0.00000000000E+00  0.25186390032E+04  0.25186390032E+04  0.50400001928E-02 0.  1.
       -1   -1    0    0    0  501  0.00000000000E+00  0.00000000000E+00 -0.10632733952E+04  0.10632733952E+04  0.50400001928E-02 0. -1.
    10030    2    1    2    0    0  0.00000000000E+00  0.00000000000E+00  0.14553656080E+04  0.35819123984E+04  0.32729203133E+04 0.  0.
        3    1    3    3  502    0 -0.10180814911E+04 -0.33596512301E+03  0.20807895083E+04  0.23407365239E+04  0.10100000352E+00 0.  1.
       -3    1    3    3    0  502  0.10180814911E+04  0.33596512301E+03 -0.62542390024E+03  0.12411758745E+04  0.10100000352E+00 0. -1.
</event>
<event>
 5   0  0.3796529E-07  0.3238232E+04  0.7818609E-02  0.8178793E-01
        1   -1    0    0  501    0  0.00000000000E+00  0.00000000000E+00  0.24732968614E+04  0.24732968614E+04  0.50400001928E-02 0.  1.
       -1   -1    0    0    0  501  0.00000000000E+00  0.00000000000E+00 -0.10599361509E+04  0.10599361509E+04  0.50400001928E-02 0. -1.
    10030    2    1    2    0    0  0.00000000000E+00  0.00000000000E+00  0.14133607105E+04  0.35332330123E+04  0.32382320826E+04 0.  0.
        5    1    3    3  502    0  0.32861775810E+01  0.13030205321E+04 -0.34193447181E+03  0.13471505406E+04  0.46999998093E+01 0. -1.
       -5    1    3    3    0  502 -0.32861775810E+01 -0.13030205321E+04  0.17552951823E+04  0.21860824717E+04  0.46999998093E+01 0.  1.
</event>
<event>
 5   0  0.1120545E-06  0.3295343E+04  0.7818609E-02  0.8164081E-01
        2   -1    0    0  501    0  0.00000000000E+00  0.00000000000E+00  0.14684783093E+04  0.14684783093E+04  0.25500000920E-02 0.  1.
       -2   -1    0    0    0  501  0.00000000000E+00  0.00000000000E+00 -0.18487304527E+04  0.18487304527E+04  0.25500000920E-02 0. -1.
    10030    2    1    2    0    0  0.00000000000E+00  0.00000000000E+00 -0.38025214342E+03  0.33172087620E+04  0.32953425131E+04 0.  0.
        4    1    3    3  502    0  0.78620521685E+03  0.61093292672E+03  0.11313916977E+04  0.15071185987E+04  0.12699999809E+01 0.  1.
       -4    1    3    3    0  502 -0.78620521685E+03 -0.61093292672E+03 -0.15116438412E+04  0.18100901633E+04  0.12699999809E+01 0. -1.
</event>
<event>
 5   0  0.3674967E-07  0.3279529E+04  0.7818609E-02  0.8168124E-01
        1   -1    0    0  501    0  0.00000000000E+00  0.00000000000E+00  0.26284566022E+04  0.26284566022E+04  0.50400001928E-02 0. -1.
       -1   -1    0    0    0  501  0.00000000000E+00  0.00000000000E+00 -0.10229683222E+04  0.10229683222E+04  0.50400001928E-02 0.  1.
    10030    2    1    2    0    0  0.00000000000E+00  0.00000000000E+00  0.16054882800E+04  0.36514249245E+04  0.32795291372E+04 0.  0.
        2    1    3    3  502    0 -0.63735537079E+03 -0.73620688162E+03  0.22716739525E+04  0.24715834981E+04  0.25500000920E-02 0. -1.
       -2    1    3    3    0  502  0.63735537079E+03  0.73620688162E+03 -0.66618567252E+03  0.11798414264E+04  0.25500000920E-02 0.  1.
</event>
<event>
 5   0  0.3709747E-07  0.3314529E+04  0.7818609E-02  0.8159208E-01
        1   -1    0    0  501    0  0.00000000000E+00  0.00000000000E+00  0.85366738701E+03  0.85366738703E+03  0.50400001928E-02 0. -1.
       -1   -1    0    0    0  501  0.00000000000E+00  0.00000000000E+00 -0.32173252829E+04  0.32173252829E+04  0.50400001928E-02 0.  1.
    10030    2    1    2    0    0  0.00000000000E+00  0.00000000000E+00 -0.23636578959E+04  0.40709926700E+04  0.33145290269E+04 0.  0.
        4    1    3    3  502    0  0.64774626235E+03 -0.12504009409E+04 -0.10866086694E+03  0.14124045208E+04  0.12699999809E+01 0. -1.
       -4    1    3    3    0  502 -0.64774626235E+03  0.12504009409E+04 -0.22549970290E+04  0.26585881492E+04  0.12699999809E+01 0.  1.
</event>
<event>
 5   0  0.1120545E-06  0.3314201E+04  0.7818609E-02  0.8159291E-01
        2   -1    0    0  501    0  0.00000000000E+00  0.00000000000E+00  0.22185495529E+04  0.22185495529E+04  0.25500000920E-02 0.  1.
       -2   -1    0    0    0  501  0.00000000000E+00  0.00000000000E+00 -0.12377378584E+04  0.12377378585E+04  0.25500000920E-02 0. -1.
    10030    2    1    2    0    0  0.00000000000E+00  0.00000000000E+00  0.98081169440E+03  0.34562874113E+04  0.33142014256E+04 0.  0.
        4    1    3    3  502    0 -0.40491474349E+03 -0.14973297801E+04 -0.11771341883E+03  0.15555740039E+04  0.12699999809E+01 0. -1.
       -4    1    3    3    0  502  0.40491474349E+03  0.14973297801E+04  0.10985251132E+04  0.19007134074E+04  0.12699999809E+01 0.  1.
</event>
<event>
 5   0  0.1146799E-06  0.3294315E+04  0.7818609E-02  0.8164343E-01
       -2   -1    0    0    0  501  0.00000000000E+00  0.00000000000E+00  0.78316560515E+03  0.78316560515E+03  0.25500000920E-02 0. -1.
        2   -1    0    0  501    0  0.00000000000E+00  0.00000000000E+00 -0.34643095655E+04  0.34643095655E+04  0.25500000920E-02 0.  1.
    10030    2    1    2    0    0  0.00000000000E+00  0.00000000000E+00 -0.26811439604E+04  0.42474751707E+04  0.32943151624E+04 0.  0.
        5    1    3    3  502    0  0.47200074812E+03  0.25728750948E+02  0.69382483051E+03  0.83956039705E+03  0.46999998093E+01 0. -1.
       -5    1    3    3    0  502 -0.47200074812E+03 -0.25728750948E+02 -0.33749687909E+04  0.34079147736E+04  0.46999998093E+01 0.  1.
</event>
<event>
 5   0  0.3709747E-07  0.3283639E+04  0.7818609E-02  0.8167071E-01
        1   -1    0    0  501    0  0.00000000000E+00  0.00000000000E+00  0.18477976958E+04  0.18477976958E+04  0.50400001928E-02 0.  1.
       -1   -1    0    0    0  501  0.00000000000E+00  0.00000000000E+00 -0.14588019949E+04  0.14588019949E+04  0.50400001928E-02 0. -1.
    10030    2    1    2    0    0  0.00000000000E+00  0.00000000000E+00  0.38899570096E+03  0.33065996907E+04  0.32836388138E+04 0.  0.
        4    1    3    3  502    0  0.14532583373E+04 -0.12866150086E+03 -0.56379878520E+03  0.15640921520E+04  0.12699999809E+01 0. -1.
       -4    1    3    3    0  502 -0.14532583373E+04  0.12866150086E+03  0.95279448615E+03  0.17425075387E+04  0.12699999809E+01 0.  1.
</event>
<event>
 5   0  0.1120545E-06  0.3294434E+04  0.7818609E-02  0.8164313E-01
       -2   -1    0    0    0  501  0.00000000000E+00  0.00000000000E+00  0.12999075084E+04  0.12999075084E+04  0.25500000920E-02 0.  1.
        2   -1    0    0  501    0  0.00000000000E+00  0.00000000000E+00 -0.20873201649E+04  0.20873201649E+04  0.25500000920E-02 0. -1.
    10030    2    1    2    0    0  0.00000000000E+00  0.00000000000E+00 -0.78741265651E+03  0.33872276733E+04  0.32944335810E+04 0.  0.
        4    1    3    3  502    0  0.59753737025E+03 -0.14415104992E+04  0.14871201622E+03  0.15675204320E+04  0.12699999809E+01 0. -1.
       -4    1    3    3    0  502 -0.59753737025E+03  0.14415104992E+04 -0.93612467273E+03  0.18197072413E+04  0.12699999809E+01 0.  1.
</event>
<event>
 5   0  0.1129434E-06  0.3351814E+04  0.7818609E-02  0.8149835E-01
       -2   -1    0    0    0  501  0.00000000000E+00  0.00000000000E+00  0.23128032601E+04  0.23128032601E+04  0.25500000920E-02 0. -1.
        2   -1    0    0  501    0  0.00000000000E+00  0.00000000000E+00 -0.12143980860E+04  0.12143980860E+04  0.25500000920E-02 0.  1.
    10030    2    1    2    0    0  0.00000000000E+00  0.00000000000E+00  0.10984051741E+04  0.35272013461E+04  0.33518137492E+04 0.  0.
        3    1    3    3  502    0  0.51270087100E+03 -0.11774200858E+04 -0.58393508615E+03  0.14107304621E+04  0.10100000352E+00 0.  1.
       -3    1    3    3    0  502 -0.51270087100E+03  0.11774200858E+04  0.16823402602E+04  0.21164708840E+04  0.10100000352E+00 0. -1.
</event>
<event>
 5   0  0.3796529E-07  0.3290993E+04  0.7818609E-02  0.8165191E-01
       -1   -1    0    0    0  501  0.00000000000E+00  0.00000000000E+00  0.15650078725E+04  0.15650078725E+04  0.50400001928E-02 0.  1.
        1   -1    0    0  501    0  0.00000000000E+00  0.00000000000E+00 -0.17301251791E+04  0.17301251791E+04  0.50400001928E-02 0. -1.
    10030    2    1    2    0    0  0.00000000000E+00  0.00000000000E+00 -0.16511730660E+03  0.32951330516E+04  0.32909934826E+04 0.  0.
        5    1    3    3  502    0 -0.83247130731E+03  0.83686320108E+03  0.10653077898E+04  0.15900475690E+04  0.46999998093E+01 0.  1.
       -5    1    3    3    0  502  0.83247130731E+03 -0.83686320108E+03 -0.12304250964E+04  0.17050854825E+04  0.46999998093E+01 0. -1.
</event>
<event>
 5   0  0.1126221E-06  0.3281954E+04  0.7818609E-02  0.8167503E-01
       -2   -1    0    0    0  501  0.00000000000E+00  0.00000000000E+00  0.14024891229E+04  0.14024891229E+04  0.25500000920E-02 0. -1.
        2   -1    0    0  501    0  0.00000000000E+00  0.00000000000E+00 -0.19200183067E+04  0.19200183067E+04  0.25500000920E-02 0.  1.
    10030    2    1    2    0    0  0.00000000000E+00  0.00000000000E+00 -0.51752918378E+03  0.33225074296E+04  0.32819535590E+04 0.  0.
        2    1    3    3  502    0  0.60434218665E+03 -0.82544699996E+03  0.10401377063E+04  0.14589306620E+04  0.25500000920E-02 0. -1.
       -2    1    3    3    0  502 -0.60434218665E+03  0.82544699996E+03 -0.15576668901E+04  0.18635767676E+04  0.25500000920E-02 0.  1.
</event>
<event>
 5   0  0.3573375E-07  0.3314449E+04  0.7818609E-02  0.8159229E-01
       -3   -1    0    0    0  501  0.00000000000E+00  0.00000000000E+00  0.19789954278E+04  0.19789954304E+04  0.10100000352E+00 0. -1.
        3   -1    0    0  501    0  0.00000000000E+00  0.00000000000E+00 -0.13877709887E+04  0.13877709924E+04  0.10100000352E+00 0.  1.
    10030    2    1    2    0    0  0.00000000000E+00  0.00000000000E+00  0.59122443911E+03  0.33667664227E+04  0.33144486431E+04 0.  0.
        3    1    3    3  502    0 -0.11087180819E+04  0.84453467605E+03  0.12063683923E+04  0.18433174746E+04  0.10100000352E+00 0. -1.
       -3    1    3    3    0  502  0.11087180819E+04 -0.84453467605E+03 -0.61514395316E+03  0.15234489481E+04  0.10100000352E+00 0.  1.
</event>
<event>
 5   0  0.1126221E-06  0.3305849E+04  0.7818609E-02  0.8161409E-01
        2   -1    0    0  501    0  0.00000000000E+00  0.00000000000E+00  0.15827828193E+04  0.15827828193E+04  0.25500000920E-02 0.  1.
       -2   -1    0    0    0  501  0.00000000000E+00  0.00000000000E+00 -0.17261747380E+04  0.17261747380E+04  0.25500000920E-02 0. -1.
    10030    2    1    2    0    0  0.00000000000E+00  0.00000000000E+00 -0.14339191863E+03  0.33089575573E+04  0.33058491910E+04 0.  0.
        2    1    3    3  502    0  0.10148358594E+04  0.59504078506E+03 -0.12339054354E+04  0.17048425091E+04  0.25500000920E-02 0. -1.
       -2    1    3    3    0  502 -0.10148358594E+04 -0.59504078506E+03  0.10905135168E+04  0.16041150482E+04  0.25500000920E-02 0.  1.
</event>
<event>
 5   0  0.3749685E-07  0.3270817E+04  0.7818609E-02  0.8170361E-01
        1   -1    0    0  501    0  0.00000000000E+00  0.00000000000E+00  0.31921315528E+04  0.31921315528E+04  0.50400001928E-02 0.  1.
       -1   -1    0    0    0  501  0.00000000000E+00  0.00000000000E+00 -0.83786055636E+03  0.83786055638E+03  0.50400001928E-02 0. -1.
    10030    2    1    2    0    0  0.00000000000E+00  0.00000000000E+00  0.23542709965E+04  0.40299921092E+04  0.32708170960E+04 0.  0.
        3    1    3    3  502    0  0.11007517059E+04  0.48118308395E+03 -0.19009631722E+03  0.12162763248E+04  0.10100000352E+00 0. -1.
       -3    1    3    3    0  502 -0.11007517059E+04 -0.48118308395E+03  0.25443673137E+04  0.28137157844E+04  0.10100000352E+00 0.  1.
</event>
<event>
 5   0  0.1129434E-06  0.3256667E+04  0.7818609E-02  0.8174010E-01
       -2   -1    0    0    0  501  0.00000000000E+00  0.00000000000E+00  0.14178491369E+04  0.14178491369E+04  0.25500000920E-02 0. -1.
        2   -1    0    0  501    0  0.00000000000E+00  0.00000000000E+00 -0.18700653916E+04  0.18700653916E+04  0.25500000920E-02 0.  1.
    10030    2    1    2    0    0  0.00000000000E+00  0.00000000000E+00 -0.45221625465E+03  0.32879145285E+04  0.32566673772E+04 0.  0.
        3    1    3    3  502    0  0.38864320523E+03 -0.15408445945E+04 -0.58479855007E+03  0.16932911621E+04  0.10100000352E+00 0.  1.
       -3    1    3    3    0  502 -0.38864320523E+03  0.15408445945E+04  0.13258229542E+03  0.15946233664E+04  0.10100000352E+00 0. -1.
</event>
<event>
 5   0  0.3709747E-07  0.3295907E+04  0.7818609E-02  0.8163938E-01
       -1   -1    0    0    0  501  0.00000000000E+00  0.00000000000E+00  0.25126143956E+04  0.25126143957E+04  0.50400001928E-02 0.  1.
        1   -1    0    0  501    0  0.00000000000E+00  0.00000000000E+00 -0.10808464760E+04  0.10808464760E+04  0.50400001928E-02 0. -1.
    10030    2    1    2    0    0  0.00000000000E+00  0.00000000000E+00  0.14317679197E+04  0.35934608716E+04  0.32959068039E+04 0.  0.
        4    1    3    3  502    0  0.67289955097E+03  0.26284061353E+03  0.23307757367E+04  0.24401631383E+04  0.12699999809E+01 0.  1.
       -4    1    3    3    0  502 -0.67289955097E+03 -0.26284061353E+03 -0.89900781702E+03  0.11532977334E+04  0.12699999809E+01 0. -1.
</event>
<event>
 5   0  0.3749685E-07  0.3330388E+04  0.7818609E-02  0.8155206E-01
       -1   -1    0    0    0  501  0.00000000000E+00  0.00000000000E+00  0.17531039908E+04  0.17531039908E+04  0.50400001928E-02 0.  1.
        1   -1    0    0  501    0  0.00000000000E+00  0.00000000000E+00 -0.15816918895E+04  0.15816918895E+04  0.50400001928E-02 0. -1.
    10030    2    1    2    0    0  0.00000000000E+00  0.00000000000E+00  0.17141210134E+03  0.33347958804E+04  0.33303875833E+04 0.  0.
        3    1    3    3  502    0 -0.39178624132E+03  0.34331005308E+03 -0.14980043971E+04  0.15859935168E+04  0.10100000352E+00 0. -1.
       -3    1    3    3    0  502  0.39178624132E+03 -0.34331005308E+03  0.16694164984E+04  0.17488023636E+04  0.10100000352E+00 0.  1.
</event>
<event>
 5   0  0.1126221E-06  0.3275746E+04  0.7818609E-02  0.8169094E-01
        2   -1    0    0  501    0  0.00000000000E+00  0.00000000000E+00  0.23861590838E+04  0.23861590838E+04  0.25500000920E-02 0. -1.
       -2   -1    0    0    0  501  0.00000000000E+00  0.00000000000E+00 -0.11242455174E+04  0.11242455175E+04  0.25500000920E-02 0.  1.
    10030    2    1    2    0    0  0.00000000000E+00  0.00000000000E+00  0.12619135664E+04  0.35104046013E+04  0.32757464211E+04 0.  0.
        2    1    3    3  502    0 -0.64167079261E+03  0.10925941699E+04 -0.48123581086E+03  0.13553934232E+04  0.25500000920E-02 0.  1.
       -2    1    3    3    0  502  0.64167079261E+03 -0.10925941699E+04  0.17431493772E+04  0.21550111780E+04  0.25500000920E-02 0. -1.
</event>
<event>
 5   0  0.3796529E-07  0.3322557E+04  0.7818609E-02  0.8157179E-01
       -1   -1    0    0    0  501  0.00000000000E+00  0.00000000000E+00  0.12306850014E+04  0.12306850014E+04  0.50400001928E-02 0. -1.
        1   -1    0    0  501    0  0.00000000000E+00  0.00000000000E+00 -0.22425286367E+04  0.22425286367E+04  0.50400001928E-02 0.  1.
    10030    2    1    2    0    0  0.00000000000E+00  0.00000000000E+00 -0.10118436353E+04  0.34732136381E+04  0.33225570625E+04 0.  0.
        5    1    3    3  502    0 -0.72904992347E+03  0.13049343349E+04  0.25183103863E+03  0.15158523580E+04  0.46999998093E+01 0. -1.
       -5    1    3    3    0  502  0.72904992347E+03 -0.13049343349E+04 -0.12636746740E+04  0.19573612801E+04  0.46999998093E+01 0.  1.
</event>
<event>
 5   0  0.1120545E-06  0.3332731E+04  0.7818609E-02  0.8154617E-01
        2   -1    0    0  501    0  0.00000000000E+00  0.00000000000E+00  0.21900473266E+04  0.21900473266E+04  0.25500000920E-02 0.  1.
       -2   -1    0    0    0  501  0.00000000000E+00  0.00000000000E+00 -0.12679055525E+04  0.12679055525E+04  0.25500000920E-02 0. -1.
    10030    2    1    2    0    0  0.00000000000E+00  0.00000000000E+00  0.92214177416E+03  0.34579528791E+04  0.33327305115E+04 0.  0.
        4    1    3    3  502    0 -0.34448293094E+03 -0.87141443958E+02 -0.12281387498E+04  0.12785102748E+04  0.12699999809E+01 0. -1.
       -4    1    3    3    0  502  0.34448293094E+03  0.87141443958E+02  0.21502805240E+04  0.21794426043E+04  0.12699999809E+01 0.  1.
</event>
<event>
 5   0  0.1129434E-06  0.3537897E+04  0.7818609E-02  0.8104867E-01
        2   -1    0    0  501    0  0.00000000000E+00  0.00000000000E+00  0.27851605774E+04  0.27851605774E+04  0.25500000920E-02 0.  1.
       -2   -1    0    0    0  501  0.00000000000E+00  0.00000000000E+00 -0.11235180935E+04  0.11235180935E+04  0.25500000920E-02 0. -1.
    10030    2    1    2    0    0  0.00000000000E+00  0.00000000000E+00  0.16616424839E+04  0.39086786710E+04  0.35378967210E+04 0.  0.
        3    1    3    3  502    0 -0.11725289435E+04 -0.44175792735E+02  0.22933410980E+04  0.25760801668E+04  0.10100000352E+00 0.  1.
       -3    1    3    3    0  502  0.11725289435E+04  0.44175792735E+02 -0.63169861406E+03  0.13325985041E+04  0.10100000352E+00 0. -1.
</event>
<event>
 5   0  0.3573375E-07  0.3284803E+04  0.7818609E-02  0.8166773E-01
        4   -1    0    0  501    0  0.00000000000E+00  0.00000000000E+00  0.17869137805E+04  0.17869142318E+04  0.12699999809E+01 0. -1.
       -4   -1    0    0    0  501  0.00000000000E+00  0.00000000000E+00 -0.15095756509E+04  0.15095761851E+04  0.12699999809E+01 0.  1.
    10030    2    1    2    0    0  0.00000000000E+00  0.00000000000E+00  0.27733812965E+03  0.32964904170E+04  0.32848032865E+04 0.  0.
        4    1    3    3  502    0 -0.23609105046E+03  0.15578832178E+04  0.60372093274E+03  0.16873706416E+04  0.12699999809E+01 0. -1.
       -4    1    3    3    0  502  0.23609105046E+03 -0.15578832178E+04 -0.32638280310E+03  0.16091197754E+04  0.12699999809E+01 0.  1.
</event>
<event>
 5   0  0.3709747E-07  0.2969970E+04  0.7818609E-02  0.8252359E-01
       -1   -1    0    0    0  501  0.00000000000E+00  0.00000000000E+00  0.16219362389E+04  0.16219362389E+04  0.50400001928E-02 0. -1.
        1   -1    0    0  501    0  0.00000000000E+00  0.00000000000E+00 -0.13595970794E+04  0.13595970794E+04  0.50400001928E-02 0.  1.
    10030    2    1    2    0    0  0.00000000000E+00  0.00000000000E+00  0.26233915951E+03  0.29815333182E+04  0.29699695441E+04 0.  0.
        4    1    3    3  502    0  0.12123386774E+04  0.27879441559E+03  0.94530607336E+03  0.15624009025E+04  0.12699999809E+01 0. -1.
       -4    1    3    3    0  502 -0.12123386774E+04 -0.27879441559E+03 -0.68296691385E+03  0.14191324157E+04  0.12699999809E+01 0.  1.
</event>
<event>
 5   0  0.3749685E-07  0.3274489E+04  0.7818609E-02  0.8169417E-01
       -1   -1    0    0    0  501  0.00000000000E+00  0.00000000000E+00  0.13278044221E+04  0.13278044221E+04  0.50400001928E-02 0.  1.
        1   -1    0    0  501    0  0.00000000000E+00  0.00000000000E+00 -0.20187990451E+04  0.20187990451E+04  0.50400001928E-02 0. -1.
    10030    2    1    2    0    0  0.00000000000E+00  0.00000000000E+00 -0.69099462302E+03  0.33466034673E+04  0.32744894561E+04 0.  0.
        3    1    3    3  502    0  0.67462702154E+03 -0.13939588330E+03 -0.18634741076E+04  0.19867281118E+04  0.10100000352E+00 0. -1.
       -3    1    3    3    0  502 -0.67462702154E+03  0.13939588330E+03  0.11724794845E+04  0.13598753554E+04  0.10100000352E+00 0.  1.
</event>
<event>
 5   0  0.3796529E-07  0.3365540E+04  0.7818609E-02  0.8146416E-01
       -1   -1    0    0    0  501  0.00000000000E+00  0.00000000000E+00  0.99286340300E+03  0.99286340301E+03  0.50400001928E-02 0. -1.
        1   -1    0    0  501    0  0.00000000000E+00  0.00000000000E+00 -0.28520683929E+04  0.28520683929E+04  0.50400001928E-02 0.  1.
    10030    2    1    2    0    0  0.00000000000E+00  0.00000000000E+00 -0.18592049899E+04  0.38449317959E+04  0.33655396775E+04 0.  0.
        5    1    3    3  502    0 -0.99259428308E+03 -0.24307296864E+03 -0.24569591885E+04  0.26610145476E+04  0.46999998093E+01 0.  1.
       -5    1    3    3    0  502  0.99259428308E+03  0.24307296864E+03  0.59775419857E+03  0.11839172483E+04  0.46999998093E+01 0. -1.
</event>
<event>
 5   0  0.1120545E-06  0.3284610E+04  0.7818609E-02  0.8166823E-01
       -2   -1    0    0    0  501  0.00000000000E+00  0.00000000000E+00  0.89822573149E+03  0.89822573149E+03  0.25500000920E-02 0. -1.
        2   -1    0    0  501    0  0.00000000000E+00  0.00000000000E+00 -0.30027697783E+04  0.30027697783E+04  0.25500000920E-02 0.  1.
    10030    2    1    2    0    0  0.00000000000E+00  0.00000000000E+00 -0.21045440468E+04  0.39009955098E+04  0.32846096149E+04 0.  0.
        4    1    3    3  502    0 -0.13854069292E+04 -0.86354070076E+03 -0.12650869808E+04  0.20653090769E+04  0.12699999809E+01 0.  1.
       -4    1    3    3    0  502  0.13854069292E+04  0.86354070076E+03 -0.83945706598E+03  0.18356864329E+04  0.12699999809E+01 0. -1.
</event>
<event>
 5   0  0.1116462E-06  0.3287060E+04  0.7818609E-02  0.8166196E-01
       -2   -1    0    0    0  501  0.00000000000E+00  0.00000000000E+00  0.85124667381E+03  0.85124667382E+03  0.25500000920E-02 0.  1.
        2   -1    0    0  501    0  0.00000000000E+00  0.00000000000E+00 -0.31732177073E+04  0.31732177073E+04  0.25500000920E-02 0. -1.
    10030    2    1    2    0    0  0.00000000000E+00  0.00000000000E+00 -0.23219710335E+04  0.40244643811E+04  0.32870600960E+04 0.  0.
        1    1    3    3  502    0  0.62410455720E+03 -0.33199922944E+03 -0.29775714420E+04  0.30603368571E+04  0.50400001928E-02 0. -1.
       -1    1    3    3    0  502 -0.62410455720E+03  0.33199922944E+03  0.65560040858E+03  0.96412752395E+03  0.50400001928E-02 0.  1.
</event>
<event>
 5   0  0.1146799E-06  0.3214951E+04  0.7818609E-02  0.8184880E-01
        2   -1    0    0  501    0  0.00000000000E+00  0.00000000000E+00  0.89489422347E+03  0.89489422347E+03  0.25500000920E-02 0.  1.
       -2   -1    0    0    0  501  0.00000000000E+00  0.00000000000E+00 -0.28874674463E+04  0.28874674463E+04  0.25500000920E-02 0. -1.
    10030    2    1    2    0    0  0.00000000000E+00  0.00000000000E+00 -0.19925732228E+04  0.37823616697E+04  0.32149512831E+04 0.  0.
        5    1    3    3  502    0 -0.32821010209E+03  0.13987164412E+04 -0.18445247183E+04  0.23380382975E+04  0.46999998093E+01 0.  1.
       -5    1    3    3    0  502  0.32821010209E+03 -0.13987164412E+04 -0.14804850451E+03  0.14443233723E+04  0.46999998093E+01 0. -1.
</event>
<event>
 5   0  0.1120545E-06  0.3279506E+04  0.7818609E-02  0.8168130E-01
       -2   -1    0    0    0  501  0.00000000000E+00  0.00000000000E+00  0.10750376609E+04  0.10750376609E+04  0.25500000920E-02 0.  1.
        2   -1    0    0  501    0  0.00000000000E+00  0.00000000000E+00 -0.25011123610E+04  0.25011123610E+04  0.25500000920E-02 0. -1.
    10030    2    1    2    0    0  0.00000000000E+00  0.00000000000E+00 -0.14260747001E+04  0.35761500219E+04  0.32795060496E+04 0.  0.
        4    1    3    3  502    0 -0.17860687131E+03  0.39009719961E+02  0.10638893137E+04  0.10794833290E+04  0.12699999809E+01 0.  1.
       -4    1    3    3    0  502  0.17860687131E+03 -0.39009719961E+02 -0.24899640138E+04  0.24966666929E+04  0.12699999809E+01 0. -1.
</event>
<event>
 5   0  0.1126221E-06  0.3273785E+04  0.7818609E-02  0.8169598E-01
        2   -1    0    0  501    0  0.00000000000E+00  0.00000000000E+00  0.14466667456E+04  0.14466667456E+04  0.25500000920E-02 0. -1.
       -2   -1    0    0    0  501  0.00000000000E+00  0.00000000000E+00 -0.18521316860E+04  0.18521316860E+04  0.25500000920E-02 0.  1.
    10030    2    1    2    0    0  0.00000000000E+00  0.00000000000E+00 -0.40546494044E+03  0.32987984316E+04  0.32737851601E+04 0.  0.
        2    1    3    3  502    0 -0.82133552828E+03 -0.14041792991E+04 -0.38607254933E+03  0.16719340799E+04  0.25500000920E-02 0.  1.
       -2    1    3    3    0  502  0.82133552828E+03  0.14041792991E+04 -0.19392391105E+02  0.16268643518E+04  0.25500000920E-02 0. -1.
</event>
<event>
 5   0  0.1146799E-06  0.3309607E+04  0.7818609E-02  0.8160455E-01
        2   -1    0    0  501    0  0.00000000000E+00  0.00000000000E+00  0.17538976189E+04  0.17538976189E+04  0.25500000920E-02 0. -1.
       -2   -1    0    0    0  501  0.00000000000E+00  0.00000000000E+00 -0.15613083907E+04  0.15613083907E+04  0.25500000920E-02 0.  1.
    10030    2    1    2    0    0  0.00000000000E+00  0.00000000000E+00  0.19258922819E+03  0.33152060097E+04  0.33096072691E+04 0.  0.
        5    1    3    3  502    0 -0.22672826837E+03 -0.79738348792E+03 -0.13383037079E+04  0.15742633322E+04  0.46999998093E+01 0.  1.
       -5    1    3    3    0  502  0.22672826837E+03  0.79738348792E+03  0.15308929361E+04  0.17409426775E+04  0.46999998093E+01 0. -1.
</event>
<event>
 5   0  0.1146799E-06  0.3307583E+04  0.7818609E-02  0.8160968E-01
        2   -1    0    0  501    0  0.00000000000E+00  0.00000000000E+00  0.19771305051E+04  0.19771305051E+04  0.25500000920E-02 0.  1.
       -2   -1    0    0    0  501  0.00000000000E+00  0.00000000000E+00 -0.13833315520E+04  0.13833315520E+04  0.25500000920E-02 0. -1.
    10030    2    1    2    0    0  0.00000000000E+00  0.00000000000E+00  0.59379895306E+03  0.33604620572E+04  0.33075834141E+04 0.  0.
        5    1    3    3  502    0  0.11481063730E+04  0.97909951497E+03 -0.39084260391E+03  0.15587059167E+04  0.46999998093E+01 0. -1.
       -5    1    3    3    0  502 -0.11481063730E+04 -0.97909951497E+03  0.98464155697E+03  0.18017561404E+04  0.46999998093E+01 0.  1.
</event>
<event>
 5   0  0.3674967E-07  0.3311709E+04  0.7818609E-02  0.8159922E-01
        1   -1    0    0  501    0  0.00000000000E+00  0.00000000000E+00  0.25242277070E+04  0.25242277070E+04  0.50400001928E-02 0.  1.
       -1   -1    0    0    0  501  0.00000000000E+00  0.00000000000E+00 -0.10862148943E+04  0.10862148943E+04  0.50400001928E-02 0. -1.
    10030    2    1    2    0    0  0.00000000000E+00  0.00000000000E+00  0.14380128126E+04  0.36104426013E+04  0.33117087626E+04 0.  0.
        2    1    3    3  502    0  0.20559266724E+03  0.56660563941E+03 -0.96236575018E+03  0.11355431003E+04  0.25500000920E-02 0. -1.
       -2    1    3    3    0  502 -0.20559266724E+03 -0.56660563941E+03  0.24003785628E+04  0.24748995010E+04  0.25500000920E-02 0.  1.
</event>
<event>
 5   0  0.3674967E-07  0.3273300E+04  0.7818609E-02  0.8169723E-01
        1   -1    0    0  501    0  0.00000000000E+00  0.00000000000E+00  0.18556925685E+04  0.18556925685E+04  0.50400001928E-02 0.  1.
       -1   -1    0    0    0  501  0.00000000000E+00  0.00000000000E+00 -0.14434628149E+04  0.14434628149E+04  0.50400001928E-02 0. -1.
    10030    2    1    2    0    0  0.00000000000E+00  0.00000000000E+00  0.41222975364E+03  0.32991553834E+04  0.32732999975E+04 0.  0.
        2    1    3    3  502    0  0.38296923554E+03  0.15907044026E+04  0.24664803753E+03  0.16546423137E+04  0.25500000920E-02 0.  1.
       -2    1    3    3    0  502 -0.38296923554E+03 -0.15907044026E+04  0.16558171610E+03  0.16445130697E+04  0.25500000920E-02 0. -1.
</event>
<event>
 5   0  0.3674967E-07  0.3324341E+04  0.7818609E-02  0.8156729E-01
       -1   -1    0    0    0  501  0.00000000000E+00  0.00000000000E+00  0.16104804452E+04  0.16104804453E+04  0.50400001928E-02 0. -1.
        1   -1    0    0  501    0  0.00000000000E+00  0.00000000000E+00 -0.17155197632E+04  0.17155197632E+04  0.50400001928E-02 0.  1.
    10030    2    1    2    0    0  0.00000000000E+00  0.00000000000E+00 -0.10503931796E+03  0.33260002085E+04  0.33243411570E+04 0.  0.
        2    1    3    3  502    0  0.98973102011E+03  0.89492671660E+03  0.93911054568E+03  0.16316831608E+04  0.25500000920E-02 0. -1.
       -2    1    3    3    0  502 -0.98973102011E+03 -0.89492671660E+03 -0.10441498636E+04  0.16943170477E+04  0.25500000920E-02 0.  1.
</event>
<event>
 5   0  0.3796529E-07  0.3316644E+04  0.7818609E-02  0.8158673E-01
       -1   -1    0    0    0  501  0.00000000000E+00  0.00000000000E+00  0.19310081591E+04  0.19310081591E+04  0.50400001928E-02 0.  1.
        1   -1    0    0  501    0  0.00000000000E+00  0.00000000000E+00 -0.14241430056E+04  0.14241430056E+04  0.50400001928E-02 0. -1.
    10030    2    1    2    0    0  0.00000000000E+00  0.00000000000E+00  0.50686515349E+03  0.33551511648E+04  0.33166439445E+04 0.  0.
        5    1    3    3  502    0 -0.13741422789E+04  0.59443642916E+03  0.97472419880E+03  0.17865416381E+04  0.46999998093E+01 0.  1.
       -5    1    3    3    0  502  0.13741422789E+04 -0.59443642916E+03 -0.46785904531E+03  0.15686095267E+04  0.46999998093E+01 0. -1.
</event>
<event>
 5   0  0.1129434E-06  0.3274192E+04  0.7818609E-02  0.8169493E-01
        2   -1    0    0  501    0  0.00000000000E+00  0.00000000000E+00  0.20387550407E+04  0.20387550407E+04  0.25500000920E-02 0.  1.
       -2   -1    0    0    0  501  0.00000000000E+00  0.00000000000E+00 -0.13145686856E+04  0.13145686856E+04  0.25500000920E-02 0. -1.
    10030    2    1    2    0    0  0.00000000000E+00  0.00000000000E+00  0.72418635508E+03  0.33533237262E+04  0.32741921349E+04 0.  0.
        3    1    3    3  502    0  0.29215044500E+02 -0.66620201446E+03 -0.11691685162E+04  0.13459694173E+04  0.10100000352E+00 0. -1.
       -3    1    3    3    0  502 -0.29215044500E+02  0.66620201446E+03  0.18933548713E+04  0.20073543089E+04  0.10100000352E+00 0.  1.
</event>
<event>
 5   0  0.3749685E-07  0.3285607E+04  0.7818609E-02  0.8166567E-01
        1   -1    0    0  501    0  0.00000000000E+00  0.00000000000E+00  0.13238668958E+04  0.13238668958E+04  0.50400001928E-02 0. -1.
       -1   -1    0    0    0  501  0.00000000000E+00  0.00000000000E+00 -0.20385754783E+04  0.20385754783E+04  0.50400001928E-02 0.  1.
    10030    2    1    2    0    0  0.00000000000E+00  0.00000000000E+00 -0.71470858251E+03  0.33624423742E+04  0.32856065439E+04 0.  0.
        3    1    3    3  502    0  0.16063410322E+04 -0.16645104565E+03 -0.66567222254E+03  0.17467561308E+04  0.10100000352E+00 0.  1.
       -3    1    3    3    0  502 -0.16063410322E+04  0.16645104565E+03 -0.49036359979E+02  0.16156862434E+04  0.10100000352E+00 0. -1.
</event>
<event>
 5   0  0.3674967E-07  0.3317640E+04  0.7818609E-02  0.8158421E-01
        1   -1    0    0  501    0  0.00000000000E+00  0.00000000000E+00  0.12559747432E+04  0.12559747432E+04  0.50400001928E-02 0.  1.
       -1   -1    0    0    0  501  0.00000000000E+00  0.00000000000E+00 -0.21908756575E+04  0.21908756575E+04  0.50400001928E-02 0. -1.
    10030    2    1    2    0    0  0.00000000000E+00  0.00000000000E+00 -0.93490091426E+03  0.34468504007E+04  0.33176404213E+04 0.  0.
        2    1    3    3  502    0 -0.13137713115E+04 -0.91375376033E+03 -0.13699042189E+02  0.16003526665E+04  0.25500000920E-02 0.  1.
       -2    1    3    3    0  502  0.13137713115E+04  0.91375376033E+03 -0.92120187207E+03  0.18464977342E+04  0.25500000920E-02 0. -1.
</event>
<event>
 5   0  0.3796529E-07  0.3270563E+04  0.7818609E-02  0.8170426E-01
        1   -1    0    0  501    0  0.00000000000E+00  0.00000000000E+00  0.19274702377E+04  0.19274702377E+04  0.50400001928E-02 0. -1.
       -1   -1    0    0    0  501  0.00000000000E+00  0.00000000000E+00 -0.13873864604E+04  0.13873864604E+04  0.50400001928E-02 0.  1.
    10030    2    1    2    0    0  0.00000000000E+00  0.00000000000E+00  0.54008377732E+03  0.33148566981E+04  0.32705633218E+04 0.  0.
        5    1    3    3  502    0  0.21362367595E+03  0.13713272359E+04 -0.60651204219E+03  0.15146129573E+04  0.46999998093E+01 0.  1.
       -5    1    3    3    0  502 -0.21362367595E+03 -0.13713272359E+04  0.11465958195E+04  0.18002437408E+04  0.46999998093E+01 0. -1.
</event>
<event>
 5   0  0.1126221E-06  0.3315939E+04  0.7818609E-02  0.8158852E-01
       -2   -1    0    0    0  501  0.00000000000E+00  0.00000000000E+00  0.16198450840E+04  0.16198450841E+04  0.25500000920E-02 0.  1.
        2   -1    0    0  501    0  0.00000000000E+00  0.00000000000E+00 -0.16969910705E+04  0.16969910705E+04  0.25500000920E-02 0. -1.
    10030    2    1    2    0    0  0.00000000000E+00  0.00000000000E+00 -0.77145986492E+02  0.33168361546E+04  0.33159388675E+04 0.  0.
        2    1    3    3  502    0 -0.34036172575E+03 -0.12648546809E+04 -0.10552924201E+04  0.16820658608E+04  0.25500000920E-02 0. -1.
       -2    1    3    3    0  502  0.34036172575E+03  0.12648546809E+04  0.97814643359E+03  0.16347702938E+04  0.25500000920E-02 0.  1.
</event>
<event>
 5   0  0.1120545E-06  0.3307526E+04  0.7818609E-02  0.8160983E-01
       -2   -1    0    0    0  501  0.00000000000E+00  0.00000000000E+00  0.21140875320E+04  0.21140875320E+04  0.25500000920E-02 0. -1.
        2   -1    0    0  501    0  0.00000000000E+00  0.00000000000E+00 -0.12936702946E+04  0.12936702946E+04  0.25500000920E-02 0.  1.
    10030    2    1    2    0    0  0.00000000000E+00  0.00000000000E+00  0.82041723741E+03  0.34077578266E+04  0.33075261089E+04 0.  0.
        4    1    3    3  502    0 -0.11892975449E+04  0.60308074135E+03 -0.59759294244E+03  0.14612508233E+04  0.12699999809E+01 0.  1.
       -4    1    3    3    0  502  0.11892975449E+04 -0.60308074135E+03  0.14180101799E+04  0.19465070033E+04  0.12699999809E+01 0. -1.
</event>
<event>
 5   0  0.3749685E-07  0.3293968E+04  0.7818609E-02  0.8164432E-01
       -1   -1    0    0    0  501  0.00000000000E+00  0.00000000000E+00  0.12068197496E+04  0.12068197496E+04  0.50400001928E-02 0. -1.
        1   -1    0    0  501    0  0.00000000000E+00  0.00000000000E+00 -0.22476903002E+04  0.22476903002E+04  0.50400001928E-02 0.  1.
    10030    2    1    2    0    0  0.00000000000E+00  0.00000000000E+00 -0.10408705506E+04  0.34545100498E+04  0.32939684548E+04 0.  0.
        3    1    3    3  502    0  0.12194986257E+04 -0.86962643580E+03 -0.12387481116E+04  0.19436882286E+04  0.10100000352E+00 0. -1.
       -3    1    3    3    0  502 -0.12194986257E+04  0.86962643580E+03  0.19787756108E+03  0.15108218211E+04  0.10100000352E+00 0.  1.
</event>
<event>
 5   0  0.1126221E-06  0.3289038E+04  0.7818609E-02  0.8165690E-01
       -2   -1    0    0    0  501  0.00000000000E+00  0.00000000000E+00  0.13010530294E+04  0.13010530294E+04  0.25500000920E-02 0.  1.
        2   -1    0    0  501    0  0.00000000000E+00  0.00000000000E+00 -0.20786569416E+04  0.20786569416E+04  0.25500000920E-02 0. -1.
    10030    2    1    2    0    0  0.00000000000E+00  0.00000000000E+00 -0.77760391215E+03  0.33797099710E+04  0.32890381032E+04 0.  0.
        2    1    3    3  502    0  0.36591701698E+03 -0.32752627418E+03  0.12239475078E+04  0.13187934734E+04  0.25500000920E-02 0.  1.
       -2    1    3    3    0  502 -0.36591701698E+03  0.32752627418E+03 -0.20015514199E+04  0.20609164976E+04  0.25500000920E-02 0. -1.
</event>
<event>
 5   0  0.3796529E-07  0.3304983E+04  0.7818609E-02  0.8161629E-01
       -1   -1    0    0    0  501  0.00000000000E+00  0.00000000000E+00  0.12530396274E+04  0.12530396274E+04  0.50400001928E-02 0. -1.
        1   -1    0    0  501    0  0.00000000000E+00  0.00000000000E+00 -0.21792827400E+04  0.21792827400E+04  0.50400001928E-02 0.  1.
    10030    2    1    2    0    0  0.00000000000E+00  0.00000000000E+00 -0.92624311262E+03  0.34323223673E+04  0.33049826822E+04 0.  0.
        5    1    3    3  502    0 -0.49641128132E+03  0.54392332941E+03 -0.19994536128E+04  0.21307542299E+04  0.46999998093E+01 0.  1.
       -5    1    3    3    0  502  0.49641128132E+03 -0.54392332941E+03  0.10732105002E+04  0.13015681374E+04  0.46999998093E+01 0. -1.
</event>
<event>
 5   0  0.3757406E-07  0.3291351E+04  0.7818609E-02  0.8165100E-01
        1   -1    0    0  501    0  0.00000000000E+00  0.00000000000E+00  0.14241577095E+04  0.14241577095E+04  0.50400001928E-02 0.  1.
       -1   -1    0    0    0  501  0.00000000000E+00  0.00000000000E+00 -0.19016491955E+04  0.19016491955E+04  0.50400001928E-02 0. -1.
    10030    2    1    2    0    0  0.00000000000E+00  0.00000000000E+00 -0.47749148598E+03  0.33258069051E+04  0.32913513107E+04 0.  0.
        1    1    3    3  502    0  0.33597316103E+03  0.47271345805E+03  0.13174782678E+04  0.14394738498E+04  0.50400001928E-02 0.  1.
       -1    1    3    3    0  502 -0.33597316103E+03 -0.47271345805E+03 -0.17949697537E+04  0.18863330552E+04  0.50400001928E-02 0. -1.
</event>
<event>
 5   0  0.3709747E-07  0.3297906E+04  0.7818609E-02  0.8163428E-01
       -1   -1    0    0    0  501  0.00000000000E+00  0.00000000000E+00  0.19316895101E+04  0.19316895101E+04  0.50400001928E-02 0.  1.
        1   -1    0    0  501    0  0.00000000000E+00  0.00000000000E+00 -0.14075996255E+04  0.14075996256E+04  0.50400001928E-02 0. -1.
    10030    2    1    2    0    0  0.00000000000E+00  0.00000000000E+00  0.52408988456E+03  0.33392891357E+04  0.32979056573E+04 0.  0.
        4    1    3    3  502    0 -0.52410614341E+03  0.15631216939E+04  0.22991126565E+03  0.16646012984E+04  0.12699999809E+01 0.  1.
       -4    1    3    3    0  502  0.52410614341E+03 -0.15631216939E+04  0.29417861891E+03  0.16746878373E+04  0.12699999809E+01 0. -1.
</event>
<event>
 5   0  0.3796529E-07  0.3260110E+04  0.7818609E-02  0.8173120E-01
       -1   -1    0    0    0  501  0.00000000000E+00  0.00000000000E+00  0.85174487441E+03  0.85174487442E+03  0.50400001928E-02 0.  1.
        1   -1    0    0  501    0  0.00000000000E+00  0.00000000000E+00 -0.31195714123E+04  0.31195714123E+04  0.50400001928E-02 0. -1.
    10030    2    1    2    0    0  0.00000000000E+00  0.00000000000E+00 -0.22678265379E+04  0.39713162867E+04  0.32601097901E+04 0.  0.
        5    1    3    3  502    0 -0.14568243497E+04  0.52088437127E+03 -0.50872698553E+03  0.16286445130E+04  0.46999998093E+01 0.  1.
       -5    1    3    3    0  502  0.14568243497E+04 -0.52088437127E+03 -0.17590995524E+04  0.23426717737E+04  0.46999998093E+01 0. -1.
</event>
<event>
 5   0  0.3757406E-07  0.3296535E+04  0.7818609E-02  0.8163778E-01
        1   -1    0    0  501    0  0.00000000000E+00  0.00000000000E+00  0.20400972999E+04  0.20400972999E+04  0.50400001928E-02 0. -1.
       -1   -1    0    0    0  501  0.00000000000E+00  0.00000000000E+00 -0.13316941859E+04  0.13316941860E+04  0.50400001928E-02 0.  1.
    10030    2    1    2    0    0  0.00000000000E+00  0.00000000000E+00  0.70840311391E+03  0.33717914858E+04  0.32965349766E+04 0.  0.
        1    1    3    3  502    0  0.38507008012E+03 -0.13767691476E+04 -0.48490071480E+03  0.15096029132E+04  0.50400001928E-02 0.  1.
       -1    1    3    3    0  502 -0.38507008012E+03  0.13767691476E+04  0.11933038287E+04  0.18621885726E+04  0.50400001928E-02 0. -1.
</event>
<event>
 5   0  0.1129434E-06  0.3286923E+04  0.7818609E-02  0.8166231E-01
        2   -1    0    0  501    0  0.00000000000E+00  0.00000000000E+00  0.25596972590E+04  0.25596972590E+04  0.25500000920E-02 0. -1.
       -2   -1    0    0    0  501  0.00000000000E+00  0.00000000000E+00 -0.10551892477E+04  0.10551892477E+04  0.25500000920E-02 0.  1.
    10030    2    1    2    0    0  0.00000000000E+00  0.00000000000E+00  0.15045080112E+04  0.36148865067E+04  0.32869225881E+04 0.  0.
        3    1    3    3  502    0  0.58899875698E+03  0.13592381311E+04 -0.30458516388E+02  0.14816799804E+04  0.10100000352E+00 0.  1.
       -3    1    3    3    0  502 -0.58899875698E+03 -0.13592381311E+04  0.15349665276E+04  0.21332065263E+04  0.10100000352E+00 0. -1.
</event>
<event>
 5   0  0.1129434E-06  0.3298465E+04  0.7818609E-02  0.8163286E-01
        2   -1    0    0  501    0  0.00000000000E+00  0.00000000000E+00  0.16764698957E+04  0.16764698957E+04  0.25500000920E-02 0.  1.
       -2   -1    0    0    0  501  0.00000000000E+00  0.00000000000E+00 -0.16224378356E+04  0.16224378356E+04  0.25500000920E-02 0. -1.
    10030    2    1    2    0    0  0.00000000000E+00  0.00000000000E+00  0.54032060106E+02  0.32989077312E+04  0.32984652121E+04 0.  0.
        3    1    3    3  502    0  0.32890663452E+03  0.79244556564E+03 -0.13816538959E+04  0.16263815810E+04  0.10100000352E+00 0. -1.
       -3    1    3    3    0  502 -0.32890663452E+03 -0.79244556564E+03  0.14356859560E+04  0.16725261502E+04  0.10100000352E+00 0.  1.
</event>
<event>
 5   0  0.3796529E-07  0.3293350E+04  0.7818609E-02  0.8164589E-01
        1   -1    0    0  501    0  0.00000000000E+00  0.00000000000E+00  0.12843324182E+04  0.12843324182E+04  0.50400001928E-02 0. -1.
       -1   -1    0    0    0  501  0.00000000000E+00  0.00000000000E+00 -0.21112437595E+04  0.21112437595E+04  0.50400001928E-02 0.  1.
    10030    2    1    2    0    0  0.00000000000E+00  0.00000000000E+00 -0.82691134132E+03  0.33955761777E+04  0.32933501503E+04 0.  0.
        5    1    3    3  502    0  0.43799716590E+03  0.48844111741E+03 -0.19706677991E+04  0.20770098475E+04  0.46999998093E+01 0.  1.
       -5    1    3    3    0  502 -0.43799716590E+03 -0.48844111741E+03  0.11437564577E+04  0.13185663302E+04  0.46999998093E+01 0. -1.
</event>
<event>
 5   0  0.3749685E-07  0.3317721E+04  0.7818609E-02  0.8158401E-01
       -1   -1    0    0    0  501  0.00000000000E+00  0.00000000000E+00  0.13310015257E+04  0.13310015257E+04  0.50400001928E-02 0. -1.
        1   -1    0    0  501    0  0.00000000000E+00  0.00000000000E+00 -0.20674796971E+04  0.20674796972E+04  0.50400001928E-02 0.  1.
    10030    2    1    2    0    0  0.00000000000E+00  0.00000000000E+00 -0.73647817144E+03  0.33984812229E+04  0.33177212850E+04 0.  0.
        3    1    3    3  502    0  0.46559829674E+03  0.14246694009E+03  0.12561554585E+04  0.13472212695E+04  0.10100000352E+00 0. -1.
       -3    1    3    3    0  502 -0.46559829674E+03 -0.14246694009E+03 -0.19926336299E+04  0.20512599534E+04  0.10100000352E+00 0.  1.
</event>
<event>
 5   0  0.3749685E-07  0.3291017E+04  0.7818609E-02  0.8165185E-01
        1   -1    0    0  501    0  0.00000000000E+00  0.00000000000E+00  0.14549946318E+04  0.14549946318E+04  0.50400001928E-02 0.  1.
       -1   -1    0    0    0  501  0.00000000000E+00  0.00000000000E+00 -0.18609681512E+04  0.18609681512E+04  0.50400001928E-02 0. -1.
    10030    2    1    2    0    0  0.00000000000E+00  0.00000000000E+00 -0.40597351934E+03  0.33159627830E+04  0.32910172713E+04 0.  0.
        3    1    3    3  502    0 -0.91697836368E+03  0.11532416836E+04 -0.94126368699E+03  0.17483686793E+04  0.10100000352E+00 0. -1.
       -3    1    3    3    0  502  0.91697836368E+03 -0.11532416836E+04  0.53529016765E+03  0.15675941037E+04  0.10100000352E+00 0.  1.
</event>
<event>
 5   0  0.1126221E-06  0.3298678E+04  0.7818609E-02  0.8163232E-01
       -2   -1    0    0    0  501  0.00000000000E+00  0.00000000000E+00  0.22782322988E+04  0.22782322988E+04  0.25500000920E-02 0. -1.
        2   -1    0    0  501    0  0.00000000000E+00  0.00000000000E+00 -0.11940480427E+04  0.11940480427E+04  0.25500000920E-02 0.  1.
    10030    2    1    2    0    0  0.00000000000E+00  0.00000000000E+00  0.10841842561E+04  0.34722803415E+04  0.32986778062E+04 0.  0.
        2    1    3    3  502    0 -0.20886942729E+03 -0.83659715959E+02 -0.11778173093E+04  0.11991159243E+04  0.25500000920E-02 0.  1.
       -2    1    3    3    0  502  0.20886942729E+03  0.83659715959E+02  0.22620015654E+04  0.22731644172E+04  0.25500000920E-02 0. -1.
</event>
<event>
 5   0  0.1126221E-06  0.3306482E+04  0.7818609E-02  0.8161248E-01
       -2   -1    0    0    0  501  0.00000000000E+00  0.00000000000E+00  0.12193125513E+04  0.12193125513E+04  0.25500000920E-02 0. -1.
        2   -1    0    0  501    0  0.00000000000E+00  0.00000000000E+00 -0.22415950584E+04  0.22415950584E+04  0.25500000920E-02 0.  1.
    10030    2    1    2    0    0  0.00000000000E+00  0.00000000000E+00 -0.10222825071E+04  0.34609076097E+04  0.33064815073E+04 0.  0.
        2    1    3    3  502    0  0.90425030134E+03  0.44255944440E+03 -0.18837520633E+04  0.21358954340E+04  0.25500000920E-02 0.  1.
       -2    1    3    3    0  502 -0.90425030134E+03 -0.44255944440E+03  0.86146955619E+03  0.13250121756E+04  0.25500000920E-02 0. -1.
</event>
<event>
 5   0  0.3709747E-07  0.3390573E+04  0.7818609E-02  0.8140224E-01
        1   -1    0    0  501    0  0.00000000000E+00  0.00000000000E+00  0.13393765623E+04  0.13393765623E+04  0.50400001928E-02 0. -1.
       -1   -1    0    0    0  501  0.00000000000E+00  0.00000000000E+00 -0.21457714621E+04  0.21457714621E+04  0.50400001928E-02 0.  1.
    10030    2    1    2    0    0  0.00000000000E+00  0.00000000000E+00 -0.80639489978E+03  0.34851480244E+04  0.33905728155E+04 0.  0.
        4    1    3    3  502    0 -0.34865621689E+03  0.13563822593E+04 -0.13851777076E+04  0.19697849846E+04  0.12699999809E+01 0.  1.
       -4    1    3    3    0  502  0.34865621689E+03 -0.13563822593E+04  0.57878280782E+03  0.15153630398E+04  0.12699999809E+01 0. -1.
</event>
<event>
 5   0  0.1116462E-06  0.3298109E+04  0.7818609E-02  0.8163377E-01
        2   -1    0    0  501    0  0.00000000000E+00  0.00000000000E+00  0.12889377454E+04  0.12889377454E+04  0.25500000920E-02 0.  1.
       -2   -1    0    0    0  501  0.00000000000E+00  0.00000000000E+00 -0.21097843633E+04  0.21097843633E+04  0.25500000920E-02 0. -1.
    10030    2    1    2    0    0  0.00000000000E+00  0.00000000000E+00 -0.82084661788E+03  0.33987221087E+04  0.32981089736E+04 0.  0.
        1    1    3    3  502    0  0.14123506729E+04  0.45992271425E+03 -0.11485977697E+04  0.18776421818E+04  0.50400001928E-02 0. -1.
       -1    1    3    3    0  502 -0.14123506729E+04 -0.45992271425E+03  0.32775115180E+03  0.15210799269E+04  0.50400001928E-02 0.  1.
</event>
<event>
 5   0  0.3573375E-07  0.3316039E+04  0.7818609E-02  0.8158826E-01
       -4   -1    0    0    0  501  0.00000000000E+00  0.00000000000E+00  0.18101028380E+04  0.18101032836E+04  0.12699999809E+01 0. -1.
        4   -1    0    0  501    0  0.00000000000E+00  0.00000000000E+00 -0.15187135088E+04  0.15187140398E+04  0.12699999809E+01 0.  1.
    10030    2    1    2    0    0  0.00000000000E+00  0.00000000000E+00  0.29138932921E+03  0.33288173234E+04  0.33160393591E+04 0.  0.
        4    1    3    3  502    0  0.53085629527E+03 -0.16398577607E+03 -0.14224798051E+04  0.15271378948E+04  0.12699999809E+01 0.  1.
       -4    1    3    3    0  502 -0.53085629527E+03  0.16398577607E+03  0.17138691343E+04  0.18016794286E+04  0.12699999809E+01 0. -1.
</event>
<event>
 5   0  0.3573375E-07  0.3308348E+04  0.7818609E-02  0.8160775E-01
       -4   -1    0    0    0  501  0.00000000000E+00  0.00000000000E+00  0.13633199335E+04  0.13633205250E+04  0.12699999809E+01 0. -1.
        4   -1    0    0  501    0  0.00000000000E+00  0.00000000000E+00 -0.20070781740E+04  0.20070785758E+04  0.12699999809E+01 0.  1.
    10030    2    1    2    0    0  0.00000000000E+00  0.00000000000E+00 -0.64375824053E+03  0.33703991008E+04  0.33083478394E+04 0.  0.
        2    1    3    3  502    0  0.14357007102E+04  0.30050990845E+03 -0.11009101723E+04  0.18339972578E+04  0.25500000920E-02 0.  1.
       -2    1    3    3    0  502 -0.14357007102E+04 -0.30050990845E+03  0.45715193174E+03  0.15364018430E+04  0.25500000920E-02 0. -1.
</event>
<event>
 5   0  0.1126221E-06  0.3281764E+04  0.7818609E-02  0.8167551E-01
        2   -1    0    0  501    0  0.00000000000E+00  0.00000000000E+00  0.19386771431E+04  0.19386771431E+04  0.25500000920E-02 0. -1.
       -2   -1    0    0    0  501  0.00000000000E+00  0.00000000000E+00 -0.13888306587E+04  0.13888306587E+04  0.25500000920E-02 0.  1.
    10030    2    1    2    0    0  0.00000000000E+00  0.00000000000E+00  0.54984648437E+03  0.33275078018E+04  0.32817643143E+04 0.  0.
        2    1    3    3  502    0 -0.16173810769E+04  0.22519527868E+03  0.11187196354E+03  0.16368108619E+04  0.25500000920E-02 0. -1.
       -2    1    3    3    0  502  0.16173810769E+04 -0.22519527868E+03  0.43797452083E+03  0.16906969399E+04  0.25500000920E-02 0.  1.
</event>
<event>
 5   0  0.3573375E-07  0.3280538E+04  0.7818609E-02  0.8167865E-01
       -3   -1    0    0    0  501  0.00000000000E+00  0.00000000000E+00  0.22433625950E+04  0.22433625972E+04  0.10100000352E+00 0. -1.
        3   -1    0    0  501    0  0.00000000000E+00  0.00000000000E+00 -0.11993080804E+04  0.11993080846E+04  0.10100000352E+00 0.  1.
    10030    2    1    2    0    0  0.00000000000E+00  0.00000000000E+00  0.10440545146E+04  0.34426706819E+04  0.32805383087E+04 0.  0.
        4    1    3    3  502    0  0.80281414780E+03  0.11711633375E+04 -0.33974426008E+03  0.14599869500E+04  0.12699999809E+01 0.  1.
       -4    1    3    3    0  502 -0.80281414780E+03 -0.11711633375E+04  0.13837987747E+04  0.19826837319E+04  0.12699999809E+01 0. -1.
</event>
<event>
 5   0  0.1129434E-06  0.3300322E+04  0.7818609E-02  0.8162813E-01
       -2   -1    0    0    0  501  0.00000000000E+00  0.00000000000E+00  0.22363323158E+04  0.22363323158E+04  0.25500000920E-02 0.  1.
        2   -1    0    0  501    0  0.00000000000E+00  0.00000000000E+00 -0.12176328556E+04  0.12176328556E+04  0.25500000920E-02 0. -1.
    10030    2    1    2    0    0  0.00000000000E+00  0.00000000000E+00  0.10186994603E+04  0.34539651714E+04  0.33003222289E+04 0.  0.
        3    1    3    3  502    0 -0.14014030561E+04  0.46830458406E+03  0.12782585190E+04  0.19537616438E+04  0.10100000352E+00 0.  1.
       -3    1    3    3    0  502  0.14014030561E+04 -0.46830458406E+03 -0.25955905874E+03  0.15002035276E+04  0.10100000352E+00 0. -1.
</event>
<event>
 5   0  0.3749685E-07  0.3299338E+04  0.7818609E-02  0.8163064E-01
        1   -1    0    0  501    0  0.00000000000E+00  0.00000000000E+00  0.20459623430E+04  0.20459623430E+04  0.50400001928E-02 0. -1.
       -1   -1    0    0    0  501  0.00000000000E+00  0.00000000000E+00 -0.13301361555E+04  0.13301361555E+04  0.50400001928E-02 0.  1.
    10030    2    1    2    0    0  0.00000000000E+00  0.00000000000E+00  0.71582618753E+03  0.33760984985E+04  0.32993384096E+04 0.  0.
        3    1    3    3  502    0  0.13648547510E+04  0.67649848575E+03 -0.29000842653E+03  0.15506719802E+04  0.10100000352E+00 0.  1.
       -3    1    3    3    0  502 -0.13648547510E+04 -0.67649848575E+03  0.10058346141E+04  0.18254265183E+04  0.10100000352E+00 0. -1.
</event>
<event>
 5   0  0.1120545E-06  0.3285693E+04  0.7818609E-02  0.8166545E-01
       -2   -1    0    0    0  501  0.00000000000E+00  0.00000000000E+00  0.14312980331E+04  0.14312980331E+04  0.25500000920E-02 0.  1.
        2   -1    0    0  501    0  0.00000000000E+00  0.00000000000E+00 -0.18856625902E+04  0.18856625902E+04  0.25500000920E-02 0. -1.
    10030    2    1    2    0    0  0.00000000000E+00  0.00000000000E+00 -0.45436455711E+03  0.33169606234E+04  0.32856933250E+04 0.  0.
        4    1    3    3  502    0 -0.12736230938E+04  0.73326925919E+03 -0.96843390501E+03  0.17600185888E+04  0.12699999809E+01 0. -1.
       -4    1    3    3    0  502  0.12736230938E+04 -0.73326925919E+03  0.51406934790E+03  0.15569420346E+04  0.12699999809E+01 0.  1.
</event>
<event>
 5   0  0.3709747E-07  0.3254970E+04  0.7818609E-02  0.8174449E-01
        1   -1    0    0  501    0  0.00000000000E+00  0.00000000000E+00  0.15530497307E+04  0.15530497307E+04  0.50400001928E-02 0.  1.
       -1   -1    0    0    0  501  0.00000000000E+00  0.00000000000E+00 -0.17054873207E+04  0.17054873207E+04  0.50400001928E-02 0. -1.
    10030    2    1    2    0    0  0.00000000000E+00  0.00000000000E+00 -0.15243758996E+03  0.32585370514E+04  0.32549695078E+04 0.  0.
        4    1    3    3  502    0  0.12080294959E+04  0.70026670954E+03 -0.91319511780E+03  0.16684231069E+04  0.12699999809E+01 0. -1.
       -4    1    3    3    0  502 -0.12080294959E+04 -0.70026670954E+03  0.76075752784E+03  0.15901139445E+04  0.12699999809E+01 0.  1.
</event>
<event>
 5   0  0.3757406E-07  0.3325393E+04  0.7818609E-02  0.8156464E-01
       -1   -1    0    0    0  501  0.00000000000E+00  0.00000000000E+00  0.15940704741E+04  0.15940704741E+04  0.50400001928E-02 0. -1.
        1   -1    0    0  501    0  0.00000000000E+00  0.00000000000E+00 -0.17342769892E+04  0.17342769892E+04  0.50400001928E-02 0.  1.
    10030    2    1    2    0    0  0.00000000000E+00  0.00000000000E+00 -0.14020651508E+03  0.33283474634E+04  0.33253930550E+04 0.  0.
        1    1    3    3  502    0  0.10613315427E+04  0.51355667129E+03 -0.12434906021E+04  0.17136026306E+04  0.50400001928E-02 0.  1.
       -1    1    3    3    0  502 -0.10613315427E+04 -0.51355667129E+03  0.11032840870E+04  0.16147448327E+04  0.50400001928E-02 0. -1.
</event>
<event>
 5   0  0.1146799E-06  0.3295966E+04  0.7818609E-02  0.8163923E-01
        2   -1    0    0  501    0  0.00000000000E+00  0.00000000000E+00  0.21977477862E+04  0.21977477862E+04  0.25500000920E-02 0. -1.
       -2   -1    0    0    0  501  0.00000000000E+00  0.00000000000E+00 -0.12357411948E+04  0.12357411948E+04  0.25500000920E-02 0.  1.
    10030    2    1    2    0    0  0.00000000000E+00  0.00000000000E+00  0.96200659138E+03  0.34334889810E+04  0.32959657008E+04 0.  0.
        5    1    3    3  502    0 -0.72556057188E+02  0.78585120016E+03  0.19880873468E+04  0.21390044130E+04  0.46999998093E+01 0. -1.
       -5    1    3    3    0  502  0.72556057188E+02 -0.78585120016E+03 -0.10260807554E+04  0.12944845680E+04  0.46999998093E+01 0.  1.
</event>
<event>
 5   0  0.3796529E-07  0.3351848E+04  0.7818609E-02  0.8149827E-01
       -1   -1    0    0    0  501  0.00000000000E+00  0.00000000000E+00  0.12463323226E+04  0.12463323227E+04  0.50400001928E-02 0.  1.
        1   -1    0    0  501    0  0.00000000000E+00  0.00000000000E+00 -0.22535893770E+04  0.22535893770E+04  0.50400001928E-02 0. -1.
    10030    2    1    2    0    0  0.00000000000E+00  0.00000000000E+00 -0.10072570544E+04  0.34999216997E+04  0.33518480172E+04 0.  0.
        5    1    3    3  502    0 -0.33230905773E+03  0.87551416879E+03  0.94764371480E+03  0.13322931621E+04  0.46999998093E+01 0.  1.
       -5    1    3    3    0  502  0.33230905773E+03 -0.87551416879E+03 -0.19549007692E+04  0.21676285376E+04  0.46999998093E+01 0. -1.
</event>
<event>
 5   0  0.1129434E-06  0.3313374E+04  0.7818609E-02  0.8159501E-01
       -2   -1    0    0    0  501  0.00000000000E+00  0.00000000000E+00  0.21421325617E+04  0.21421325617E+04  0.25500000920E-02 0.  1.
        2   -1    0    0  501    0  0.00000000000E+00  0.00000000000E+00 -0.12812519024E+04  0.12812519024E+04  0.25500000920E-02 0. -1.
    10030    2    1    2    0    0  0.00000000000E+00  0.00000000000E+00  0.86088065932E+03  0.34233844642E+04  0.33133737610E+04 0.  0.
        3    1    3    3  502    0 -0.12689510756E+04 -0.77280924738E+03 -0.32679204575E+03  0.15212705271E+04  0.10100000352E+00 0. -1.
       -3    1    3    3    0  502  0.12689510756E+04  0.77280924738E+03  0.11876727051E+04  0.19021139371E+04  0.10100000352E+00 0.  1.
</event>
<event>
 5   0  0.1116462E-06  0.3305354E+04  0.7818609E-02  0.8161534E-01
       -2   -1    0    0    0  501  0.00000000000E+00  0.00000000000E+00  0.17312679585E+04  0.17312679585E+04  0.25500000920E-02 0.  1.
        2   -1    0    0  501    0  0.00000000000E+00  0.00000000000E+00 -0.15776540592E+04  0.15776540592E+04  0.25500000920E-02 0. -1.
    10030    2    1    2    0    0  0.00000000000E+00  0.00000000000E+00  0.15361389932E+03  0.33089220177E+04  0.33053543969E+04 0.  0.
        1    1    3    3  502    0 -0.20358597938E+03 -0.39714656722E+03  0.16698036221E+04  0.17284145288E+04  0.50400001928E-02 0.  1.
       -1    1    3    3    0  502  0.20358597938E+03  0.39714656722E+03 -0.15161897228E+04  0.15805074889E+04  0.50400001928E-02 0. -1.
</event>
<event>
 5   0  0.3674967E-07  0.3310658E+04  0.7818609E-02  0.8160189E-01
        1   -1    0    0  501    0  0.00000000000E+00  0.00000000000E+00  0.22392713515E+04  0.22392713515E+04  0.50400001928E-02 0.  1.
       -1   -1    0    0    0  501  0.00000000000E+00  0.00000000000E+00 -0.12236633946E+04  0.12236633946E+04  0.50400001928E-02 0. -1.
    10030    2    1    2    0    0  0.00000000000E+00  0.00000000000E+00  0.10156079569E+04  0.34629347461E+04  0.33106581722E+04 0.  0.
        2    1    3    3  502    0 -0.10149578451E+04 -0.47731428223E+03 -0.76562715637E+03  0.13579960581E+04  0.25500000920E-02 0. -1.
       -2    1    3    3    0  502  0.10149578451E+04  0.47731428223E+03  0.17812351132E+04  0.21049386879E+04  0.25500000920E-02 0.  1.
</event>
<event>
 5   0  0.3674967E-07  0.3292937E+04  0.7818609E-02  0.8164695E-01
        1   -1    0    0  501    0  0.00000000000E+00  0.00000000000E+00  0.19398021143E+04  0.19398021143E+04  0.50400001928E-02 0. -1.
       -1   -1    0    0    0  501  0.00000000000E+00  0.00000000000E+00 -0.13974920328E+04  0.13974920328E+04  0.50400001928E-02 0.  1.
    10030    2    1    2    0    0  0.00000000000E+00  0.00000000000E+00  0.54231008145E+03  0.33372941471E+04  0.32929366832E+04 0.  0.
        2    1    3    3  502    0 -0.58547668023E+03 -0.75474606019E+03  0.16302765682E+04  0.18895042332E+04  0.25500000920E-02 0. -1.
       -2    1    3    3    0  502  0.58547668023E+03  0.75474606019E+03 -0.10879664868E+04  0.14477899139E+04  0.25500000920E-02 0.  1.
</event>
<event>
 5   0  0.1129434E-06  0.3301635E+04  0.7818609E-02  0.8162479E-01
        2   -1    0    0  501    0  0.00000000000E+00  0.00000000000E+00  0.34466628900E+04  0.34466628900E+04  0.25500000920E-02 0.  1.
       -2   -1    0    0    0  501  0.00000000000E+00  0.00000000000E+00 -0.79067751089E+03  0.79067751090E+03  0.25500000920E-02 0. -1.
    10030    2    1    2    0    0  0.00000000000E+00  0.00000000000E+00  0.26559853791E+04  0.42373404009E+04  0.33016352523E+04 0.  0.
        3    1    3    3  502    0 -0.66973161453E+03  0.14044070560E+04  0.62002298546E+03  0.16749113789E+04  0.10100000352E+00 0. -1.
       -3    1    3    3    0  502  0.66973161453E+03 -0.14044070560E+04  0.20359623936E+04  0.25624290220E+04  0.10100000352E+00 0.  1.
</event>
<event>
 5   0  0.1146799E-06  0.3300216E+04  0.7818609E-02  0.8162840E-01
        2   -1    0    0  501    0  0.00000000000E+00  0.00000000000E+00  0.18452081563E+04  0.18452081563E+04  0.25500000920E-02 0. -1.
       -2   -1    0    0    0  501  0.00000000000E+00  0.00000000000E+00 -0.14756363348E+04  0.14756363348E+04  0.25500000920E-02 0.  1.
    10030    2    1    2    0    0  0.00000000000E+00  0.00000000000E+00  0.36957182154E+03  0.33208444911E+04  0.33002158722E+04 0.  0.
        5    1    3    3  502    0 -0.13919734036E+04  0.82382974345E+03 -0.14367242239E+03  0.16238686084E+04  0.46999998093E+01 0.  1.
       -5    1    3    3    0  502  0.13919734036E+04 -0.82382974345E+03  0.51324424393E+03  0.16969758827E+04  0.46999998093E+01 0. -1.
</event>
<event>
 5   0  0.3709747E-07  0.3296158E+04  0.7818609E-02  0.8163874E-01
        1   -1    0    0  501    0  0.00000000000E+00  0.00000000000E+00  0.12795199199E+04  0.12795199199E+04  0.50400001928E-02 0. -1.
       -1   -1    0    0    0  501  0.00000000000E+00  0.00000000000E+00 -0.21227996792E+04  0.21227996792E+04  0.50400001928E-02 0.  1.
    10030    2    1    2    0    0  0.00000000000E+00  0.00000000000E+00 -0.84327975930E+03  0.34023195990E+04  0.32961580516E+04 0.  0.
        4    1    3    3  502    0 -0.47676841042E+03  0.29077317069E+03 -0.20221628913E+04  0.20978564122E+04  0.12699999809E+01 0.  1.
       -4    1    3    3    0  502  0.47676841042E+03 -0.29077317069E+03  0.11788831320E+04  0.13044631869E+04  0.12699999809E+01 0. -1.
</event>
<event>
 5   0  0.3709747E-07  0.3294169E+04  0.7818609E-02  0.8164381E-01
       -1   -1    0    0    0  501  0.00000000000E+00  0.00000000000E+00  0.16500556334E+04  0.16500556334E+04  0.50400001928E-02 0. -1.
        1   -1    0    0  501    0  0.00000000000E+00  0.00000000000E+00 -0.16441189153E+04  0.16441189153E+04  0.50400001928E-02 0.  1.
    10030    2    1    2    0    0  0.00000000000E+00  0.00000000000E+00  0.59367181217E+01  0.32941745488E+04  0.32941691992E+04 0.  0.
        4    1    3    3  502    0  0.11929745744E+04 -0.10931974120E+04 -0.30463114664E+03  0.16465329226E+04  0.12699999809E+01 0.  1.
       -4    1    3    3    0  502 -0.11929745744E+04  0.10931974120E+04  0.31056786476E+03  0.16476416262E+04  0.12699999809E+01 0. -1.
</event>
<event>
 5   0  0.3757406E-07  0.3316075E+04  0.7818609E-02  0.8158817E-01
       -1   -1    0    0    0  501  0.00000000000E+00  0.00000000000E+00  0.20167055227E+04  0.20167055227E+04  0.50400001928E-02 0.  1.
        1   -1    0    0  501    0  0.00000000000E+00  0.00000000000E+00 -0.13631579144E+04  0.13631579144E+04  0.50400001928E-02 0. -1.
    10030    2    1    2    0    0  0.00000000000E+00  0.00000000000E+00  0.65354760832E+03  0.33798634372E+04  0.33160748450E+04 0.  0.
        1    1    3    3  502    0 -0.87603791937E+03 -0.17928675342E+03 -0.10963302710E+04  0.14147530665E+04  0.50400001928E-02 0. -1.
       -1    1    3    3    0  502  0.87603791937E+03  0.17928675342E+03  0.17498778793E+04  0.19651103706E+04  0.50400001928E-02 0.  1.
</event>
<event>
 5   0  0.3757406E-07  0.3323069E+04  0.7818609E-02  0.8157050E-01
       -1   -1    0    0    0  501  0.00000000000E+00  0.00000000000E+00  0.12431800241E+04  0.12431800241E+04  0.50400001928E-02 0. -1.
        1   -1    0    0  501    0  0.00000000000E+00  0.00000000000E+00 -0.22206739407E+04  0.22206739407E+04  0.50400001928E-02 0.  1.
    10030    2    1    2    0    0  0.00000000000E+00  0.00000000000E+00 -0.97749391665E+03  0.34638539648E+04  0.33230693541E+04 0.  0.
        1    1    3    3  502    0 -0.79411472961E+03  0.57709389903E+03 -0.18860778862E+04  0.21262514821E+04  0.50400001928E-02 0.  1.
       -1    1    3    3    0  502  0.79411472961E+03 -0.57709389903E+03  0.90858396956E+03  0.13376024828E+04  0.50400001928E-02 0. -1.
</event>
<event>
 5   0  0.3674967E-07  0.3284628E+04  0.7818609E-02  0.8166818E-01
        1   -1    0    0  501    0  0.00000000000E+00  0.00000000000E+00  0.10860837520E+04  0.10860837520E+04  0.50400001928E-02 0. -1.
       -1   -1    0    0    0  501  0.00000000000E+00  0.00000000000E+00 -0.24834143022E+04  0.24834143022E+04  0.50400001928E-02 0.  1.
    10030    2    1    2    0    0  0.00000000000E+00  0.00000000000E+00 -0.13973305502E+04  0.35694980541E+04  0.32846283948E+04 0.  0.
        2    1    3    3  502    0  0.72938572183E+01  0.15619047958E+04 -0.14710805386E+03  0.15688341439E+04  0.25500000920E-02 0. -1.
       -2    1    3    3    0  502 -0.72938572183E+01 -0.15619047958E+04 -0.12502224963E+04  0.20006639103E+04  0.25500000920E-02 0.  1.
</event>
<event>
 5   0  0.3796529E-07  0.3118518E+04  0.7818609E-02  0.8210674E-01
       -1   -1    0    0    0  501  0.00000000000E+00  0.00000000000E+00  0.14103183484E+04  0.14103183484E+04  0.50400001928E-02 0. -1.
        1   -1    0    0  501    0  0.00000000000E+00  0.00000000000E+00 -0.17239287137E+04  0.17239287137E+04  0.50400001928E-02 0.  1.
    10030    2    1    2    0    0  0.00000000000E+00  0.00000000000E+00 -0.31361036530E+03  0.31342470621E+04  0.31185177866E+04 0.  0.
        5    1    3    3  502    0  0.85788032177E+02 -0.14950023415E+04 -0.59359429317E+03  0.16108283156E+04  0.46999998093E+01 0.  1.
       -5    1    3    3    0  502 -0.85788032177E+02  0.14950023415E+04  0.27998392787E+03  0.15234187465E+04  0.46999998093E+01 0. -1.
</event>
<event>
 5   0  0.3674967E-07  0.3301664E+04  0.7818609E-02  0.8162472E-01
        1   -1    0    0  501    0  0.00000000000E+00  0.00000000000E+00  0.15225327471E+04  0.15225327471E+04  0.50400001928E-02 0.  1.
       -1   -1    0    0    0  501  0.00000000000E+00  0.00000000000E+00 -0.17899428698E+04  0.17899428698E+04  0.50400001928E-02 0. -1.
    10030    2    1    2    0    0  0.00000000000E+00  0.00000000000E+00 -0.26741012272E+03  0.33124756169E+04  0.33016642075E+04 0.  0.
        2    1    3    3  502    0  0.41477320695E+03  0.11647512296E+04  0.96375273049E+03  0.15676420400E+04  0.25500000920E-02 0.  1.
       -2    1    3    3    0  502 -0.41477320695E+03 -0.11647512296E+04 -0.12311628532E+04  0.17448335769E+04  0.25500000920E-02 0. -1.
</event>
<event>
 5   0  0.1116462E-06  0.3012576E+04  0.7818609E-02  0.8240149E-01
       -2   -1    0    0    0  501  0.00000000000E+00  0.00000000000E+00  0.11564469195E+04  0.11564469195E+04  0.25500000920E-02 0. -1.
        2   -1    0    0  501    0  0.00000000000E+00  0.00000000000E+00 -0.19619611934E+04  0.19619611934E+04  0.25500000920E-02 0.  1.
    10030    2    1    2    0    0  0.00000000000E+00  0.00000000000E+00 -0.80551427391E+03  0.31184081129E+04  0.30125762916E+04 0.  0.
        1    1    3    3  502    0 -0.19908424784E+03  0.18113162965E+03 -0.19368675700E+04  0.19554792734E+04  0.50400001928E-02 0.  1.
       -1    1    3    3    0  502  0.19908424784E+03 -0.18113162965E+03  0.11313532961E+04  0.11629288395E+04  0.50400001928E-02 0. -1.
</event>
<event>
 5   0  0.1116462E-06  0.3270840E+04  0.7818609E-02  0.8170355E-01
       -2   -1    0    0    0  501  0.00000000000E+00  0.00000000000E+00  0.10999740146E+04  0.10999740146E+04  0.25500000920E-02 0.  1.
        2   -1    0    0  501    0  0.00000000000E+00  0.00000000000E+00 -0.24315105646E+04  0.24315105646E+04  0.25500000920E-02 0. -1.
    10030    2    1    2    0    0  0.00000000000E+00  0.00000000000E+00 -0.13315365500E+04  0.35314845791E+04  0.32708399149E+04 0.  0.
        1    1    3    3  502    0 -0.16287911698E+04 -0.60736986379E+02 -0.81041729792E+03  0.18202818059E+04  0.50400001928E-02 0.  1.
       -1    1    3    3    0  502  0.16287911698E+04  0.60736986379E+02 -0.52111925206E+03  0.17112027732E+04  0.50400001928E-02 0. -1.
</event>
<event>
 5   0  0.1126221E-06  0.3276305E+04  0.7818609E-02  0.8168951E-01
       -2   -1    0    0    0  501  0.00000000000E+00  0.00000000000E+00  0.11609095125E+04  0.11609095125E+04  0.25500000920E-02 0.  1.
        2   -1    0    0  501    0  0.00000000000E+00  0.00000000000E+00 -0.23115871304E+04  0.23115871304E+04  0.25500000920E-02 0. -1.
    10030    2    1    2    0    0  0.00000000000E+00  0.00000000000E+00 -0.11506776179E+04  0.34724966429E+04  0.32763049240E+04 0.  0.
        2    1    3    3  502    0  0.34398112876E+03 -0.13507606071E+04 -0.14874941363E+04  0.20385082880E+04  0.25500000920E-02 0. -1.
       -2    1    3    3    0  502 -0.34398112876E+03  0.13507606071E+04  0.33681651849E+03  0.14339883549E+04  0.25500000920E-02 0.  1.
</event>
<event>
 5   0  0.3709747E-07  0.3298295E+04  0.7818609E-02  0.8163329E-01
        1   -1    0    0  501    0  0.00000000000E+00  0.00000000000E+00  0.18253260394E+04  0.18253260394E+04  0.50400001928E-02 0.  1.
       -1   -1    0    0    0  501  0.00000000000E+00  0.00000000000E+00 -0.14899736552E+04  0.14899736552E+04  0.50400001928E-02 0. -1.
    10030    2    1    2    0    0  0.00000000000E+00  0.00000000000E+00  0.33535238421E+03  0.33152996946E+04  0.32982951420E+04 0.  0.
        4    1    3    3  502    0 -0.22727011703E+03  0.24234077920E+03  0.17913385784E+04  0.18218881071E+04  0.12699999809E+01 0.  1.
       -4    1    3    3    0  502  0.22727011703E+03 -0.24234077920E+03 -0.14559861942E+04  0.14934115876E+04  0.12699999809E+01 0. -1.
</event>
<event>
 5   0  0.3709747E-07  0.3253292E+04  0.7818609E-02  0.8174883E-01
       -1   -1    0    0    0  501  0.00000000000E+00  0.00000000000E+00  0.12735899071E+04  0.12735899071E+04  0.50400001928E-02 0. -1.
        1   -1    0    0  501    0  0.00000000000E+00  0.00000000000E+00 -0.20775742254E+04  0.20775742255E+04  0.50400001928E-02 0.  1.
    10030    2    1    2    0    0  0.00000000000E+00  0.00000000000E+00 -0.80398431832E+03  0.33511641326E+04  0.32532922186E+04 0.  0.
        4    1    3    3  502    0  0.76958860239E+02  0.11739415488E+04 -0.15591366565E+04  0.19531948579E+04  0.12699999809E+01 0.  1.
       -4    1    3    3    0  502 -0.76958860239E+02 -0.11739415488E+04  0.75515233820E+03  0.13979692747E+04  0.12699999809E+01 0. -1.
</event>
<event>
 5   0  0.3757406E-07  0.3283693E+04  0.7818609E-02  0.8167057E-01
        1   -1    0    0  501    0  0.00000000000E+00  0.00000000000E+00  0.20776386275E+04  0.20776386275E+04  0.50400001928E-02 0.  1.
       -1   -1    0    0    0  501  0.00000000000E+00  0.00000000000E+00 -0.12974633046E+04  0.12974633046E+04  0.50400001928E-02 0. -1.
    10030    2    1    2    0    0  0.00000000000E+00  0.00000000000E+00  0.78017532290E+03  0.33751019321E+04  0.32836929695E+04 0.  0.
        1    1    3    3  502    0 -0.70266257538E+02  0.13345133458E+04  0.13704723504E+04  0.19141728449E+04  0.50400001928E-02 0.  1.
       -1    1    3    3    0  502  0.70266257538E+02 -0.13345133458E+04 -0.59029702748E+03  0.14609290872E+04  0.50400001928E-02 0. -1.
</event>
<event>
 5   0  0.3674967E-07  0.3306251E+04  0.7818609E-02  0.8161307E-01
       -1   -1    0    0    0  501  0.00000000000E+00  0.00000000000E+00  0.13571122444E+04  0.13571122444E+04  0.50400001928E-02 0.  1.
        1   -1    0    0  501    0  0.00000000000E+00  0.00000000000E+00 -0.20137055094E+04  0.20137055094E+04  0.50400001928E-02 0. -1.
    10030    2    1    2    0    0  0.00000000000E+00  0.00000000000E+00 -0.65659326500E+03  0.33708177538E+04  0.33062512932E+04 0.  0.
        2    1    3    3  502    0  0.87045394160E+03 -0.89873146367E+03  0.77327375260E+03  0.14708367023E+04  0.25500000920E-02 0.  1.
       -2    1    3    3    0  502 -0.87045394160E+03  0.89873146367E+03 -0.14298670176E+04  0.18999810516E+04  0.25500000920E-02 0. -1.
</event>
<event>
 5   0  0.3674967E-07  0.3355894E+04  0.7818609E-02  0.8148817E-01
        1   -1    0    0  501    0  0.00000000000E+00  0.00000000000E+00  0.18981021179E+04  0.18981021179E+04  0.50400001928E-02 0. -1.
       -1   -1    0    0    0  501  0.00000000000E+00  0.00000000000E+00 -0.14833272178E+04  0.14833272178E+04  0.50400001928E-02 0.  1.
    10030    2    1    2    0    0  0.00000000000E+00  0.00000000000E+00  0.41477490011E+03  0.33814293357E+04  0.33558942377E+04 0.  0.
        2    1    3    3  502    0 -0.13404235115E+04  0.92483656671E+03 -0.19997664119E+03  0.16407463309E+04  0.25500000920E-02 0.  1.
       -2    1    3    3    0  502  0.13404235115E+04 -0.92483656671E+03  0.61475154130E+03  0.17406830047E+04  0.25500000920E-02 0. -1.
</event>
<event>
 5   0  0.1129434E-06  0.3252142E+04  0.7818609E-02  0.8175181E-01
        2   -1    0    0  501    0  0.00000000000E+00  0.00000000000E+00  0.18186236724E+04  0.18186236724E+04  0.25500000920E-02 0.  1.
       -2   -1    0    0    0  501  0.00000000000E+00  0.00000000000E+00 -0.14539057225E+04  0.14539057225E+04  0.25500000920E-02 0. -1.
    10030    2    1    2    0    0  0.00000000000E+00  0.00000000000E+00  0.36471794997E+03  0.32725293949E+04  0.32521422874E+04 0.  0.
        3    1    3    3  502    0 -0.32796946900E+03 -0.30676386788E+03 -0.13902686791E+04  0.14609979649E+04  0.10100000352E+00 0. -1.
       -3    1    3    3    0  502  0.32796946900E+03  0.30676386788E+03  0.17549866291E+04  0.18115314299E+04  0.10100000352E+00 0.  1.
</event>
<event>
 5   0  0.1116462E-06  0.3301604E+04  0.7818609E-02  0.8162487E-01
        2   -1    0    0  501    0  0.00000000000E+00  0.00000000000E+00  0.23838743332E+04  0.23838743332E+04  0.25500000920E-02 0. -1.
       -2   -1    0    0    0  501  0.00000000000E+00  0.00000000000E+00 -0.11431590546E+04  0.11431590546E+04  0.25500000920E-02 0.  1.
    10030    2    1    2    0    0  0.00000000000E+00  0.00000000000E+00  0.12407152786E+04  0.35270333878E+04  0.33016041731E+04 0.  0.
        1    1    3    3  502    0 -0.20602064178E+03 -0.15538878965E+04  0.67183757005E+02  0.15689250323E+04  0.50400001928E-02 0.  1.
       -1    1    3    3    0  502  0.20602064178E+03  0.15538878965E+04  0.11735315216E+04  0.19581083555E+04  0.50400001928E-02 0. -1.
</event>
<event>
 5   0  0.1129434E-06  0.3320696E+04  0.7818609E-02  0.8157649E-01
        2   -1    0    0  501    0  0.00000000000E+00  0.00000000000E+00  0.21553530329E+04  0.21553530329E+04  0.25500000920E-02 0.  1.
       -2   -1    0    0    0  501  0.00000000000E+00  0.00000000000E+00 -0.12790274329E+04  0.12790274329E+04  0.25500000920E-02 0. -1.
    10030    2    1    2    0    0  0.00000000000E+00  0.00000000000E+00  0.87632560005E+03  0.34343804658E+04  0.33206961058E+04 0.  0.
        3    1    3    3  502    0  0.12748687018E+04 -0.10495220520E+04  0.25912089600E+03  0.16715054273E+04  0.10100000352E+00 0. -1.
       -3    1    3    3    0  502 -0.12748687018E+04  0.10495220520E+04  0.61720470405E+03  0.17628750385E+04  0.10100000352E+00 0.  1.
</event>
<event>
 5   0  0.3757406E-07  0.3299058E+04  0.7818609E-02  0.8163135E-01
        1   -1    0    0  501    0  0.00000000000E+00  0.00000000000E+00  0.22363996806E+04  0.22363996806E+04  0.50400001928E-02 0. -1.
       -1   -1    0    0    0  501  0.00000000000E+00  0.00000000000E+00 -0.12166637607E+04  0.12166637607E+04  0.50400001928E-02 0.  1.
    10030    2    1    2    0    0  0.00000000000E+00  0.00000000000E+00  0.10197359198E+04  0.34530634413E+04  0.32990583177E+04 0.  0.
        1    1    3    3  502    0  0.19485757686E+03 -0.15214461542E+04  0.11449704541E+04  0.19140860002E+04  0.50400001928E-02 0.  1.
       -1    1    3    3    0  502 -0.19485757686E+03  0.15214461542E+04 -0.12523453427E+03  0.15389774411E+04  0.50400001928E-02 0. -1.
</event>
<event>
 5   0  0.1126221E-06  0.3294546E+04  0.7818609E-02  0.8164285E-01
        2   -1    0    0  501    0  0.00000000000E+00  0.00000000000E+00  0.21155455849E+04  0.21155455849E+04  0.25500000920E-02 0. -1.
       -2   -1    0    0    0  501  0.00000000000E+00  0.00000000000E+00 -0.12826516298E+04  0.12826516298E+04  0.25500000920E-02 0.  1.
    10030    2    1    2    0    0  0.00000000000E+00  0.00000000000E+00  0.83289395517E+03  0.33981972147E+04  0.32945457911E+04 0.  0.
        2    1    3    3  502    0  0.12731191113E+04 -0.10404087292E+04  0.52074909461E+03  0.17246629279E+04  0.25500000920E-02 0.  1.
       -2    1    3    3    0  502 -0.12731191113E+04  0.10404087292E+04  0.31214486056E+03  0.16735342868E+04  0.25500000920E-02 0. -1.
</event>
<event>
 5   0  0.1126221E-06  0.3303491E+04  0.7818609E-02  0.8162008E-01
        2   -1    0    0  501    0  0.00000000000E+00  0.00000000000E+00  0.28941636231E+04  0.28941636231E+04  0.25500000920E-02 0.  1.
       -2   -1    0    0    0  501  0.00000000000E+00  0.00000000000E+00 -0.94267784488E+03  0.94267784488E+03  0.25500000920E-02 0. -1.
    10030    2    1    2    0    0  0.00000000000E+00  0.00000000000E+00  0.19514857782E+04  0.38368414680E+04  0.33034914421E+04 0.  0.
        2    1    3    3  502    0  0.22128364357E+03  0.66030207768E+03 -0.76383634973E+03  0.10336398086E+04  0.25500000920E-02 0. -1.
       -2    1    3    3    0  502 -0.22128364357E+03 -0.66030207768E+03  0.27153221279E+04  0.28032016594E+04  0.25500000920E-02 0.  1.
</event>
<event>
 5   0  0.3757406E-07  0.3304156E+04  0.7818609E-02  0.8161839E-01
        1   -1    0    0  501    0  0.00000000000E+00  0.00000000000E+00  0.16906842178E+04  0.16906842178E+04  0.50400001928E-02 0. -1.
       -1   -1    0    0    0  501  0.00000000000E+00  0.00000000000E+00 -0.16143535871E+04  0.16143535871E+04  0.50400001928E-02 0.  1.
    10030    2    1    2    0    0  0.00000000000E+00  0.00000000000E+00  0.76330630765E+02  0.33050378049E+04  0.33041562503E+04 0.  0.
        1    1    3    3  502    0 -0.43783035803E+03 -0.23229386670E+03 -0.15382330352E+04  0.16161116092E+04  0.50400001928E-02 0.  1.
       -1    1    3    3    0  502  0.43783035803E+03  0.23229386670E+03  0.16145636660E+04  0.16889261957E+04  0.50400001928E-02 0. -1.
</event>
<event>
 5   0  0.3709747E-07  0.3309534E+04  0.7818609E-02  0.8160474E-01
        1   -1    0    0  501    0  0.00000000000E+00  0.00000000000E+00  0.16514398237E+04  0.16514398237E+04  0.50400001928E-02 0. -1.
       -1   -1    0    0    0  501  0.00000000000E+00  0.00000000000E+00 -0.16581010103E+04  0.16581010104E+04  0.50400001928E-02 0.  1.
    10030    2    1    2    0    0  0.00000000000E+00  0.00000000000E+00 -0.66611866599E+01  0.33095408341E+04  0.33095341305E+04 0.  0.
        4    1    3    3  502    0  0.14080611082E+04 -0.43291821540E+03  0.75046013593E+03  0.16532532456E+04  0.12699999809E+01 0. -1.
       -4    1    3    3    0  502 -0.14080611082E+04  0.43291821540E+03 -0.75712132259E+03  0.16562875884E+04  0.12699999809E+01 0.  1.
</event>
<event>
 5   0  0.3796529E-07  0.3287651E+04  0.7818609E-02  0.8166045E-01
        1   -1    0    0  501    0  0.00000000000E+00  0.00000000000E+00  0.20592980205E+04  0.20592980205E+04  0.50400001928E-02 0.  1.
       -1   -1    0    0    0  501  0.00000000000E+00  0.00000000000E+00 -0.13121763297E+04  0.13121763297E+04  0.50400001928E-02 0. -1.
    10030    2    1    2    0    0  0.00000000000E+00  0.00000000000E+00  0.74712169073E+03  0.33714743502E+04  0.32876509050E+04 0.  0.
        5    1    3    3  502    0  0.15894342512E+04  0.41286839953E+03  0.44876878683E+03  0.17024033213E+04  0.46999998093E+01 0.  1.
       -5    1    3    3    0  502 -0.15894342512E+04 -0.41286839953E+03  0.29835290390E+03  0.16690710289E+04  0.46999998093E+01 0. -1.
</event>
<event>
 5   0  0.1120545E-06  0.3323271E+04  0.7818609E-02  0.8156999E-01
       -2   -1    0    0    0  501  0.00000000000E+00  0.00000000000E+00  0.11289217028E+04  0.11289217028E+04  0.25500000920E-02 0.  1.
        2   -1    0    0  501    0  0.00000000000E+00  0.00000000000E+00 -0.24457254323E+04  0.24457254323E+04  0.25500000920E-02 0. -1.
    10030    2    1    2    0    0  0.00000000000E+00  0.00000000000E+00 -0.13168037296E+04  0.35746471351E+04  0.33232709908E+04 0.  0.
        4    1    3    3  502    0  0.12356706312E+04 -0.52016043485E+03  0.39747138520E+03  0.13983682998E+04  0.12699999809E+01 0.  1.
       -4    1    3    3    0  502 -0.12356706312E+04  0.52016043485E+03 -0.17142751148E+04  0.21762788353E+04  0.12699999809E+01 0. -1.
</event>
<event>
 5   0  0.3796529E-07  0.3312980E+04  0.7818609E-02  0.8159600E-01
       -1   -1    0    0    0  501  0.00000000000E+00  0.00000000000E+00  0.14463279194E+04  0.14463279195E+04  0.50400001928E-02 0. -1.
        1   -1    0    0  501    0  0.00000000000E+00  0.00000000000E+00 -0.18971900116E+04  0.18971900116E+04  0.50400001928E-02 0.  1.
    10030    2    1    2    0    0  0.00000000000E+00  0.00000000000E+00 -0.45086209217E+03  0.33435179311E+04  0.33129798565E+04 0.  0.
        5    1    3    3  502    0  0.51436772862E+03  0.11844204019E+04 -0.12725453348E+04  0.18129587882E+04  0.46999998093E+01 0.  1.
       -5    1    3    3    0  502 -0.51436772862E+03 -0.11844204019E+04  0.82168324263E+03  0.15305591429E+04  0.46999998093E+01 0. -1.
</event>
<event>
 5   0  0.1116462E-06  0.3300318E+04  0.7818609E-02  0.8162815E-01
       -2   -1    0    0    0  501  0.00000000000E+00  0.00000000000E+00  0.13530392855E+04  0.13530392855E+04  0.25500000920E-02 0.  1.
        2   -1    0    0  501    0  0.00000000000E+00  0.00000000000E+00 -0.20125242002E+04  0.20125242002E+04  0.25500000920E-02 0. -1.
    10030    2    1    2    0    0  0.00000000000E+00  0.00000000000E+00 -0.65948491469E+03  0.33655634858E+04  0.33003177459E+04 0.  0.
        1    1    3    3  502    0  0.12955216179E+04 -0.69406465439E+03 -0.10948566516E+04  0.18327064944E+04  0.50400001928E-02 0. -1.
       -1    1    3    3    0  502 -0.12955216179E+04  0.69406465439E+03  0.43537173695E+03  0.15328569914E+04  0.50400001928E-02 0.  1.
</event>
<event>
 5   0  0.3796529E-07  0.3293950E+04  0.7818609E-02  0.8164436E-01
       -1   -1    0    0    0  501  0.00000000000E+00  0.00000000000E+00  0.18608421015E+04  0.18608421015E+04  0.50400001928E-02 0.  1.
        1   -1    0    0  501    0  0.00000000000E+00  0.00000000000E+00 -0.14576881257E+04  0.14576881257E+04  0.50400001928E-02 0. -1.
    10030    2    1    2    0    0  0.00000000000E+00  0.00000000000E+00  0.40315397578E+03  0.33185302272E+04  0.32939504763E+04 0.  0.
        5    1    3    3  502    0 -0.84594333638E+03 -0.58030036134E+03  0.14996545369E+04  0.18169629765E+04  0.46999998093E+01 0.  1.
       -5    1    3    3    0  502  0.84594333638E+03  0.58030036134E+03 -0.10965005612E+04  0.15015672507E+04  0.46999998093E+01 0. -1.
</event>
<event>
 5   0  0.3749685E-07  0.3318348E+04  0.7818609E-02  0.8158242E-01
       -1   -1    0    0    0  501  0.00000000000E+00  0.00000000000E+00  0.11417484271E+04  0.11417484271E+04  0.50400001928E-02 0.  1.
        1   -1    0    0  501    0  0.00000000000E+00  0.00000000000E+00 -0.24110896324E+04  0.24110896324E+04  0.50400001928E-02 0. -1.
    10030    2    1    2    0    0  0.00000000000E+00  0.00000000000E+00 -0.12693412053E+04  0.35528380595E+04  0.33183476584E+04 0.  0.
        3    1    3    3  502    0  0.69754854387E+03 -0.13175164975E+02  0.97706590649E+03  0.12005854205E+04  0.10100000352E+00 0.  1.
       -3    1    3    3    0  502 -0.69754854387E+03  0.13175164975E+02 -0.22464071118E+04  0.23522526391E+04  0.10100000352E+00 0. -1.
</event>
<event>
 5   0  0.3749685E-07  0.3295580E+04  0.7818609E-02  0.8164021E-01
        1   -1    0    0  501    0  0.00000000000E+00  0.00000000000E+00  0.24042433086E+04  0.24042433086E+04  0.50400001928E-02 0. -1.
       -1   -1    0    0    0  501  0.00000000000E+00  0.00000000000E+00 -0.11293416609E+04  0.11293416609E+04  0.50400001928E-02 0.  1.
    10030    2    1    2    0    0  0.00000000000E+00  0.00000000000E+00  0.12749016477E+04  0.35335849696E+04  0.32955801501E+04 0.  0.
        3    1    3    3  502    0 -0.47019091962E+03  0.10813667867E+04 -0.59666322168E+03  0.13215296586E+04  0.10100000352E+00 0.  1.
       -3    1    3    3    0  502  0.47019091962E+03 -0.10813667867E+04  0.18715648694E+04  0.22120553110E+04  0.10100000352E+00 0. -1.
</event>
<event>
 5   0  0.3573375E-07  0.3298598E+04  0.7818609E-02  0.8163252E-01
       -3   -1    0    0    0  501  0.00000000000E+00  0.00000000000E+00  0.17124468524E+04  0.17124468554E+04  0.10100000352E+00 0.  1.
        3   -1    0    0  501    0  0.00000000000E+00  0.00000000000E+00 -0.15884800312E+04  0.15884800344E+04  0.10100000352E+00 0. -1.
    10030    2    1    2    0    0  0.00000000000E+00  0.00000000000E+00  0.12396682114E+03  0.33009268898E+04  0.32985982719E+04 0.  0.
        2    1    3    3  502    0  0.49160125189E+03  0.77628033681E+03  0.14325869933E+04  0.17019366750E+04  0.25500000920E-02 0.  1.
       -2    1    3    3    0  502 -0.49160125189E+03 -0.77628033681E+03 -0.13086201722E+04  0.15989902148E+04  0.25500000920E-02 0. -1.
</event>
<event>
 5   0  0.1120545E-06  0.2985238E+04  0.7818609E-02  0.8247959E-01
        2   -1    0    0  501    0  0.00000000000E+00  0.00000000000E+00  0.17982718581E+04  0.17982718581E+04  0.25500000920E-02 0. -1.
       -2   -1    0    0    0  501  0.00000000000E+00  0.00000000000E+00 -0.12389182257E+04  0.12389182257E+04  0.25500000920E-02 0.  1.
    10030    2    1    2    0    0  0.00000000000E+00  0.00000000000E+00  0.55935363240E+03  0.30371900837E+04  0.29852382013E+04 0.  0.
        4    1    3    3  502    0  0.11863023166E+04 -0.32206124728E+03 -0.58174180591E+03  0.13599491811E+04  0.12699999809E+01 0.  1.
       -4    1    3    3    0  502 -0.11863023166E+04  0.32206124728E+03  0.11410954383E+04  0.16772409027E+04  0.12699999809E+01 0. -1.
</event>
<event>
 5   0  0.1129434E-06  0.3255891E+04  0.7818609E-02  0.8174211E-01
       -2   -1    0    0    0  501  0.00000000000E+00  0.00000000000E+00  0.11031438758E+04  0.11031438758E+04  0.25500000920E-02 0.  1.
        2   -1    0    0  501    0  0.00000000000E+00  0.00000000000E+00 -0.24024118528E+04  0.24024118528E+04  0.25500000920E-02 0. -1.
    10030    2    1    2    0    0  0.00000000000E+00  0.00000000000E+00 -0.12992679769E+04  0.35055557286E+04  0.32558906140E+04 0.  0.
        3    1    3    3  502    0  0.14567705438E+04 -0.29443943405E+03  0.65634751407E+02  0.14876770242E+04  0.10100000352E+00 0. -1.
       -3    1    3    3    0  502 -0.14567705438E+04  0.29443943405E+03 -0.13649027283E+04  0.20178787044E+04  0.10100000352E+00 0.  1.
</event>
<event>
 5   0  0.1126221E-06  0.3341449E+04  0.7818609E-02  0.8152428E-01
       -2   -1    0    0    0  501  0.00000000000E+00  0.00000000000E+00  0.14725772236E+04  0.14725772236E+04  0.25500000920E-02 0.  1.
        2   -1    0    0  501    0  0.00000000000E+00  0.00000000000E+00 -0.18955338315E+04  0.18955338315E+04  0.25500000920E-02 0. -1.
    10030    2    1    2    0    0  0.00000000000E+00  0.00000000000E+00 -0.42295660786E+03  0.33681110551E+04  0.33414487558E+04 0.  0.
        2    1    3    3  502    0  0.83929256969E+03 -0.12107306748E+04 -0.10058268252E+04  0.17838072728E+04  0.25500000920E-02 0.  1.
       -2    1    3    3    0  502 -0.83929256969E+03  0.12107306748E+04  0.58287021732E+03  0.15843037823E+04  0.25500000920E-02 0. -1.
</event>
<event>
 5   0  0.1116462E-06  0.3305653E+04  0.7818609E-02  0.8161459E-01
       -2   -1    0    0    0  501  0.00000000000E+00  0.00000000000E+00  0.17649787893E+04  0.17649787893E+04  0.25500000920E-02 0. -1.
        2   -1    0    0  501    0  0.00000000000E+00  0.00000000000E+00 -0.15478002877E+04  0.15478002877E+04  0.25500000920E-02 0.  1.
    10030    2    1    2    0    0  0.00000000000E+00  0.00000000000E+00  0.21717850158E+03  0.33127790770E+04  0.33056525395E+04 0.  0.
        1    1    3    3  502    0  0.55127854387E+03 -0.14404595302E+04 -0.48683218021E+03  0.16173550206E+04  0.50400001928E-02 0.  1.
       -1    1    3    3    0  502 -0.55127854387E+03  0.14404595302E+04  0.70401068179E+03  0.16954240564E+04  0.50400001928E-02 0. -1.
</event>
<event>
 5   0  0.1146799E-06  0.3299979E+04  0.7818609E-02  0.8162901E-01
       -2   -1    0    0    0  501  0.00000000000E+00  0.00000000000E+00  0.12445660665E+04  0.12445660665E+04  0.25500000920E-02 0.  1.
        2   -1    0    0  501    0  0.00000000000E+00  0.00000000000E+00 -0.21874815152E+04  0.21874815152E+04  0.25500000920E-02 0. -1.
    10030    2    1    2    0    0  0.00000000000E+00  0.00000000000E+00 -0.94291544874E+03  0.34320475817E+04  0.32999789483E+04 0.  0.
        5    1    3    3  502    0  0.41455430096E+03 -0.15880357222E+04 -0.64774191043E+03  0.17644558357E+04  0.46999998093E+01 0. -1.
       -5    1    3    3    0  502 -0.41455430096E+03  0.15880357222E+04 -0.29517353831E+03  0.16675917460E+04  0.46999998093E+01 0.  1.
</event>
<event>
 5   0  0.1129434E-06  0.3301892E+04  0.7818609E-02  0.8162414E-01
       -2   -1    0    0    0  501  0.00000000000E+00  0.00000000000E+00  0.18551644163E+04  0.18551644163E+04  0.25500000920E-02 0. -1.
        2   -1    0    0  501    0  0.00000000000E+00  0.00000000000E+00 -0.14692086029E+04  0.14692086029E+04  0.25500000920E-02 0.  1.
    10030    2    1    2    0    0  0.00000000000E+00  0.00000000000E+00  0.38595581345E+03  0.33243730192E+04  0.33018924999E+04 0.  0.
        3    1    3    3  502    0 -0.15519102843E+04  0.21072803150E+03 -0.33287269622E+03  0.16011358706E+04  0.10100000352E+00 0.  1.
       -3    1    3    3    0  502  0.15519102843E+04 -0.21072803150E+03  0.71882850966E+03  0.17232371486E+04  0.10100000352E+00 0. -1.
</event>
<event>
 5   0  0.3749685E-07  0.3315594E+04  0.7818609E-02  0.8158939E-01
        1   -1    0    0  501    0  0.00000000000E+00  0.00000000000E+00  0.29175018237E+04  0.29175018237E+04  0.50400001928E-02 0.  1.
       -1   -1    0    0    0  501  0.00000000000E+00  0.00000000000E+00 -0.94200128953E+03  0.94200128955E+03  0.50400001928E-02 0. -1.
    10030    2    1    2    0    0  0.00000000000E+00  0.00000000000E+00  0.19755005341E+04  0.38595031132E+04  0.33155937508E+04 0.  0.
        3    1    3    3  502    0  0.51634796669E+03  0.13145279052E+04 -0.22820963543E+02  0.14124870416E+04  0.10100000352E+00 0. -1.
       -3    1    3    3    0  502 -0.51634796669E+03 -0.13145279052E+04  0.19983214977E+04  0.24470160716E+04  0.10100000352E+00 0.  1.
</event>
<event>
 5   0  0.3749685E-07  0.3328643E+04  0.7818609E-02  0.8155645E-01
       -1   -1    0    0    0  501  0.00000000000E+00  0.00000000000E+00  0.18529733942E+04  0.18529733942E+04  0.50400001928E-02 0.  1.
        1   -1    0    0  501    0  0.00000000000E+00  0.00000000000E+00 -0.14948766035E+04  0.14948766035E+04  0.50400001928E-02 0. -1.
    10030    2    1    2    0    0  0.00000000000E+00  0.00000000000E+00  0.35809679074E+03  0.33478499977E+04  0.33286433116E+04 0.  0.
        3    1    3    3  502    0 -0.12196648498E+04  0.82720112827E+03  0.95689472207E+03  0.17571259408E+04  0.10100000352E+00 0.  1.
       -3    1    3    3    0  502  0.12196648498E+04 -0.82720112827E+03 -0.59879793133E+03  0.15907240569E+04  0.10100000352E+00 0. -1.
</event>
<event>
 5   0  0.3796529E-07  0.3488014E+04  0.7818609E-02  0.8116636E-01
       -1   -1    0    0    0  501  0.00000000000E+00  0.00000000000E+00  0.16111894850E+04  0.16111894850E+04  0.50400001928E-02 0. -1.
        1   -1    0    0  501    0  0.00000000000E+00  0.00000000000E+00 -0.18877731777E+04  0.18877731777E+04  0.50400001928E-02 0.  1.
    10030    2    1    2    0    0  0.00000000000E+00  0.00000000000E+00 -0.27658369272E+03  0.34989626627E+04  0.34880139300E+04 0.  0.
        5    1    3    3  502    0  0.16296933371E+04 -0.59131279275E+03  0.52006052247E+02  0.17344387886E+04  0.46999998093E+01 0. -1.
       -5    1    3    3    0  502 -0.16296933371E+04  0.59131279275E+03 -0.32858974497E+03  0.17645238741E+04  0.46999998093E+01 0.  1.
</event>
<event>
 5   0  0.3749685E-07  0.3334106E+04  0.7818609E-02  0.8154271E-01
       -1   -1    0    0    0  501  0.00000000000E+00  0.00000000000E+00  0.13769112418E+04  0.13769112418E+04  0.50400001928E-02 0.  1.
        1   -1    0    0  501    0  0.00000000000E+00  0.00000000000E+00 -0.20183330631E+04  0.20183330631E+04  0.50400001928E-02 0. -1.
    10030    2    1    2    0    0  0.00000000000E+00  0.00000000000E+00 -0.64142182128E+03  0.33952443049E+04  0.33341058677E+04 0.  0.
        3    1    3    3  502    0 -0.49639154940E+03  0.13212872462E+04 -0.12240288410E+04  0.18682749185E+04  0.10100000352E+00 0.  1.
       -3    1    3    3    0  502  0.49639154940E+03 -0.13212872462E+04  0.58260701976E+03  0.15269693864E+04  0.10100000352E+00 0. -1.
</event>
<event>
 5   0  0.1126221E-06  0.3289035E+04  0.7818609E-02  0.8165691E-01
       -2   -1    0    0    0  501  0.00000000000E+00  0.00000000000E+00  0.15434416731E+04  0.15434416731E+04  0.25500000920E-02 0. -1.
        2   -1    0    0  501    0  0.00000000000E+00  0.00000000000E+00 -0.17522130297E+04  0.17522130297E+04  0.25500000920E-02 0.  1.
    10030    2    1    2    0    0  0.00000000000E+00  0.00000000000E+00 -0.20877135657E+03  0.32956547028E+04  0.32890354879E+04 0.  0.
        2    1    3    3  502    0 -0.11723390049E+04  0.67527274407E+03  0.83241113189E+03  0.15884836523E+04  0.25500000920E-02 0. -1.
       -2    1    3    3    0  502  0.11723390049E+04 -0.67527274407E+03 -0.10411824885E+04  0.17071710504E+04  0.25500000920E-02 0.  1.
</event>
<event>
 5   0  0.1129434E-06  0.3286737E+04  0.7818609E-02  0.8166278E-01
       -2   -1    0    0    0  501  0.00000000000E+00  0.00000000000E+00  0.10656571062E+04  0.10656571063E+04  0.25500000920E-02 0. -1.
        2   -1    0    0  501    0  0.00000000000E+00  0.00000000000E+00 -0.25342678422E+04  0.25342678422E+04  0.25500000920E-02 0.  1.
    10030    2    1    2    0    0  0.00000000000E+00  0.00000000000E+00 -0.14686107359E+04  0.35999249484E+04  0.32867373093E+04 0.  0.
        3    1    3    3  502    0 -0.10381118419E+04  0.11330640895E+03  0.65552270226E+03  0.12329738691E+04  0.10100000352E+00 0. -1.
       -3    1    3    3    0  502  0.10381118419E+04 -0.11330640895E+03 -0.21241334382E+04  0.23669510793E+04  0.10100000352E+00 0.  1.
</event>
<event>
 5   0  0.3749685E-07  0.3278558E+04  0.7818609E-02  0.8168373E-01
       -1   -1    0    0    0  501  0.00000000000E+00  0.00000000000E+00  0.14290977776E+04  0.14290977776E+04  0.50400001928E-02 0. -1.
        1   -1    0    0  501    0  0.00000000000E+00  0.00000000000E+00 -0.18803719509E+04  0.18803719509E+04  0.50400001928E-02 0.  1.
    10030    2    1    2    0    0  0.00000000000E+00  0.00000000000E+00 -0.45127417327E+03  0.33094697286E+04  0.32785578392E+04 0.  0.
        3    1    3    3  502    0 -0.47261287492E+03 -0.27924049559E+03  0.13335614746E+04  0.14421249602E+04  0.10100000352E+00 0. -1.
       -3    1    3    3    0  502  0.47261287492E+03  0.27924049559E+03 -0.17848356479E+04  0.18673447684E+04  0.10100000352E+00 0.  1.
</event>
<event>
 5   0  0.3674967E-07  0.3264351E+04  0.7818609E-02  0.8172026E-01
       -1   -1    0    0    0  501  0.00000000000E+00  0.00000000000E+00  0.14849676574E+04  0.14849676574E+04  0.50400001928E-02 0. -1.
        1   -1    0    0  501    0  0.00000000000E+00  0.00000000000E+00 -0.17939762543E+04  0.17939762544E+04  0.50400001928E-02 0.  1.
    10030    2    1    2    0    0  0.00000000000E+00  0.00000000000E+00 -0.30900859694E+03  0.32789439118E+04  0.32643509100E+04 0.  0.
        2    1    3    3  502    0  0.94687372767E+03 -0.56527179623E+02  0.11796772813E+04  0.15137383084E+04  0.25500000920E-02 0. -1.
       -2    1    3    3    0  502 -0.94687372767E+03  0.56527179623E+02 -0.14886858782E+04  0.17652056034E+04  0.25500000920E-02 0.  1.
</event>
<event>
 5   0  0.1126221E-06  0.3326217E+04  0.7818609E-02  0.8156256E-01
        2   -1    0    0  501    0  0.00000000000E+00  0.00000000000E+00  0.14402708210E+04  0.14402708210E+04  0.25500000920E-02 0. -1.
       -2   -1    0    0    0  501  0.00000000000E+00  0.00000000000E+00 -0.19204229269E+04  0.19204229269E+04  0.25500000920E-02 0.  1.
    10030    2    1    2    0    0  0.00000000000E+00  0.00000000000E+00 -0.48015210584E+03  0.33606937479E+04  0.33262165327E+04 0.  0.
        2    1    3    3  502    0  0.11388750332E+04 -0.32391972967E+03  0.93992021580E+03  0.15117573696E+04  0.25500000920E-02 0. -1.
       -2    1    3    3    0  502 -0.11388750332E+04  0.32391972967E+03 -0.14200723216E+04  0.18489363783E+04  0.25500000920E-02 0.  1.
</event>
<event>
 5   0  0.3709747E-07  0.3272534E+04  0.7818609E-02  0.8169919E-01
        1   -1    0    0  501    0  0.00000000000E+00  0.00000000000E+00  0.20130967588E+04  0.20130967588E+04  0.50400001928E-02 0.  1.
       -1   -1    0    0    0  501  0.00000000000E+00  0.00000000000E+00 -0.13299757064E+04  0.13299757064E+04  0.50400001928E-02 0. -1.
    10030    2    1    2    0    0  0.00000000000E+00  0.00000000000E+00  0.68312105241E+03  0.33430724652E+04  0.32725340541E+04 0.  0.
        4    1    3    3  502    0  0.72500627454E+03  0.12588661113E+04 -0.42765738315E+03  0.15143547915E+04  0.12699999809E+01 0. -1.
       -4    1    3    3    0  502 -0.72500627454E+03 -0.12588661113E+04  0.11107784356E+04  0.18287176737E+04  0.12699999809E+01 0.  1.
</event>
<event>
 5   0  0.1116462E-06  0.3260489E+04  0.7818609E-02  0.8173022E-01
        2   -1    0    0  501    0  0.00000000000E+00  0.00000000000E+00  0.18289439185E+04  0.18289439185E+04  0.25500000920E-02 0. -1.
       -2   -1    0    0    0  501  0.00000000000E+00  0.00000000000E+00 -0.14531325341E+04  0.14531325341E+04  0.25500000920E-02 0.  1.
    10030    2    1    2    0    0  0.00000000000E+00  0.00000000000E+00  0.37581138438E+03  0.32820764526E+04  0.32604894792E+04 0.  0.
        1    1    3    3  502    0 -0.10834935536E+04 -0.96406952225E+03  0.93735469296E+03  0.17268532494E+04  0.50400001928E-02 0. -1.
       -1    1    3    3    0  502  0.10834935536E+04  0.96406952225E+03 -0.56154330859E+03  0.15552232032E+04  0.50400001928E-02 0.  1.
</event>
<event>
 5   0  0.3709747E-07  0.3304398E+04  0.7818609E-02  0.8161777E-01
        1   -1    0    0  501    0  0.00000000000E+00  0.00000000000E+00  0.22917739454E+04  0.22917739454E+04  0.50400001928E-02 0.  1.
       -1   -1    0    0    0  501  0.00000000000E+00  0.00000000000E+00 -0.11911127311E+04  0.11911127312E+04  0.50400001928E-02 0. -1.
    10030    2    1    2    0    0  0.00000000000E+00  0.00000000000E+00  0.11006612142E+04  0.34828866765E+04  0.33043977504E+04 0.  0.
        4    1    3    3  502    0  0.71851410160E+03 -0.16393176801E+03 -0.10082670497E+04  0.12488955902E+04  0.12699999809E+01 0. -1.
       -4    1    3    3    0  502 -0.71851410160E+03  0.16393176801E+03  0.21089282639E+04  0.22339910864E+04  0.12699999809E+01 0.  1.
</event>
<event>
 5   0  0.3749685E-07  0.3318902E+04  0.7818609E-02  0.8158102E-01
        1   -1    0    0  501    0  0.00000000000E+00  0.00000000000E+00  0.21649166392E+04  0.21649166392E+04  0.50400001928E-02 0. -1.
       -1   -1    0    0    0  501  0.00000000000E+00  0.00000000000E+00 -0.12720018737E+04  0.12720018737E+04  0.50400001928E-02 0.  1.
    10030    2    1    2    0    0  0.00000000000E+00  0.00000000000E+00  0.89291476545E+03  0.34369185129E+04  0.33189022411E+04 0.  0.
        3    1    3    3  502    0 -0.58144940289E+03 -0.83122576982E+03 -0.91354259011E+03  0.13651299435E+04  0.10100000352E+00 0.  1.
       -3    1    3    3    0  502  0.58144940289E+03  0.83122576982E+03  0.18064573556E+04  0.20717885694E+04  0.10100000352E+00 0. -1.
</event>
<event>
 5   0  0.3674967E-07  0.3281505E+04  0.7818609E-02  0.8167618E-01
        1   -1    0    0  501    0  0.00000000000E+00  0.00000000000E+00  0.19569904363E+04  0.19569904363E+04  0.50400001928E-02 0.  1.
       -1   -1    0    0    0  501  0.00000000000E+00  0.00000000000E+00 -0.13756164781E+04  0.13756164781E+04  0.50400001928E-02 0. -1.
    10030    2    1    2    0    0  0.00000000000E+00  0.00000000000E+00  0.58137395815E+03  0.33326069144E+04  0.32815047108E+04 0.  0.
        2    1    3    3  502    0  0.52989181770E+03  0.99379569185E+03  0.15024373028E+04  0.18776935491E+04  0.25500000920E-02 0.  1.
       -2    1    3    3    0  502 -0.52989181770E+03 -0.99379569185E+03 -0.92106334464E+03  0.14549133653E+04  0.25500000920E-02 0. -1.
</event>
<event>
 5   0  0.1116462E-06  0.3333426E+04  0.7818609E-02  0.8154442E-01
       -2   -1    0    0    0  501  0.00000000000E+00  0.00000000000E+00  0.12223083413E+04  0.12223083413E+04  0.25500000920E-02 0. -1.
        2   -1    0    0  501    0  0.00000000000E+00  0.00000000000E+00 -0.22726939861E+04  0.22726939861E+04  0.25500000920E-02 0.  1.
    10030    2    1    2    0    0  0.00000000000E+00  0.00000000000E+00 -0.10503856448E+04  0.34950023275E+04  0.33334263553E+04 0.  0.
        1    1    3    3  502    0 -0.87940826808E+03 -0.14144180159E+04 -0.45891822258E+03  0.17275830402E+04  0.50400001928E-02 0.  1.
       -1    1    3    3    0  502  0.87940826808E+03  0.14144180159E+04 -0.59146742220E+03  0.17674192873E+04  0.50400001928E-02 0. -1.
</event>
<event>
 5   0  0.1146799E-06  0.3304446E+04  0.7818609E-02  0.8161765E-01
        2   -1    0    0  501    0  0.00000000000E+00  0.00000000000E+00  0.17195793098E+04  0.17195793098E+04  0.25500000920E-02 0. -1.
       -2   -1    0    0    0  501  0.00000000000E+00  0.00000000000E+00 -0.15875049369E+04  0.15875049369E+04  0.25500000920E-02 0.  1.
    10030    2    1    2    0    0  0.00000000000E+00  0.00000000000E+00  0.13207437291E+03  0.33070842468E+04  0.33044458802E+04 0.  0.
        5    1    3    3  502    0  0.15231731653E+04  0.44353797690E+03  0.52796407448E+03  0.16719900066E+04  0.46999998093E+01 0. -1.
       -5    1    3    3    0  502 -0.15231731653E+04 -0.44353797690E+03 -0.39588970158E+03  0.16350942401E+04  0.46999998093E+01 0.  1.
</event>
<event>
 5   0  0.3796529E-07  0.3293491E+04  0.7818609E-02  0.8164554E-01
       -1   -1    0    0    0  501  0.00000000000E+00  0.00000000000E+00  0.11085379601E+04  0.11085379601E+04  0.50400001928E-02 0.  1.
        1   -1    0    0  501    0  0.00000000000E+00  0.00000000000E+00 -0.24462583265E+04  0.24462583265E+04  0.50400001928E-02 0. -1.
    10030    2    1    2    0    0  0.00000000000E+00  0.00000000000E+00 -0.13377203664E+04  0.35547962866E+04  0.32934906802E+04 0.  0.
        5    1    3    3  502    0  0.23383450279E+03  0.40768569902E+03  0.10346043889E+04  0.11363602138E+04  0.46999998093E+01 0.  1.
       -5    1    3    3    0  502 -0.23383450279E+03 -0.40768569902E+03 -0.23723247553E+04  0.24184360728E+04  0.46999998093E+01 0. -1.
</event>
<event>
 5   0  0.1120545E-06  0.3297143E+04  0.7818609E-02  0.8163623E-01
        2   -1    0    0  501    0  0.00000000000E+00  0.00000000000E+00  0.17062651710E+04  0.17062651710E+04  0.25500000920E-02 0.  1.
       -2   -1    0    0    0  501  0.00000000000E+00  0.00000000000E+00 -0.15928290623E+04  0.15928290623E+04  0.25500000920E-02 0. -1.
    10030    2    1    2    0    0  0.00000000000E+00  0.00000000000E+00  0.11343610873E+03  0.32990942333E+04  0.32971434620E+04 0.  0.
        4    1    3    3  502    0  0.24770601579E+02 -0.15272326448E+04  0.67735434035E+03  0.16708870846E+04  0.12699999809E+01 0. -1.
       -4    1    3    3    0  502 -0.24770601579E+02  0.15272326448E+04 -0.56391823162E+03  0.16282071487E+04  0.12699999809E+01 0.  1.
</event>
<event>
 5   0  0.3757406E-07  0.3314883E+04  0.7818609E-02  0.8159119E-01
       -1   -1    0    0    0  501  0.00000000000E+00  0.00000000000E+00  0.93037736530E+03  0.93037736531E+03  0.50400001928E-02 0.  1.
        1   -1    0    0  501    0  0.00000000000E+00  0.00000000000E+00 -0.29526869594E+04  0.29526869594E+04  0.50400001928E-02 0. -1.
    10030    2    1    2    0    0  0.00000000000E+00  0.00000000000E+00 -0.20223095941E+04  0.38830643247E+04  0.33148834754E+04 0.  0.
        1    1    3    3  502    0  0.84751480670E+03 -0.93410947218E+03  0.24845544637E+03  0.12855240031E+04  0.50400001928E-02 0.  1.
       -1    1    3    3    0  502 -0.84751480670E+03  0.93410947218E+03 -0.22707650405E+04  0.25975403216E+04  0.50400001928E-02 0. -1.
</event>
<event>
 5   0  0.3796529E-07  0.3250601E+04  0.7818609E-02  0.8175580E-01
       -1   -1    0    0    0  501  0.00000000000E+00  0.00000000000E+00  0.14228220872E+04  0.14228220872E+04  0.50400001928E-02 0. -1.
        1   -1    0    0  501    0  0.00000000000E+00  0.00000000000E+00 -0.18565936942E+04  0.18565936942E+04  0.50400001928E-02 0.  1.
    10030    2    1    2    0    0  0.00000000000E+00  0.00000000000E+00 -0.43377160706E+03  0.32794157814E+04  0.32506014920E+04 0.  0.
        5    1    3    3  502    0 -0.22884135953E+03  0.15247975287E+04 -0.73545044533E+03  0.17082989548E+04  0.46999998093E+01 0.  1.
       -5    1    3    3    0  502  0.22884135953E+03 -0.15247975287E+04  0.30167883827E+03  0.15711168266E+04  0.46999998093E+01 0. -1.
</event>
<event>
 5   0  0.3674967E-07  0.3291698E+04  0.7818609E-02  0.8165011E-01
       -1   -1    0    0    0  501  0.00000000000E+00  0.00000000000E+00  0.15732436186E+04  0.15732436186E+04  0.50400001928E-02 0.  1.
        1   -1    0    0  501    0  0.00000000000E+00  0.00000000000E+00 -0.17218055869E+04  0.17218055869E+04  0.50400001928E-02 0. -1.
    10030    2    1    2    0    0  0.00000000000E+00  0.00000000000E+00 -0.14856196833E+03  0.32950492055E+04  0.32916984383E+04 0.  0.
        2    1    3    3  502    0  0.10185284960E+04  0.52252924698E+03  0.11094550263E+04  0.15941541853E+04  0.25500000920E-02 0.  1.
       -2    1    3    3    0  502 -0.10185284960E+04 -0.52252924698E+03 -0.12580169946E+04  0.17008950202E+04  0.25500000920E-02 0. -1.
</event>
<event>
 5   0  0.3674967E-07  0.3278321E+04  0.7818609E-02  0.8168434E-01
        1   -1    0    0  501    0  0.00000000000E+00  0.00000000000E+00  0.25999661631E+04  0.25999661631E+04  0.50400001928E-02 0.  1.
       -1   -1    0    0    0  501  0.00000000000E+00  0.00000000000E+00 -0.10334160752E+04  0.10334160752E+04  0.50400001928E-02 0. -1.
    10030    2    1    2    0    0  0.00000000000E+00  0.00000000000E+00  0.15665500879E+04  0.36333822383E+04  0.32783208067E+04 0.  0.
        2    1    3    3  502    0  0.53989276044E+03  0.13242606618E+04  0.16710940093E+04  0.21994785021E+04  0.25500000920E-02 0.  1.
       -2    1    3    3    0  502 -0.53989276044E+03 -0.13242606618E+04 -0.10454392140E+03  0.14339037362E+04  0.25500000920E-02 0. -1.
</event>
<event>
 5   0  0.3573375E-07  0.3027475E+04  0.7818609E-02  0.8235928E-01
        3   -1    0    0  501    0  0.00000000000E+00  0.00000000000E+00  0.14241509776E+04  0.14241509812E+04  0.10100000352E+00 0.  1.
       -3   -1    0    0    0  501  0.00000000000E+00  0.00000000000E+00 -0.16089596863E+04  0.16089596895E+04  0.10100000352E+00 0. -1.
    10030    2    1    2    0    0  0.00000000000E+00  0.00000000000E+00 -0.18480870865E+03  0.30331106707E+04  0.30274751992E+04 0.  0.
        2    1    3    3  502    0  0.12165860703E+04 -0.79261067447E+03  0.33628017234E+03  0.14904354068E+04  0.25500000920E-02 0.  1.
       -2    1    3    3    0  502 -0.12165860703E+04  0.79261067447E+03 -0.52108888099E+03  0.15426752638E+04  0.25500000920E-02 0. -1.
</event>
<event>
 5   0  0.3796529E-07  0.3278545E+04  0.7818609E-02  0.8168376E-01
       -1   -1    0    0    0  501  0.00000000000E+00  0.00000000000E+00  0.11692781248E+04  0.11692781248E+04  0.50400001928E-02 0.  1.
        1   -1    0    0  501    0  0.00000000000E+00  0.00000000000E+00 -0.22981827788E+04  0.22981827788E+04  0.50400001928E-02 0. -1.
    10030    2    1    2    0    0  0.00000000000E+00  0.00000000000E+00 -0.11289046540E+04  0.34674609037E+04  0.32785453178E+04 0.  0.
        5    1    3    3  502    0 -0.53270707521E+03 -0.15157013540E+04 -0.90889513496E+03  0.18458710353E+04  0.46999998093E+01 0.  1.
       -5    1    3    3    0  502  0.53270707521E+03  0.15157013540E+04 -0.22000951903E+03  0.16215898683E+04  0.46999998093E+01 0. -1.
</event>
<event>
 5   0  0.3674967E-07  0.3222605E+04  0.7818609E-02  0.8182873E-01
       -1   -1    0    0    0  501  0.00000000000E+00  0.00000000000E+00  0.28200887021E+04  0.28200887021E+04  0.50400001928E-02 0.  1.
        1   -1    0    0  501    0  0.00000000000E+00  0.00000000000E+00 -0.92064301121E+03  0.92064301122E+03  0.50400001928E-02 0. -1.
    10030    2    1    2    0    0  0.00000000000E+00  0.00000000000E+00  0.18994456908E+04  0.37407317133E+04  0.32226045085E+04 0.  0.
        2    1    3    3  502    0 -0.39283526559E+03 -0.13800675717E+04  0.18006529714E+04  0.23024459108E+04  0.25500000920E-02 0.  1.
       -2    1    3    3    0  502  0.39283526559E+03  0.13800675717E+04  0.98792719408E+02  0.14382858025E+04  0.25500000920E-02 0. -1.
</event>
<event>
 5   0  0.3674967E-07  0.3292599E+04  0.7818609E-02  0.8164781E-01
       -1   -1    0    0    0  501  0.00000000000E+00  0.00000000000E+00  0.10105918808E+04  0.10105918809E+04  0.50400001928E-02 0.  1.
        1   -1    0    0  501    0  0.00000000000E+00  0.00000000000E+00 -0.26818950306E+04  0.26818950306E+04  0.50400001928E-02 0. -1.
    10030    2    1    2    0    0  0.00000000000E+00  0.00000000000E+00 -0.16713031498E+04  0.36924869115E+04  0.32925985745E+04 0.  0.
        2    1    3    3  502    0 -0.16646670882E+03  0.14203362464E+04 -0.17503285881E+04  0.22602469742E+04  0.25500000920E-02 0. -1.
       -2    1    3    3    0  502  0.16646670882E+03 -0.14203362464E+04  0.79025438311E+02  0.14322399373E+04  0.25500000920E-02 0.  1.
</event>
<event>
 5   0  0.3674967E-07  0.3300160E+04  0.7818609E-02  0.8162855E-01
       -1   -1    0    0    0  501  0.00000000000E+00  0.00000000000E+00  0.10983696032E+04  0.10983696032E+04  0.50400001928E-02 0. -1.
        1   -1    0    0  501    0  0.00000000000E+00  0.00000000000E+00 -0.24789136867E+04  0.24789136867E+04  0.50400001928E-02 0.  1.
    10030    2    1    2    0    0  0.00000000000E+00  0.00000000000E+00 -0.13805440835E+04  0.35772832899E+04  0.33001596582E+04 0.  0.
        2    1    3    3  502    0  0.14632464468E+04 -0.71963000288E+03 -0.96408180436E+03  0.18943102256E+04  0.25500000920E-02 0. -1.
       -2    1    3    3    0  502 -0.14632464468E+04  0.71963000288E+03 -0.41646227915E+03  0.16829730643E+04  0.25500000920E-02 0.  1.
</event>
<event>
 5   0  0.1116462E-06  0.3293755E+04  0.7818609E-02  0.8164486E-01
        2   -1    0    0  501    0  0.00000000000E+00  0.00000000000E+00  0.16536233129E+04  0.16536233129E+04  0.25500000920E-02 0. -1.
       -2   -1    0    0    0  501  0.00000000000E+00  0.00000000000E+00 -0.16401596030E+04  0.16401596030E+04  0.25500000920E-02 0.  1.
    10030    2    1    2    0    0  0.00000000000E+00  0.00000000000E+00  0.13463709893E+02  0.32937829159E+04  0.32937553986E+04 0.  0.
        1    1    3    3  502    0 -0.11455884511E+04  0.11737124613E+04  0.15583814887E+03  0.16475009468E+04  0.50400001928E-02 0. -1.
       -1    1    3    3    0  502  0.11455884511E+04 -0.11737124613E+04 -0.14237443898E+03  0.16462819691E+04  0.50400001928E-02 0.  1.
</event>
<event>
 5   0  0.3796529E-07  0.3314972E+04  0.7818609E-02  0.8159096E-01
       -1   -1    0    0    0  501  0.00000000000E+00  0.00000000000E+00  0.28950911235E+04  0.28950911235E+04  0.50400001928E-02 0.  1.
        1   -1    0    0  501    0  0.00000000000E+00  0.00000000000E+00 -0.94893737573E+03  0.94893737574E+03  0.50400001928E-02 0. -1.
    10030    2    1    2    0    0  0.00000000000E+00  0.00000000000E+00  0.19461537478E+04  0.38440284993E+04  0.33149722010E+04 0.  0.
        5    1    3    3  502    0  0.60231398349E+03  0.48584804152E+03 -0.72659485596E+03  0.10615048888E+04  0.46999998093E+01 0. -1.
       -5    1    3    3    0  502 -0.60231398349E+03 -0.48584804152E+03  0.26727486037E+04  0.27825236105E+04  0.46999998093E+01 0.  1.
</event>
<event>
 5   0  0.3674967E-07  0.3292976E+04  0.7818609E-02  0.8164685E-01
       -1   -1    0    0    0  501  0.00000000000E+00  0.00000000000E+00  0.10354381632E+04  0.10354381632E+04  0.50400001928E-02 0. -1.
        1   -1    0    0  501    0  0.00000000000E+00  0.00000000000E+00 -0.26181407385E+04  0.26181407385E+04  0.50400001928E-02 0.  1.
    10030    2    1    2    0    0  0.00000000000E+00  0.00000000000E+00 -0.15827025753E+04  0.36535789018E+04  0.32929760627E+04 0.  0.
        2    1    3    3  502    0 -0.11322024714E+04  0.15620938151E+03 -0.21063105026E+04  0.23964197755E+04  0.25500000920E-02 0.  1.
       -2    1    3    3    0  502  0.11322024714E+04 -0.15620938151E+03  0.52360792733E+03  0.12571591262E+04  0.25500000920E-02 0. -1.
</event>
<event>
 5   0  0.3757406E-07  0.3316482E+04  0.7818609E-02  0.8158714E-01
       -1   -1    0    0    0  501  0.00000000000E+00  0.00000000000E+00  0.17159763599E+04  0.17159763599E+04  0.50400001928E-02 0.  1.
        1   -1    0    0  501    0  0.00000000000E+00  0.00000000000E+00 -0.16024486554E+04  0.16024486554E+04  0.50400001928E-02 0. -1.
    10030    2    1    2    0    0  0.00000000000E+00  0.00000000000E+00  0.11352770452E+03  0.33184250154E+04  0.33164824804E+04 0.  0.
        1    1    3    3  502    0  0.14230002740E+04 -0.80442852059E+03 -0.22219863228E+03  0.16496688325E+04  0.50400001928E-02 0. -1.
       -1    1    3    3    0  502 -0.14230002740E+04  0.80442852059E+03  0.33572633679E+03  0.16687561829E+04  0.50400001928E-02 0.  1.
</event>
<event>
 5   0  0.1146799E-06  0.3293707E+04  0.7818609E-02  0.8164499E-01
        2   -1    0    0  501    0  0.00000000000E+00  0.00000000000E+00  0.14833252508E+04  0.14833252508E+04  0.25500000920E-02 0. -1.
       -2   -1    0    0    0  501  0.00000000000E+00  0.00000000000E+00 -0.18284094338E+04  0.18284094338E+04  0.25500000920E-02 0.  1.
    10030    2    1    2    0    0  0.00000000000E+00  0.00000000000E+00 -0.34508418298E+03  0.33117346846E+04  0.32937066548E+04 0.  0.
        5    1    3    3  502    0 -0.11917732801E+03  0.11762298881E+04  0.98019885305E+03  0.15357512385E+04  0.46999998093E+01 0. -1.
       -5    1    3    3    0  502  0.11917732801E+03 -0.11762298881E+04 -0.13252830360E+04  0.17759834461E+04  0.46999998093E+01 0.  1.
</event>
<event>
 5   0  0.1146799E-06  0.3300253E+04  0.7818609E-02  0.8162831E-01
        2   -1    0    0  501    0  0.00000000000E+00  0.00000000000E+00  0.20130661842E+04  0.20130661842E+04  0.25500000920E-02 0. -1.
       -2   -1    0    0    0  501  0.00000000000E+00  0.00000000000E+00 -0.13526216899E+04  0.13526216899E+04  0.25500000920E-02 0.  1.
    10030    2    1    2    0    0  0.00000000000E+00  0.00000000000E+00  0.66044449427E+03  0.33656878741E+04  0.33002527078E+04 0.  0.
        5    1    3    3  502    0  0.77946262155E+03 -0.90996264993E+02  0.18105719818E+04  0.19733310138E+04  0.46999998093E+01 0. -1.
       -5    1    3    3    0  502 -0.77946262155E+03  0.90996264993E+02 -0.11501274876E+04  0.13923568603E+04  0.46999998093E+01 0.  1.
</event>
<event>
 5   0  0.1120545E-06  0.3251704E+04  0.7818609E-02  0.8175294E-01
       -2   -1    0    0    0  501  0.00000000000E+00  0.00000000000E+00  0.11900372915E+04  0.11900372915E+04  0.25500000920E-02 0. -1.
        2   -1    0    0  501    0  0.00000000000E+00  0.00000000000E+00 -0.22212709309E+04  0.22212709309E+04  0.25500000920E-02 0.  1.
    10030    2    1    2    0    0  0.00000000000E+00  0.00000000000E+00 -0.10312336394E+04  0.34113082224E+04  0.32517043176E+04 0.  0.
        4    1    3    3  502    0 -0.34110190783E+03 -0.47866125267E+03  0.10746792379E+04  0.12249098676E+04  0.12699999809E+01 0. -1.
       -4    1    3    3    0  502  0.34110190783E+03  0.47866125267E+03 -0.21059128773E+04  0.21863983549E+04  0.12699999809E+01 0.  1.
</event>
<event>
 5   0  0.3796529E-07  0.3235296E+04  0.7818609E-02  0.8179557E-01
        1   -1    0    0  501    0  0.00000000000E+00  0.00000000000E+00  0.31107880915E+04  0.31107880915E+04  0.50400001928E-02 0. -1.
       -1   -1    0    0    0  501  0.00000000000E+00  0.00000000000E+00 -0.84119687676E+03  0.84119687678E+03  0.50400001928E-02 0.  1.
    10030    2    1    2    0    0  0.00000000000E+00  0.00000000000E+00  0.22695912148E+04  0.39519849683E+04  0.32352961082E+04 0.  0.
        5    1    3    3  502    0  0.76269334829E+03  0.12402209380E+04  0.19958723774E+04  0.24705015190E+04  0.46999998093E+01 0. -1.
       -5    1    3    3    0  502 -0.76269334829E+03 -0.12402209380E+04  0.27371883735E+03  0.14814834493E+04  0.46999998093E+01 0.  1.
</event>
<event>
 5   0  0.1126221E-06  0.3290107E+04  0.7818609E-02  0.8165417E-01
        2   -1    0    0  501    0  0.00000000000E+00  0.00000000000E+00  0.14321188946E+04  0.14321188946E+04  0.25500000920E-02 0. -1.
       -2   -1    0    0    0  501  0.00000000000E+00  0.00000000000E+00 -0.18896487752E+04  0.18896487752E+04  0.25500000920E-02 0.  1.
    10030    2    1    2    0    0  0.00000000000E+00  0.00000000000E+00 -0.45752988069E+03  0.33217676698E+04  0.32901074239E+04 0.  0.
        2    1    3    3  502    0  0.12377208217E+04  0.44599429431E+03  0.76833052700E+03  0.15235470264E+04  0.25500000920E-02 0. -1.
       -2    1    3    3    0  502 -0.12377208217E+04 -0.44599429431E+03 -0.12258604077E+04  0.17982206434E+04  0.25500000920E-02 0.  1.
</event>
<event>
 5   0  0.3674967E-07  0.3105902E+04  0.7818609E-02  0.8214120E-01
       -1   -1    0    0    0  501  0.00000000000E+00  0.00000000000E+00  0.16699647370E+04  0.16699647370E+04  0.50400001928E-02 0. -1.
        1   -1    0    0  501    0  0.00000000000E+00  0.00000000000E+00 -0.14441363222E+04  0.14441363222E+04  0.50400001928E-02 0.  1.
    10030    2    1    2    0    0  0.00000000000E+00  0.00000000000E+00  0.22582841480E+03  0.31141010592E+04  0.31059019518E+04 0.  0.
        2    1    3    3  502    0  0.54723976223E+03 -0.36381113125E+03  0.15236918354E+04  0.16593573171E+04  0.25500000920E-02 0. -1.
       -2    1    3    3    0  502 -0.54723976223E+03  0.36381113125E+03 -0.12978634206E+04  0.14547437421E+04  0.25500000920E-02 0.  1.
</event>
<event>
 5   0  0.1126221E-06  0.3257198E+04  0.7818609E-02  0.8173873E-01
        2   -1    0    0  501    0  0.00000000000E+00  0.00000000000E+00  0.12347410744E+04  0.12347410744E+04  0.25500000920E-02 0.  1.
       -2   -1    0    0    0  501  0.00000000000E+00  0.00000000000E+00 -0.21480899951E+04  0.21480899951E+04  0.25500000920E-02 0. -1.
    10030    2    1    2    0    0  0.00000000000E+00  0.00000000000E+00 -0.91334892068E+03  0.33828310696E+04  0.32571981509E+04 0.  0.
        2    1    3    3  502    0 -0.10133698292E+04  0.11159840275E+04 -0.10968893217E+04  0.18642706199E+04  0.25500000920E-02 0. -1.
       -2    1    3    3    0  502  0.10133698292E+04 -0.11159840275E+04  0.18354040101E+03  0.15185604496E+04  0.25500000920E-02 0.  1.
</event>
<event>
 5   0  0.3796529E-07  0.3309427E+04  0.7818609E-02  0.8160501E-01
       -1   -1    0    0    0  501  0.00000000000E+00  0.00000000000E+00  0.13313654064E+04  0.13313654064E+04  0.50400001928E-02 0.  1.
        1   -1    0    0  501    0  0.00000000000E+00  0.00000000000E+00 -0.20565925748E+04  0.20565925748E+04  0.50400001928E-02 0. -1.
    10030    2    1    2    0    0  0.00000000000E+00  0.00000000000E+00 -0.72522716846E+03  0.33879579812E+04  0.33094266628E+04 0.  0.
        5    1    3    3  502    0 -0.18918459727E+03 -0.23330909797E+03 -0.20284421963E+04  0.20505666975E+04  0.46999998093E+01 0. -1.
       -5    1    3    3    0  502  0.18918459727E+03  0.23330909797E+03  0.13032150278E+04  0.13373912837E+04  0.46999998093E+01 0.  1.
</event>
<event>
 5   0  0.1120545E-06  0.3003226E+04  0.7818609E-02  0.8242810E-01
       -2   -1    0    0    0  501  0.00000000000E+00  0.00000000000E+00  0.14257179702E+04  0.14257179702E+04  0.25500000920E-02 0. -1.
        2   -1    0    0  501    0  0.00000000000E+00  0.00000000000E+00 -0.15815481596E+04  0.15815481596E+04  0.25500000920E-02 0.  1.
    10030    2    1    2    0    0  0.00000000000E+00  0.00000000000E+00 -0.15583018940E+03  0.30072661298E+04  0.30032260201E+04 0.  0.
        4    1    3    3  502    0 -0.14383708479E+04 -0.34873295763E+03 -0.33185958301E+03  0.15167919328E+04  0.12699999809E+01 0. -1.
       -4    1    3    3    0  502  0.14383708479E+04  0.34873295763E+03  0.17602939361E+03  0.14904741970E+04  0.12699999809E+01 0.  1.
</event>
<event>
 5   0  0.3757406E-07  0.3298215E+04  0.7818609E-02  0.8163350E-01
       -1   -1    0    0    0  501  0.00000000000E+00  0.00000000000E+00  0.17988456735E+04  0.17988456735E+04  0.50400001928E-02 0.  1.
        1   -1    0    0  501    0  0.00000000000E+00  0.00000000000E+00 -0.15118338899E+04  0.15118338899E+04  0.50400001928E-02 0. -1.
    10030    2    1    2    0    0  0.00000000000E+00  0.00000000000E+00  0.28701178360E+03  0.33106795635E+04  0.32982151852E+04 0.  0.
        1    1    3    3  502    0 -0.15606563685E+04 -0.27763537245E+03  0.60000600184E+03  0.16949150134E+04  0.50400001928E-02 0.  1.
       -1    1    3    3    0  502  0.15606563685E+04  0.27763537245E+03 -0.31299421824E+03  0.16157645500E+04  0.50400001928E-02 0. -1.
</event>
<event>
 5   0  0.3796529E-07  0.3290921E+04  0.7818609E-02  0.8165209E-01
        1   -1    0    0  501    0  0.00000000000E+00  0.00000000000E+00  0.14225598593E+04  0.14225598593E+04  0.50400001928E-02 0. -1.
       -1   -1    0    0    0  501  0.00000000000E+00  0.00000000000E+00 -0.19032870910E+04  0.19032870910E+04  0.50400001928E-02 0.  1.
    10030    2    1    2    0    0  0.00000000000E+00  0.00000000000E+00 -0.48072723173E+03  0.33258469503E+04  0.32909207322E+04 0.  0.
        5    1    3    3  502    0  0.43557884094E+03 -0.15351233220E+03  0.13557083058E+04  0.14322227701E+04  0.46999998093E+01 0. -1.
       -5    1    3    3    0  502 -0.43557884094E+03  0.15351233220E+03 -0.18364355375E+04  0.18936241803E+04  0.46999998093E+01 0.  1.
</event>
<event>
 5   0  0.3757406E-07  0.3317638E+04  0.7818609E-02  0.8158422E-01
        1   -1    0    0  501    0  0.00000000000E+00  0.00000000000E+00  0.14704836777E+04  0.14704836777E+04  0.50400001928E-02 0.  1.
       -1   -1    0    0    0  501  0.00000000000E+00  0.00000000000E+00 -0.18712758517E+04  0.18712758517E+04  0.50400001928E-02 0. -1.
    10030    2    1    2    0    0  0.00000000000E+00  0.00000000000E+00 -0.40079217404E+03  0.33417595294E+04  0.33176380733E+04 0.  0.
        1    1    3    3  502    0 -0.12696288307E+04  0.95142532612E+03  0.28739035133E+03  0.16123773544E+04  0.50400001928E-02 0.  1.
       -1    1    3    3    0  502  0.12696288307E+04 -0.95142532612E+03 -0.68818252537E+03  0.17293821750E+04  0.50400001928E-02 0. -1.
</event>
<event>
 5   0  0.1126221E-06  0.3309641E+04  0.7818609E-02  0.8160447E-01
       -2   -1    0    0    0  501  0.00000000000E+00  0.00000000000E+00  0.13770748465E+04  0.13770748465E+04  0.25500000920E-02 0. -1.
        2   -1    0    0  501    0  0.00000000000E+00  0.00000000000E+00 -0.19885852941E+04  0.19885852941E+04  0.25500000920E-02 0.  1.
    10030    2    1    2    0    0  0.00000000000E+00  0.00000000000E+00 -0.61151044754E+03  0.33656601406E+04  0.33096409405E+04 0.  0.
        2    1    3    3  502    0  0.96853311593E+03  0.78744115873E+03 -0.14105651620E+04  0.18835641883E+04  0.25500000920E-02 0.  1.
       -2    1    3    3    0  502 -0.96853311593E+03 -0.78744115873E+03  0.79905471449E+03  0.14820959523E+04  0.25500000920E-02 0. -1.
</event>
<event>
 5   0  0.1129434E-06  0.3306198E+04  0.7818609E-02  0.8161320E-01
        2   -1    0    0  501    0  0.00000000000E+00  0.00000000000E+00  0.21071963831E+04  0.21071963831E+04  0.25500000920E-02 0. -1.
       -2   -1    0    0    0  501  0.00000000000E+00  0.00000000000E+00 -0.12968586333E+04  0.12968586333E+04  0.25500000920E-02 0.  1.
    10030    2    1    2    0    0  0.00000000000E+00  0.00000000000E+00  0.81033774973E+03  0.34040550164E+04  0.33061977082E+04 0.  0.
        3    1    3    3  502    0 -0.10165883190E+04  0.64043684843E+03 -0.76383299405E+03  0.14237457709E+04  0.10100000352E+00 0.  1.
       -3    1    3    3    0  502  0.10165883190E+04 -0.64043684843E+03  0.15741707438E+04  0.19803092455E+04  0.10100000352E+00 0. -1.
</event>
<event>
 5   0  0.3796529E-07  0.3309672E+04  0.7818609E-02  0.8160439E-01
        1   -1    0    0  501    0  0.00000000000E+00  0.00000000000E+00  0.25258947003E+04  0.25258947003E+04  0.50400001928E-02 0. -1.
       -1   -1    0    0    0  501  0.00000000000E+00  0.00000000000E+00 -0.10841629739E+04  0.10841629739E+04  0.50400001928E-02 0.  1.
    10030    2    1    2    0    0  0.00000000000E+00  0.00000000000E+00  0.14417317265E+04  0.36100576742E+04  0.33096715910E+04 0.  0.
        5    1    3    3  502    0 -0.13530140737E+03 -0.10290359292E+04 -0.68500414863E+03  0.12435731535E+04  0.46999998093E+01 0.  1.
       -5    1    3    3    0  502  0.13530140737E+03  0.10290359292E+04  0.21267358751E+04  0.23664845207E+04  0.46999998093E+01 0. -1.
</event>
<event>
 5   0  0.1146799E-06  0.3291818E+04  0.7818609E-02  0.8164981E-01
        2   -1    0    0  501    0  0.00000000000E+00  0.00000000000E+00  0.22287708307E+04  0.22287708307E+04  0.25500000920E-02 0. -1.
       -2   -1    0    0    0  501  0.00000000000E+00  0.00000000000E+00 -0.12154751958E+04  0.12154751958E+04  0.25500000920E-02 0.  1.
    10030    2    1    2    0    0  0.00000000000E+00  0.00000000000E+00  0.10132956349E+04  0.34442460265E+04  0.32918175295E+04 0.  0.
        5    1    3    3  502    0 -0.23341494803E+03  0.31257655415E+03  0.21796918837E+04  0.22143318265E+04  0.46999998093E+01 0. -1.
       -5    1    3    3    0  502  0.23341494803E+03 -0.31257655415E+03 -0.11663962488E+04  0.12299142000E+04  0.46999998093E+01 0.  1.
</event>
<event>
 5   0  0.1146799E-06  0.3307507E+04  0.7818609E-02  0.8160988E-01
       -2   -1    0    0    0  501  0.00000000000E+00  0.00000000000E+00  0.14398416548E+04  0.14398416548E+04  0.25500000920E-02 0.  1.
        2   -1    0    0  501    0  0.00000000000E+00  0.00000000000E+00 -0.18994451968E+04  0.18994451968E+04  0.25500000920E-02 0. -1.
    10030    2    1    2    0    0  0.00000000000E+00  0.00000000000E+00 -0.45960354199E+03  0.33392868515E+04  0.33075068044E+04 0.  0.
        5    1    3    3  502    0  0.33968020365E+03 -0.26252844937E+03  0.13825952204E+04  0.14477207814E+04  0.46999998093E+01 0.  1.
       -5    1    3    3    0  502 -0.33968020365E+03  0.26252844937E+03 -0.18421987624E+04  0.18915660701E+04  0.46999998093E+01 0. -1.
</event>
<event>
 5   0  0.1146799E-06  0.3296101E+04  0.7818609E-02  0.8163888E-01
        2   -1    0    0  501    0  0.00000000000E+00  0.00000000000E+00  0.17972299842E+04  0.17972299842E+04  0.25500000920E-02 0. -1.
       -2   -1    0    0    0  501  0.00000000000E+00  0.00000000000E+00 -0.15112533704E+04  0.15112533704E+04  0.25500000920E-02 0.  1.
    10030    2    1    2    0    0  0.00000000000E+00  0.00000000000E+00  0.28597661384E+03  0.33084833546E+04  0.32961006483E+04 0.  0.
        5    1    3    3  502    0 -0.14463878247E+04 -0.78985588817E+03  0.15476770206E+03  0.16552598573E+04  0.46999998093E+01 0. -1.
       -5    1    3    3    0  502  0.14463878247E+04  0.78985588817E+03  0.13120891177E+03  0.16532234973E+04  0.46999998093E+01 0.  1.
</event>
<event>
 5   0  0.3757406E-07  0.3305502E+04  0.7818609E-02  0.8161497E-01
       -1   -1    0    0    0  501  0.00000000000E+00  0.00000000000E+00  0.14722574442E+04  0.14722574442E+04  0.50400001928E-02 0.  1.
        1   -1    0    0  501    0  0.00000000000E+00  0.00000000000E+00 -0.18553724602E+04  0.18553724602E+04  0.50400001928E-02 0. -1.
    10030    2    1    2    0    0  0.00000000000E+00  0.00000000000E+00 -0.38311501603E+03  0.33276299044E+04  0.33055020292E+04 0.  0.
        1    1    3    3  502    0 -0.71522946888E+03  0.14368966625E+04  0.20523931026E+03  0.16181311401E+04  0.50400001928E-02 0.  1.
       -1    1    3    3    0  502  0.71522946888E+03 -0.14368966625E+04 -0.58835432629E+03  0.17094987643E+04  0.50400001928E-02 0. -1.
</event>
<event>
 5   0  0.1120545E-06  0.3294886E+04  0.7818609E-02  0.8164198E-01
       -2   -1    0    0    0  501  0.00000000000E+00  0.00000000000E+00  0.11001864865E+04  0.11001864865E+04  0.25500000920E-02 0.  1.
        2   -1    0    0  501    0  0.00000000000E+00  0.00000000000E+00 -0.24669162849E+04  0.24669162849E+04  0.25500000920E-02 0. -1.
    10030    2    1    2    0    0  0.00000000000E+00  0.00000000000E+00 -0.13667297984E+04  0.35671027715E+04  0.32948857097E+04 0.  0.
        4    1    3    3  502    0  0.11344247351E+03 -0.63831534312E+03 -0.23230043980E+04  0.24117766725E+04  0.12699999809E+01 0. -1.
       -4    1    3    3    0  502 -0.11344247351E+03  0.63831534312E+03  0.95627459962E+03  0.11553260989E+04  0.12699999809E+01 0.  1.
</event>
<event>
 5   0  0.3757406E-07  0.3290781E+04  0.7818609E-02  0.8165245E-01
        1   -1    0    0  501    0  0.00000000000E+00  0.00000000000E+00  0.16516353786E+04  0.16516353786E+04  0.50400001928E-02 0.  1.
       -1   -1    0    0    0  501  0.00000000000E+00  0.00000000000E+00 -0.16391687731E+04  0.16391687731E+04  0.50400001928E-02 0. -1.
    10030    2    1    2    0    0  0.00000000000E+00  0.00000000000E+00  0.12466605503E+02  0.32908041516E+04  0.32907805378E+04 0.  0.
        1    1    3    3  502    0  0.11329478539E+04 -0.94536066181E+02 -0.11832294054E+04  0.16408960154E+04  0.50400001928E-02 0. -1.
       -1    1    3    3    0  502 -0.11329478539E+04  0.94536066181E+02  0.11956960109E+04  0.16499081362E+04  0.50400001928E-02 0.  1.
</event>
<event>
 5   0  0.3749685E-07  0.3293591E+04  0.7818609E-02  0.8164528E-01
       -1   -1    0    0    0  501  0.00000000000E+00  0.00000000000E+00  0.77674439457E+03  0.77674439459E+03  0.50400001928E-02 0. -1.
        1   -1    0    0  501    0  0.00000000000E+00  0.00000000000E+00 -0.34914133362E+04  0.34914133362E+04  0.50400001928E-02 0.  1.
    10030    2    1    2    0    0  0.00000000000E+00  0.00000000000E+00 -0.27146689416E+04  0.42681577308E+04  0.32935911938E+04 0.  0.
        3    1    3    3  502    0 -0.11996092554E+03  0.57874108780E+02 -0.34844218773E+04  0.34869665708E+04  0.10100000352E+00 0.  1.
       -3    1    3    3    0  502  0.11996092554E+03 -0.57874108780E+02  0.76975293576E+03  0.78119115998E+03  0.10100000352E+00 0. -1.
</event>
<event>
 5   0  0.3709747E-07  0.3150033E+04  0.7818609E-02  0.8202139E-01
        1   -1    0    0  501    0  0.00000000000E+00  0.00000000000E+00  0.18818971216E+04  0.18818971216E+04  0.50400001928E-02 0. -1.
       -1   -1    0    0    0  501  0.00000000000E+00  0.00000000000E+00 -0.13181789795E+04  0.13181789796E+04  0.50400001928E-02 0.  1.
    10030    2    1    2    0    0  0.00000000000E+00  0.00000000000E+00  0.56371814208E+03  0.32000761012E+04  0.31500331601E+04 0.  0.
        4    1    3    3  502    0  0.58023148284E+02  0.12978647392E+03 -0.13116470046E+04  0.13193296374E+04  0.12699999809E+01 0.  1.
       -4    1    3    3    0  502 -0.58023148284E+02 -0.12978647392E+03  0.18753651467E+04  0.18807464638E+04  0.12699999809E+01 0. -1.
</event>
<event>
 5   0  0.1120545E-06  0.3290984E+04  0.7818609E-02  0.8165193E-01
        2   -1    0    0  501    0  0.00000000000E+00  0.00000000000E+00  0.17614604864E+04  0.17614604864E+04  0.25500000920E-02 0. -1.
       -2   -1    0    0    0  501  0.00000000000E+00  0.00000000000E+00 -0.15371586814E+04  0.15371586814E+04  0.25500000920E-02 0.  1.
    10030    2    1    2    0    0  0.00000000000E+00  0.00000000000E+00  0.22430180499E+03  0.32986191678E+04  0.32909842167E+04 0.  0.
        4    1    3    3  502    0 -0.90986371499E+03 -0.13668278901E+04  0.43271520555E+01  0.16419777094E+04  0.12699999809E+01 0. -1.
       -4    1    3    3    0  502  0.90986371499E+03  0.13668278901E+04  0.21997465293E+03  0.16566414584E+04  0.12699999809E+01 0.  1.
</event>
<event>
 5   0  0.3709747E-07  0.3306683E+04  0.7818609E-02  0.8161197E-01
       -1   -1    0    0    0  501  0.00000000000E+00  0.00000000000E+00  0.12837342870E+04  0.12837342870E+04  0.50400001928E-02 0.  1.
        1   -1    0    0  501    0  0.00000000000E+00  0.00000000000E+00 -0.21293647571E+04  0.21293647571E+04  0.50400001928E-02 0. -1.
    10030    2    1    2    0    0  0.00000000000E+00  0.00000000000E+00 -0.84563047015E+03  0.34130990441E+04  0.33066832617E+04 0.  0.
        4    1    3    3  502    0  0.89319177014E+02  0.71177073358E+02  0.12796571969E+04  0.12847444281E+04  0.12699999809E+01 0.  1.
       -4    1    3    3    0  502 -0.89319177014E+02 -0.71177073358E+02 -0.21252876670E+04  0.21283546160E+04  0.12699999809E+01 0. -1.
</event>
<event>
 5   0  0.3749685E-07  0.3263593E+04  0.7818609E-02  0.8172221E-01
       -1   -1    0    0    0  501  0.00000000000E+00  0.00000000000E+00  0.21017041797E+04  0.21017041797E+04  0.50400001928E-02 0. -1.
        1   -1    0    0  501    0  0.00000000000E+00  0.00000000000E+00 -0.12669524793E+04  0.12669524793E+04  0.50400001928E-02 0.  1.
    10030    2    1    2    0    0  0.00000000000E+00  0.00000000000E+00  0.83475170041E+03  0.33686566589E+04  0.32635926959E+04 0.  0.
        3    1    3    3  502    0 -0.11624499020E+04 -0.30254848603E+03 -0.72268742315E+03  0.14018211308E+04  0.10100000352E+00 0.  1.
       -3    1    3    3    0  502  0.11624499020E+04  0.30254848603E+03  0.15574391236E+04  0.19668355281E+04  0.10100000352E+00 0. -1.
</event>
<event>
 5   0  0.1116462E-06  0.3305455E+04  0.7818609E-02  0.8161509E-01
        2   -1    0    0  501    0  0.00000000000E+00  0.00000000000E+00  0.10539956230E+04  0.10539956230E+04  0.25500000920E-02 0. -1.
       -2   -1    0    0    0  501  0.00000000000E+00  0.00000000000E+00 -0.25915752825E+04  0.25915752825E+04  0.25500000920E-02 0.  1.
    10030    2    1    2    0    0  0.00000000000E+00  0.00000000000E+00 -0.15375796594E+04  0.36455709055E+04  0.33054554932E+04 0.  0.
        1    1    3    3  502    0  0.12424498427E+04  0.40972979036E+03 -0.18826314474E+04  0.22925665267E+04  0.50400001928E-02 0.  1.
       -1    1    3    3    0  502 -0.12424498427E+04 -0.40972979036E+03  0.34505178794E+03  0.13530043788E+04  0.50400001928E-02 0. -1.
</event>
<event>
 5   0  0.1146799E-06  0.3284985E+04  0.7818609E-02  0.8166726E-01
       -2   -1    0    0    0  501  0.00000000000E+00  0.00000000000E+00  0.19349786342E+04  0.19349786342E+04  0.25500000920E-02 0.  1.
        2   -1    0    0  501    0  0.00000000000E+00  0.00000000000E+00 -0.13942180566E+04  0.13942180566E+04  0.25500000920E-02 0. -1.
    10030    2    1    2    0    0  0.00000000000E+00  0.00000000000E+00  0.54076057757E+03  0.33291966908E+04  0.32849853278E+04 0.  0.
        5    1    3    3  502    0  0.29873985965E+03 -0.57165452698E+03 -0.12604876698E+04  0.14159398496E+04  0.46999998093E+01 0. -1.
       -5    1    3    3    0  502 -0.29873985965E+03  0.57165452698E+03  0.18012482474E+04  0.19132568412E+04  0.46999998093E+01 0.  1.
</event>
<event>
 5   0  0.3709747E-07  0.3299165E+04  0.7818609E-02  0.8163108E-01
        1   -1    0    0  501    0  0.00000000000E+00  0.00000000000E+00  0.23594602184E+04  0.23594602184E+04  0.50400001928E-02 0.  1.
       -1   -1    0    0    0  501  0.00000000000E+00  0.00000000000E+00 -0.11532819620E+04  0.11532819620E+04  0.50400001928E-02 0. -1.
    10030    2    1    2    0    0  0.00000000000E+00  0.00000000000E+00  0.12061782564E+04  0.35127421804E+04  0.32991652944E+04 0.  0.
        4    1    3    3  502    0  0.61502330492E+03  0.20343504060E+02  0.22326767427E+04  0.23159262886E+04  0.12699999809E+01 0.  1.
       -4    1    3    3    0  502 -0.61502330492E+03 -0.20343504060E+02 -0.10264984863E+04  0.11968158919E+04  0.12699999809E+01 0. -1.
</event>
<event>
 5   0  0.1120545E-06  0.3306355E+04  0.7818609E-02  0.8161280E-01
        2   -1    0    0  501    0  0.00000000000E+00  0.00000000000E+00  0.19189055389E+04  0.19189055389E+04  0.25500000920E-02 0.  1.
       -2   -1    0    0    0  501  0.00000000000E+00  0.00000000000E+00 -0.14242474784E+04  0.14242474784E+04  0.25500000920E-02 0. -1.
    10030    2    1    2    0    0  0.00000000000E+00  0.00000000000E+00  0.49465806048E+03  0.33431530173E+04  0.33063553197E+04 0.  0.
        4    1    3    3  502    0  0.14538725139E+04  0.49122591016E+03 -0.37428662230E+03  0.15796013010E+04  0.12699999809E+01 0. -1.
       -4    1    3    3    0  502 -0.14538725139E+04 -0.49122591016E+03  0.86894468278E+03  0.17635517163E+04  0.12699999809E+01 0.  1.
</event>
<event>
 5   0  0.1126221E-06  0.3285847E+04  0.7818609E-02  0.8166506E-01
        2   -1    0    0  501    0  0.00000000000E+00  0.00000000000E+00  0.27407931641E+04  0.27407931641E+04  0.25500000920E-02 0. -1.
       -2   -1    0    0    0  501  0.00000000000E+00  0.00000000000E+00 -0.98482334030E+03  0.98482334030E+03  0.25500000920E-02 0.  1.
    10030    2    1    2    0    0  0.00000000000E+00  0.00000000000E+00  0.17559698238E+04  0.37256165044E+04  0.32858466665E+04 0.  0.
        2    1    3    3  502    0  0.10951505271E+04  0.86894645142E+01 -0.51056897046E+03  0.12083504696E+04  0.25500000920E-02 0.  1.
       -2    1    3    3    0  502 -0.10951505271E+04 -0.86894645142E+01  0.22665387943E+04  0.25172660348E+04  0.25500000920E-02 0. -1.
</event>
<event>
 5   0  0.3757406E-07  0.3332324E+04  0.7818609E-02  0.8154719E-01
        1   -1    0    0  501    0  0.00000000000E+00  0.00000000000E+00  0.14307467450E+04  0.14307467450E+04  0.50400001928E-02 0. -1.
       -1   -1    0    0    0  501  0.00000000000E+00  0.00000000000E+00 -0.19403124586E+04  0.19403124586E+04  0.50400001928E-02 0.  1.
    10030    2    1    2    0    0  0.00000000000E+00  0.00000000000E+00 -0.50956571360E+03  0.33710592037E+04  0.33323239546E+04 0.  0.
        1    1    3    3  502    0  0.11424557944E+04  0.22079357847E+03  0.95161469087E+03  0.15031718353E+04  0.50400001928E-02 0. -1.
       -1    1    3    3    0  502 -0.11424557944E+04 -0.22079357847E+03 -0.14611804045E+04  0.18678873684E+04  0.50400001928E-02 0.  1.
</event>
<event>
 5   0  0.1126221E-06  0.3278717E+04  0.7818609E-02  0.8168332E-01
        2   -1    0    0  501    0  0.00000000000E+00  0.00000000000E+00  0.14717005709E+04  0.14717005709E+04  0.25500000920E-02 0.  1.
       -2   -1    0    0    0  501  0.00000000000E+00  0.00000000000E+00 -0.18261157187E+04  0.18261157187E+04  0.25500000920E-02 0. -1.
    10030    2    1    2    0    0  0.00000000000E+00  0.00000000000E+00 -0.35441514780E+03  0.32978162896E+04  0.32787165451E+04 0.  0.
        2    1    3    3  502    0  0.16189960488E+04  0.22395938242E+03 -0.30518688612E+03  0.16626620361E+04  0.25500000920E-02 0.  1.
       -2    1    3    3    0  502 -0.16189960488E+04 -0.22395938242E+03 -0.49228261677E+02  0.16351542535E+04  0.25500000920E-02 0. -1.
</event>
<event>
 5   0  0.3674967E-07  0.3249560E+04  0.7818609E-02  0.8175850E-01
       -1   -1    0    0    0  501  0.00000000000E+00  0.00000000000E+00  0.12766389953E+04  0.12766389953E+04  0.50400001928E-02 0.  1.
        1   -1    0    0  501    0  0.00000000000E+00  0.00000000000E+00 -0.20678590792E+04  0.20678590792E+04  0.50400001928E-02 0. -1.
    10030    2    1    2    0    0  0.00000000000E+00  0.00000000000E+00 -0.79122008395E+03  0.33444980745E+04  0.32495596855E+04 0.  0.
        2    1    3    3  502    0 -0.11633561819E+04 -0.61060938110E+03  0.58817602323E+03  0.14395111867E+04  0.25500000920E-02 0.  1.
       -2    1    3    3    0  502  0.11633561819E+04  0.61060938110E+03 -0.13793961072E+04  0.19049868878E+04  0.25500000920E-02 0. -1.
</event>
<event>
 5   0  0.3757406E-07  0.3270762E+04  0.7818609E-02  0.8170375E-01
        1   -1    0    0  501    0  0.00000000000E+00  0.00000000000E+00  0.15826740828E+04  0.15826740828E+04  0.50400001928E-02 0.  1.
       -1   -1    0    0    0  501  0.00000000000E+00  0.00000000000E+00 -0.16898428341E+04  0.16898428342E+04  0.50400001928E-02 0. -1.
    10030    2    1    2    0    0  0.00000000000E+00  0.00000000000E+00 -0.10716875138E+03  0.32725169169E+04  0.32707616590E+04 0.  0.
        1    1    3    3  502    0 -0.54893488833E+03 -0.21229339540E+03  0.14730366827E+04  0.15862645007E+04  0.50400001928E-02 0.  1.
       -1    1    3    3    0  502  0.54893488833E+03  0.21229339540E+03 -0.15802054341E+04  0.16862524163E+04  0.50400001928E-02 0. -1.
</event>
<event>
 5   0  0.1116462E-06  0.3289047E+04  0.7818609E-02  0.8165688E-01
       -2   -1    0    0    0  501  0.00000000000E+00  0.00000000000E+00  0.12831915519E+04  0.12831915519E+04  0.25500000920E-02 0.  1.
        2   -1    0    0  501    0  0.00000000000E+00  0.00000000000E+00 -0.21076026649E+04  0.21076026649E+04  0.25500000920E-02 0. -1.
    10030    2    1    2    0    0  0.00000000000E+00  0.00000000000E+00 -0.82441111298E+03  0.33907942168E+04  0.32890472385E+04 0.  0.
        1    1    3    3  502    0  0.85365717047E+03 -0.10441162344E+04  0.55794142670E+03  0.14595231794E+04  0.50400001928E-02 0.  1.
       -1    1    3    3    0  502 -0.85365717047E+03  0.10441162344E+04 -0.13823525397E+04  0.19312710373E+04  0.50400001928E-02 0. -1.
</event>
<event>
 5   0  0.1126221E-06  0.3321846E+04  0.7818609E-02  0.8157359E-01
       -2   -1    0    0    0  501  0.00000000000E+00  0.00000000000E+00  0.30485521316E+04  0.30485521316E+04  0.25500000920E-02 0. -1.
        2   -1    0    0  501    0  0.00000000000E+00  0.00000000000E+00 -0.90491007594E+03  0.90491007594E+03  0.25500000920E-02 0.  1.
    10030    2    1    2    0    0  0.00000000000E+00  0.00000000000E+00  0.21436420556E+04  0.39534622075E+04  0.33218461981E+04 0.  0.
        2    1    3    3  502    0  0.32849288184E+03 -0.13464397514E+04 -0.17568689703E+02  0.13860433747E+04  0.25500000920E-02 0.  1.
       -2    1    3    3    0  502 -0.32849288184E+03  0.13464397514E+04  0.21612107453E+04  0.25674188328E+04  0.25500000920E-02 0. -1.
</event>
<event>
 5   0  0.3757406E-07  0.3319653E+04  0.7818609E-02  0.8157913E-01
       -1   -1    0    0    0  501  0.00000000000E+00  0.00000000000E+00  0.17686582586E+04  0.17686582586E+04  0.50400001928E-02 0.  1.
        1   -1    0    0  501    0  0.00000000000E+00  0.00000000000E+00 -0.15576914088E+04  0.15576914088E+04  0.50400001928E-02 0. -1.
    10030    2    1    2    0    0  0.00000000000E+00  0.00000000000E+00  0.21096684973E+03  0.33263496674E+04  0.33196528581E+04 0.  0.
        1    1    3    3  502    0 -0.92263784458E+02 -0.17844650897E+03 -0.15454653265E+04  0.15584668228E+04  0.50400001928E-02 0. -1.
       -1    1    3    3    0  502  0.92263784458E+02  0.17844650897E+03  0.17564321762E+04  0.17678828446E+04  0.50400001928E-02 0.  1.
</event>
<event>
 5   0  0.3674967E-07  0.3277812E+04  0.7818609E-02  0.8168564E-01
        1   -1    0    0  501    0  0.00000000000E+00  0.00000000000E+00  0.22610831558E+04  0.22610831558E+04  0.50400001928E-02 0. -1.
       -1   -1    0    0    0  501  0.00000000000E+00  0.00000000000E+00 -0.11879317987E+04  0.11879317987E+04  0.50400001928E-02 0.  1.
    10030    2    1    2    0    0  0.00000000000E+00  0.00000000000E+00  0.10731513571E+04  0.34490149545E+04  0.32778118190E+04 0.  0.
        2    1    3    3  502    0 -0.11320566214E+04  0.96769493975E+03 -0.18328170452E+03  0.15005258657E+04  0.25500000920E-02 0.  1.
       -2    1    3    3    0  502  0.11320566214E+04 -0.96769493975E+03  0.12564330616E+04  0.19484890887E+04  0.25500000920E-02 0. -1.
</event>
<event>
 5   0  0.1116462E-06  0.3270612E+04  0.7818609E-02  0.8170414E-01
        2   -1    0    0  501    0  0.00000000000E+00  0.00000000000E+00  0.19151513086E+04  0.19151513086E+04  0.25500000920E-02 0. -1.
       -2   -1    0    0    0  501  0.00000000000E+00  0.00000000000E+00 -0.13963521733E+04  0.13963521733E+04  0.25500000920E-02 0.  1.
    10030    2    1    2    0    0  0.00000000000E+00  0.00000000000E+00  0.51879913529E+03  0.33115034819E+04  0.32706119867E+04 0.  0.
        1    1    3    3  502    0 -0.35114369298E+03 -0.24120653728E+03  0.18579817295E+04  0.19061947943E+04  0.50400001928E-02 0. -1.
       -1    1    3    3    0  502  0.35114369298E+03  0.24120653728E+03 -0.13391825942E+04  0.14053086876E+04  0.50400001928E-02 0.  1.
</event>
<event>
 5   0  0.3674967E-07  0.3346904E+04  0.7818609E-02  0.8151062E-01
       -1   -1    0    0    0  501  0.00000000000E+00  0.00000000000E+00  0.14921543711E+04  0.14921543711E+04  0.50400001928E-02 0. -1.
        1   -1    0    0  501    0  0.00000000000E+00  0.00000000000E+00 -0.18767773358E+04  0.18767773358E+04  0.50400001928E-02 0.  1.
    10030    2    1    2    0    0  0.00000000000E+00  0.00000000000E+00 -0.38462296472E+03  0.33689317069E+04  0.33469039455E+04 0.  0.
        2    1    3    3  502    0  0.73139279600E+03 -0.14658468874E+04 -0.53631944440E+03  0.17237404288E+04  0.25500000920E-02 0.  1.
       -2    1    3    3    0  502 -0.73139279600E+03  0.14658468874E+04  0.15169647968E+03  0.16451912781E+04  0.25500000920E-02 0. -1.
</event>
<event>
 5   0  0.3749685E-07  0.3299658E+04  0.7818609E-02  0.8162982E-01
       -1   -1    0    0    0  501  0.00000000000E+00  0.00000000000E+00  0.10157313038E+04  0.10157313038E+04  0.50400001928E-02 0. -1.
        1   -1    0    0  501    0  0.00000000000E+00  0.00000000000E+00 -0.26797791288E+04  0.26797791288E+04  0.50400001928E-02 0.  1.
    10030    2    1    2    0    0  0.00000000000E+00  0.00000000000E+00 -0.16640478250E+04  0.36955104326E+04  0.32996578904E+04 0.  0.
        3    1    3    3  502    0 -0.68198955514E+03 -0.13679603718E+04 -0.13664189088E+03  0.15346323171E+04  0.10100000352E+00 0. -1.
       -3    1    3    3    0  502  0.68198955514E+03  0.13679603718E+04 -0.15274059341E+04  0.21608781155E+04  0.10100000352E+00 0.  1.
</event>
<event>
 5   0  0.1120545E-06  0.3080923E+04  0.7818609E-02  0.8220993E-01
       -2   -1    0    0    0  501  0.00000000000E+00  0.00000000000E+00  0.92507494708E+03  0.92507494708E+03  0.25500000920E-02 0.  1.
        2   -1    0    0  501    0  0.00000000000E+00  0.00000000000E+00 -0.25652208113E+04  0.25652208113E+04  0.25500000920E-02 0. -1.
    10030    2    1    2    0    0  0.00000000000E+00  0.00000000000E+00 -0.16401458642E+04  0.34902957584E+04  0.30809229177E+04 0.  0.
        4    1    3    3  502    0  0.25534416037E+03  0.53524314362E+03  0.79057433695E+03  0.98827893743E+03  0.12699999809E+01 0.  1.
       -4    1    3    3    0  502 -0.25534416037E+03 -0.53524314362E+03 -0.24307202012E+04  0.25020168209E+04  0.12699999809E+01 0. -1.
</event>
<event>
 5   0  0.1120545E-06  0.3300198E+04  0.7818609E-02  0.8162845E-01
       -2   -1    0    0    0  501  0.00000000000E+00  0.00000000000E+00  0.13083987931E+04  0.13083987931E+04  0.25500000920E-02 0.  1.
        2   -1    0    0  501    0  0.00000000000E+00  0.00000000000E+00 -0.20810370524E+04  0.20810370524E+04  0.25500000920E-02 0. -1.
    10030    2    1    2    0    0  0.00000000000E+00  0.00000000000E+00 -0.77263825933E+03  0.33894358455E+04  0.33001977927E+04 0.  0.
        4    1    3    3  502    0  0.21012907781E+03  0.71530398570E+03 -0.18982014198E+04  0.20393587875E+04  0.12699999809E+01 0. -1.
       -4    1    3    3    0  502 -0.21012907781E+03 -0.71530398570E+03  0.11255631605E+04  0.13500770579E+04  0.12699999809E+01 0.  1.
</event>
<event>
 5   0  0.1120545E-06  0.3276525E+04  0.7818609E-02  0.8168894E-01
       -2   -1    0    0    0  501  0.00000000000E+00  0.00000000000E+00  0.28978840960E+04  0.28978840960E+04  0.25500000920E-02 0. -1.
        2   -1    0    0  501    0  0.00000000000E+00  0.00000000000E+00 -0.92615977550E+03  0.92615977550E+03  0.25500000920E-02 0.  1.
    10030    2    1    2    0    0  0.00000000000E+00  0.00000000000E+00  0.19717243205E+04  0.38240438715E+04  0.32765247954E+04 0.  0.
        4    1    3    3  502    0  0.80692614172E+03  0.10098853141E+04  0.21604717286E+04  0.25176651582E+04  0.12699999809E+01 0. -1.
       -4    1    3    3    0  502 -0.80692614172E+03 -0.10098853141E+04 -0.18874740806E+03  0.13063787134E+04  0.12699999809E+01 0.  1.
</event>
<event>
 5   0  0.1129434E-06  0.3066995E+04  0.7818609E-02  0.8224855E-01
       -2   -1    0    0    0  501  0.00000000000E+00  0.00000000000E+00  0.10817498424E+04  0.10817498424E+04  0.25500000920E-02 0.  1.
        2   -1    0    0  501    0  0.00000000000E+00  0.00000000000E+00 -0.21738991381E+04  0.21738991381E+04  0.25500000920E-02 0. -1.
    10030    2    1    2    0    0  0.00000000000E+00  0.00000000000E+00 -0.10921492957E+04  0.32556489805E+04  0.30669953049E+04 0.  0.
        3    1    3    3  502    0  0.25193428699E+03 -0.93915094215E+03 -0.18048223531E+04  0.20500875868E+04  0.10100000352E+00 0. -1.
       -3    1    3    3    0  502 -0.25193428699E+03  0.93915094215E+03  0.71267305740E+03  0.12055613937E+04  0.10100000352E+00 0.  1.
</event>
<event>
 5   0  0.3757406E-07  0.3301393E+04  0.7818609E-02  0.8162541E-01
        1   -1    0    0  501    0  0.00000000000E+00  0.00000000000E+00  0.15298077831E+04  0.15298077831E+04  0.50400001928E-02 0. -1.
       -1   -1    0    0    0  501  0.00000000000E+00  0.00000000000E+00 -0.17811376274E+04  0.17811376274E+04  0.50400001928E-02 0.  1.
    10030    2    1    2    0    0  0.00000000000E+00  0.00000000000E+00 -0.25132984429E+03  0.33109454105E+04  0.33013925578E+04 0.  0.
        1    1    3    3  502    0  0.44791694578E+03  0.15699357792E+04  0.11890597993E+03  0.16369076252E+04  0.50400001928E-02 0. -1.
       -1    1    3    3    0  502 -0.44791694578E+03 -0.15699357792E+04 -0.37023582422E+03  0.16740377854E+04  0.50400001928E-02 0.  1.
</event>
<event>
 5   0  0.1126221E-06  0.3297765E+04  0.7818609E-02  0.8163464E-01
       -2   -1    0    0    0  501  0.00000000000E+00  0.00000000000E+00  0.72967775883E+03  0.72967775884E+03  0.25500000920E-02 0. -1.
        2   -1    0    0  501    0  0.00000000000E+00  0.00000000000E+00 -0.37260472494E+04  0.37260472494E+04  0.25500000920E-02 0.  1.
    10030    2    1    2    0    0  0.00000000000E+00  0.00000000000E+00 -0.29963694906E+04  0.44557250082E+04  0.32977651865E+04 0.  0.
        2    1    3    3  502    0  0.49788088774E+03  0.85044384781E+03 -0.32843795628E+04  0.34290361954E+04  0.25500000920E-02 0.  1.
       -2    1    3    3    0  502 -0.49788088774E+03 -0.85044384781E+03  0.28801007226E+03  0.10266888128E+04  0.25500000920E-02 0. -1.
</event>
<event>
 5   0  0.1116462E-06  0.3274498E+04  0.7818609E-02  0.8169415E-01
       -2   -1    0    0    0  501  0.00000000000E+00  0.00000000000E+00  0.12263630214E+04  0.12263630214E+04  0.25500000920E-02 0. -1.
        2   -1    0    0  501    0  0.00000000000E+00  0.00000000000E+00 -0.21857999173E+04  0.21857999173E+04  0.25500000920E-02 0.  1.
    10030    2    1    2    0    0  0.00000000000E+00  0.00000000000E+00 -0.95943689592E+03  0.34121629386E+04  0.32744979405E+04 0.  0.
        1    1    3    3  502    0 -0.38871224907E+03 -0.10955311044E+04  0.72170557039E+03  0.13682633312E+04  0.50400001928E-02 0. -1.
       -1    1    3    3    0  502  0.38871224907E+03  0.10955311044E+04 -0.16811424663E+04  0.20438996074E+04  0.50400001928E-02 0.  1.
</event>
<event>
 5   0  0.3674967E-07  0.3309388E+04  0.7818609E-02  0.8160511E-01
        1   -1    0    0  501    0  0.00000000000E+00  0.00000000000E+00  0.11483818356E+04  0.11483818356E+04  0.50400001928E-02 0.  1.
       -1   -1    0    0    0  501  0.00000000000E+00  0.00000000000E+00 -0.23842351953E+04  0.23842351953E+04  0.50400001928E-02 0. -1.
    10030    2    1    2    0    0  0.00000000000E+00  0.00000000000E+00 -0.12358533597E+04  0.35326170309E+04  0.33093880945E+04 0.  0.
        2    1    3    3  502    0 -0.79099697046E+03 -0.12317622482E+04 -0.14413877722E+04  0.20543887542E+04  0.25500000920E-02 0. -1.
       -2    1    3    3    0  502  0.79099697046E+03  0.12317622482E+04  0.20553441257E+03  0.14782282767E+04  0.25500000920E-02 0.  1.
</event>
<event>
 5   0  0.3674967E-07  0.3312222E+04  0.7818609E-02  0.8159792E-01
       -1   -1    0    0    0  501  0.00000000000E+00  0.00000000000E+00  0.13459567035E+04  0.13459567035E+04  0.50400001928E-02 0.  1.
        1   -1    0    0  501    0  0.00000000000E+00  0.00000000000E+00 -0.20377358673E+04  0.20377358674E+04  0.50400001928E-02 0. -1.
    10030    2    1    2    0    0  0.00000000000E+00  0.00000000000E+00 -0.69177916385E+03  0.33836925709E+04  0.33122223661E+04 0.  0.
        2    1    3    3  502    0  0.95293999465E+03  0.13541690080E+04 -0.37542563555E+03  0.16978847851E+04  0.25500000920E-02 0.  1.
       -2    1    3    3    0  502 -0.95293999465E+03 -0.13541690080E+04 -0.31635352829E+03  0.16858077858E+04  0.25500000920E-02 0. -1.
</event>
<event>
 5   0  0.1116462E-06  0.3304600E+04  0.7818609E-02  0.8161726E-01
        2   -1    0    0  501    0  0.00000000000E+00  0.00000000000E+00  0.20767718433E+04  0.20767718433E+04  0.25500000920E-02 0.  1.
       -2   -1    0    0    0  501  0.00000000000E+00  0.00000000000E+00 -0.13145864098E+04  0.13145864098E+04  0.25500000920E-02 0. -1.
    10030    2    1    2    0    0  0.00000000000E+00  0.00000000000E+00  0.76218543356E+03  0.33913582531E+04  0.33046004548E+04 0.  0.
        1    1    3    3  502    0  0.11038186815E+04  0.75179990125E+03 -0.61731931368E+03  0.14712925978E+04  0.50400001928E-02 0. -1.
       -1    1    3    3    0  502 -0.11038186815E+04 -0.75179990125E+03  0.13795047472E+04  0.19200656554E+04  0.50400001928E-02 0.  1.
</event>
<event>
 5   0  0.1120545E-06  0.3284386E+04  0.7818609E-02  0.8166880E-01
        2   -1    0    0  501    0  0.00000000000E+00  0.00000000000E+00  0.26345356983E+04  0.26345356983E+04  0.25500000920E-02 0.  1.
       -2   -1    0    0    0  501  0.00000000000E+00  0.00000000000E+00 -0.10236330139E+04  0.10236330139E+04  0.25500000920E-02 0. -1.
    10030    2    1    2    0    0  0.00000000000E+00  0.00000000000E+00  0.16109026843E+04  0.36581687122E+04  0.32843859196E+04 0.  0.
        4    1    3    3  502    0 -0.39178676518E+03  0.15884346555E+04  0.64724940325E+03  0.17594189174E+04  0.12699999809E+01 0.  1.
       -4    1    3    3    0  502  0.39178676518E+03 -0.15884346555E+04  0.96365328110E+03  0.18987497948E+04  0.12699999809E+01 0. -1.
</event>
<event>
 5   0  0.1120545E-06  0.3301500E+04  0.7818609E-02  0.8162514E-01
        2   -1    0    0  501    0  0.00000000000E+00  0.00000000000E+00  0.15329716077E+04  0.15329716077E+04  0.25500000920E-02 0.  1.
       -2   -1    0    0    0  501  0.00000000000E+00  0.00000000000E+00 -0.17775770997E+04  0.17775770997E+04  0.25500000920E-02 0. -1.
    10030    2    1    2    0    0  0.00000000000E+00  0.00000000000E+00 -0.24460549198E+03  0.33105487074E+04  0.33014997952E+04 0.  0.
        4    1    3    3  502    0 -0.11251504511E+04  0.11752982188E+04 -0.40178547454E+03  0.16759244079E+04  0.12699999809E+01 0.  1.
       -4    1    3    3    0  502  0.11251504511E+04 -0.11752982188E+04  0.15717998255E+03  0.16346242995E+04  0.12699999809E+01 0. -1.
</event>
<event>
 5   0  0.3749685E-07  0.3303857E+04  0.7818609E-02  0.8161915E-01
        1   -1    0    0  501    0  0.00000000000E+00  0.00000000000E+00  0.26489975170E+04  0.26489975170E+04  0.50400001928E-02 0.  1.
       -1   -1    0    0    0  501  0.00000000000E+00  0.00000000000E+00 -0.10301509038E+04  0.10301509039E+04  0.50400001928E-02 0. -1.
    10030    2    1    2    0    0  0.00000000000E+00  0.00000000000E+00  0.16188466132E+04  0.36791484209E+04  0.33038566473E+04 0.  0.
        3    1    3    3  502    0  0.10421573425E+04 -0.12295526011E+04  0.40640813515E+03  0.16622452009E+04  0.10100000352E+00 0. -1.
       -3    1    3    3    0  502 -0.10421573425E+04  0.12295526011E+04  0.12124384780E+04  0.20169032200E+04  0.10100000352E+00 0.  1.
</event>
<event>
 5   0  0.3796529E-07  0.3251230E+04  0.7818609E-02  0.8175417E-01
        1   -1    0    0  501    0  0.00000000000E+00  0.00000000000E+00  0.16580674939E+04  0.16580674939E+04  0.50400001928E-02 0. -1.
       -1   -1    0    0    0  501  0.00000000000E+00  0.00000000000E+00 -0.15937974834E+04  0.15937974834E+04  0.50400001928E-02 0.  1.
    10030    2    1    2    0    0  0.00000000000E+00  0.00000000000E+00  0.64270010482E+02  0.32518649773E+04  0.32512297975E+04 0.  0.
        5    1    3    3  502    0  0.71528676932E+03  0.13289583831E+04 -0.57199968979E+03  0.16139923425E+04  0.46999998093E+01 0.  1.
       -5    1    3    3    0  502 -0.71528676932E+03 -0.13289583831E+04  0.63626970027E+03  0.16378726348E+04  0.46999998093E+01 0. -1.
</event>
<event>
 5   0  0.1126221E-06  0.3300302E+04  0.7818609E-02  0.8162818E-01
        2   -1    0    0  501    0  0.00000000000E+00  0.00000000000E+00  0.24022020104E+04  0.24022020104E+04  0.25500000920E-02 0. -1.
       -2   -1    0    0    0  501  0.00000000000E+00  0.00000000000E+00 -0.11335429266E+04  0.11335429266E+04  0.25500000920E-02 0.  1.
    10030    2    1    2    0    0  0.00000000000E+00  0.00000000000E+00  0.12686590838E+04  0.35357449369E+04  0.33003024692E+04 0.  0.
        2    1    3    3  502    0 -0.10386462896E+04 -0.12741671194E+04  0.48014915815E+03  0.17125510729E+04  0.25500000920E-02 0. -1.
       -2    1    3    3    0  502  0.10386462896E+04  0.12741671194E+04  0.78850992569E+03  0.18231938641E+04  0.25500000920E-02 0.  1.
</event>
<event>
 5   0  0.3674967E-07  0.3305925E+04  0.7818609E-02  0.8161389E-01
       -1   -1    0    0    0  501  0.00000000000E+00  0.00000000000E+00  0.33836512782E+04  0.33836512782E+04  0.50400001928E-02 0. -1.
        1   -1    0    0  501    0  0.00000000000E+00  0.00000000000E+00 -0.80749625684E+03  0.80749625686E+03  0.50400001928E-02 0.  1.
    10030    2    1    2    0    0  0.00000000000E+00  0.00000000000E+00  0.25761550213E+04  0.41911475351E+04  0.33059254327E+04 0.  0.
        2    1    3    3  502    0  0.12685159429E+04 -0.93344558865E+03  0.19242804600E+04  0.24866259576E+04  0.25500000920E-02 0. -1.
       -2    1    3    3    0  502 -0.12685159429E+04  0.93344558865E+03  0.65187456135E+03  0.17045215775E+04  0.25500000920E-02 0.  1.
</event>
<event>
 5   0  0.3674967E-07  0.3190081E+04  0.7818609E-02  0.8191442E-01
       -1   -1    0    0    0  501  0.00000000000E+00  0.00000000000E+00  0.16347510628E+04  0.16347510628E+04  0.50400001928E-02 0.  1.
        1   -1    0    0  501    0  0.00000000000E+00  0.00000000000E+00 -0.15562946656E+04  0.15562946656E+04  0.50400001928E-02 0. -1.
    10030    2    1    2    0    0  0.00000000000E+00  0.00000000000E+00  0.78456397192E+02  0.31910457284E+04  0.31900811016E+04 0.  0.
        2    1    3    3  502    0 -0.11835951657E+04 -0.93673760442E+02  0.11046709560E+04  0.16217182896E+04  0.25500000920E-02 0.  1.
       -2    1    3    3    0  502  0.11835951657E+04  0.93673760442E+02 -0.10262145588E+04  0.15693274389E+04  0.25500000920E-02 0. -1.
</event>
<event>
 5   0  0.3757406E-07  0.3291460E+04  0.7818609E-02  0.8165072E-01
        1   -1    0    0  501    0  0.00000000000E+00  0.00000000000E+00  0.14151995229E+04  0.14151995229E+04  0.50400001928E-02 0.  1.
       -1   -1    0    0    0  501  0.00000000000E+00  0.00000000000E+00 -0.19138132559E+04  0.19138132559E+04  0.50400001928E-02 0. -1.
    10030    2    1    2    0    0  0.00000000000E+00  0.00000000000E+00 -0.49861373298E+03  0.33290127788E+04  0.32914602272E+04 0.  0.
        1    1    3    3  502    0  0.56083120273E+03  0.82199641206E+03 -0.15750700854E+04  0.18630768941E+04  0.50400001928E-02 0. -1.
       -1    1    3    3    0  502 -0.56083120273E+03 -0.82199641206E+03  0.10764563524E+04  0.14659358847E+04  0.50400001928E-02 0.  1.
</event>
<event>
 5   0  0.1126221E-06  0.3332386E+04  0.7818609E-02  0.8154703E-01
        2   -1    0    0  501    0  0.00000000000E+00  0.00000000000E+00  0.18143938603E+04  0.18143938603E+04  0.25500000920E-02 0.  1.
       -2   -1    0    0    0  501  0.00000000000E+00  0.00000000000E+00 -0.15300974422E+04  0.15300974422E+04  0.25500000920E-02 0. -1.
    10030    2    1    2    0    0  0.00000000000E+00  0.00000000000E+00  0.28429641815E+03  0.33444913025E+04  0.33323861750E+04 0.  0.
        2    1    3    3  502    0 -0.12199857647E+04  0.46741297085E+03 -0.89570650615E+03  0.15840234520E+04  0.25500000920E-02 0. -1.
       -2    1    3    3    0  502  0.12199857647E+04 -0.46741297085E+03  0.11800029243E+04  0.17604678505E+04  0.25500000920E-02 0.  1.
</event>
<event>
 5   0  0.1120545E-06  0.3169189E+04  0.7818609E-02  0.8197002E-01
       -2   -1    0    0    0  501  0.00000000000E+00  0.00000000000E+00  0.21565247702E+04  0.21565247702E+04  0.25500000920E-02 0.  1.
        2   -1    0    0  501    0  0.00000000000E+00  0.00000000000E+00 -0.11643456535E+04  0.11643456535E+04  0.25500000920E-02 0. -1.
    10030    2    1    2    0    0  0.00000000000E+00  0.00000000000E+00  0.99217911670E+03  0.33208704237E+04  0.31691893240E+04 0.  0.
        4    1    3    3  502    0  0.60249490602E+03  0.10907166915E+04  0.15218571293E+04  0.19669046107E+04  0.12699999809E+01 0.  1.
       -4    1    3    3    0  502 -0.60249490602E+03 -0.10907166915E+04 -0.52967801262E+03  0.13539658130E+04  0.12699999809E+01 0. -1.
</event>
<event>
 5   0  0.3749685E-07  0.3342723E+04  0.7818609E-02  0.8152109E-01
        1   -1    0    0  501    0  0.00000000000E+00  0.00000000000E+00  0.22114933987E+04  0.22114933987E+04  0.50400001928E-02 0.  1.
       -1   -1    0    0    0  501  0.00000000000E+00  0.00000000000E+00 -0.12631504547E+04  0.12631504547E+04  0.50400001928E-02 0. -1.
    10030    2    1    2    0    0  0.00000000000E+00  0.00000000000E+00  0.94834294403E+03  0.34746438534E+04  0.33427227777E+04 0.  0.
        3    1    3    3  502    0  0.90530999090E+03 -0.11843169589E+03  0.19293620421E+04  0.21344906057E+04  0.10100000352E+00 0.  1.
       -3    1    3    3    0  502 -0.90530999090E+03  0.11843169589E+03 -0.98101909808E+03  0.13401532477E+04  0.10100000352E+00 0. -1.
</event>
<event>
 5   0  0.1116462E-06  0.3302018E+04  0.7818609E-02  0.8162382E-01
       -2   -1    0    0    0  501  0.00000000000E+00  0.00000000000E+00  0.10381087154E+04  0.10381087154E+04  0.25500000920E-02 0. -1.
        2   -1    0    0  501    0  0.00000000000E+00  0.00000000000E+00 -0.26257669147E+04  0.26257669147E+04  0.25500000920E-02 0.  1.
    10030    2    1    2    0    0  0.00000000000E+00  0.00000000000E+00 -0.15876581993E+04  0.36638756301E+04  0.33020184849E+04 0.  0.
        1    1    3    3  502    0  0.48092566507E+03 -0.11854083671E+04  0.36426739699E+03  0.13301027136E+04  0.50400001928E-02 0. -1.
       -1    1    3    3    0  502 -0.48092566507E+03  0.11854083671E+04 -0.19519255963E+04  0.23337729165E+04  0.50400001928E-02 0.  1.
</event>
<event>
 5   0  0.3674967E-07  0.3307468E+04  0.7818609E-02  0.8160998E-01
       -1   -1    0    0    0  501  0.00000000000E+00  0.00000000000E+00  0.13382308875E+04  0.13382308875E+04  0.50400001928E-02 0.  1.
        1   -1    0    0  501    0  0.00000000000E+00  0.00000000000E+00 -0.20436205815E+04  0.20436205815E+04  0.50400001928E-02 0. -1.
    10030    2    1    2    0    0  0.00000000000E+00  0.00000000000E+00 -0.70538969405E+03  0.33818514690E+04  0.33074680253E+04 0.  0.
        2    1    3    3  502    0  0.11757168451E+03 -0.15842649913E+04 -0.82250350243E+03  0.17889188566E+04  0.25500000920E-02 0. -1.
       -2    1    3    3    0  502 -0.11757168451E+03  0.15842649913E+04  0.11711380838E+03  0.15929326125E+04  0.25500000920E-02 0.  1.
</event>
<event>
 5   0  0.3757406E-07  0.3298794E+04  0.7818609E-02  0.8163202E-01
       -1   -1    0    0    0  501  0.00000000000E+00  0.00000000000E+00  0.14348142776E+04  0.14348142776E+04  0.50400001928E-02 0.  1.
        1   -1    0    0  501    0  0.00000000000E+00  0.00000000000E+00 -0.18960715055E+04  0.18960715055E+04  0.50400001928E-02 0. -1.
    10030    2    1    2    0    0  0.00000000000E+00  0.00000000000E+00 -0.46125722796E+03  0.33308857831E+04  0.32987940023E+04 0.  0.
        1    1    3    3  502    0  0.86129192774E+03  0.69944746009E+03  0.10016785043E+04  0.14947944207E+04  0.50400001928E-02 0.  1.
       -1    1    3    3    0  502 -0.86129192774E+03 -0.69944746009E+03 -0.14629357323E+04  0.18360913624E+04  0.50400001928E-02 0. -1.
</event>
<event>
 5   0  0.3749685E-07  0.3302341E+04  0.7818609E-02  0.8162300E-01
        1   -1    0    0  501    0  0.00000000000E+00  0.00000000000E+00  0.32562417306E+04  0.32562417306E+04  0.50400001928E-02 0. -1.
       -1   -1    0    0    0  501  0.00000000000E+00  0.00000000000E+00 -0.83727327898E+03  0.83727327899E+03  0.50400001928E-02 0.  1.
    10030    2    1    2    0    0  0.00000000000E+00  0.00000000000E+00  0.24189684516E+04  0.40935150096E+04  0.33023411035E+04 0.  0.
        3    1    3    3  502    0  0.30948965241E+03 -0.15693012253E+04  0.70159830201E+03  0.17466340110E+04  0.10100000352E+00 0.  1.
       -3    1    3    3    0  502 -0.30948965241E+03  0.15693012253E+04  0.17173701496E+04  0.23468809986E+04  0.10100000352E+00 0. -1.
</event>
<event>
 5   0  0.3757406E-07  0.3310848E+04  0.7818609E-02  0.8160141E-01
        1   -1    0    0  501    0  0.00000000000E+00  0.00000000000E+00  0.14580321209E+04  0.14580321209E+04  0.50400001928E-02 0.  1.
       -1   -1    0    0    0  501  0.00000000000E+00  0.00000000000E+00 -0.18795395830E+04  0.18795395830E+04  0.50400001928E-02 0. -1.
    10030    2    1    2    0    0  0.00000000000E+00  0.00000000000E+00 -0.42150746207E+03  0.33375717039E+04  0.33108482807E+04 0.  0.
        1    1    3    3  502    0 -0.13303416429E+04 -0.51948434952E+03 -0.10546222821E+04  0.17753594099E+04  0.50400001928E-02 0. -1.
       -1    1    3    3    0  502  0.13303416429E+04  0.51948434952E+03  0.63311482002E+03  0.15622122940E+04  0.50400001928E-02 0.  1.
</event>
<event>
 5   0  0.3757406E-07  0.3302495E+04  0.7818609E-02  0.8162261E-01
        1   -1    0    0  501    0  0.00000000000E+00  0.00000000000E+00  0.15897214226E+04  0.15897214226E+04  0.50400001928E-02 0. -1.
       -1   -1    0    0    0  501  0.00000000000E+00  0.00000000000E+00 -0.17151542856E+04  0.17151542856E+04  0.50400001928E-02 0.  1.
    10030    2    1    2    0    0  0.00000000000E+00  0.00000000000E+00 -0.12543286301E+03  0.33048757083E+04  0.33024945184E+04 0.  0.
        1    1    3    3  502    0  0.10977544150E+04  0.11927329308E+04  0.25205910884E+03  0.16404909004E+04  0.50400001928E-02 0. -1.
       -1    1    3    3    0  502 -0.10977544150E+04 -0.11927329308E+04 -0.37749197185E+03  0.16643848079E+04  0.50400001928E-02 0.  1.
</event>
<event>
 5   0  0.3674967E-07  0.3299417E+04  0.7818609E-02  0.8163044E-01
       -1   -1    0    0    0  501  0.00000000000E+00  0.00000000000E+00  0.12013831739E+04  0.12013831740E+04  0.50400001928E-02 0.  1.
        1   -1    0    0  501    0  0.00000000000E+00  0.00000000000E+00 -0.22653374458E+04  0.22653374458E+04  0.50400001928E-02 0. -1.
    10030    2    1    2    0    0  0.00000000000E+00  0.00000000000E+00 -0.10639542719E+04  0.34667206198E+04  0.32994170944E+04 0.  0.
        2    1    3    3  502    0  0.80306117801E+03 -0.12634981364E+04  0.19612831344E+03  0.15099010271E+04  0.25500000920E-02 0.  1.
       -2    1    3    3    0  502 -0.80306117801E+03  0.12634981364E+04 -0.12600825853E+04  0.19568195927E+04  0.25500000920E-02 0. -1.
</event>
<event>
 5   0  0.3757406E-07  0.3317202E+04  0.7818609E-02  0.8158532E-01
        1   -1    0    0  501    0  0.00000000000E+00  0.00000000000E+00  0.26658658185E+04  0.26658658185E+04  0.50400001928E-02 0.  1.
       -1   -1    0    0    0  501  0.00000000000E+00  0.00000000000E+00 -0.10319187609E+04  0.10319187609E+04  0.50400001928E-02 0. -1.
    10030    2    1    2    0    0  0.00000000000E+00  0.00000000000E+00  0.16339470576E+04  0.36977845794E+04  0.33172018040E+04 0.  0.
        1    1    3    3  502    0  0.55322488786E+03  0.17202139241E+03 -0.91545751564E+03  0.10833797113E+04  0.50400001928E-02 0. -1.
       -1    1    3    3    0  502 -0.55322488786E+03 -0.17202139241E+03  0.25494045732E+04  0.26144048680E+04  0.50400001928E-02 0.  1.
</event>
<event>
 5   0  0.1126221E-06  0.3312276E+04  0.7818609E-02  0.8159779E-01
        2   -1    0    0  501    0  0.00000000000E+00  0.00000000000E+00  0.18587245513E+04  0.18587245513E+04  0.25500000920E-02 0. -1.
       -2   -1    0    0    0  501  0.00000000000E+00  0.00000000000E+00 -0.14756314311E+04  0.14756314311E+04  0.25500000920E-02 0.  1.
    10030    2    1    2    0    0  0.00000000000E+00  0.00000000000E+00  0.38309312024E+03  0.33343559824E+04  0.33122755741E+04 0.  0.
        2    1    3    3  502    0 -0.11522381144E+04 -0.11895897183E+04  0.18751994071E+03  0.16667153621E+04  0.25500000920E-02 0. -1.
       -2    1    3    3    0  502  0.11522381144E+04  0.11895897183E+04  0.19557317953E+03  0.16676406203E+04  0.25500000920E-02 0.  1.
</event>
<event>
 5   0  0.3674967E-07  0.3289510E+04  0.7818609E-02  0.8165570E-01
        1   -1    0    0  501    0  0.00000000000E+00  0.00000000000E+00  0.13109407396E+04  0.13109407396E+04  0.50400001928E-02 0.  1.
       -1   -1    0    0    0  501  0.00000000000E+00  0.00000000000E+00 -0.20635702629E+04  0.20635702629E+04  0.50400001928E-02 0. -1.
    10030    2    1    2    0    0  0.00000000000E+00  0.00000000000E+00 -0.75262952334E+03  0.33745110025E+04  0.32895095845E+04 0.  0.
        2    1    3    3  502    0 -0.10901721756E+04  0.41704044607E+03  0.81243003384E+03  0.14221254044E+04  0.25500000920E-02 0.  1.
       -2    1    3    3    0  502  0.10901721756E+04 -0.41704044607E+03 -0.15650595572E+04  0.19523855981E+04  0.25500000920E-02 0. -1.
</event>
<event>
 5   0  0.3796529E-07  0.3302475E+04  0.7818609E-02  0.8162266E-01
       -1   -1    0    0    0  501  0.00000000000E+00  0.00000000000E+00  0.18730300631E+04  0.18730300631E+04  0.50400001928E-02 0.  1.
        1   -1    0    0  501    0  0.00000000000E+00  0.00000000000E+00 -0.14557086486E+04  0.14557086486E+04  0.50400001928E-02 0. -1.
    10030    2    1    2    0    0  0.00000000000E+00  0.00000000000E+00  0.41732141449E+03  0.33287387116E+04  0.33024754726E+04 0.  0.
        5    1    3    3  502    0 -0.11601956348E+04  0.75202903699E+03 -0.70127118900E+03  0.15502918932E+04  0.46999998093E+01 0. -1.
       -5    1    3    3    0  502  0.11601956348E+04 -0.75202903699E+03  0.11185926035E+04  0.17784468185E+04  0.46999998093E+01 0.  1.
</event>
<event>
 5   0  0.1116462E-06  0.3303869E+04  0.7818609E-02  0.8161912E-01
        2   -1    0    0  501    0  0.00000000000E+00  0.00000000000E+00  0.22769810492E+04  0.22769810492E+04  0.25500000920E-02 0.  1.
       -2   -1    0    0    0  501  0.00000000000E+00  0.00000000000E+00 -0.11984676479E+04  0.11984676479E+04  0.25500000920E-02 0. -1.
    10030    2    1    2    0    0  0.00000000000E+00  0.00000000000E+00  0.10785134014E+04  0.34754486971E+04  0.33038693208E+04 0.  0.
        1    1    3    3  502    0  0.98257422386E+02 -0.16433885493E+04  0.39614867920E+03  0.16933145665E+04  0.50400001928E-02 0. -1.
       -1    1    3    3    0  502 -0.98257422386E+02  0.16433885493E+04  0.68236472217E+03  0.17821341305E+04  0.50400001928E-02 0.  1.
</event>
<event>
 5   0  0.1116462E-06  0.3236332E+04  0.7818609E-02  0.8179287E-01
       -2   -1    0    0    0  501  0.00000000000E+00  0.00000000000E+00  0.26628333709E+04  0.26628333709E+04  0.25500000920E-02 0. -1.
        2   -1    0    0  501    0  0.00000000000E+00  0.00000000000E+00 -0.98333654272E+03  0.98333654272E+03  0.25500000920E-02 0.  1.
    10030    2    1    2    0    0  0.00000000000E+00  0.00000000000E+00  0.16794968282E+04  0.36461699136E+04  0.32363320972E+04 0.  0.
        1    1    3    3  502    0  0.48319343710E+03  0.14549946944E+04  0.14229674541E+04  0.20917269979E+04  0.50400001928E-02 0. -1.
       -1    1    3    3    0  502 -0.48319343710E+03 -0.14549946944E+04  0.25652937409E+03  0.15544429157E+04  0.50400001928E-02 0.  1.
</event>
<event>
 5   0  0.1126221E-06  0.3270575E+04  0.7818609E-02  0.8170423E-01
        2   -1    0    0  501    0  0.00000000000E+00  0.00000000000E+00  0.20791175255E+04  0.20791175255E+04  0.25500000920E-02 0. -1.
       -2   -1    0    0    0  501  0.00000000000E+00  0.00000000000E+00 -0.12862017072E+04  0.12862017072E+04  0.25500000920E-02 0.  1.
    10030    2    1    2    0    0  0.00000000000E+00  0.00000000000E+00  0.79291581833E+03  0.33653192327E+04  0.32705745738E+04 0.  0.
        2    1    3    3  502    0  0.22628097525E+03  0.14791324161E+04 -0.28229403928E+03  0.15227362571E+04  0.25500000920E-02 0.  1.
       -2    1    3    3    0  502 -0.22628097525E+03 -0.14791324161E+04  0.10752098576E+04  0.18425829756E+04  0.25500000920E-02 0. -1.
</event>
<event>
 5   0  0.1146799E-06  0.3292827E+04  0.7818609E-02  0.8164723E-01
       -2   -1    0    0    0  501  0.00000000000E+00  0.00000000000E+00  0.17673006372E+04  0.17673006372E+04  0.25500000920E-02 0. -1.
        2   -1    0    0  501    0  0.00000000000E+00  0.00000000000E+00 -0.15337951027E+04  0.15337951027E+04  0.25500000920E-02 0.  1.
    10030    2    1    2    0    0  0.00000000000E+00  0.00000000000E+00  0.23350553456E+03  0.33010957399E+04  0.32928267871E+04 0.  0.
        5    1    3    3  502    0  0.10730733950E+04  0.11800708704E+04 -0.29244033032E+03  0.16216032829E+04  0.46999998093E+01 0. -1.
       -5    1    3    3    0  502 -0.10730733950E+04 -0.11800708704E+04  0.52594586488E+03  0.16794924570E+04  0.46999998093E+01 0.  1.
</event>
<event>
 5   0  0.3709747E-07  0.3272860E+04  0.7818609E-02  0.8169836E-01
       -1   -1    0    0    0  501  0.00000000000E+00  0.00000000000E+00  0.15259164302E+04  0.15259164302E+04  0.50400001928E-02 0.  1.
        1   -1    0    0  501    0  0.00000000000E+00  0.00000000000E+00 -0.17549474891E+04  0.17549474891E+04  0.50400001928E-02 0. -1.
    10030    2    1    2    0    0  0.00000000000E+00  0.00000000000E+00 -0.22903105893E+03  0.32808639193E+04  0.32728600384E+04 0.  0.
        4    1    3    3  502    0 -0.90961439860E+03 -0.12720970899E+04 -0.59764044250E+03  0.16741580188E+04  0.12699999809E+01 0. -1.
       -4    1    3    3    0  502  0.90961439860E+03  0.12720970899E+04  0.36860938357E+03  0.16067059006E+04  0.12699999809E+01 0.  1.
</event>
<event>
 5   0  0.1116462E-06  0.3316319E+04  0.7818609E-02  0.8158756E-01
        2   -1    0    0  501    0  0.00000000000E+00  0.00000000000E+00  0.17639731613E+04  0.17639731613E+04  0.25500000920E-02 0.  1.
       -2   -1    0    0    0  501  0.00000000000E+00  0.00000000000E+00 -0.15586927235E+04  0.15586927235E+04  0.25500000920E-02 0. -1.
    10030    2    1    2    0    0  0.00000000000E+00  0.00000000000E+00  0.20528043780E+03  0.33226658848E+04  0.33163185197E+04 0.  0.
        1    1    3    3  502    0 -0.11342115129E+03  0.31374626581E+03  0.17299999225E+04  0.17618742318E+04  0.50400001928E-02 0.  1.
       -1    1    3    3    0  502  0.11342115129E+03 -0.31374626581E+03 -0.15247194847E+04  0.15607916530E+04  0.50400001928E-02 0. -1.
</event>
<event>
 5   0  0.3757406E-07  0.3275435E+04  0.7818609E-02  0.8169174E-01
        1   -1    0    0  501    0  0.00000000000E+00  0.00000000000E+00  0.14243668509E+04  0.14243668509E+04  0.50400001928E-02 0.  1.
       -1   -1    0    0    0  501  0.00000000000E+00  0.00000000000E+00 -0.18830252530E+04  0.18830252530E+04  0.50400001928E-02 0. -1.
    10030    2    1    2    0    0  0.00000000000E+00  0.00000000000E+00 -0.45865840212E+03  0.33073921039E+04  0.32754350855E+04 0.  0.
        1    1    3    3  502    0  0.37780720781E+03  0.14243449799E+04 -0.95087912012E+03  0.17537582528E+04  0.50400001928E-02 0. -1.
       -1    1    3    3    0  502 -0.37780720781E+03 -0.14243449799E+04  0.49222071799E+03  0.15536338511E+04  0.50400001928E-02 0.  1.
</event>
<event>
 5   0  0.3674967E-07  0.3305493E+04  0.7818609E-02  0.8161499E-01
        1   -1    0    0  501    0  0.00000000000E+00  0.00000000000E+00  0.12715335093E+04  0.12715335093E+04  0.50400001928E-02 0. -1.
       -1   -1    0    0    0  501  0.00000000000E+00  0.00000000000E+00 -0.21482492232E+04  0.21482492232E+04  0.50400001928E-02 0.  1.
    10030    2    1    2    0    0  0.00000000000E+00  0.00000000000E+00 -0.87671571387E+03  0.34197827325E+04  0.33054929276E+04 0.  0.
        2    1    3    3  502    0 -0.13449078926E+04  0.66851346245E+03 -0.11520526917E+04  0.18928583924E+04  0.25500000920E-02 0. -1.
       -2    1    3    3    0  502  0.13449078926E+04 -0.66851346245E+03  0.27533697780E+03  0.15269243401E+04  0.25500000920E-02 0.  1.
</event>
<event>
 5   0  0.3749685E-07  0.3313965E+04  0.7818609E-02  0.8159351E-01
       -1   -1    0    0    0  501  0.00000000000E+00  0.00000000000E+00  0.15003371385E+04  0.15003371385E+04  0.50400001928E-02 0.  1.
        1   -1    0    0  501    0  0.00000000000E+00  0.00000000000E+00 -0.18299822428E+04  0.18299822428E+04  0.50400001928E-02 0. -1.
    10030    2    1    2    0    0  0.00000000000E+00  0.00000000000E+00 -0.32964510435E+03  0.33303193813E+04  0.33139645874E+04 0.  0.
        3    1    3    3  502    0  0.64757700855E+03 -0.12772066053E+04  0.67294479685E+03  0.15822349397E+04  0.10100000352E+00 0.  1.
       -3    1    3    3    0  502 -0.64757700855E+03  0.12772066053E+04 -0.10025899012E+04  0.17480844416E+04  0.10100000352E+00 0. -1.
</event>
<event>
 5   0  0.3796529E-07  0.3278226E+04  0.7818609E-02  0.8168458E-01
        1   -1    0    0  501    0  0.00000000000E+00  0.00000000000E+00  0.16483050129E+04  0.16483050129E+04  0.50400001928E-02 0. -1.
       -1   -1    0    0    0  501  0.00000000000E+00  0.00000000000E+00 -0.16299719431E+04  0.16299719431E+04  0.50400001928E-02 0.  1.
    10030    2    1    2    0    0  0.00000000000E+00  0.00000000000E+00  0.18333069803E+02  0.32782769561E+04  0.32782256938E+04 0.  0.
        5    1    3    3  502    0  0.42843530307E+03 -0.73319903061E+03 -0.13928294276E+04  0.16312981124E+04  0.46999998093E+01 0.  1.
       -5    1    3    3    0  502 -0.42843530307E+03  0.73319903061E+03  0.14111624974E+04  0.16469788436E+04  0.46999998093E+01 0. -1.
</event>
<event>
 5   0  0.3674967E-07  0.3302110E+04  0.7818609E-02  0.8162359E-01
       -1   -1    0    0    0  501  0.00000000000E+00  0.00000000000E+00  0.21070278592E+04  0.21070278592E+04  0.50400001928E-02 0. -1.
        1   -1    0    0  501    0  0.00000000000E+00  0.00000000000E+00 -0.12937571934E+04  0.12937571934E+04  0.50400001928E-02 0.  1.
    10030    2    1    2    0    0  0.00000000000E+00  0.00000000000E+00  0.81327066582E+03  0.34007850527E+04  0.33021099010E+04 0.  0.
        2    1    3    3  502    0 -0.42408569438E+02  0.86974653638E+03  0.18513093209E+04  0.20458748070E+04  0.25500000920E-02 0. -1.
       -2    1    3    3    0  502  0.42408569438E+02 -0.86974653638E+03 -0.10380386551E+04  0.13549102456E+04  0.25500000920E-02 0.  1.
</event>
<event>
 5   0  0.1116462E-06  0.3318117E+04  0.7818609E-02  0.8158301E-01
       -2   -1    0    0    0  501  0.00000000000E+00  0.00000000000E+00  0.11030071804E+04  0.11030071804E+04  0.25500000920E-02 0. -1.
        2   -1    0    0  501    0  0.00000000000E+00  0.00000000000E+00 -0.24954280944E+04  0.24954280944E+04  0.25500000920E-02 0.  1.
    10030    2    1    2    0    0  0.00000000000E+00  0.00000000000E+00 -0.13924209140E+04  0.35984352748E+04  0.33181169999E+04 0.  0.
        1    1    3    3  502    0  0.73651835011E+03 -0.90050431501E+03 -0.19789768975E+04  0.22955863874E+04  0.50400001928E-02 0.  1.
       -1    1    3    3    0  502 -0.73651835011E+03  0.90050431501E+03  0.58655598349E+03  0.13028488873E+04  0.50400001928E-02 0. -1.
</event>
<event>
 5   0  0.1129434E-06  0.3288940E+04  0.7818609E-02  0.8165715E-01
       -2   -1    0    0    0  501  0.00000000000E+00  0.00000000000E+00  0.16108302171E+04  0.16108302171E+04  0.25500000920E-02 0. -1.
        2   -1    0    0  501    0  0.00000000000E+00  0.00000000000E+00 -0.16788119726E+04  0.16788119726E+04  0.25500000920E-02 0.  1.
    10030    2    1    2    0    0  0.00000000000E+00  0.00000000000E+00 -0.67981755526E+02  0.32896421896E+04  0.32889396797E+04 0.  0.
        3    1    3    3  502    0  0.32567522686E+03 -0.63750673454E+03  0.14467988715E+04  0.16142199896E+04  0.10100000352E+00 0. -1.
       -3    1    3    3    0  502 -0.32567522686E+03  0.63750673454E+03 -0.15147806271E+04  0.16754222000E+04  0.10100000352E+00 0.  1.
</event>
<event>
 5   0  0.3757406E-07  0.3291769E+04  0.7818609E-02  0.8164993E-01
       -1   -1    0    0    0  501  0.00000000000E+00  0.00000000000E+00  0.11502111197E+04  0.11502111197E+04  0.50400001928E-02 0. -1.
        1   -1    0    0  501    0  0.00000000000E+00  0.00000000000E+00 -0.23551646669E+04  0.23551646669E+04  0.50400001928E-02 0.  1.
    10030    2    1    2    0    0  0.00000000000E+00  0.00000000000E+00 -0.12049535473E+04  0.35053757866E+04  0.32917694868E+04 0.  0.
        1    1    3    3  502    0  0.24789916042E+03  0.13243347351E+04  0.40418049246E+03  0.14066550234E+04  0.50400001928E-02 0. -1.
       -1    1    3    3    0  502 -0.24789916042E+03 -0.13243347351E+04 -0.16091340398E+04  0.20987207633E+04  0.50400001928E-02 0.  1.
</event>
<event>
 5   0  0.3674967E-07  0.3283239E+04  0.7818609E-02  0.8167173E-01
        1   -1    0    0  501    0  0.00000000000E+00  0.00000000000E+00  0.11641447361E+04  0.11641447361E+04  0.50400001928E-02 0.  1.
       -1   -1    0    0    0  501  0.00000000000E+00  0.00000000000E+00 -0.23149314772E+04  0.23149314772E+04  0.50400001928E-02 0. -1.
    10030    2    1    2    0    0  0.00000000000E+00  0.00000000000E+00 -0.11507867411E+04  0.34790762134E+04  0.32832394331E+04 0.  0.
        2    1    3    3  502    0 -0.10306092838E+04 -0.23184790740E+03  0.75614389378E+03  0.12991006644E+04  0.25500000920E-02 0.  1.
       -2    1    3    3    0  502  0.10306092838E+04  0.23184790740E+03 -0.19069306349E+04  0.21799755490E+04  0.25500000920E-02 0. -1.
</event>
<event>
 5   0  0.3757406E-07  0.3283948E+04  0.7818609E-02  0.8166992E-01
       -1   -1    0    0    0  501  0.00000000000E+00  0.00000000000E+00  0.19100482152E+04  0.19100482152E+04  0.50400001928E-02 0.  1.
        1   -1    0    0  501    0  0.00000000000E+00  0.00000000000E+00 -0.14115236993E+04  0.14115236993E+04  0.50400001928E-02 0. -1.
    10030    2    1    2    0    0  0.00000000000E+00  0.00000000000E+00  0.49852451587E+03  0.33215719145E+04  0.32839478209E+04 0.  0.
        1    1    3    3  502    0  0.10777551170E+04 -0.50162227837E+03 -0.89636505921E+03  0.14888422757E+04  0.50400001928E-02 0. -1.
       -1    1    3    3    0  502 -0.10777551170E+04  0.50162227837E+03  0.13948895751E+04  0.18327296388E+04  0.50400001928E-02 0.  1.
</event>
<event>
 5   0  0.3709747E-07  0.3310383E+04  0.7818609E-02  0.8160259E-01
       -1   -1    0    0    0  501  0.00000000000E+00  0.00000000000E+00  0.95711676999E+03  0.95711677000E+03  0.50400001928E-02 0.  1.
        1   -1    0    0  501    0  0.00000000000E+00  0.00000000000E+00 -0.28624077903E+04  0.28624077903E+04  0.50400001928E-02 0. -1.
    10030    2    1    2    0    0  0.00000000000E+00  0.00000000000E+00 -0.19052910203E+04  0.38195245603E+04  0.33103827565E+04 0.  0.
        4    1    3    3  502    0  0.84696811189E+02 -0.29127492237E+03 -0.28300625171E+04  0.28462730182E+04  0.12699999809E+01 0. -1.
       -4    1    3    3    0  502 -0.84696811189E+02  0.29127492237E+03  0.92477149677E+03  0.97325154218E+03  0.12699999809E+01 0.  1.
</event>
<event>
 5   0  0.3749685E-07  0.3321073E+04  0.7818609E-02  0.8157554E-01
        1   -1    0    0  501    0  0.00000000000E+00  0.00000000000E+00  0.13056749844E+04  0.13056749844E+04  0.50400001928E-02 0.  1.
       -1   -1    0    0    0  501  0.00000000000E+00  0.00000000000E+00 -0.21118432788E+04  0.21118432788E+04  0.50400001928E-02 0. -1.
    10030    2    1    2    0    0  0.00000000000E+00  0.00000000000E+00 -0.80616829444E+03  0.34175182632E+04  0.33210726822E+04 0.  0.
        3    1    3    3  502    0 -0.14276295615E+04  0.42522880919E+03 -0.11581749767E+04  0.18868796973E+04  0.10100000352E+00 0.  1.
       -3    1    3    3    0  502  0.14276295615E+04 -0.42522880919E+03  0.35200668228E+03  0.15306385660E+04  0.10100000352E+00 0. -1.
</event>
<event>
 5   0  0.1116462E-06  0.3263473E+04  0.7818609E-02  0.8172252E-01
       -2   -1    0    0    0  501  0.00000000000E+00  0.00000000000E+00  0.98108748113E+03  0.98108748114E+03  0.25500000920E-02 0. -1.
        2   -1    0    0  501    0  0.00000000000E+00  0.00000000000E+00 -0.27138899949E+04  0.27138899949E+04  0.25500000920E-02 0.  1.
    10030    2    1    2    0    0  0.00000000000E+00  0.00000000000E+00 -0.17328025138E+04  0.36949774760E+04  0.32634726897E+04 0.  0.
        1    1    3    3  502    0 -0.70649311776E+03  0.26502526554E+03 -0.25044861540E+04  0.26156876366E+04  0.50400001928E-02 0.  1.
       -1    1    3    3    0  502  0.70649311776E+03 -0.26502526554E+03  0.77168364023E+03  0.10792898394E+04  0.50400001928E-02 0. -1.
</event>
<event>
 5   0  0.3796529E-07  0.3299906E+04  0.7818609E-02  0.8162919E-01
       -1   -1    0    0    0  501  0.00000000000E+00  0.00000000000E+00  0.14616275402E+04  0.14616275402E+04  0.50400001928E-02 0.  1.
        1   -1    0    0  501    0  0.00000000000E+00  0.00000000000E+00 -0.18625431945E+04  0.18625431945E+04  0.50400001928E-02 0. -1.
    10030    2    1    2    0    0  0.00000000000E+00  0.00000000000E+00 -0.40091565429E+03  0.33241707347E+04  0.32999057125E+04 0.  0.
        5    1    3    3  502    0  0.15831652975E+04  0.35393493091E+03  0.10282082630E+03  0.16255080765E+04  0.46999998093E+01 0.  1.
       -5    1    3    3    0  502 -0.15831652975E+04 -0.35393493091E+03 -0.50373648059E+03  0.16986626582E+04  0.46999998093E+01 0. -1.
</event>
<event>
 5   0  0.1126221E-06  0.3312316E+04  0.7818609E-02  0.8159769E-01
       -2   -1    0    0    0  501  0.00000000000E+00  0.00000000000E+00  0.28356354424E+04  0.28356354424E+04  0.25500000920E-02 0.  1.
        2   -1    0    0  501    0  0.00000000000E+00  0.00000000000E+00 -0.96728217182E+03  0.96728217183E+03  0.25500000920E-02 0. -1.
    10030    2    1    2    0    0  0.00000000000E+00  0.00000000000E+00  0.18683532706E+04  0.38029176142E+04  0.33123161741E+04 0.  0.
        2    1    3    3  502    0 -0.58966586490E+03  0.60443287820E+03  0.25699130632E+04  0.27050874457E+04  0.25500000920E-02 0.  1.
       -2    1    3    3    0  502  0.58966586490E+03 -0.60443287820E+03 -0.70155979257E+03  0.10978301686E+04  0.25500000920E-02 0. -1.
</event>
<event>
 5   0  0.3709747E-07  0.3326619E+04  0.7818609E-02  0.8156155E-01
        1   -1    0    0  501    0  0.00000000000E+00  0.00000000000E+00  0.11333988746E+04  0.11333988746E+04  0.50400001928E-02 0. -1.
       -1   -1    0    0    0  501  0.00000000000E+00  0.00000000000E+00 -0.24409748905E+04  0.24409748905E+04  0.50400001928E-02 0.  1.
    10030    2    1    2    0    0  0.00000000000E+00  0.00000000000E+00 -0.13075760159E+04  0.35743737652E+04  0.33266188203E+04 0.  0.
        4    1    3    3  502    0  0.47298324500E+03 -0.82885485237E+03 -0.21175559385E+04  0.23226618957E+04  0.12699999809E+01 0.  1.
       -4    1    3    3    0  502 -0.47298324500E+03  0.82885485237E+03  0.80997992252E+03  0.12517118695E+04  0.12699999809E+01 0. -1.
</event>
<event>
 5   0  0.1129434E-06  0.3301022E+04  0.7818609E-02  0.8162635E-01
       -2   -1    0    0    0  501  0.00000000000E+00  0.00000000000E+00  0.12834163887E+04  0.12834163887E+04  0.25500000920E-02 0. -1.
        2   -1    0    0  501    0  0.00000000000E+00  0.00000000000E+00 -0.21226053530E+04  0.21226053530E+04  0.25500000920E-02 0.  1.
    10030    2    1    2    0    0  0.00000000000E+00  0.00000000000E+00 -0.83918896431E+03  0.34060217417E+04  0.33010219610E+04 0.  0.
        3    1    3    3  502    0 -0.38913610436E+02  0.51431993898E+03 -0.20373129627E+04  0.21015906801E+04  0.10100000352E+00 0.  1.
       -3    1    3    3    0  502  0.38913610436E+02 -0.51431993898E+03  0.11981239984E+04  0.13044310616E+04  0.10100000352E+00 0. -1.
</event>
<event>
 5   0  0.3757406E-07  0.3295434E+04  0.7818609E-02  0.8164058E-01
       -1   -1    0    0    0  501  0.00000000000E+00  0.00000000000E+00  0.15971639217E+04  0.15971639217E+04  0.50400001928E-02 0.  1.
        1   -1    0    0  501    0  0.00000000000E+00  0.00000000000E+00 -0.16998701657E+04  0.16998701657E+04  0.50400001928E-02 0. -1.
    10030    2    1    2    0    0  0.00000000000E+00  0.00000000000E+00 -0.10270624399E+03  0.32970340874E+04  0.32954339928E+04 0.  0.
        1    1    3    3  502    0  0.64994991878E+02 -0.16452927446E+04 -0.11269141826E+03  0.16504277992E+04  0.50400001928E-02 0.  1.
       -1    1    3    3    0  502 -0.64994991878E+02  0.16452927446E+04  0.99851742741E+01  0.16466062882E+04  0.50400001928E-02 0. -1.
</event>
<event>
 5   0  0.1129434E-06  0.3307410E+04  0.7818609E-02  0.8161013E-01
        2   -1    0    0  501    0  0.00000000000E+00  0.00000000000E+00  0.22274096897E+04  0.22274096897E+04  0.25500000920E-02 0. -1.
       -2   -1    0    0    0  501  0.00000000000E+00  0.00000000000E+00 -0.12277667342E+04  0.12277667342E+04  0.25500000920E-02 0.  1.
    10030    2    1    2    0    0  0.00000000000E+00  0.00000000000E+00  0.99964295554E+03  0.34551764239E+04  0.33074095727E+04 0.  0.
        3    1    3    3  502    0  0.10095591552E+04 -0.76380520473E+03  0.16113757511E+04  0.20491802995E+04  0.10100000352E+00 0. -1.
       -3    1    3    3    0  502 -0.10095591552E+04  0.76380520473E+03 -0.61173279553E+03  0.14059961244E+04  0.10100000352E+00 0.  1.
</event>
<event>
 5   0  0.3796529E-07  0.3298273E+04  0.7818609E-02  0.8163335E-01
        1   -1    0    0  501    0  0.00000000000E+00  0.00000000000E+00  0.10574820977E+04  0.10574820977E+04  0.50400001928E-02 0. -1.
       -1   -1    0    0    0  501  0.00000000000E+00  0.00000000000E+00 -0.25718181598E+04  0.25718181598E+04  0.50400001928E-02 0.  1.
    10030    2    1    2    0    0  0.00000000000E+00  0.00000000000E+00 -0.15143360621E+04  0.36293002575E+04  0.32982732831E+04 0.  0.
        5    1    3    3  502    0  0.15800808521E+04 -0.39557887711E+03 -0.47342899821E+03  0.16962591941E+04  0.46999998093E+01 0.  1.
       -5    1    3    3    0  502 -0.15800808521E+04  0.39557887711E+03 -0.10409070639E+04  0.19330410634E+04  0.46999998093E+01 0. -1.
</event>
<event>
 5   0  0.3796529E-07  0.3312429E+04  0.7818609E-02  0.8159740E-01
        1   -1    0    0  501    0  0.00000000000E+00  0.00000000000E+00  0.24194718705E+04  0.24194718705E+04  0.50400001928E-02 0. -1.
       -1   -1    0    0    0  501  0.00000000000E+00  0.00000000000E+00 -0.11337379765E+04  0.11337379765E+04  0.50400001928E-02 0.  1.
    10030    2    1    2    0    0  0.00000000000E+00  0.00000000000E+00  0.12857338940E+04  0.35532098471E+04  0.33124294062E+04 0.  0.
        5    1    3    3  502    0  0.79232465885E+03 -0.76308231351E+03 -0.68525671358E+03  0.12960215414E+04  0.46999998093E+01 0.  1.
       -5    1    3    3    0  502 -0.79232465885E+03  0.76308231351E+03  0.19709906076E+04  0.22571883057E+04  0.46999998093E+01 0. -1.
</event>
<event>
 5   0  0.3749685E-07  0.3307451E+04  0.7818609E-02  0.8161002E-01
        1   -1    0    0  501    0  0.00000000000E+00  0.00000000000E+00  0.26853135037E+04  0.26853135037E+04  0.50400001928E-02 0. -1.
       -1   -1    0    0    0  501  0.00000000000E+00  0.00000000000E+00 -0.10184312805E+04  0.10184312805E+04  0.50400001928E-02 0.  1.
    10030    2    1    2    0    0  0.00000000000E+00  0.00000000000E+00  0.16668822232E+04  0.37037447842E+04  0.33074505409E+04 0.  0.
        3    1    3    3  502    0 -0.51334078959E+03  0.61888799206E+03 -0.78479026793E+03  0.11235821678E+04  0.10100000352E+00 0.  1.
       -3    1    3    3    0  502  0.51334078959E+03 -0.61888799206E+03  0.24516724911E+04  0.25801626164E+04  0.10100000352E+00 0. -1.
</event>
<event>
 5   0  0.1146799E-06  0.3305576E+04  0.7818609E-02  0.8161478E-01
       -2   -1    0    0    0  501  0.00000000000E+00  0.00000000000E+00  0.11748808978E+04  0.11748808978E+04  0.25500000920E-02 0.  1.
        2   -1    0    0  501    0  0.00000000000E+00  0.00000000000E+00 -0.23250941015E+04  0.23250941015E+04  0.25500000920E-02 0. -1.
    10030    2    1    2    0    0  0.00000000000E+00  0.00000000000E+00 -0.11502132037E+04  0.34999749993E+04  0.33055762859E+04 0.  0.
        5    1    3    3  502    0  0.14334263236E+04 -0.78074494685E+03 -0.30019749382E+03  0.16596428298E+04  0.46999998093E+01 0.  1.
       -5    1    3    3    0  502 -0.14334263236E+04  0.78074494685E+03 -0.85001570984E+03  0.18403321695E+04  0.46999998093E+01 0. -1.
</event>
<event>
 5   0  0.1116462E-06  0.3284614E+04  0.7818609E-02  0.8166821E-01
        2   -1    0    0  501    0  0.00000000000E+00  0.00000000000E+00  0.22446733518E+04  0.22446733518E+04  0.25500000920E-02 0.  1.
       -2   -1    0    0    0  501  0.00000000000E+00  0.00000000000E+00 -0.12015878158E+04  0.12015878158E+04  0.25500000920E-02 0. -1.
    10030    2    1    2    0    0  0.00000000000E+00  0.00000000000E+00  0.10430855360E+04  0.34462611676E+04  0.32846139195E+04 0.  0.
        1    1    3    3  502    0  0.61403821107E+03 -0.12558539733E+04 -0.38282813386E+03  0.14494031554E+04  0.50400001928E-02 0. -1.
       -1    1    3    3    0  502 -0.61403821107E+03  0.12558539733E+04  0.14259136699E+04  0.19968580122E+04  0.50400001928E-02 0.  1.
</event>
<event>
 5   0  0.1116462E-06  0.3303885E+04  0.7818609E-02  0.8161908E-01
       -2   -1    0    0    0  501  0.00000000000E+00  0.00000000000E+00  0.21083568135E+04  0.21083568135E+04  0.25500000920E-02 0.  1.
        2   -1    0    0  501    0  0.00000000000E+00  0.00000000000E+00 -0.12943322248E+04  0.12943322248E+04  0.25500000920E-02 0. -1.
    10030    2    1    2    0    0  0.00000000000E+00  0.00000000000E+00  0.81402458869E+03  0.34026890384E+04  0.33038850859E+04 0.  0.
        1    1    3    3  502    0  0.10970105173E+04  0.12256703082E+04  0.25009315167E+03  0.16638047854E+04  0.50400001928E-02 0.  1.
       -1    1    3    3    0  502 -0.10970105173E+04 -0.12256703082E+04  0.56393143701E+03  0.17388842529E+04  0.50400001928E-02 0. -1.
</event>
<event>
 5   0  0.3674967E-07  0.3301336E+04  0.7818609E-02  0.8162555E-01
       -1   -1    0    0    0  501  0.00000000000E+00  0.00000000000E+00  0.11452871169E+04  0.11452871169E+04  0.50400001928E-02 0. -1.
        1   -1    0    0  501    0  0.00000000000E+00  0.00000000000E+00 -0.23790588773E+04  0.23790588773E+04  0.50400001928E-02 0.  1.
    10030    2    1    2    0    0  0.00000000000E+00  0.00000000000E+00 -0.12337717604E+04  0.35243459942E+04  0.33013363855E+04 0.  0.
        2    1    3    3  502    0 -0.13435258922E+04  0.23823134631E+02  0.40655909889E+03  0.14038944638E+04  0.25500000920E-02 0. -1.
       -2    1    3    3    0  502  0.13435258922E+04 -0.23823134631E+02 -0.16403308593E+04  0.21204515304E+04  0.25500000920E-02 0.  1.
</event>
<event>
 5   0  0.3674967E-07  0.3286667E+04  0.7818609E-02  0.8166296E-01
       -1   -1    0    0    0  501  0.00000000000E+00  0.00000000000E+00  0.15293492029E+04  0.15293492029E+04  0.50400001928E-02 0.  1.
        1   -1    0    0  501    0  0.00000000000E+00  0.00000000000E+00 -0.17658129657E+04  0.17658129657E+04  0.50400001928E-02 0. -1.
    10030    2    1    2    0    0  0.00000000000E+00  0.00000000000E+00 -0.23646376280E+03  0.32951621686E+04  0.32866667927E+04 0.  0.
        2    1    3    3  502    0  0.12169085006E+04 -0.91906203652E+02 -0.12216362848E+04  0.17267623639E+04  0.25500000920E-02 0. -1.
       -2    1    3    3    0  502 -0.12169085006E+04  0.91906203652E+02  0.98517252202E+03  0.15683998046E+04  0.25500000920E-02 0.  1.
</event>
<event>
 5   0  0.1126221E-06  0.3283345E+04  0.7818609E-02  0.8167146E-01
        2   -1    0    0  501    0  0.00000000000E+00  0.00000000000E+00  0.23803065432E+04  0.23803065432E+04  0.25500000920E-02 0.  1.
       -2   -1    0    0    0  501  0.00000000000E+00  0.00000000000E+00 -0.11322441111E+04  0.11322441111E+04  0.25500000920E-02 0. -1.
    10030    2    1    2    0    0  0.00000000000E+00  0.00000000000E+00  0.12480624321E+04  0.35125506544E+04  0.32833446766E+04 0.  0.
        2    1    3    3  502    0 -0.22422513728E+03 -0.15475704516E+04  0.89301439310E+02  0.15662777410E+04  0.25500000920E-02 0.  1.
       -2    1    3    3    0  502  0.22422513728E+03  0.15475704516E+04  0.11587609928E+04  0.19462729134E+04  0.25500000920E-02 0. -1.
</event>
<event>
 5   0  0.3796529E-07  0.3284837E+04  0.7818609E-02  0.8166764E-01
       -1   -1    0    0    0  501  0.00000000000E+00  0.00000000000E+00  0.14166343648E+04  0.14166343648E+04  0.50400001928E-02 0. -1.
        1   -1    0    0  501    0  0.00000000000E+00  0.00000000000E+00 -0.19041882691E+04  0.19041882691E+04  0.50400001928E-02 0.  1.
    10030    2    1    2    0    0  0.00000000000E+00  0.00000000000E+00 -0.48755390434E+03  0.33208226340E+04  0.32848370061E+04 0.  0.
        5    1    3    3  502    0 -0.15767921284E+04 -0.42411234189E+03 -0.42283805708E+03  0.16867005683E+04  0.46999998093E+01 0.  1.
       -5    1    3    3    0  502  0.15767921284E+04  0.42411234189E+03 -0.64715847261E+02  0.16341220657E+04  0.46999998093E+01 0. -1.
</event>
<event>
 5   0  0.3709747E-07  0.3303992E+04  0.7818609E-02  0.8161880E-01
       -1   -1    0    0    0  501  0.00000000000E+00  0.00000000000E+00  0.14979493401E+04  0.14979493401E+04  0.50400001928E-02 0. -1.
        1   -1    0    0  501    0  0.00000000000E+00  0.00000000000E+00 -0.18218846243E+04  0.18218846243E+04  0.50400001928E-02 0.  1.
    10030    2    1    2    0    0  0.00000000000E+00  0.00000000000E+00 -0.32393528425E+03  0.33198339644E+04  0.33039920524E+04 0.  0.
        4    1    3    3  502    0  0.74493146420E+03 -0.14744131256E+04 -0.14538680687E+03  0.16582990948E+04  0.12699999809E+01 0.  1.
       -4    1    3    3    0  502 -0.74493146420E+03  0.14744131256E+04 -0.17854847738E+03  0.16615348696E+04  0.12699999809E+01 0. -1.
</event>
<event>
 5   0  0.3749685E-07  0.3300870E+04  0.7818609E-02  0.8162674E-01
       -1   -1    0    0    0  501  0.00000000000E+00  0.00000000000E+00  0.20127770654E+04  0.20127770654E+04  0.50400001928E-02 0.  1.
        1   -1    0    0  501    0  0.00000000000E+00  0.00000000000E+00 -0.13533224190E+04  0.13533224190E+04  0.50400001928E-02 0. -1.
    10030    2    1    2    0    0  0.00000000000E+00  0.00000000000E+00  0.65945464637E+03  0.33660994844E+04  0.33008703865E+04 0.  0.
        3    1    3    3  502    0  0.16347097555E+04 -0.89700005484E+02  0.54269448194E+03  0.17247722709E+04  0.10100000352E+00 0.  1.
       -3    1    3    3    0  502 -0.16347097555E+04  0.89700005484E+02  0.11676016443E+03  0.16413272135E+04  0.10100000352E+00 0. -1.
</event>
<event>
 5   0  0.3796529E-07  0.3337672E+04  0.7818609E-02  0.8153375E-01
        1   -1    0    0  501    0  0.00000000000E+00  0.00000000000E+00  0.16653534059E+04  0.16653534059E+04  0.50400001928E-02 0. -1.
       -1   -1    0    0    0  501  0.00000000000E+00  0.00000000000E+00 -0.16723263653E+04  0.16723263653E+04  0.50400001928E-02 0.  1.
    10030    2    1    2    0    0  0.00000000000E+00  0.00000000000E+00 -0.69729594371E+01  0.33376797712E+04  0.33376724874E+04 0.  0.
        5    1    3    3  502    0  0.15658563820E+04  0.53564380664E+03  0.21139028327E+03  0.16683909729E+04  0.46999998093E+01 0.  1.
       -5    1    3    3    0  502 -0.15658563820E+04 -0.53564380664E+03 -0.21836324270E+03  0.16692887983E+04  0.46999998093E+01 0. -1.
</event>
<event>
 5   0  0.1126221E-06  0.3292133E+04  0.7818609E-02  0.8164900E-01
        2   -1    0    0  501    0  0.00000000000E+00  0.00000000000E+00  0.21666298924E+04  0.21666298924E+04  0.25500000920E-02 0.  1.
       -2   -1    0    0    0  501  0.00000000000E+00  0.00000000000E+00 -0.12505755692E+04  0.12505755692E+04  0.25500000920E-02 0. -1.
    10030    2    1    2    0    0  0.00000000000E+00  0.00000000000E+00  0.91605432324E+03  0.34172054616E+04  0.32921326892E+04 0.  0.
        2    1    3    3  502    0 -0.59750999794E+03 -0.12328984362E+04 -0.48903842156E+03  0.14547217360E+04  0.25500000920E-02 0.  1.
       -2    1    3    3    0  502  0.59750999794E+03  0.12328984362E+04  0.14050927448E+04  0.19624837255E+04  0.25500000920E-02 0. -1.
</event>
<event>
 5   0  0.1126221E-06  0.2985156E+04  0.7818609E-02  0.8247983E-01
        2   -1    0    0  501    0  0.00000000000E+00  0.00000000000E+00  0.23777344313E+04  0.23777344313E+04  0.25500000920E-02 0. -1.
       -2   -1    0    0    0  501  0.00000000000E+00  0.00000000000E+00 -0.93693747002E+03  0.93693747002E+03  0.25500000920E-02 0.  1.
    10030    2    1    2    0    0  0.00000000000E+00  0.00000000000E+00  0.14407969612E+04  0.33146719013E+04  0.29851555955E+04 0.  0.
        2    1    3    3  502    0 -0.52558110875E+03  0.13654945000E+04  0.39292384993E+03  0.15149917106E+04  0.25500000920E-02 0.  1.
       -2    1    3    3    0  502  0.52558110875E+03 -0.13654945000E+04  0.10478731113E+04  0.17996801907E+04  0.25500000920E-02 0. -1.
</event>
<event>
 5   0  0.3709747E-07  0.3290537E+04  0.7818609E-02  0.8165307E-01
        1   -1    0    0  501    0  0.00000000000E+00  0.00000000000E+00  0.17437196997E+04  0.17437196997E+04  0.50400001928E-02 0. -1.
       -1   -1    0    0    0  501  0.00000000000E+00  0.00000000000E+00 -0.15523760005E+04  0.15523760005E+04  0.50400001928E-02 0.  1.
    10030    2    1    2    0    0  0.00000000000E+00  0.00000000000E+00  0.19134369920E+03  0.32960957002E+04  0.32905371072E+04 0.  0.
        4    1    3    3  502    0  0.90093942516E+03 -0.68569437174E+03 -0.11000944261E+04  0.15786316792E+04  0.12699999809E+01 0.  1.
       -4    1    3    3    0  502 -0.90093942516E+03  0.68569437174E+03  0.12914381253E+04  0.17174640210E+04  0.12699999809E+01 0. -1.
</event>
<event>
 5   0  0.3757406E-07  0.3297836E+04  0.7818609E-02  0.8163446E-01
       -1   -1    0    0    0  501  0.00000000000E+00  0.00000000000E+00  0.37015267738E+04  0.37015267738E+04  0.50400001928E-02 0. -1.
        1   -1    0    0  501    0  0.00000000000E+00  0.00000000000E+00 -0.73454306588E+03  0.73454306590E+03  0.50400001928E-02 0.  1.
    10030    2    1    2    0    0  0.00000000000E+00  0.00000000000E+00  0.29669837079E+04  0.44360698397E+04  0.32978361541E+04 0.  0.
        1    1    3    3  502    0  0.77100972156E+02 -0.27563850898E+03 -0.70087290753E+03  0.75706273193E+03  0.50400001928E-02 0.  1.
       -1    1    3    3    0  502 -0.77100972156E+02  0.27563850898E+03  0.36678566154E+04  0.36790071078E+04  0.50400001928E-02 0. -1.
</event>
<event>
 5   0  0.3757406E-07  0.3295495E+04  0.7818609E-02  0.8164043E-01
       -1   -1    0    0    0  501  0.00000000000E+00  0.00000000000E+00  0.13466280418E+04  0.13466280418E+04  0.50400001928E-02 0.  1.
        1   -1    0    0  501    0  0.00000000000E+00  0.00000000000E+00 -0.20161996626E+04  0.20161996626E+04  0.50400001928E-02 0. -1.
    10030    2    1    2    0    0  0.00000000000E+00  0.00000000000E+00 -0.66957162083E+03  0.33628277044E+04  0.32954945022E+04 0.  0.
        1    1    3    3  502    0  0.88525725235E+03 -0.29727990896E+03 -0.17201006625E+04  0.19572434791E+04  0.50400001928E-02 0.  1.
       -1    1    3    3    0  502 -0.88525725235E+03  0.29727990896E+03  0.10505290417E+04  0.14055842253E+04  0.50400001928E-02 0. -1.
</event>
<event>
 5   0  0.3796529E-07  0.3101213E+04  0.7818609E-02  0.8215405E-01
       -1   -1    0    0    0  501  0.00000000000E+00  0.00000000000E+00  0.10961775215E+04  0.10961775215E+04  0.50400001928E-02 0. -1.
        1   -1    0    0  501    0  0.00000000000E+00  0.00000000000E+00 -0.21934228579E+04  0.21934228579E+04  0.50400001928E-02 0.  1.
    10030    2    1    2    0    0  0.00000000000E+00  0.00000000000E+00 -0.10972453363E+04  0.32896003794E+04  0.31012132026E+04 0.  0.
        5    1    3    3  502    0  0.11445009831E+03  0.15008352098E+04 -0.94374687142E+03  0.17765937632E+04  0.46999998093E+01 0. -1.
       -5    1    3    3    0  502 -0.11445009831E+03 -0.15008352098E+04 -0.15349846493E+03  0.15130066162E+04  0.46999998093E+01 0.  1.
</event>
<event>
 5   0  0.1116462E-06  0.3325618E+04  0.7818609E-02  0.8156407E-01
        2   -1    0    0  501    0  0.00000000000E+00  0.00000000000E+00  0.21740505874E+04  0.21740505874E+04  0.25500000920E-02 0.  1.
       -2   -1    0    0    0  501  0.00000000000E+00  0.00000000000E+00 -0.12717889410E+04  0.12717889410E+04  0.25500000920E-02 0. -1.
    10030    2    1    2    0    0  0.00000000000E+00  0.00000000000E+00  0.90226164636E+03  0.34458395284E+04  0.33256178339E+04 0.  0.
        1    1    3    3  502    0  0.46783568866E+03 -0.10362192690E+04  0.17083840683E+04  0.20521200573E+04  0.50400001928E-02 0.  1.
       -1    1    3    3    0  502 -0.46783568866E+03  0.10362192690E+04 -0.80612242193E+03  0.13937194711E+04  0.50400001928E-02 0. -1.
</event>
<event>
 5   0  0.1129434E-06  0.3268194E+04  0.7818609E-02  0.8171036E-01
        2   -1    0    0  501    0  0.00000000000E+00  0.00000000000E+00  0.17526731540E+04  0.17526731540E+04  0.25500000920E-02 0.  1.
       -2   -1    0    0    0  501  0.00000000000E+00  0.00000000000E+00 -0.15235425941E+04  0.15235425941E+04  0.25500000920E-02 0. -1.
    10030    2    1    2    0    0  0.00000000000E+00  0.00000000000E+00  0.22913055986E+03  0.32762157481E+04  0.32681935094E+04 0.  0.
        3    1    3    3  502    0  0.11227729723E+04 -0.65900336754E+03  0.11045965104E+04  0.17073482500E+04  0.10100000352E+00 0.  1.
       -3    1    3    3    0  502 -0.11227729723E+04  0.65900336754E+03 -0.87546595058E+03  0.15688674981E+04  0.10100000352E+00 0. -1.
</event>
<event>
 5   0  0.1116462E-06  0.3292709E+04  0.7818609E-02  0.8164753E-01
        2   -1    0    0  501    0  0.00000000000E+00  0.00000000000E+00  0.12548829894E+04  0.12548829894E+04  0.25500000920E-02 0.  1.
       -2   -1    0    0    0  501  0.00000000000E+00  0.00000000000E+00 -0.21599482567E+04  0.21599482567E+04  0.25500000920E-02 0. -1.
    10030    2    1    2    0    0  0.00000000000E+00  0.00000000000E+00 -0.90506526732E+03  0.34148312460E+04  0.32927085053E+04 0.  0.
        1    1    3    3  502    0  0.86930021689E+02 -0.16303889982E+04 -0.67193811340E+03  0.17655667482E+04  0.50400001928E-02 0.  1.
       -1    1    3    3    0  502 -0.86930021689E+02  0.16303889982E+04 -0.23312715392E+03  0.16492644979E+04  0.50400001928E-02 0. -1.
</event>
<event>
 5   0  0.1129434E-06  0.3186024E+04  0.7818609E-02  0.8192518E-01
       -2   -1    0    0    0  501  0.00000000000E+00  0.00000000000E+00  0.10788924070E+04  0.10788924070E+04  0.25500000920E-02 0.  1.
        2   -1    0    0  501    0  0.00000000000E+00  0.00000000000E+00 -0.23521223638E+04  0.23521223638E+04  0.25500000920E-02 0. -1.
    10030    2    1    2    0    0  0.00000000000E+00  0.00000000000E+00 -0.12732299568E+04  0.34310147708E+04  0.31860238283E+04 0.  0.
        3    1    3    3  502    0 -0.82071778934E+03  0.12217121626E+04 -0.12930167178E+04  0.19590943164E+04  0.10100000352E+00 0.  1.
       -3    1    3    3    0  502  0.82071778934E+03 -0.12217121626E+04  0.19786760953E+02  0.14719204544E+04  0.10100000352E+00 0. -1.
</event>
<event>
 5   0  0.1146799E-06  0.3451369E+04  0.7818609E-02  0.8125412E-01
        2   -1    0    0  501    0  0.00000000000E+00  0.00000000000E+00  0.22237269183E+04  0.22237269183E+04  0.25500000920E-02 0.  1.
       -2   -1    0    0    0  501  0.00000000000E+00  0.00000000000E+00 -0.13391875468E+04  0.13391875468E+04  0.25500000920E-02 0. -1.
    10030    2    1    2    0    0  0.00000000000E+00  0.00000000000E+00  0.88453937148E+03  0.35629144651E+04  0.34513692335E+04 0.  0.
        5    1    3    3  502    0  0.16402042147E+03  0.14507412327E+04 -0.50747091242E+03  0.15456719057E+04  0.46999998093E+01 0. -1.
       -5    1    3    3    0  502 -0.16402042147E+03 -0.14507412327E+04  0.13920102839E+04  0.20172425594E+04  0.46999998093E+01 0.  1.
</event>
<event>
 5   0  0.3674967E-07  0.3313556E+04  0.7818609E-02  0.8159455E-01
        1   -1    0    0  501    0  0.00000000000E+00  0.00000000000E+00  0.10712830589E+04  0.10712830590E+04  0.50400001928E-02 0.  1.
       -1   -1    0    0    0  501  0.00000000000E+00  0.00000000000E+00 -0.25622668650E+04  0.25622668650E+04  0.50400001928E-02 0. -1.
    10030    2    1    2    0    0  0.00000000000E+00  0.00000000000E+00 -0.14909838061E+04  0.36335499240E+04  0.33135558453E+04 0.  0.
        2    1    3    3  502    0  0.70139330350E+03 -0.52858738587E+01  0.90043648143E+03  0.11413879112E+04  0.25500000920E-02 0.  1.
       -2    1    3    3    0  502 -0.70139330350E+03  0.52858738587E+01 -0.23914202875E+04  0.24921620128E+04  0.25500000920E-02 0. -1.
</event>
<event>
 5   0  0.3749685E-07  0.3284484E+04  0.7818609E-02  0.8166855E-01
       -1   -1    0    0    0  501  0.00000000000E+00  0.00000000000E+00  0.28359121293E+04  0.28359121293E+04  0.50400001928E-02 0.  1.
        1   -1    0    0  501    0  0.00000000000E+00  0.00000000000E+00 -0.95100244670E+03  0.95100244672E+03  0.50400001928E-02 0. -1.
    10030    2    1    2    0    0  0.00000000000E+00  0.00000000000E+00  0.18849096826E+04  0.37869145760E+04  0.32844843575E+04 0.  0.
        3    1    3    3  502    0  0.66687707885E+03 -0.76147086740E+03  0.24334901512E+04  0.26356094640E+04  0.10100000352E+00 0.  1.
       -3    1    3    3    0  502 -0.66687707885E+03  0.76147086740E+03 -0.54858046866E+03  0.11513051120E+04  0.10100000352E+00 0. -1.
</event>
<event>
 5   0  0.1116462E-06  0.3292942E+04  0.7818609E-02  0.8164694E-01
       -2   -1    0    0    0  501  0.00000000000E+00  0.00000000000E+00  0.96992742727E+03  0.96992742728E+03  0.25500000920E-02 0.  1.
        2   -1    0    0  501    0  0.00000000000E+00  0.00000000000E+00 -0.27949175787E+04  0.27949175787E+04  0.25500000920E-02 0. -1.
    10030    2    1    2    0    0  0.00000000000E+00  0.00000000000E+00 -0.18249901514E+04  0.37648450060E+04  0.32929422810E+04 0.  0.
        1    1    3    3  502    0 -0.52996436957E+03  0.12332761738E+04 -0.20025622275E+04  0.24108272084E+04  0.50400001928E-02 0. -1.
       -1    1    3    3    0  502  0.52996436957E+03 -0.12332761738E+04  0.17757207606E+03  0.13540177976E+04  0.50400001928E-02 0.  1.
</event>
<event>
 5   0  0.3749685E-07  0.3293852E+04  0.7818609E-02  0.8164461E-01
       -1   -1    0    0    0  501  0.00000000000E+00  0.00000000000E+00  0.12168480187E+04  0.12168480187E+04  0.50400001928E-02 0. -1.
        1   -1    0    0  501    0  0.00000000000E+00  0.00000000000E+00 -0.22290094127E+04  0.22290094127E+04  0.50400001928E-02 0.  1.
    10030    2    1    2    0    0  0.00000000000E+00  0.00000000000E+00 -0.10121613940E+04  0.34458574314E+04  0.32938522660E+04 0.  0.
        3    1    3    3  502    0 -0.20542007940E+03 -0.11919637976E+04 -0.16754247222E+04  0.20664034247E+04  0.10100000352E+00 0.  1.
       -3    1    3    3    0  502  0.20542007940E+03  0.11919637976E+04  0.66326332818E+03  0.13794540067E+04  0.10100000352E+00 0. -1.
</event>
<event>
 5   0  0.3674967E-07  0.3299974E+04  0.7818609E-02  0.8162902E-01
        1   -1    0    0  501    0  0.00000000000E+00  0.00000000000E+00  0.25529243120E+04  0.25529243121E+04  0.50400001928E-02 0.  1.
       -1   -1    0    0    0  501  0.00000000000E+00  0.00000000000E+00 -0.10664073154E+04  0.10664073154E+04  0.50400001928E-02 0. -1.
    10030    2    1    2    0    0  0.00000000000E+00  0.00000000000E+00  0.14865169966E+04  0.36193316275E+04  0.32999740375E+04 0.  0.
        2    1    3    3  502    0 -0.10689482772E+04 -0.10524326740E+04  0.14969216179E+04  0.21192072298E+04  0.25500000920E-02 0.  1.
       -2    1    3    3    0  502  0.10689482772E+04  0.10524326740E+04 -0.10404621320E+02  0.15001243977E+04  0.25500000920E-02 0. -1.
</event>
<event>
 5   0  0.3709747E-07  0.3287894E+04  0.7818609E-02  0.8165983E-01
       -1   -1    0    0    0  501  0.00000000000E+00  0.00000000000E+00  0.14831596348E+04  0.14831596348E+04  0.50400001928E-02 0.  1.
        1   -1    0    0  501    0  0.00000000000E+00  0.00000000000E+00 -0.18221647065E+04  0.18221647065E+04  0.50400001928E-02 0. -1.
    10030    2    1    2    0    0  0.00000000000E+00  0.00000000000E+00 -0.33900507164E+03  0.33053243413E+04  0.32878936362E+04 0.  0.
        4    1    3    3  502    0 -0.69236566359E+03 -0.13069119626E+04  0.55205636631E+03  0.15786566868E+04  0.12699999809E+01 0.  1.
       -4    1    3    3    0  502  0.69236566359E+03  0.13069119626E+04 -0.89106143795E+03  0.17266676546E+04  0.12699999809E+01 0. -1.
</event>
<event>
 5   0  0.1120545E-06  0.3318956E+04  0.7818609E-02  0.8158089E-01
       -2   -1    0    0    0  501  0.00000000000E+00  0.00000000000E+00  0.18981346005E+04  0.18981346005E+04  0.25500000920E-02 0. -1.
        2   -1    0    0  501    0  0.00000000000E+00  0.00000000000E+00 -0.14508285321E+04  0.14508285321E+04  0.25500000920E-02 0.  1.
    10030    2    1    2    0    0  0.00000000000E+00  0.00000000000E+00  0.44730606832E+03  0.33489631326E+04  0.33189563638E+04 0.  0.
        4    1    3    3  502    0 -0.31603968004E+03 -0.37676761095E+02  0.18670477685E+04  0.18939824710E+04  0.12699999809E+01 0. -1.
       -4    1    3    3    0  502  0.31603968004E+03  0.37676761095E+02 -0.14197417001E+04  0.14549806616E+04  0.12699999809E+01 0.  1.
</event>
<event>
 5   0  0.3573375E-07  0.3258330E+04  0.7818609E-02  0.8173580E-01
        3   -1    0    0  501    0  0.00000000000E+00  0.00000000000E+00  0.13276386258E+04  0.13276386296E+04  0.10100000352E+00 0. -1.
       -3   -1    0    0    0  501  0.00000000000E+00  0.00000000000E+00 -0.19991718720E+04  0.19991718746E+04  0.10100000352E+00 0.  1.
    10030    2    1    2    0    0  0.00000000000E+00  0.00000000000E+00 -0.67153324623E+03  0.33268105042E+04  0.32583295152E+04 0.  0.
        2    1    3    3  502    0 -0.50994952454E+03 -0.69526095804E+03 -0.17471143517E+04  0.19482928105E+04  0.25500000920E-02 0.  1.
       -2    1    3    3    0  502  0.50994952454E+03  0.69526095804E+03  0.10755811055E+04  0.13785176937E+04  0.25500000920E-02 0. -1.
</event>
<event>
 5   0  0.3796529E-07  0.3200232E+04  0.7818609E-02  0.8188756E-01
       -1   -1    0    0    0  501  0.00000000000E+00  0.00000000000E+00  0.12681669371E+04  0.12681669371E+04  0.50400001928E-02 0.  1.
        1   -1    0    0  501    0  0.00000000000E+00  0.00000000000E+00 -0.20189549812E+04  0.20189549812E+04  0.50400001928E-02 0. -1.
    10030    2    1    2    0    0  0.00000000000E+00  0.00000000000E+00 -0.75078804413E+03  0.32871219183E+04  0.32002324632E+04 0.  0.
        5    1    3    3  502    0 -0.12700433122E+04  0.31973720531E+03  0.56886335044E+03  0.14278898756E+04  0.46999998093E+01 0.  1.
       -5    1    3    3    0  502  0.12700433122E+04 -0.31973720531E+03 -0.13196513946E+04  0.18592320427E+04  0.46999998093E+01 0. -1.
</event>
<event>
 5   0  0.3796529E-07  0.3317722E+04  0.7818609E-02  0.8158401E-01
        1   -1    0    0  501    0  0.00000000000E+00  0.00000000000E+00  0.29495575646E+04  0.29495575646E+04  0.50400001928E-02 0. -1.
       -1   -1    0    0    0  501  0.00000000000E+00  0.00000000000E+00 -0.93296030254E+03  0.93296030255E+03  0.50400001928E-02 0.  1.
    10030    2    1    2    0    0  0.00000000000E+00  0.00000000000E+00  0.20165972620E+04  0.38825178671E+04  0.33177221811E+04 0.  0.
        5    1    3    3  502    0 -0.13815500010E+04  0.39608418906E+03  0.19777139075E+04  0.24447775932E+04  0.46999998093E+01 0. -1.
       -5    1    3    3    0  502  0.13815500010E+04 -0.39608418906E+03  0.38883354536E+02  0.14377402740E+04  0.46999998093E+01 0.  1.
</event>
<event>
 5   0  0.1146799E-06  0.3294434E+04  0.7818609E-02  0.8164313E-01
        2   -1    0    0  501    0  0.00000000000E+00  0.00000000000E+00  0.17111252976E+04  0.17111252976E+04  0.25500000920E-02 0.  1.
       -2   -1    0    0    0  501  0.00000000000E+00  0.00000000000E+00 -0.15856951808E+04  0.15856951808E+04  0.25500000920E-02 0. -1.
    10030    2    1    2    0    0  0.00000000000E+00  0.00000000000E+00  0.12543011680E+03  0.32968204784E+04  0.32944335709E+04 0.  0.
        5    1    3    3  502    0 -0.11585614338E+04 -0.61280660418E+03  0.10611876827E+04  0.16863979121E+04  0.46999998093E+01 0.  1.
       -5    1    3    3    0  502  0.11585614338E+04  0.61280660418E+03 -0.93575756590E+03  0.16104225663E+04  0.46999998093E+01 0. -1.
</event>
<event>
 5   0  0.1116462E-06  0.3303124E+04  0.7818609E-02  0.8162101E-01
       -2   -1    0    0    0  501  0.00000000000E+00  0.00000000000E+00  0.13399999398E+04  0.13399999398E+04  0.25500000920E-02 0. -1.
        2   -1    0    0  501    0  0.00000000000E+00  0.00000000000E+00 -0.20355647037E+04  0.20355647037E+04  0.25500000920E-02 0.  1.
    10030    2    1    2    0    0  0.00000000000E+00  0.00000000000E+00 -0.69556476384E+03  0.33755646435E+04  0.33031237219E+04 0.  0.
        1    1    3    3  502    0 -0.69579808179E+03  0.14673554192E+04 -0.40540072061E+02  0.16244723434E+04  0.50400001928E-02 0.  1.
       -1    1    3    3    0  502  0.69579808179E+03 -0.14673554192E+04 -0.65502469178E+03  0.17510923002E+04  0.50400001928E-02 0. -1.
</event>
<event>
 5   0  0.3674967E-07  0.3298133E+04  0.7818609E-02  0.8163371E-01
        1   -1    0    0  501    0  0.00000000000E+00  0.00000000000E+00  0.18500772248E+04  0.18500772248E+04  0.50400001928E-02 0. -1.
       -1   -1    0    0    0  501  0.00000000000E+00  0.00000000000E+00 -0.14698955652E+04  0.14698955652E+04  0.50400001928E-02 0.  1.
    10030    2    1    2    0    0  0.00000000000E+00  0.00000000000E+00  0.38018165959E+03  0.33199727901E+04  0.32981329920E+04 0.  0.
        2    1    3    3  502    0  0.30373636691E+03 -0.16181538659E+04  0.95969833700E+02  0.16492082716E+04  0.25500000920E-02 0. -1.
       -2    1    3    3    0  502 -0.30373636691E+03  0.16181538659E+04  0.28421182589E+03  0.16707645185E+04  0.25500000920E-02 0.  1.
</event>
<event>
 5   0  0.3674967E-07  0.3379489E+04  0.7818609E-02  0.8142959E-01
       -1   -1    0    0    0  501  0.00000000000E+00  0.00000000000E+00  0.17886771569E+04  0.17886771569E+04  0.50400001928E-02 0.  1.
        1   -1    0    0  501    0  0.00000000000E+00  0.00000000000E+00 -0.15962841076E+04  0.15962841076E+04  0.50400001928E-02 0. -1.
    10030    2    1    2    0    0  0.00000000000E+00  0.00000000000E+00  0.19239304927E+03  0.33849612645E+04  0.33794892627E+04 0.  0.
        2    1    3    3  502    0  0.57583254107E+03 -0.72362186544E+03 -0.13203158281E+04  0.16119694803E+04  0.25500000920E-02 0. -1.
       -2    1    3    3    0  502 -0.57583254107E+03  0.72362186544E+03  0.15127088773E+04  0.17729917843E+04  0.25500000920E-02 0.  1.
</event>
<event>
 5   0  0.1116462E-06  0.3291234E+04  0.7818609E-02  0.8165129E-01
        2   -1    0    0  501    0  0.00000000000E+00  0.00000000000E+00  0.12687804928E+04  0.12687804928E+04  0.25500000920E-02 0. -1.
       -2   -1    0    0    0  501  0.00000000000E+00  0.00000000000E+00 -0.21343766804E+04  0.21343766804E+04  0.25500000920E-02 0.  1.
    10030    2    1    2    0    0  0.00000000000E+00  0.00000000000E+00 -0.86559618764E+03  0.34031571732E+04  0.32912341128E+04 0.  0.
        1    1    3    3  502    0 -0.35613287770E+03 -0.11566935085E+04 -0.15857430614E+04  0.19948312099E+04  0.50400001928E-02 0.  1.
       -1    1    3    3    0  502  0.35613287770E+03  0.11566935085E+04  0.72014687371E+03  0.14083259633E+04  0.50400001928E-02 0. -1.
</event>
<event>
 5   0  0.1116462E-06  0.3297604E+04  0.7818609E-02  0.8163505E-01
       -2   -1    0    0    0  501  0.00000000000E+00  0.00000000000E+00  0.28377331596E+04  0.28377331596E+04  0.25500000920E-02 0. -1.
        2   -1    0    0  501    0  0.00000000000E+00  0.00000000000E+00 -0.95799972782E+03  0.95799972783E+03  0.25500000920E-02 0.  1.
    10030    2    1    2    0    0  0.00000000000E+00  0.00000000000E+00  0.18797334318E+04  0.37957328874E+04  0.32976037327E+04 0.  0.
        1    1    3    3  502    0  0.66570212454E+03  0.87159507731E+03  0.23569823105E+04  0.25996543827E+04  0.50400001928E-02 0. -1.
       -1    1    3    3    0  502 -0.66570212454E+03 -0.87159507731E+03 -0.47724887867E+03  0.11960785048E+04  0.50400001928E-02 0.  1.
</event>
<event>
 5   0  0.1129434E-06  0.3225212E+04  0.7818609E-02  0.8182190E-01
       -2   -1    0    0    0  501  0.00000000000E+00  0.00000000000E+00  0.12587064706E+04  0.12587064706E+04  0.25500000920E-02 0. -1.
        2   -1    0    0  501    0  0.00000000000E+00  0.00000000000E+00 -0.20660080074E+04  0.20660080074E+04  0.25500000920E-02 0.  1.
    10030    2    1    2    0    0  0.00000000000E+00  0.00000000000E+00 -0.80730153683E+03  0.33247144780E+04  0.32252117123E+04 0.  0.
        3    1    3    3  502    0  0.82743344577E+03  0.13761030233E+04 -0.25008502702E+03  0.16250686658E+04  0.10100000352E+00 0.  1.
       -3    1    3    3    0  502 -0.82743344577E+03 -0.13761030233E+04 -0.55721650981E+03  0.16996458122E+04  0.10100000352E+00 0. -1.
</event>
<event>
 5   0  0.3709747E-07  0.3310758E+04  0.7818609E-02  0.8160163E-01
        1   -1    0    0  501    0  0.00000000000E+00  0.00000000000E+00  0.18840701807E+04  0.18840701807E+04  0.50400001928E-02 0.  1.
       -1   -1    0    0    0  501  0.00000000000E+00  0.00000000000E+00 -0.14544468376E+04  0.14544468376E+04  0.50400001928E-02 0. -1.
    10030    2    1    2    0    0  0.00000000000E+00  0.00000000000E+00  0.42962334310E+03  0.33385170182E+04  0.33107581706E+04 0.  0.
        4    1    3    3  502    0  0.67493223668E+03 -0.84778986633E+03 -0.10470786651E+04  0.15068697772E+04  0.12699999809E+01 0. -1.
       -4    1    3    3    0  502 -0.67493223668E+03  0.84778986633E+03  0.14767020082E+04  0.18316472410E+04  0.12699999809E+01 0.  1.
</event>
<event>
 5   0  0.3709747E-07  0.3289246E+04  0.7818609E-02  0.8165637E-01
       -1   -1    0    0    0  501  0.00000000000E+00  0.00000000000E+00  0.11585325544E+04  0.11585325544E+04  0.50400001928E-02 0. -1.
        1   -1    0    0  501    0  0.00000000000E+00  0.00000000000E+00 -0.23346639426E+04  0.23346639426E+04  0.50400001928E-02 0.  1.
    10030    2    1    2    0    0  0.00000000000E+00  0.00000000000E+00 -0.11761313881E+04  0.34931964970E+04  0.32892456163E+04 0.  0.
        4    1    3    3  502    0 -0.16237791017E+04 -0.13355344154E+03 -0.34991238091E+03  0.16664139282E+04  0.12699999809E+01 0. -1.
       -4    1    3    3    0  502  0.16237791017E+04  0.13355344154E+03 -0.82621900724E+03  0.18267825688E+04  0.12699999809E+01 0.  1.
</event>
<event>
 5   0  0.3757406E-07  0.3303900E+04  0.7818609E-02  0.8161904E-01
        1   -1    0    0  501    0  0.00000000000E+00  0.00000000000E+00  0.19874100430E+04  0.19874100430E+04  0.50400001928E-02 0. -1.
       -1   -1    0    0    0  501  0.00000000000E+00  0.00000000000E+00 -0.13731128380E+04  0.13731128380E+04  0.50400001928E-02 0.  1.
    10030    2    1    2    0    0  0.00000000000E+00  0.00000000000E+00  0.61429720497E+03  0.33605228810E+04  0.33038996622E+04 0.  0.
        1    1    3    3  502    0  0.15230894445E+04 -0.56728723373E+03  0.60771595209E+03  0.17352045816E+04  0.50400001928E-02 0. -1.
       -1    1    3    3    0  502 -0.15230894445E+04  0.56728723373E+03  0.65812528833E+01  0.16253182994E+04  0.50400001928E-02 0.  1.
</event>
<event>
 5   0  0.1146799E-06  0.3294681E+04  0.7818609E-02  0.8164250E-01
        2   -1    0    0  501    0  0.00000000000E+00  0.00000000000E+00  0.13064565867E+04  0.13064565867E+04  0.25500000920E-02 0.  1.
       -2   -1    0    0    0  501  0.00000000000E+00  0.00000000000E+00 -0.20771685965E+04  0.20771685965E+04  0.25500000920E-02 0. -1.
    10030    2    1    2    0    0  0.00000000000E+00  0.00000000000E+00 -0.77071200983E+03  0.33836251832E+04  0.32946809221E+04 0.  0.
        5    1    3    3  502    0  0.12089700752E+04  0.37265073395E+03 -0.14689375264E+04  0.19386275451E+04  0.46999998093E+01 0. -1.
       -5    1    3    3    0  502 -0.12089700752E+04 -0.37265073395E+03  0.69822551657E+03  0.14449976381E+04  0.46999998093E+01 0.  1.
</event>
<event>
 5   0  0.3749685E-07  0.3303929E+04  0.7818609E-02  0.8161896E-01
        1   -1    0    0  501    0  0.00000000000E+00  0.00000000000E+00  0.16949959221E+04  0.16949959221E+04  0.50400001928E-02 0.  1.
       -1   -1    0    0    0  501  0.00000000000E+00  0.00000000000E+00 -0.16100259541E+04  0.16100259541E+04  0.50400001928E-02 0. -1.
    10030    2    1    2    0    0  0.00000000000E+00  0.00000000000E+00  0.84969967973E+02  0.33050218763E+04  0.33039294343E+04 0.  0.
        3    1    3    3  502    0  0.10845385272E+04  0.11625605510E+04 -0.40623503014E+03  0.16409746377E+04  0.10100000352E+00 0.  1.
       -3    1    3    3    0  502 -0.10845385272E+04 -0.11625605510E+04  0.49120499811E+03  0.16640472385E+04  0.10100000352E+00 0. -1.
</event>
<event>
 5   0  0.1146799E-06  0.3303718E+04  0.7818609E-02  0.8161950E-01
        2   -1    0    0  501    0  0.00000000000E+00  0.00000000000E+00  0.16138819732E+04  0.16138819732E+04  0.25500000920E-02 0.  1.
       -2   -1    0    0    0  501  0.00000000000E+00  0.00000000000E+00 -0.16907295139E+04  0.16907295139E+04  0.25500000920E-02 0. -1.
    10030    2    1    2    0    0  0.00000000000E+00  0.00000000000E+00 -0.76847540750E+02  0.33046114871E+04  0.33037178355E+04 0.  0.
        5    1    3    3  502    0  0.77888398967E+03  0.14134983924E+04  0.31377631501E+03  0.16441154584E+04  0.46999998093E+01 0. -1.
       -5    1    3    3    0  502 -0.77888398967E+03 -0.14134983924E+04 -0.39062385576E+03  0.16604960287E+04  0.46999998093E+01 0.  1.
</event>
<event>
 5   0  0.1116462E-06  0.2938317E+04  0.7818609E-02  0.8261567E-01
        2   -1    0    0  501    0  0.00000000000E+00  0.00000000000E+00  0.24408710029E+04  0.24408710030E+04  0.25500000920E-02 0. -1.
       -2   -1    0    0    0  501  0.00000000000E+00  0.00000000000E+00 -0.88428573947E+03  0.88428573948E+03  0.25500000920E-02 0.  1.
    10030    2    1    2    0    0  0.00000000000E+00  0.00000000000E+00  0.15565852635E+04  0.33251567424E+04  0.29383174912E+04 0.  0.
        1    1    3    3  502    0 -0.11737212845E+04  0.11711745882E+03  0.17694357154E+04  0.21265561135E+04  0.50400001928E-02 0. -1.
       -1    1    3    3    0  502  0.11737212845E+04 -0.11711745882E+03 -0.21285045191E+03  0.11986006290E+04  0.50400001928E-02 0.  1.
</event>
<event>
 5   0  0.1120545E-06  0.3199812E+04  0.7818609E-02  0.8188867E-01
        2   -1    0    0  501    0  0.00000000000E+00  0.00000000000E+00  0.23019886776E+04  0.23019886776E+04  0.25500000920E-02 0.  1.
       -2   -1    0    0    0  501  0.00000000000E+00  0.00000000000E+00 -0.11119510102E+04  0.11119510102E+04  0.25500000920E-02 0. -1.
    10030    2    1    2    0    0  0.00000000000E+00  0.00000000000E+00  0.11900376673E+04  0.34139396878E+04  0.31998116417E+04 0.  0.
        4    1    3    3  502    0  0.82261254053E+02  0.11096607668E+04  0.18215502228E+04  0.21345165163E+04  0.12699999809E+01 0.  1.
       -4    1    3    3    0  502 -0.82261254053E+02 -0.11096607668E+04 -0.63151255544E+03  0.12794231715E+04  0.12699999809E+01 0. -1.
</event>
<event>
 5   0  0.1146799E-06  0.3291030E+04  0.7818609E-02  0.8165182E-01
        2   -1    0    0  501    0  0.00000000000E+00  0.00000000000E+00  0.27028174765E+04  0.27028174765E+04  0.25500000920E-02 0. -1.
       -2   -1    0    0    0  501  0.00000000000E+00  0.00000000000E+00 -0.10018136127E+04  0.10018136127E+04  0.25500000920E-02 0.  1.
    10030    2    1    2    0    0  0.00000000000E+00  0.00000000000E+00  0.17010038638E+04  0.37046310892E+04  0.32910298331E+04 0.  0.
        5    1    3    3  502    0 -0.11961935239E+04 -0.93698298422E+03  0.13955869553E+03  0.15258816399E+04  0.46999998093E+01 0.  1.
       -5    1    3    3    0  502  0.11961935239E+04  0.93698298422E+03  0.15614451683E+04  0.21787494493E+04  0.46999998093E+01 0. -1.
</event>
<event>
 5   0  0.3709747E-07  0.3297069E+04  0.7818609E-02  0.8163642E-01
        1   -1    0    0  501    0  0.00000000000E+00  0.00000000000E+00  0.19289607996E+04  0.19289607996E+04  0.50400001928E-02 0. -1.
       -1   -1    0    0    0  501  0.00000000000E+00  0.00000000000E+00 -0.14088757227E+04  0.14088757227E+04  0.50400001928E-02 0.  1.
    10030    2    1    2    0    0  0.00000000000E+00  0.00000000000E+00  0.52008507687E+03  0.33378365223E+04  0.32970690261E+04 0.  0.
        4    1    3    3  502    0 -0.56701498559E+03  0.12297556461E+04  0.12118051413E+04  0.18172171737E+04  0.12699999809E+01 0. -1.
       -4    1    3    3    0  502  0.56701498559E+03 -0.12297556461E+04 -0.69172006439E+03  0.15206193486E+04  0.12699999809E+01 0.  1.
</event>
<event>
 5   0  0.1116462E-06  0.3302636E+04  0.7818609E-02  0.8162225E-01
       -2   -1    0    0    0  501  0.00000000000E+00  0.00000000000E+00  0.21352497439E+04  0.21352497439E+04  0.25500000920E-02 0.  1.
        2   -1    0    0  501    0  0.00000000000E+00  0.00000000000E+00 -0.12770638879E+04  0.12770638879E+04  0.25500000920E-02 0. -1.
    10030    2    1    2    0    0  0.00000000000E+00  0.00000000000E+00  0.85818585604E+03  0.34123136318E+04  0.33026355170E+04 0.  0.
        1    1    3    3  502    0  0.97225306179E+03  0.58944007639E+03 -0.80823059379E+03  0.13949739469E+04  0.50400001928E-02 0. -1.
       -1    1    3    3    0  502 -0.97225306179E+03 -0.58944007639E+03  0.16664164498E+04  0.20173396849E+04  0.50400001928E-02 0.  1.
</event>
<event>
 5   0  0.3757406E-07  0.3296373E+04  0.7818609E-02  0.8163819E-01
        1   -1    0    0  501    0  0.00000000000E+00  0.00000000000E+00  0.78446225874E+03  0.78446225875E+03  0.50400001928E-02 0. -1.
       -1   -1    0    0    0  501  0.00000000000E+00  0.00000000000E+00 -0.34629049033E+04  0.34629049033E+04  0.50400001928E-02 0.  1.
    10030    2    1    2    0    0  0.00000000000E+00  0.00000000000E+00 -0.26784426445E+04  0.42473671620E+04  0.32963726745E+04 0.  0.
        1    1    3    3  502    0 -0.31262302520E+02 -0.81434033345E+03  0.50670140890E+03  0.95962171091E+03  0.50400001928E-02 0. -1.
       -1    1    3    3    0  502  0.31262302520E+02  0.81434033345E+03 -0.31851440534E+04  0.32877454511E+04  0.50400001928E-02 0.  1.
</event>
<event>
 5   0  0.3674967E-07  0.3411700E+04  0.7818609E-02  0.8135041E-01
        1   -1    0    0  501    0  0.00000000000E+00  0.00000000000E+00  0.20404771704E+04  0.20404771704E+04  0.50400001928E-02 0.  1.
       -1   -1    0    0    0  501  0.00000000000E+00  0.00000000000E+00 -0.14261000683E+04  0.14261000683E+04  0.50400001928E-02 0. -1.
    10030    2    1    2    0    0  0.00000000000E+00  0.00000000000E+00  0.61437710215E+03  0.34665772387E+04  0.34117002401E+04 0.  0.
        2    1    3    3  502    0 -0.12278211937E+03 -0.57285984278E+03 -0.13206672992E+04  0.14447857847E+04  0.25500000920E-02 0. -1.
       -2    1    3    3    0  502  0.12278211937E+03  0.57285984278E+03  0.19350444014E+04  0.20217914540E+04  0.25500000920E-02 0.  1.
</event>
<event>
 5   0  0.3674967E-07  0.3335659E+04  0.7818609E-02  0.8153881E-01
       -1   -1    0    0    0  501  0.00000000000E+00  0.00000000000E+00  0.14524890522E+04  0.14524890523E+04  0.50400001928E-02 0. -1.
        1   -1    0    0  501    0  0.00000000000E+00  0.00000000000E+00 -0.19150956390E+04  0.19150956390E+04  0.50400001928E-02 0.  1.
    10030    2    1    2    0    0  0.00000000000E+00  0.00000000000E+00 -0.46260658675E+03  0.33675846913E+04  0.33356591251E+04 0.  0.
        2    1    3    3  502    0  0.86794344053E+03 -0.86743931139E+03  0.90905559702E+03  0.15271407445E+04  0.25500000920E-02 0. -1.
       -2    1    3    3    0  502 -0.86794344053E+03  0.86743931139E+03 -0.13716621838E+04  0.18404439468E+04  0.25500000920E-02 0.  1.
</event>
<event>
 5   0  0.3757406E-07  0.3301923E+04  0.7818609E-02  0.8162406E-01
       -1   -1    0    0    0  501  0.00000000000E+00  0.00000000000E+00  0.17153399941E+04  0.17153399941E+04  0.50400001928E-02 0. -1.
        1   -1    0    0  501    0  0.00000000000E+00  0.00000000000E+00 -0.15889992526E+04  0.15889992526E+04  0.50400001928E-02 0.  1.
    10030    2    1    2    0    0  0.00000000000E+00  0.00000000000E+00  0.12634074156E+03  0.33043392467E+04  0.33019230570E+04 0.  0.
        1    1    3    3  502    0 -0.11232148637E+04  0.28771831527E+03  0.12393092909E+04  0.16971390567E+04  0.50400001928E-02 0. -1.
       -1    1    3    3    0  502  0.11232148637E+04 -0.28771831527E+03 -0.11129685494E+04  0.16072001901E+04  0.50400001928E-02 0.  1.
</event>
<event>
 5   0  0.3709747E-07  0.3170170E+04  0.7818609E-02  0.8196740E-01
        1   -1    0    0  501    0  0.00000000000E+00  0.00000000000E+00  0.16826453912E+04  0.16826453913E+04  0.50400001928E-02 0. -1.
       -1   -1    0    0    0  501  0.00000000000E+00  0.00000000000E+00 -0.14931814361E+04  0.14931814361E+04  0.50400001928E-02 0.  1.
    10030    2    1    2    0    0  0.00000000000E+00  0.00000000000E+00  0.18946395517E+03  0.31758268273E+04  0.31701702552E+04 0.  0.
        4    1    3    3  502    0 -0.28984806379E+03 -0.79904323707E+03 -0.12455682982E+04  0.15079535780E+04  0.12699999809E+01 0.  1.
       -4    1    3    3    0  502  0.28984806379E+03  0.79904323707E+03  0.14350322534E+04  0.16678732494E+04  0.12699999809E+01 0. -1.
</event>
<event>
 5   0  0.1120545E-06  0.3351379E+04  0.7818609E-02  0.8149944E-01
        2   -1    0    0  501    0  0.00000000000E+00  0.00000000000E+00  0.97021187912E+03  0.97021187913E+03  0.25500000920E-02 0.  1.
       -2   -1    0    0    0  501  0.00000000000E+00  0.00000000000E+00 -0.28941471741E+04  0.28941471741E+04  0.25500000920E-02 0. -1.
    10030    2    1    2    0    0  0.00000000000E+00  0.00000000000E+00 -0.19239352950E+04  0.38643590532E+04  0.33513793986E+04 0.  0.
        4    1    3    3  502    0  0.14947343102E+02 -0.16750650422E+04 -0.91213125810E+03  0.19073676530E+04  0.12699999809E+01 0. -1.
       -4    1    3    3    0  502 -0.14947343102E+02  0.16750650422E+04 -0.10118040369E+04  0.19569914003E+04  0.12699999809E+01 0.  1.
</event>
<event>
 5   0  0.1120545E-06  0.3297276E+04  0.7818609E-02  0.8163589E-01
        2   -1    0    0  501    0  0.00000000000E+00  0.00000000000E+00  0.22692127284E+04  0.22692127284E+04  0.25500000920E-02 0. -1.
       -2   -1    0    0    0  501  0.00000000000E+00  0.00000000000E+00 -0.11977754117E+04  0.11977754117E+04  0.25500000920E-02 0.  1.
    10030    2    1    2    0    0  0.00000000000E+00  0.00000000000E+00  0.10714373167E+04  0.34669881401E+04  0.32972759727E+04 0.  0.
        4    1    3    3  502    0 -0.40829336662E+03 -0.18179108588E+03 -0.11328605787E+04  0.12178366786E+04  0.12699999809E+01 0.  1.
       -4    1    3    3    0  502  0.40829336662E+03  0.18179108588E+03  0.22042978954E+04  0.22491514615E+04  0.12699999809E+01 0. -1.
</event>
<event>
 5   0  0.3796529E-07  0.3348194E+04  0.7818609E-02  0.8150740E-01
       -1   -1    0    0    0  501  0.00000000000E+00  0.00000000000E+00  0.92245992659E+03  0.92245992660E+03  0.50400001928E-02 0.  1.
        1   -1    0    0  501    0  0.00000000000E+00  0.00000000000E+00 -0.30381819305E+04  0.30381819305E+04  0.50400001928E-02 0. -1.
    10030    2    1    2    0    0  0.00000000000E+00  0.00000000000E+00 -0.21157220039E+04  0.39606418571E+04  0.33481941883E+04 0.  0.
        5    1    3    3  502    0  0.31704085819E+03 -0.97036475164E+03  0.51166156085E+03  0.11419029293E+04  0.46999998093E+01 0.  1.
       -5    1    3    3    0  502 -0.31704085819E+03  0.97036475164E+03 -0.26273835647E+04  0.28187389278E+04  0.46999998093E+01 0. -1.
</event>
<event>
 5   0  0.1126221E-06  0.3298125E+04  0.7818609E-02  0.8163373E-01
        2   -1    0    0  501    0  0.00000000000E+00  0.00000000000E+00  0.16850566237E+04  0.16850566237E+04  0.25500000920E-02 0. -1.
       -2   -1    0    0    0  501  0.00000000000E+00  0.00000000000E+00 -0.16138368730E+04  0.16138368730E+04  0.25500000920E-02 0.  1.
    10030    2    1    2    0    0  0.00000000000E+00  0.00000000000E+00  0.71219750729E+02  0.32988934967E+04  0.32981246262E+04 0.  0.
        2    1    3    3  502    0 -0.71012789966E+03  0.10391752866E+04  0.11013344956E+04  0.16724546575E+04  0.25500000920E-02 0. -1.
       -2    1    3    3    0  502  0.71012789966E+03 -0.10391752866E+04 -0.10301147449E+04  0.16264388392E+04  0.25500000920E-02 0.  1.
</event>
<event>
 5   0  0.3573375E-07  0.3295729E+04  0.7818609E-02  0.8163983E-01
       -3   -1    0    0    0  501  0.00000000000E+00  0.00000000000E+00  0.14375925701E+04  0.14375925736E+04  0.10100000352E+00 0.  1.
        3   -1    0    0  501    0  0.00000000000E+00  0.00000000000E+00 -0.18888920811E+04  0.18888920838E+04  0.10100000352E+00 0. -1.
    10030    2    1    2    0    0  0.00000000000E+00  0.00000000000E+00 -0.45129951101E+03  0.33264846574E+04  0.32957288916E+04 0.  0.
        2    1    3    3  502    0 -0.12314407453E+02  0.14069014597E+04  0.64022173609E+03  0.15457707570E+04  0.25500000920E-02 0.  1.
       -2    1    3    3    0  502  0.12314407453E+02 -0.14069014597E+04 -0.10915212471E+04  0.17807139003E+04  0.25500000920E-02 0. -1.
</event>
<event>
 5   0  0.1116462E-06  0.3319412E+04  0.7818609E-02  0.8157974E-01
        2   -1    0    0  501    0  0.00000000000E+00  0.00000000000E+00  0.13133875889E+04  0.13133875889E+04  0.25500000920E-02 0.  1.
       -2   -1    0    0    0  501  0.00000000000E+00  0.00000000000E+00 -0.20973424940E+04  0.20973424940E+04  0.25500000920E-02 0. -1.
    10030    2    1    2    0    0  0.00000000000E+00  0.00000000000E+00 -0.78395490507E+03  0.34107300830E+04  0.33194117560E+04 0.  0.
        1    1    3    3  502    0  0.12172191174E+04  0.41275394165E+03  0.68697471224E+03  0.14573683307E+04  0.50400001928E-02 0.  1.
       -1    1    3    3    0  502 -0.12172191174E+04 -0.41275394165E+03 -0.14709296173E+04  0.19533617523E+04  0.50400001928E-02 0. -1.
</event>
<event>
 5   0  0.1120545E-06  0.3308689E+04  0.7818609E-02  0.8160688E-01
        2   -1    0    0  501    0  0.00000000000E+00  0.00000000000E+00  0.23000466801E+04  0.23000466801E+04  0.25500000920E-02 0.  1.
       -2   -1    0    0    0  501  0.00000000000E+00  0.00000000000E+00 -0.11899129367E+04  0.11899129367E+04  0.25500000920E-02 0. -1.
    10030    2    1    2    0    0  0.00000000000E+00  0.00000000000E+00  0.11101337434E+04  0.34899596168E+04  0.33086887430E+04 0.  0.
        4    1    3    3  502    0  0.85689288957E+03 -0.82941786224E+03  0.17644677129E+04  0.21296824498E+04  0.12699999809E+01 0.  1.
       -4    1    3    3    0  502 -0.85689288957E+03  0.82941786224E+03 -0.65433396944E+03  0.13602771669E+04  0.12699999809E+01 0. -1.
</event>
<event>
 5   0  0.3796529E-07  0.3251843E+04  0.7818609E-02  0.8175258E-01
        1   -1    0    0  501    0  0.00000000000E+00  0.00000000000E+00  0.21194974428E+04  0.21194974428E+04  0.50400001928E-02 0. -1.
       -1   -1    0    0    0  501  0.00000000000E+00  0.00000000000E+00 -0.12472863089E+04  0.12472863089E+04  0.50400001928E-02 0.  1.
    10030    2    1    2    0    0  0.00000000000E+00  0.00000000000E+00  0.87221113393E+03  0.33667837517E+04  0.32518426420E+04 0.  0.
        5    1    3    3  502    0  0.37500582415E+03 -0.14193092017E+04  0.11597602100E+04  0.18708644560E+04  0.46999998093E+01 0. -1.
       -5    1    3    3    0  502 -0.37500582415E+03  0.14193092017E+04 -0.28754907609E+03  0.14959192957E+04  0.46999998093E+01 0.  1.
</event>
<event>
 5   0  0.1120545E-06  0.3288231E+04  0.7818609E-02  0.8165897E-01
       -2   -1    0    0    0  501  0.00000000000E+00  0.00000000000E+00  0.11418036408E+04  0.11418036408E+04  0.25500000920E-02 0. -1.
        2   -1    0    0  501    0  0.00000000000E+00  0.00000000000E+00 -0.23674080275E+04  0.23674080275E+04  0.25500000920E-02 0.  1.
    10030    2    1    2    0    0  0.00000000000E+00  0.00000000000E+00 -0.12256043867E+04  0.35092116683E+04  0.32882305911E+04 0.  0.
        4    1    3    3  502    0 -0.14302421421E+04  0.77518541515E+03 -0.35888737699E+03  0.16659252010E+04  0.12699999809E+01 0. -1.
       -4    1    3    3    0  502  0.14302421421E+04 -0.77518541515E+03 -0.86671700974E+03  0.18432864674E+04  0.12699999809E+01 0.  1.
</event>
<event>
 5   0  0.1146799E-06  0.3149854E+04  0.7818609E-02  0.8202188E-01
        2   -1    0    0  501    0  0.00000000000E+00  0.00000000000E+00  0.16172371218E+04  0.16172371218E+04  0.25500000920E-02 0.  1.
       -2   -1    0    0    0  501  0.00000000000E+00  0.00000000000E+00 -0.15337238885E+04  0.15337238885E+04  0.25500000920E-02 0. -1.
    10030    2    1    2    0    0  0.00000000000E+00  0.00000000000E+00  0.83513233295E+02  0.31509610103E+04  0.31498540964E+04 0.  0.
        5    1    3    3  502    0 -0.45626190816E+03 -0.10488397945E+04  0.11247881189E+04  0.16041852280E+04  0.46999998093E+01 0.  1.
       -5    1    3    3    0  502  0.45626190816E+03  0.10488397945E+04 -0.10412748856E+04  0.15467757823E+04  0.46999998093E+01 0. -1.
</event>
<event>
 5   0  0.1116462E-06  0.3318766E+04  0.7818609E-02  0.8158137E-01
       -2   -1    0    0    0  501  0.00000000000E+00  0.00000000000E+00  0.16270449087E+04  0.16270449087E+04  0.25500000920E-02 0.  1.
        2   -1    0    0  501    0  0.00000000000E+00  0.00000000000E+00 -0.16923635272E+04  0.16923635272E+04  0.25500000920E-02 0. -1.
    10030    2    1    2    0    0  0.00000000000E+00  0.00000000000E+00 -0.65318618517E+02  0.33194084359E+04  0.33187657107E+04 0.  0.
        1    1    3    3  502    0 -0.41560887732E+03 -0.11320164382E+04 -0.11727745807E+04  0.16821391656E+04  0.50400001928E-02 0. -1.
       -1    1    3    3    0  502  0.41560887732E+03  0.11320164382E+04  0.11074559622E+04  0.16372692703E+04  0.50400001928E-02 0.  1.
</event>
<event>
 5   0  0.3709747E-07  0.3276936E+04  0.7818609E-02  0.8168789E-01
       -1   -1    0    0    0  501  0.00000000000E+00  0.00000000000E+00  0.90355680401E+03  0.90355680403E+03  0.50400001928E-02 0. -1.
        1   -1    0    0  501    0  0.00000000000E+00  0.00000000000E+00 -0.29711221463E+04  0.29711221463E+04  0.50400001928E-02 0.  1.
    10030    2    1    2    0    0  0.00000000000E+00  0.00000000000E+00 -0.20675653423E+04  0.38746789503E+04  0.32769361488E+04 0.  0.
        4    1    3    3  502    0 -0.13840649890E+04  0.18909268204E+03 -0.20462342404E+04  0.24775932103E+04  0.12699999809E+01 0.  1.
       -4    1    3    3    0  502  0.13840649890E+04 -0.18909268204E+03 -0.21331101909E+02  0.13970857400E+04  0.12699999809E+01 0. -1.
</event>
<event>
 5   0  0.1116462E-06  0.3344093E+04  0.7818609E-02  0.8151766E-01
       -2   -1    0    0    0  501  0.00000000000E+00  0.00000000000E+00  0.12159078903E+04  0.12159078903E+04  0.25500000920E-02 0.  1.
        2   -1    0    0  501    0  0.00000000000E+00  0.00000000000E+00 -0.22993018660E+04  0.22993018660E+04  0.25500000920E-02 0. -1.
    10030    2    1    2    0    0  0.00000000000E+00  0.00000000000E+00 -0.10833939757E+04  0.35152097563E+04  0.33440928702E+04 0.  0.
        1    1    3    3  502    0  0.71120650039E+03  0.59203619632E+03 -0.20055875021E+04  0.22087785702E+04  0.50400001928E-02 0. -1.
       -1    1    3    3    0  502 -0.71120650039E+03 -0.59203619632E+03  0.92219352635E+03  0.13064311861E+04  0.50400001928E-02 0.  1.
</event>
<event>
 5   0  0.3674967E-07  0.3257263E+04  0.7818609E-02  0.8173856E-01
       -1   -1    0    0    0  501  0.00000000000E+00  0.00000000000E+00  0.14783071947E+04  0.14783071947E+04  0.50400001928E-02 0.  1.
        1   -1    0    0  501    0  0.00000000000E+00  0.00000000000E+00 -0.17942422397E+04  0.17942422397E+04  0.50400001928E-02 0. -1.
    10030    2    1    2    0    0  0.00000000000E+00  0.00000000000E+00 -0.31593504504E+03  0.32725494344E+04  0.32572633986E+04 0.  0.
        2    1    3    3  502    0  0.59338440670E+03 -0.12352559251E+04  0.72620730762E+03  0.15509156354E+04  0.25500000920E-02 0.  1.
       -2    1    3    3    0  502 -0.59338440670E+03  0.12352559251E+04 -0.10421423527E+04  0.17216337990E+04  0.25500000920E-02 0. -1.
</event>
<event>
 5   0  0.1129434E-06  0.3346638E+04  0.7818609E-02  0.8151129E-01
       -2   -1    0    0    0  501  0.00000000000E+00  0.00000000000E+00  0.89013470888E+03  0.89013470888E+03  0.25500000920E-02 0.  1.
        2   -1    0    0  501    0  0.00000000000E+00  0.00000000000E+00 -0.31455864081E+04  0.31455864081E+04  0.25500000920E-02 0. -1.
    10030    2    1    2    0    0  0.00000000000E+00  0.00000000000E+00 -0.22554516992E+04  0.40357211170E+04  0.33466375015E+04 0.  0.
        3    1    3    3  502    0 -0.13889134886E+04 -0.90903884627E+03 -0.13822923694E+04  0.21601306691E+04  0.10100000352E+00 0. -1.
       -3    1    3    3    0  502  0.13889134886E+04  0.90903884627E+03 -0.87315932979E+03  0.18755904479E+04  0.10100000352E+00 0.  1.
</event>
<event>
 5   0  0.3709747E-07  0.3310224E+04  0.7818609E-02  0.8160299E-01
        1   -1    0    0  501    0  0.00000000000E+00  0.00000000000E+00  0.99877469985E+03  0.99877469986E+03  0.50400001928E-02 0.  1.
       -1   -1    0    0    0  501  0.00000000000E+00  0.00000000000E+00 -0.27427572466E+04  0.27427572466E+04  0.50400001928E-02 0. -1.
    10030    2    1    2    0    0  0.00000000000E+00  0.00000000000E+00 -0.17439825467E+04  0.37415319464E+04  0.33102244913E+04 0.  0.
        4    1    3    3  502    0 -0.72949915119E+02 -0.94008615269E+03  0.66550618667E+03  0.11541160089E+04  0.12699999809E+01 0.  1.
       -4    1    3    3    0  502  0.72949915119E+02  0.94008615269E+03 -0.24094887334E+04  0.25874159375E+04  0.12699999809E+01 0. -1.
</event>
<event>
 5   0  0.3757406E-07  0.3205179E+04  0.7818609E-02  0.8187451E-01
       -1   -1    0    0    0  501  0.00000000000E+00  0.00000000000E+00  0.12843033560E+04  0.12843033560E+04  0.50400001928E-02 0. -1.
        1   -1    0    0  501    0  0.00000000000E+00  0.00000000000E+00 -0.19997556727E+04  0.19997556727E+04  0.50400001928E-02 0.  1.
    10030    2    1    2    0    0  0.00000000000E+00  0.00000000000E+00 -0.71545231675E+03  0.32840590287E+04  0.32051788852E+04 0.  0.
        1    1    3    3  502    0 -0.72804401445E+03 -0.10030390109E+04  0.68322819111E+03  0.14152512517E+04  0.50400001928E-02 0. -1.
       -1    1    3    3    0  502  0.72804401445E+03  0.10030390109E+04 -0.13986805079E+04  0.18688077770E+04  0.50400001928E-02 0.  1.
</event>
<event>
 5   0  0.1116462E-06  0.3290506E+04  0.7818609E-02  0.8165315E-01
       -2   -1    0    0    0  501  0.00000000000E+00  0.00000000000E+00  0.12806290484E+04  0.12806290484E+04  0.25500000920E-02 0. -1.
        2   -1    0    0  501    0  0.00000000000E+00  0.00000000000E+00 -0.21136931035E+04  0.21136931035E+04  0.25500000920E-02 0.  1.
    10030    2    1    2    0    0  0.00000000000E+00  0.00000000000E+00 -0.83306405504E+03  0.33943221519E+04  0.32905056072E+04 0.  0.
        1    1    3    3  502    0  0.80897270032E+03 -0.34712988072E+03  0.10172564398E+04  0.13452682440E+04  0.50400001928E-02 0. -1.
       -1    1    3    3    0  502 -0.80897270032E+03  0.34712988072E+03 -0.18503204948E+04  0.20490539079E+04  0.50400001928E-02 0.  1.
</event>
<event>
 5   0  0.1120545E-06  0.3306343E+04  0.7818609E-02  0.8161283E-01
        2   -1    0    0  501    0  0.00000000000E+00  0.00000000000E+00  0.10478391265E+04  0.10478391265E+04  0.25500000920E-02 0.  1.
       -2   -1    0    0    0  501  0.00000000000E+00  0.00000000000E+00 -0.26082021386E+04  0.26082021386E+04  0.25500000920E-02 0. -1.
    10030    2    1    2    0    0  0.00000000000E+00  0.00000000000E+00 -0.15603630121E+04  0.36560412652E+04  0.33063431466E+04 0.  0.
        4    1    3    3  502    0 -0.43609641904E+03  0.71241562378E+03 -0.23576945399E+04  0.25012879210E+04  0.12699999809E+01 0. -1.
       -4    1    3    3    0  502  0.43609641904E+03 -0.71241562378E+03  0.79733152774E+03  0.11547533441E+04  0.12699999809E+01 0.  1.
</event>
<event>
 5   0  0.3573375E-07  0.3247129E+04  0.7818609E-02  0.8176480E-01
       -3   -1    0    0    0  501  0.00000000000E+00  0.00000000000E+00  0.14277326284E+04  0.14277326320E+04  0.10100000352E+00 0. -1.
        3   -1    0    0  501    0  0.00000000000E+00  0.00000000000E+00 -0.18462571578E+04  0.18462571606E+04  0.10100000352E+00 0.  1.
    10030    2    1    2    0    0  0.00000000000E+00  0.00000000000E+00 -0.41852452939E+03  0.32739897925E+04  0.32471289441E+04 0.  0.
        2    1    3    3  502    0 -0.14452301294E+04 -0.12605453093E+03 -0.94425169330E+03  0.17309509328E+04  0.25500000920E-02 0.  1.
       -2    1    3    3    0  502  0.14452301294E+04  0.12605453093E+03  0.52572716391E+03  0.15430388597E+04  0.25500000920E-02 0. -1.
</event>
<event>
 5   0  0.1116462E-06  0.3318338E+04  0.7818609E-02  0.8158245E-01
       -2   -1    0    0    0  501  0.00000000000E+00  0.00000000000E+00  0.24726748617E+04  0.24726748617E+04  0.25500000920E-02 0. -1.
        2   -1    0    0  501    0  0.00000000000E+00  0.00000000000E+00 -0.11133049327E+04  0.11133049327E+04  0.25500000920E-02 0.  1.
    10030    2    1    2    0    0  0.00000000000E+00  0.00000000000E+00  0.13593699291E+04  0.35859797944E+04  0.33183376082E+04 0.  0.
        1    1    3    3  502    0  0.16105406271E+04 -0.25612961282E+03  0.10099443725E+04  0.19181843304E+04  0.50400001928E-02 0. -1.
       -1    1    3    3    0  502 -0.16105406271E+04  0.25612961282E+03  0.34942555662E+03  0.16677954640E+04  0.50400001928E-02 0.  1.
</event>
<event>
 5   0  0.1129434E-06  0.3292287E+04  0.7818609E-02  0.8164861E-01
       -2   -1    0    0    0  501  0.00000000000E+00  0.00000000000E+00  0.18655221197E+04  0.18655221197E+04  0.25500000920E-02 0.  1.
        2   -1    0    0  501    0  0.00000000000E+00  0.00000000000E+00 -0.14525629836E+04  0.14525629836E+04  0.25500000920E-02 0. -1.
    10030    2    1    2    0    0  0.00000000000E+00  0.00000000000E+00  0.41295913603E+03  0.33180851033E+04  0.32922869718E+04 0.  0.
        3    1    3    3  502    0 -0.37102086690E+03 -0.92350651543E+03  0.15279625557E+04  0.18235104468E+04  0.10100000352E+00 0.  1.
       -3    1    3    3    0  502  0.37102086690E+03  0.92350651543E+03 -0.11150034197E+04  0.14945746565E+04  0.10100000352E+00 0. -1.
</event>
<event>
 5   0  0.3757406E-07  0.3281721E+04  0.7818609E-02  0.8167562E-01
       -1   -1    0    0    0  501  0.00000000000E+00  0.00000000000E+00  0.25895558357E+04  0.25895558357E+04  0.50400001928E-02 0. -1.
        1   -1    0    0  501    0  0.00000000000E+00  0.00000000000E+00 -0.10397241262E+04  0.10397241262E+04  0.50400001928E-02 0.  1.
    10030    2    1    2    0    0  0.00000000000E+00  0.00000000000E+00  0.15498317094E+04  0.36292799619E+04  0.32817213036E+04 0.  0.
        1    1    3    3  502    0  0.99598605884E+02 -0.15605031518E+04  0.13249129932E+04  0.20495083334E+04  0.50400001928E-02 0.  1.
       -1    1    3    3    0  502 -0.99598605884E+02  0.15605031518E+04  0.22491871628E+03  0.15797716285E+04  0.50400001928E-02 0. -1.
</event>
<event>
 5   0  0.3757406E-07  0.3295097E+04  0.7818609E-02  0.8164144E-01
        1   -1    0    0  501    0  0.00000000000E+00  0.00000000000E+00  0.28683254734E+04  0.28683254734E+04  0.50400001928E-02 0.  1.
       -1   -1    0    0    0  501  0.00000000000E+00  0.00000000000E+00 -0.94634196894E+03  0.94634196896E+03  0.50400001928E-02 0. -1.
    10030    2    1    2    0    0  0.00000000000E+00  0.00000000000E+00  0.19219835044E+04  0.38146674423E+04  0.32950974347E+04 0.  0.
        1    1    3    3  502    0 -0.40604896976E+03 -0.15137868781E+04  0.15490090592E+04  0.22036005862E+04  0.50400001928E-02 0. -1.
       -1    1    3    3    0  502  0.40604896976E+03  0.15137868781E+04  0.37297444525E+03  0.16110668561E+04  0.50400001928E-02 0.  1.
</event>
<event>
 5   0  0.3749685E-07  0.3301187E+04  0.7818609E-02  0.8162593E-01
       -1   -1    0    0    0  501  0.00000000000E+00  0.00000000000E+00  0.17049068289E+04  0.17049068289E+04  0.50400001928E-02 0.  1.
        1   -1    0    0  501    0  0.00000000000E+00  0.00000000000E+00 -0.15980108185E+04  0.15980108185E+04  0.50400001928E-02 0. -1.
    10030    2    1    2    0    0  0.00000000000E+00  0.00000000000E+00  0.10689601045E+03  0.33029176474E+04  0.33011873967E+04 0.  0.
        3    1    3    3  502    0 -0.15740464146E+04  0.40485420550E+02 -0.44198661319E+03  0.16354245201E+04  0.10100000352E+00 0. -1.
       -3    1    3    3    0  502  0.15740464146E+04 -0.40485420550E+02  0.54888262364E+03  0.16674931272E+04  0.10100000352E+00 0.  1.
</event>
<event>
 5   0  0.3796529E-07  0.3281667E+04  0.7818609E-02  0.8167576E-01
        1   -1    0    0  501    0  0.00000000000E+00  0.00000000000E+00  0.21165671619E+04  0.21165671619E+04  0.50400001928E-02 0. -1.
       -1   -1    0    0    0  501  0.00000000000E+00  0.00000000000E+00 -0.12720287655E+04  0.12720287655E+04  0.50400001928E-02 0.  1.
    10030    2    1    2    0    0  0.00000000000E+00  0.00000000000E+00  0.84453839648E+03  0.33885959274E+04  0.32816668411E+04 0.  0.
        5    1    3    3  502    0  0.58278844643E+03  0.15336908489E+04  0.44446928654E+03  0.16998308828E+04  0.46999998093E+01 0.  1.
       -5    1    3    3    0  502 -0.58278844643E+03 -0.15336908489E+04  0.40006910994E+03  0.16887650446E+04  0.46999998093E+01 0. -1.
</event>
<event>
 5   0  0.3796529E-07  0.3226279E+04  0.7818609E-02  0.8181911E-01
       -1   -1    0    0    0  501  0.00000000000E+00  0.00000000000E+00  0.12366657845E+04  0.12366657845E+04  0.50400001928E-02 0. -1.
        1   -1    0    0  501    0  0.00000000000E+00  0.00000000000E+00 -0.21042219924E+04  0.21042219924E+04  0.50400001928E-02 0.  1.
    10030    2    1    2    0    0  0.00000000000E+00  0.00000000000E+00 -0.86755620784E+03  0.33408877769E+04  0.32262791826E+04 0.  0.
        5    1    3    3  502    0  0.54385710306E+03 -0.10722600231E+04  0.67991528976E+03  0.13812418314E+04  0.46999998093E+01 0. -1.
       -5    1    3    3    0  502 -0.54385710306E+03  0.10722600231E+04 -0.15474714976E+04  0.19596459455E+04  0.46999998093E+01 0.  1.
</event>
<event>
 5   0  0.1120545E-06  0.3308497E+04  0.7818609E-02  0.8160737E-01
        2   -1    0    0  501    0  0.00000000000E+00  0.00000000000E+00  0.25145283127E+04  0.25145283127E+04  0.25500000920E-02 0.  1.
       -2   -1    0    0    0  501  0.00000000000E+00  0.00000000000E+00 -0.10882907665E+04  0.10882907665E+04  0.25500000920E-02 0. -1.
    10030    2    1    2    0    0  0.00000000000E+00  0.00000000000E+00  0.14262375462E+04  0.36028190792E+04  0.33084969063E+04 0.  0.
        4    1    3    3  502    0 -0.86489101576E+03 -0.82726097761E+03 -0.53046110214E+03  0.13091171789E+04  0.12699999809E+01 0. -1.
       -4    1    3    3    0  502  0.86489101576E+03  0.82726097761E+03  0.19566986483E+04  0.22937019003E+04  0.12699999809E+01 0.  1.
</event>
<event>
 5   0  0.1116462E-06  0.3305716E+04  0.7818609E-02  0.8161442E-01
       -2   -1    0    0    0  501  0.00000000000E+00  0.00000000000E+00  0.13040865596E+04  0.13040865596E+04  0.25500000920E-02 0.  1.
        2   -1    0    0  501    0  0.00000000000E+00  0.00000000000E+00 -0.20949066894E+04  0.20949066894E+04  0.25500000920E-02 0. -1.
    10030    2    1    2    0    0  0.00000000000E+00  0.00000000000E+00 -0.79082012975E+03  0.33989932490E+04  0.33057160539E+04 0.  0.
        1    1    3    3  502    0  0.63011932982E+03 -0.29036207405E+03 -0.19379339621E+04  0.20583849362E+04  0.50400001928E-02 0. -1.
       -1    1    3    3    0  502 -0.63011932982E+03  0.29036207405E+03  0.11471138324E+04  0.13406083128E+04  0.50400001928E-02 0.  1.
</event>
<event>
 5   0  0.3709747E-07  0.3069650E+04  0.7818609E-02  0.8224117E-01
       -1   -1    0    0    0  501  0.00000000000E+00  0.00000000000E+00  0.82012297112E+03  0.82012297114E+03  0.50400001928E-02 0. -1.
        1   -1    0    0  501    0  0.00000000000E+00  0.00000000000E+00 -0.28723589091E+04  0.28723589091E+04  0.50400001928E-02 0.  1.
    10030    2    1    2    0    0  0.00000000000E+00  0.00000000000E+00 -0.20522359380E+04  0.36924818802E+04  0.30696498319E+04 0.  0.
        4    1    3    3  502    0  0.48668272866E+03 -0.83080863789E+02  0.72199146909E+03  0.87466325099E+03  0.12699999809E+01 0. -1.
       -4    1    3    3    0  502 -0.48668272866E+03  0.83080863789E+02 -0.27742274071E+04  0.28178186292E+04  0.12699999809E+01 0.  1.
</event>
<event>
 5   0  0.1146799E-06  0.3312733E+04  0.7818609E-02  0.8159663E-01
       -2   -1    0    0    0  501  0.00000000000E+00  0.00000000000E+00  0.11961539630E+04  0.11961539630E+04  0.25500000920E-02 0.  1.
        2   -1    0    0  501    0  0.00000000000E+00  0.00000000000E+00 -0.22936433693E+04  0.22936433693E+04  0.25500000920E-02 0. -1.
    10030    2    1    2    0    0  0.00000000000E+00  0.00000000000E+00 -0.10974894063E+04  0.34897973323E+04  0.33127333765E+04 0.  0.
        5    1    3    3  502    0  0.10304973218E+04  0.62085456926E+03  0.65058957833E+03  0.13677258555E+04  0.46999998093E+01 0.  1.
       -5    1    3    3    0  502 -0.10304973218E+04 -0.62085456926E+03 -0.17480789846E+04  0.21220714768E+04  0.46999998093E+01 0. -1.
</event>
<event>
 5   0  0.3674967E-07  0.3304272E+04  0.7818609E-02  0.8161809E-01
        1   -1    0    0  501    0  0.00000000000E+00  0.00000000000E+00  0.22684721278E+04  0.22684721278E+04  0.50400001928E-02 0. -1.
       -1   -1    0    0    0  501  0.00000000000E+00  0.00000000000E+00 -0.12032560831E+04  0.12032560831E+04  0.50400001928E-02 0.  1.
    10030    2    1    2    0    0  0.00000000000E+00  0.00000000000E+00  0.10652160448E+04  0.34717282109E+04  0.33042717123E+04 0.  0.
        2    1    3    3  502    0  0.26734058848E+03 -0.48966033860E+03  0.21665113958E+04  0.22371879371E+04  0.25500000920E-02 0. -1.
       -2    1    3    3    0  502 -0.26734058848E+03  0.48966033860E+03 -0.11012953511E+04  0.12345402739E+04  0.25500000920E-02 0.  1.
</event>
<event>
 5   0  0.1126221E-06  0.3293228E+04  0.7818609E-02  0.8164621E-01
        2   -1    0    0  501    0  0.00000000000E+00  0.00000000000E+00  0.21881092746E+04  0.21881092746E+04  0.25500000920E-02 0. -1.
       -2   -1    0    0    0  501  0.00000000000E+00  0.00000000000E+00 -0.12391231545E+04  0.12391231545E+04  0.25500000920E-02 0.  1.
    10030    2    1    2    0    0  0.00000000000E+00  0.00000000000E+00  0.94898612006E+03  0.34272324291E+04  0.32932275153E+04 0.  0.
        2    1    3    3  502    0  0.12129400994E+04  0.36306887274E+03  0.15700863121E+04  0.20169813382E+04  0.25500000920E-02 0. -1.
       -2    1    3    3    0  502 -0.12129400994E+04 -0.36306887274E+03 -0.62110019202E+03  0.14102510910E+04  0.25500000920E-02 0.  1.
</event>
<event>
 5   0  0.1129434E-06  0.3312169E+04  0.7818609E-02  0.8159806E-01
        2   -1    0    0  501    0  0.00000000000E+00  0.00000000000E+00  0.15487003903E+04  0.15487003903E+04  0.25500000920E-02 0.  1.
       -2   -1    0    0    0  501  0.00000000000E+00  0.00000000000E+00 -0.17709147730E+04  0.17709147730E+04  0.25500000920E-02 0. -1.
    10030    2    1    2    0    0  0.00000000000E+00  0.00000000000E+00 -0.22221438272E+03  0.33196151632E+04  0.33121693193E+04 0.  0.
        3    1    3    3  502    0 -0.59033452676E+03 -0.13452429950E+03 -0.16560083174E+04  0.17632229575E+04  0.10100000352E+00 0. -1.
       -3    1    3    3    0  502  0.59033452676E+03  0.13452429950E+03  0.14337939346E+04  0.15563922057E+04  0.10100000352E+00 0.  1.
</event>
<event>
 5   0  0.1116462E-06  0.3282939E+04  0.7818609E-02  0.8167250E-01
       -2   -1    0    0    0  501  0.00000000000E+00  0.00000000000E+00  0.14995424017E+04  0.14995424017E+04  0.25500000920E-02 0. -1.
        2   -1    0    0  501    0  0.00000000000E+00  0.00000000000E+00 -0.17968295085E+04  0.17968295085E+04  0.25500000920E-02 0.  1.
    10030    2    1    2    0    0  0.00000000000E+00  0.00000000000E+00 -0.29728710679E+03  0.32963719103E+04  0.32829389496E+04 0.  0.
        1    1    3    3  502    0 -0.61159998201E+03  0.54986949047E+03 -0.15750233121E+04  0.17768256606E+04  0.50400001928E-02 0.  1.
       -1    1    3    3    0  502  0.61159998201E+03 -0.54986949047E+03  0.12777362053E+04  0.15195462497E+04  0.50400001928E-02 0. -1.
</event>
<event>
 5   0  0.1120545E-06  0.3293641E+04  0.7818609E-02  0.8164515E-01
        2   -1    0    0  501    0  0.00000000000E+00  0.00000000000E+00  0.15269993118E+04  0.15269993118E+04  0.25500000920E-02 0. -1.
       -2   -1    0    0    0  501  0.00000000000E+00  0.00000000000E+00 -0.17760433895E+04  0.17760433895E+04  0.25500000920E-02 0.  1.
    10030    2    1    2    0    0  0.00000000000E+00  0.00000000000E+00 -0.24904407773E+03  0.33030427013E+04  0.32936405594E+04 0.  0.
        4    1    3    3  502    0 -0.16985776302E+03 -0.14109923498E+04  0.70987733509E+03  0.15886089873E+04  0.12699999809E+01 0. -1.
       -4    1    3    3    0  502  0.16985776302E+03  0.14109923498E+04 -0.95892141282E+03  0.17144337140E+04  0.12699999809E+01 0.  1.
</event>
<event>
 5   0  0.3796529E-07  0.3081949E+04  0.7818609E-02  0.8220709E-01
        1   -1    0    0  501    0  0.00000000000E+00  0.00000000000E+00  0.24087865746E+04  0.24087865746E+04  0.50400001928E-02 0. -1.
       -1   -1    0    0    0  501  0.00000000000E+00  0.00000000000E+00 -0.98580884472E+03  0.98580884474E+03  0.50400001928E-02 0.  1.
    10030    2    1    2    0    0  0.00000000000E+00  0.00000000000E+00  0.14229777298E+04  0.33945954193E+04  0.30819494547E+04 0.  0.
        5    1    3    3  502    0 -0.11320389465E+04 -0.99978935516E+03  0.10482680920E+04  0.18384719236E+04  0.46999998093E+01 0. -1.
       -5    1    3    3    0  502  0.11320389465E+04  0.99978935516E+03  0.37470963782E+03  0.15561234957E+04  0.46999998093E+01 0.  1.
</event>
<event>
 5   0  0.3709747E-07  0.3241024E+04  0.7818609E-02  0.8178066E-01
        1   -1    0    0  501    0  0.00000000000E+00  0.00000000000E+00  0.23630862537E+04  0.23630862537E+04  0.50400001928E-02 0.  1.
       -1   -1    0    0    0  501  0.00000000000E+00  0.00000000000E+00 -0.11112839203E+04  0.11112839204E+04  0.50400001928E-02 0. -1.
    10030    2    1    2    0    0  0.00000000000E+00  0.00000000000E+00  0.12518023333E+04  0.34743701740E+04  0.32410243789E+04 0.  0.
        4    1    3    3  502    0 -0.85121850978E+03 -0.13412625869E+04  0.96910761309E+03  0.18608410617E+04  0.12699999809E+01 0.  1.
       -4    1    3    3    0  502  0.85121850978E+03  0.13412625869E+04  0.28269472023E+03  0.16135291123E+04  0.12699999809E+01 0. -1.
</event>
<event>
 5   0  0.3573375E-07  0.3345837E+04  0.7818609E-02  0.8151329E-01
        3   -1    0    0  501    0  0.00000000000E+00  0.00000000000E+00  0.18635341770E+04  0.18635341798E+04  0.10100000352E+00 0.  1.
       -3   -1    0    0    0  501  0.00000000000E+00  0.00000000000E+00 -0.15018001120E+04  0.15018001154E+04  0.10100000352E+00 0. -1.
    10030    2    1    2    0    0  0.00000000000E+00  0.00000000000E+00  0.36173406506E+03  0.33653342951E+04  0.33458367241E+04 0.  0.
        4    1    3    3  502    0  0.11788761053E+04 -0.11850808557E+04  0.11347864527E+03  0.16754236843E+04  0.12699999809E+01 0. -1.
       -4    1    3    3    0  502 -0.11788761053E+04  0.11850808557E+04  0.24825541978E+03  0.16899106108E+04  0.12699999809E+01 0.  1.
</event>
<event>
 5   0  0.1129434E-06  0.3295377E+04  0.7818609E-02  0.8164073E-01
        2   -1    0    0  501    0  0.00000000000E+00  0.00000000000E+00  0.87871775510E+03  0.87871775511E+03  0.25500000920E-02 0. -1.
       -2   -1    0    0    0  501  0.00000000000E+00  0.00000000000E+00 -0.30895905566E+04  0.30895905566E+04  0.25500000920E-02 0.  1.
    10030    2    1    2    0    0  0.00000000000E+00  0.00000000000E+00 -0.22108728015E+04  0.39683083117E+04  0.32953774158E+04 0.  0.
        3    1    3    3  502    0 -0.14587611606E+03 -0.15744980897E+04 -0.16632236028E+04  0.22949154317E+04  0.10100000352E+00 0.  1.
       -3    1    3    3    0  502  0.14587611606E+03  0.15744980897E+04 -0.54764919874E+03  0.16733928800E+04  0.10100000352E+00 0. -1.
</event>
<event>
 5   0  0.1126221E-06  0.3299456E+04  0.7818609E-02  0.8163034E-01
        2   -1    0    0  501    0  0.00000000000E+00  0.00000000000E+00  0.15457356697E+04  0.15457356697E+04  0.25500000920E-02 0. -1.
       -2   -1    0    0    0  501  0.00000000000E+00  0.00000000000E+00 -0.17607162382E+04  0.17607162382E+04  0.25500000920E-02 0.  1.
    10030    2    1    2    0    0  0.00000000000E+00  0.00000000000E+00 -0.21498056848E+03  0.33064519079E+04  0.32994556482E+04 0.  0.
        2    1    3    3  502    0 -0.91980663621E+03  0.12285418152E+04  0.49897280884E+03  0.16137946287E+04  0.25500000920E-02 0. -1.
       -2    1    3    3    0  502  0.91980663621E+03 -0.12285418152E+04 -0.71395337732E+03  0.16926572792E+04  0.25500000920E-02 0.  1.
</event>
<event>
 5   0  0.1146799E-06  0.3297404E+04  0.7818609E-02  0.8163556E-01
       -2   -1    0    0    0  501  0.00000000000E+00  0.00000000000E+00  0.18939915482E+04  0.18939915482E+04  0.25500000920E-02 0. -1.
        2   -1    0    0  501    0  0.00000000000E+00  0.00000000000E+00 -0.14351796814E+04  0.14351796814E+04  0.25500000920E-02 0.  1.
    10030    2    1    2    0    0  0.00000000000E+00  0.00000000000E+00  0.45881186677E+03  0.33291712296E+04  0.32974039405E+04 0.  0.
        5    1    3    3  502    0 -0.78813968882E+03  0.94251370588E+02 -0.12295584222E+04  0.14635175071E+04  0.46999998093E+01 0.  1.
       -5    1    3    3    0  502  0.78813968882E+03 -0.94251370588E+02  0.16883702889E+04  0.18656537226E+04  0.46999998093E+01 0. -1.
</event>
<event>
 5   0  0.3709747E-07  0.3293299E+04  0.7818609E-02  0.8164603E-01
       -1   -1    0    0    0  501  0.00000000000E+00  0.00000000000E+00  0.12431797932E+04  0.12431797932E+04  0.50400001928E-02 0. -1.
        1   -1    0    0  501    0  0.00000000000E+00  0.00000000000E+00 -0.21810637690E+04  0.21810637690E+04  0.50400001928E-02 0.  1.
    10030    2    1    2    0    0  0.00000000000E+00  0.00000000000E+00 -0.93788397578E+03  0.34242435621E+04  0.32932988964E+04 0.  0.
        4    1    3    3  502    0  0.13756860643E+03  0.17039943516E+03 -0.21658534120E+04  0.21768977247E+04  0.12699999809E+01 0.  1.
       -4    1    3    3    0  502 -0.13756860643E+03 -0.17039943516E+03  0.12279694362E+04  0.12473458374E+04  0.12699999809E+01 0. -1.
</event>
<event>
 5   0  0.3757406E-07  0.3303625E+04  0.7818609E-02  0.8161974E-01
       -1   -1    0    0    0  501  0.00000000000E+00  0.00000000000E+00  0.16096284182E+04  0.16096284182E+04  0.50400001928E-02 0. -1.
        1   -1    0    0  501    0  0.00000000000E+00  0.00000000000E+00 -0.16951025570E+04  0.16951025570E+04  0.50400001928E-02 0.  1.
    10030    2    1    2    0    0  0.00000000000E+00  0.00000000000E+00 -0.85474138806E+02  0.33047309752E+04  0.33036254313E+04 0.  0.
        1    1    3    3  502    0  0.25763627378E+03 -0.13988630048E+04  0.79736007725E+03  0.16306370684E+04  0.50400001928E-02 0.  1.
       -1    1    3    3    0  502 -0.25763627378E+03  0.13988630048E+04 -0.88283421606E+03  0.16740939068E+04  0.50400001928E-02 0. -1.
</event>
<event>
 5   0  0.1126221E-06  0.3288473E+04  0.7818609E-02  0.8165835E-01
       -2   -1    0    0    0  501  0.00000000000E+00  0.00000000000E+00  0.13597105090E+04  0.13597105090E+04  0.25500000920E-02 0.  1.
        2   -1    0    0  501    0  0.00000000000E+00  0.00000000000E+00 -0.19883009227E+04  0.19883009227E+04  0.25500000920E-02 0. -1.
    10030    2    1    2    0    0  0.00000000000E+00  0.00000000000E+00 -0.62859041364E+03  0.33480114317E+04  0.32884729950E+04 0.  0.
        2    1    3    3  502    0 -0.75212810788E+03  0.65445389451E+03 -0.16454485981E+04  0.19239302689E+04  0.25500000920E-02 0. -1.
       -2    1    3    3    0  502  0.75212810788E+03 -0.65445389451E+03  0.10168581845E+04  0.14240811627E+04  0.25500000920E-02 0.  1.
</event>
<event>
 5   0  0.3709747E-07  0.3230033E+04  0.7818609E-02  0.8180930E-01
       -1   -1    0    0    0  501  0.00000000000E+00  0.00000000000E+00  0.24735648110E+04  0.24735648110E+04  0.50400001928E-02 0. -1.
        1   -1    0    0  501    0  0.00000000000E+00  0.00000000000E+00 -0.10544611985E+04  0.10544611986E+04  0.50400001928E-02 0.  1.
    10030    2    1    2    0    0  0.00000000000E+00  0.00000000000E+00  0.14191036125E+04  0.35280260096E+04  0.32300328886E+04 0.  0.
        4    1    3    3  502    0  0.15634573410E+04 -0.36329460698E+03  0.90461885636E+03  0.18424762459E+04  0.12699999809E+01 0. -1.
       -4    1    3    3    0  502 -0.15634573410E+04  0.36329460698E+03  0.51448475613E+03  0.16855497637E+04  0.12699999809E+01 0.  1.
</event>
<event>
 5   0  0.1120545E-06  0.3295607E+04  0.7818609E-02  0.8164014E-01
       -2   -1    0    0    0  501  0.00000000000E+00  0.00000000000E+00  0.14459667863E+04  0.14459667863E+04  0.25500000920E-02 0. -1.
        2   -1    0    0  501    0  0.00000000000E+00  0.00000000000E+00 -0.18778141561E+04  0.18778141561E+04  0.25500000920E-02 0.  1.
    10030    2    1    2    0    0  0.00000000000E+00  0.00000000000E+00 -0.43184736980E+03  0.33237809424E+04  0.32956073192E+04 0.  0.
        4    1    3    3  502    0 -0.10259276207E+04 -0.10842741674E+04 -0.91979925983E+03  0.17533425919E+04  0.12699999809E+01 0.  1.
       -4    1    3    3    0  502  0.10259276207E+04  0.10842741674E+04  0.48795189003E+03  0.15704383506E+04  0.12699999809E+01 0. -1.
</event>
<event>
 5   0  0.3796529E-07  0.3296799E+04  0.7818609E-02  0.8163710E-01
       -1   -1    0    0    0  501  0.00000000000E+00  0.00000000000E+00  0.19402050076E+04  0.19402050076E+04  0.50400001928E-02 0.  1.
        1   -1    0    0  501    0  0.00000000000E+00  0.00000000000E+00 -0.14004810629E+04  0.14004810630E+04  0.50400001928E-02 0. -1.
    10030    2    1    2    0    0  0.00000000000E+00  0.00000000000E+00  0.53972394468E+03  0.33406860706E+04  0.32967986723E+04 0.  0.
        5    1    3    3  502    0  0.29261383954E+03 -0.88950540675E+03 -0.11047942672E+04  0.14482524609E+04  0.46999998093E+01 0. -1.
       -5    1    3    3    0  502 -0.29261383954E+03  0.88950540675E+03  0.16445182119E+04  0.18924336097E+04  0.46999998093E+01 0.  1.
</event>
<event>
 5   0  0.1146799E-06  0.3245644E+04  0.7818609E-02  0.8176866E-01
       -2   -1    0    0    0  501  0.00000000000E+00  0.00000000000E+00  0.13426637685E+04  0.13426637685E+04  0.25500000920E-02 0.  1.
        2   -1    0    0  501    0  0.00000000000E+00  0.00000000000E+00 -0.19614381519E+04  0.19614381519E+04  0.25500000920E-02 0. -1.
    10030    2    1    2    0    0  0.00000000000E+00  0.00000000000E+00 -0.61877438348E+03  0.33041019204E+04  0.32456444295E+04 0.  0.
        5    1    3    3  502    0 -0.38500155082E+03 -0.11563229560E+04 -0.14002376421E+04  0.18563395479E+04  0.46999998093E+01 0. -1.
       -5    1    3    3    0  502  0.38500155082E+03  0.11563229560E+04  0.78146325859E+03  0.14477623725E+04  0.46999998093E+01 0.  1.
</event>
<event>
 5   0  0.1116462E-06  0.3297352E+04  0.7818609E-02  0.8163570E-01
       -2   -1    0    0    0  501  0.00000000000E+00  0.00000000000E+00  0.10266270248E+04  0.10266270248E+04  0.25500000920E-02 0. -1.
        2   -1    0    0  501    0  0.00000000000E+00  0.00000000000E+00 -0.26476336595E+04  0.26476336595E+04  0.25500000920E-02 0.  1.
    10030    2    1    2    0    0  0.00000000000E+00  0.00000000000E+00 -0.16210066347E+04  0.36742606844E+04  0.32973518264E+04 0.  0.
        1    1    3    3  502    0  0.51037457389E+03 -0.85439933710E+02 -0.25547935343E+04  0.26066745464E+04  0.50400001928E-02 0.  1.
       -1    1    3    3    0  502 -0.51037457389E+03  0.85439933710E+02  0.93378689964E+03  0.10675861379E+04  0.50400001928E-02 0. -1.
</event>
<event>
 5   0  0.3749685E-07  0.3282317E+04  0.7818609E-02  0.8167409E-01
       -1   -1    0    0    0  501  0.00000000000E+00  0.00000000000E+00  0.15780957132E+04  0.15780957132E+04  0.50400001928E-02 0.  1.
        1   -1    0    0  501    0  0.00000000000E+00  0.00000000000E+00 -0.17067416760E+04  0.17067416760E+04  0.50400001928E-02 0. -1.
    10030    2    1    2    0    0  0.00000000000E+00  0.00000000000E+00 -0.12864596284E+03  0.32848373893E+04  0.32823173049E+04 0.  0.
        3    1    3    3  502    0 -0.77505099006E+02  0.10464851686E+04  0.11984950600E+04  0.15929622304E+04  0.10100000352E+00 0.  1.
       -3    1    3    3    0  502  0.77505099006E+02 -0.10464851686E+04 -0.13271410228E+04  0.16918751589E+04  0.10100000352E+00 0. -1.
</event>
<event>
 5   0  0.3709747E-07  0.3266985E+04  0.7818609E-02  0.8171347E-01
        1   -1    0    0  501    0  0.00000000000E+00  0.00000000000E+00  0.19083573937E+04  0.19083573937E+04  0.50400001928E-02 0.  1.
       -1   -1    0    0    0  501  0.00000000000E+00  0.00000000000E+00 -0.13982168698E+04  0.13982168698E+04  0.50400001928E-02 0. -1.
    10030    2    1    2    0    0  0.00000000000E+00  0.00000000000E+00  0.51014052391E+03  0.33065742635E+04  0.32669848494E+04 0.  0.
        4    1    3    3  502    0 -0.10084219434E+04  0.12809548246E+04  0.15118232417E+03  0.16372592301E+04  0.12699999809E+01 0. -1.
       -4    1    3    3    0  502  0.10084219434E+04 -0.12809548246E+04  0.35895819975E+03  0.16693150334E+04  0.12699999809E+01 0.  1.
</event>
<event>
 5   0  0.3709747E-07  0.3265047E+04  0.7818609E-02  0.8171846E-01
       -1   -1    0    0    0  501  0.00000000000E+00  0.00000000000E+00  0.26323420949E+04  0.26323420949E+04  0.50400001928E-02 0. -1.
        1   -1    0    0  501    0  0.00000000000E+00  0.00000000000E+00 -0.10124570775E+04  0.10124570775E+04  0.50400001928E-02 0.  1.
    10030    2    1    2    0    0  0.00000000000E+00  0.00000000000E+00  0.16198850174E+04  0.36447991723E+04  0.32650472488E+04 0.  0.
        4    1    3    3  502    0 -0.53834468545E+02 -0.10762316430E+04  0.21789383923E+04  0.24308325384E+04  0.12699999809E+01 0. -1.
       -4    1    3    3    0  502  0.53834468545E+02  0.10762316430E+04 -0.55905337492E+03  0.12139666339E+04  0.12699999809E+01 0.  1.
</event>
<event>
 5   0  0.3709747E-07  0.3307682E+04  0.7818609E-02  0.8160943E-01
       -1   -1    0    0    0  501  0.00000000000E+00  0.00000000000E+00  0.11216578672E+04  0.11216578672E+04  0.50400001928E-02 0.  1.
        1   -1    0    0  501    0  0.00000000000E+00  0.00000000000E+00 -0.24385246456E+04  0.24385246456E+04  0.50400001928E-02 0. -1.
    10030    2    1    2    0    0  0.00000000000E+00  0.00000000000E+00 -0.13168667784E+04  0.35601825128E+04  0.33076821813E+04 0.  0.
        4    1    3    3  502    0 -0.89756899401E+03  0.15113139230E+03 -0.21446828694E+04  0.23298362647E+04  0.12699999809E+01 0. -1.
       -4    1    3    3    0  502  0.89756899401E+03 -0.15113139230E+03  0.82781609104E+03  0.12303462481E+04  0.12699999809E+01 0.  1.
</event>
<event>
 5   0  0.3749685E-07  0.3202652E+04  0.7818609E-02  0.8188117E-01
        1   -1    0    0  501    0  0.00000000000E+00  0.00000000000E+00  0.17667051384E+04  0.17667051384E+04  0.50400001928E-02 0.  1.
       -1   -1    0    0    0  501  0.00000000000E+00  0.00000000000E+00 -0.14514282107E+04  0.14514282107E+04  0.50400001928E-02 0. -1.
    10030    2    1    2    0    0  0.00000000000E+00  0.00000000000E+00  0.31527692766E+03  0.32181333491E+04  0.32026524494E+04 0.  0.
        3    1    3    3  502    0  0.14169489543E+04 -0.55352133854E+03  0.66017135199E+03  0.16582992600E+04  0.10100000352E+00 0.  1.
       -3    1    3    3    0  502 -0.14169489543E+04  0.55352133854E+03 -0.34489442433E+03  0.15598340891E+04  0.10100000352E+00 0. -1.
</event>
<event>
 5   0  0.1146799E-06  0.3303819E+04  0.7818609E-02  0.8161924E-01
        2   -1    0    0  501    0  0.00000000000E+00  0.00000000000E+00  0.24294446509E+04  0.24294446509E+04  0.25500000920E-02 0. -1.
       -2   -1    0    0    0  501  0.00000000000E+00  0.00000000000E+00 -0.11232220273E+04  0.11232220273E+04  0.25500000920E-02 0.  1.
    10030    2    1    2    0    0  0.00000000000E+00  0.00000000000E+00  0.13062226236E+04  0.35526666782E+04  0.33038194539E+04 0.  0.
        5    1    3    3  502    0 -0.57048227128E+03  0.71559840496E+03 -0.82570053338E+03  0.12326128994E+04  0.46999998093E+01 0.  1.
       -5    1    3    3    0  502  0.57048227128E+03 -0.71559840496E+03  0.21319231570E+04  0.23200537788E+04  0.46999998093E+01 0. -1.
</event>
<event>
 5   0  0.1126221E-06  0.3242983E+04  0.7818609E-02  0.8177557E-01
       -2   -1    0    0    0  501  0.00000000000E+00  0.00000000000E+00  0.25260314652E+04  0.25260314652E+04  0.25500000920E-02 0. -1.
        2   -1    0    0  501    0  0.00000000000E+00  0.00000000000E+00 -0.10408560260E+04  0.10408560260E+04  0.25500000920E-02 0.  1.
    10030    2    1    2    0    0  0.00000000000E+00  0.00000000000E+00  0.14851754392E+04  0.35668874913E+04  0.32429832393E+04 0.  0.
        2    1    3    3  502    0  0.27918925497E+03  0.85951748011E+03  0.22233518540E+04  0.24000021678E+04  0.25500000920E-02 0. -1.
       -2    1    3    3    0  502 -0.27918925497E+03 -0.85951748011E+03 -0.73817641483E+03  0.11668853235E+04  0.25500000920E-02 0.  1.
</event>
<event>
 5   0  0.3674967E-07  0.3293093E+04  0.7818609E-02  0.8164655E-01
       -1   -1    0    0    0  501  0.00000000000E+00  0.00000000000E+00  0.13222298702E+04  0.13222298702E+04  0.50400001928E-02 0. -1.
        1   -1    0    0  501    0  0.00000000000E+00  0.00000000000E+00 -0.20504113002E+04  0.20504113002E+04  0.50400001928E-02 0.  1.
    10030    2    1    2    0    0  0.00000000000E+00  0.00000000000E+00 -0.72818143001E+03  0.33726411704E+04  0.32930928121E+04 0.  0.
        2    1    3    3  502    0  0.11979836952E+04 -0.34124964574E+03  0.73872087158E+03  0.14482143422E+04  0.25500000920E-02 0. -1.
       -2    1    3    3    0  502 -0.11979836952E+04  0.34124964574E+03 -0.14669023016E+04  0.19244268282E+04  0.25500000920E-02 0.  1.
</event>
<event>
 5   0  0.3757406E-07  0.3028959E+04  0.7818609E-02  0.8235510E-01
       -1   -1    0    0    0  501  0.00000000000E+00  0.00000000000E+00  0.13027712867E+04  0.13027712867E+04  0.50400001928E-02 0.  1.
        1   -1    0    0  501    0  0.00000000000E+00  0.00000000000E+00 -0.17605910577E+04  0.17605910578E+04  0.50400001928E-02 0. -1.
    10030    2    1    2    0    0  0.00000000000E+00  0.00000000000E+00 -0.45781977104E+03  0.30633623445E+04  0.30289585522E+04 0.  0.
        1    1    3    3  502    0  0.18286716129E+03 -0.15146451077E+03 -0.17416482102E+04  0.17577600475E+04  0.50400001928E-02 0. -1.
       -1    1    3    3    0  502 -0.18286716129E+03  0.15146451077E+03  0.12838284391E+04  0.13056022970E+04  0.50400001928E-02 0.  1.
</event>
<event>
 5   0  0.3749685E-07  0.3291556E+04  0.7818609E-02  0.8165047E-01
       -1   -1    0    0    0  501  0.00000000000E+00  0.00000000000E+00  0.10956726850E+04  0.10956726850E+04  0.50400001928E-02 0.  1.
        1   -1    0    0  501    0  0.00000000000E+00  0.00000000000E+00 -0.24720749192E+04  0.24720749192E+04  0.50400001928E-02 0. -1.
    10030    2    1    2    0    0  0.00000000000E+00  0.00000000000E+00 -0.13764022342E+04  0.35677476042E+04  0.32915558414E+04 0.  0.
        3    1    3    3  502    0  0.15453989320E+04  0.37460016908E+03 -0.22833508687E+03  0.16064619721E+04  0.10100000352E+00 0.  1.
       -3    1    3    3    0  502 -0.15453989320E+04 -0.37460016908E+03 -0.11480671473E+04  0.19612856321E+04  0.10100000352E+00 0. -1.
</event>
<event>
 5   0  0.3757406E-07  0.3336736E+04  0.7818609E-02  0.8153610E-01
       -1   -1    0    0    0  501  0.00000000000E+00  0.00000000000E+00  0.15710167756E+04  0.15710167756E+04  0.50400001928E-02 0.  1.
        1   -1    0    0  501    0  0.00000000000E+00  0.00000000000E+00 -0.17717516008E+04  0.17717516008E+04  0.50400001928E-02 0. -1.
    10030    2    1    2    0    0  0.00000000000E+00  0.00000000000E+00 -0.20073482528E+03  0.33427683764E+04  0.33367358224E+04 0.  0.
        1    1    3    3  502    0  0.12678474023E+04  0.34411005172E+03 -0.11306248098E+04  0.17332516332E+04  0.50400001928E-02 0. -1.
       -1    1    3    3    0  502 -0.12678474023E+04 -0.34411005172E+03  0.92988998454E+03  0.16095167432E+04  0.50400001928E-02 0.  1.
</event>
<event>
 5   0  0.3709747E-07  0.3308231E+04  0.7818609E-02  0.8160804E-01
       -1   -1    0    0    0  501  0.00000000000E+00  0.00000000000E+00  0.12682351795E+04  0.12682351795E+04  0.50400001928E-02 0. -1.
        1   -1    0    0  501    0  0.00000000000E+00  0.00000000000E+00 -0.21574065346E+04  0.21574065346E+04  0.50400001928E-02 0.  1.
    10030    2    1    2    0    0  0.00000000000E+00  0.00000000000E+00 -0.88917135505E+03  0.34256417141E+04  0.33082314694E+04 0.  0.
        4    1    3    3  502    0 -0.19562646529E+03 -0.12239093147E+04 -0.15788487298E+04  0.20072340793E+04  0.12699999809E+01 0.  1.
       -4    1    3    3    0  502  0.19562646529E+03  0.12239093147E+04  0.68967737474E+03  0.14184076349E+04  0.12699999809E+01 0. -1.
</event>
<event>
 5   0  0.3709747E-07  0.3299354E+04  0.7818609E-02  0.8163060E-01
       -1   -1    0    0    0  501  0.00000000000E+00  0.00000000000E+00  0.14781182004E+04  0.14781182004E+04  0.50400001928E-02 0. -1.
        1   -1    0    0  501    0  0.00000000000E+00  0.00000000000E+00 -0.18411474452E+04  0.18411474452E+04  0.50400001928E-02 0.  1.
    10030    2    1    2    0    0  0.00000000000E+00  0.00000000000E+00 -0.36302924475E+03  0.33192656456E+04  0.32993536024E+04 0.  0.
        4    1    3    3  502    0 -0.45810284525E+03  0.12941055671E+04  0.73880932095E+03  0.15589766712E+04  0.12699999809E+01 0. -1.
       -4    1    3    3    0  502  0.45810284525E+03 -0.12941055671E+04 -0.11018385657E+04  0.17602889744E+04  0.12699999809E+01 0.  1.
</event>
<event>
 5   0  0.3749685E-07  0.3320539E+04  0.7818609E-02  0.8157689E-01
        1   -1    0    0  501    0  0.00000000000E+00  0.00000000000E+00  0.20796528043E+04  0.20796528043E+04  0.50400001928E-02 0. -1.
       -1   -1    0    0    0  501  0.00000000000E+00  0.00000000000E+00 -0.13254592380E+04  0.13254592380E+04  0.50400001928E-02 0.  1.
    10030    2    1    2    0    0  0.00000000000E+00  0.00000000000E+00  0.75419356631E+03  0.34051120424E+04  0.33205391257E+04 0.  0.
        3    1    3    3  502    0 -0.85429053686E+03  0.12985582089E+04 -0.22122697790E+03  0.15700341172E+04  0.10100000352E+00 0. -1.
       -3    1    3    3    0  502  0.85429053686E+03 -0.12985582089E+04  0.97542054421E+03  0.18350779252E+04  0.10100000352E+00 0.  1.
</event>
<event>
 5   0  0.1126221E-06  0.3316820E+04  0.7818609E-02  0.8158629E-01
        2   -1    0    0  501    0  0.00000000000E+00  0.00000000000E+00  0.23641124251E+04  0.23641124251E+04  0.25500000920E-02 0. -1.
       -2   -1    0    0    0  501  0.00000000000E+00  0.00000000000E+00 -0.11633638619E+04  0.11633638619E+04  0.25500000920E-02 0.  1.
    10030    2    1    2    0    0  0.00000000000E+00  0.00000000000E+00  0.12007485632E+04  0.35274762870E+04  0.33168195373E+04 0.  0.
        2    1    3    3  502    0 -0.14094985548E+04  0.87011992015E+03  0.68630253244E+03  0.17929880137E+04  0.25500000920E-02 0.  1.
       -2    1    3    3    0  502  0.14094985548E+04 -0.87011992015E+03  0.51444603073E+03  0.17344882732E+04  0.25500000920E-02 0. -1.
</event>
<event>
 5   0  0.3573375E-07  0.3293631E+04  0.7818609E-02  0.8164518E-01
        3   -1    0    0  501    0  0.00000000000E+00  0.00000000000E+00  0.14852525753E+04  0.14852525788E+04  0.10100000352E+00 0.  1.
       -3   -1    0    0    0  501  0.00000000000E+00  0.00000000000E+00 -0.18259524802E+04  0.18259524830E+04  0.10100000352E+00 0. -1.
    10030    2    1    2    0    0  0.00000000000E+00  0.00000000000E+00 -0.34069990484E+03  0.33112050617E+04  0.32936306009E+04 0.  0.
        4    1    3    3  502    0 -0.78586154221E+03  0.13900649970E+04 -0.57516460253E+03  0.16972551347E+04  0.12699999809E+01 0. -1.
       -4    1    3    3    0  502  0.78586154221E+03 -0.13900649970E+04  0.23446469769E+03  0.16139499270E+04  0.12699999809E+01 0.  1.
</event>
<event>
 5   0  0.1116462E-06  0.3316966E+04  0.7818609E-02  0.8158592E-01
       -2   -1    0    0    0  501  0.00000000000E+00  0.00000000000E+00  0.15118139286E+04  0.15118139286E+04  0.25500000920E-02 0. -1.
        2   -1    0    0  501    0  0.00000000000E+00  0.00000000000E+00 -0.18193814683E+04  0.18193814683E+04  0.25500000920E-02 0.  1.
    10030    2    1    2    0    0  0.00000000000E+00  0.00000000000E+00 -0.30756753966E+03  0.33311953969E+04  0.33169662314E+04 0.  0.
        1    1    3    3  502    0  0.98836670781E+03 -0.87079685426E+03 -0.11657822194E+04  0.17590349893E+04  0.50400001928E-02 0.  1.
       -1    1    3    3    0  502 -0.98836670781E+03  0.87079685426E+03  0.85821467974E+03  0.15721604075E+04  0.50400001928E-02 0. -1.
</event>
<event>
 5   0  0.3749685E-07  0.3290936E+04  0.7818609E-02  0.8165206E-01
        1   -1    0    0  501    0  0.00000000000E+00  0.00000000000E+00  0.23618218653E+04  0.23618218653E+04  0.50400001928E-02 0.  1.
       -1   -1    0    0    0  501  0.00000000000E+00  0.00000000000E+00 -0.11463880593E+04  0.11463880593E+04  0.50400001928E-02 0. -1.
    10030    2    1    2    0    0  0.00000000000E+00  0.00000000000E+00  0.12154338060E+04  0.35082099246E+04  0.32909356631E+04 0.  0.
        3    1    3    3  502    0  0.66254434544E+02 -0.27881386359E+03 -0.11195801311E+04  0.11556757767E+04  0.10100000352E+00 0. -1.
       -3    1    3    3    0  502 -0.66254434544E+02  0.27881386359E+03  0.23350139371E+04  0.23525341480E+04  0.10100000352E+00 0.  1.
</event>
<event>
 5   0  0.1116462E-06  0.3283417E+04  0.7818609E-02  0.8167128E-01
        2   -1    0    0  501    0  0.00000000000E+00  0.00000000000E+00  0.15541464861E+04  0.15541464861E+04  0.25500000920E-02 0. -1.
       -2   -1    0    0    0  501  0.00000000000E+00  0.00000000000E+00 -0.17342034994E+04  0.17342034994E+04  0.25500000920E-02 0.  1.
    10030    2    1    2    0    0  0.00000000000E+00  0.00000000000E+00 -0.18005701322E+03  0.32883499855E+04  0.32834166807E+04 0.  0.
        1    1    3    3  502    0  0.15362703247E+04  0.31175850312E+03 -0.57849731967E+03  0.16709216091E+04  0.50400001928E-02 0.  1.
       -1    1    3    3    0  502 -0.15362703247E+04 -0.31175850312E+03  0.39844030645E+03  0.16174283764E+04  0.50400001928E-02 0. -1.
</event>
<event>
 5   0  0.3757406E-07  0.3291713E+04  0.7818609E-02  0.8165007E-01
       -1   -1    0    0    0  501  0.00000000000E+00  0.00000000000E+00  0.13425293917E+04  0.13425293917E+04  0.50400001928E-02 0.  1.
        1   -1    0    0  501    0  0.00000000000E+00  0.00000000000E+00 -0.20177164025E+04  0.20177164025E+04  0.50400001928E-02 0. -1.
    10030    2    1    2    0    0  0.00000000000E+00  0.00000000000E+00 -0.67518701084E+03  0.33602457942E+04  0.32917129732E+04 0.  0.
        1    1    3    3  502    0  0.11708480332E+04 -0.66605378958E+03  0.62778623996E+03  0.14861454608E+04  0.50400001928E-02 0.  1.
       -1    1    3    3    0  502 -0.11708480332E+04  0.66605378958E+03 -0.13029732508E+04  0.18741003334E+04  0.50400001928E-02 0. -1.
</event>
<event>
 5   0  0.1146799E-06  0.3288971E+04  0.7818609E-02  0.8165707E-01
       -2   -1    0    0    0  501  0.00000000000E+00  0.00000000000E+00  0.10487784834E+04  0.10487784834E+04  0.25500000920E-02 0. -1.
        2   -1    0    0  501    0  0.00000000000E+00  0.00000000000E+00 -0.25785553619E+04  0.25785553619E+04  0.25500000920E-02 0.  1.
    10030    2    1    2    0    0  0.00000000000E+00  0.00000000000E+00 -0.15297768785E+04  0.36273338453E+04  0.32889714999E+04 0.  0.
        5    1    3    3  502    0  0.12131431023E+04 -0.89911512007E+03 -0.14831889075E+04  0.21166000121E+04  0.46999998093E+01 0.  1.
       -5    1    3    3    0  502 -0.12131431023E+04  0.89911512007E+03 -0.46587971021E+02  0.15107338332E+04  0.46999998093E+01 0. -1.
</event>
<event>
 5   0  0.3674967E-07  0.3329560E+04  0.7818609E-02  0.8155414E-01
        1   -1    0    0  501    0  0.00000000000E+00  0.00000000000E+00  0.17428060271E+04  0.17428060271E+04  0.50400001928E-02 0. -1.
       -1   -1    0    0    0  501  0.00000000000E+00  0.00000000000E+00 -0.15902470813E+04  0.15902470813E+04  0.50400001928E-02 0.  1.
    10030    2    1    2    0    0  0.00000000000E+00  0.00000000000E+00  0.15255894574E+03  0.33330531084E+04  0.33295598495E+04 0.  0.
        2    1    3    3  502    0  0.24505824816E+03  0.11008235150E+04 -0.11495976027E+04  0.16104162829E+04  0.25500000920E-02 0.  1.
       -2    1    3    3    0  502 -0.24505824816E+03 -0.11008235150E+04  0.13021565484E+04  0.17226368255E+04  0.25500000920E-02 0. -1.
</event>
<event>
 5   0  0.1129434E-06  0.3292486E+04  0.7818609E-02  0.8164810E-01
       -2   -1    0    0    0  501  0.00000000000E+00  0.00000000000E+00  0.13729260017E+04  0.13729260017E+04  0.25500000920E-02 0.  1.
        2   -1    0    0  501    0  0.00000000000E+00  0.00000000000E+00 -0.19739703575E+04  0.19739703575E+04  0.25500000920E-02 0. -1.
    10030    2    1    2    0    0  0.00000000000E+00  0.00000000000E+00 -0.60104435582E+03  0.33468963592E+04  0.32924855233E+04 0.  0.
        3    1    3    3  502    0 -0.12593934884E+04 -0.10127153492E+04 -0.61947628399E+03  0.17307267878E+04  0.10100000352E+00 0.  1.
       -3    1    3    3    0  502  0.12593934884E+04  0.10127153492E+04  0.18431928175E+02  0.16161695714E+04  0.10100000352E+00 0. -1.
</event>
<event>
 5   0  0.1126221E-06  0.3319190E+04  0.7818609E-02  0.8158030E-01
        2   -1    0    0  501    0  0.00000000000E+00  0.00000000000E+00  0.23469511442E+04  0.23469511442E+04  0.25500000920E-02 0. -1.
       -2   -1    0    0    0  501  0.00000000000E+00  0.00000000000E+00 -0.11735463155E+04  0.11735463155E+04  0.25500000920E-02 0.  1.
    10030    2    1    2    0    0  0.00000000000E+00  0.00000000000E+00  0.11734048287E+04  0.35204974596E+04  0.33191901831E+04 0.  0.
        2    1    3    3  502    0 -0.11344245566E+03  0.32012789866E+02  0.23425056904E+04  0.23454694454E+04  0.25500000920E-02 0. -1.
       -2    1    3    3    0  502  0.11344245566E+03 -0.32012789866E+02 -0.11691008617E+04  0.11750280143E+04  0.25500000920E-02 0.  1.
</event>
<event>
 5   0  0.3674967E-07  0.3298452E+04  0.7818609E-02  0.8163289E-01
        1   -1    0    0  501    0  0.00000000000E+00  0.00000000000E+00  0.26303067415E+04  0.26303067415E+04  0.50400001928E-02 0. -1.
       -1   -1    0    0    0  501  0.00000000000E+00  0.00000000000E+00 -0.10340795061E+04  0.10340795061E+04  0.50400001928E-02 0.  1.
    10030    2    1    2    0    0  0.00000000000E+00  0.00000000000E+00  0.15962272355E+04  0.36643862476E+04  0.32984519376E+04 0.  0.
        2    1    3    3  502    0  0.11061600146E+04 -0.12048173775E+04  0.56304673634E+03  0.17297966697E+04  0.25500000920E-02 0. -1.
       -2    1    3    3    0  502 -0.11061600146E+04  0.12048173775E+04  0.10331804991E+04  0.19345895779E+04  0.25500000920E-02 0.  1.
</event>
<event>
 5   0  0.3573375E-07  0.3311261E+04  0.7818609E-02  0.8160036E-01
        4   -1    0    0  501    0  0.00000000000E+00  0.00000000000E+00  0.11860740367E+04  0.11860747166E+04  0.12699999809E+01 0. -1.
       -4   -1    0    0    0  501  0.00000000000E+00  0.00000000000E+00 -0.23110790743E+04  0.23110794233E+04  0.12699999809E+01 0.  1.
    10030    2    1    2    0    0  0.00000000000E+00  0.00000000000E+00 -0.11250050376E+04  0.34971541399E+04  0.33112612013E+04 0.  0.
        2    1    3    3  502    0  0.51160949675E+02 -0.13549515593E+04 -0.15658915827E+04  0.20713588824E+04  0.25500000920E-02 0.  1.
       -2    1    3    3    0  502 -0.51160949675E+02  0.13549515593E+04  0.44088654508E+03  0.14257952575E+04  0.25500000920E-02 0. -1.
</event>
<event>
 5   0  0.1146799E-06  0.3268969E+04  0.7818609E-02  0.8170836E-01
       -2   -1    0    0    0  501  0.00000000000E+00  0.00000000000E+00  0.13224207313E+04  0.13224207313E+04  0.25500000920E-02 0.  1.
        2   -1    0    0  501    0  0.00000000000E+00  0.00000000000E+00 -0.20201889469E+04  0.20201889469E+04  0.25500000920E-02 0. -1.
    10030    2    1    2    0    0  0.00000000000E+00  0.00000000000E+00 -0.69776821558E+03  0.33426096782E+04  0.32689691003E+04 0.  0.
        5    1    3    3  502    0 -0.66545517260E+03  0.70355671976E+03  0.99747589237E+03  0.13902528153E+04  0.46999998093E+01 0.  1.
       -5    1    3    3    0  502  0.66545517260E+03 -0.70355671976E+03 -0.16952441080E+04  0.19523568629E+04  0.46999998093E+01 0. -1.
</event>
<event>
 5   0  0.1129434E-06  0.3306394E+04  0.7818609E-02  0.8161270E-01
       -2   -1    0    0    0  501  0.00000000000E+00  0.00000000000E+00  0.18622390157E+04  0.18622390157E+04  0.25500000920E-02 0.  1.
        2   -1    0    0  501    0  0.00000000000E+00  0.00000000000E+00 -0.14676209082E+04  0.14676209083E+04  0.25500000920E-02 0. -1.
    10030    2    1    2    0    0  0.00000000000E+00  0.00000000000E+00  0.39461810750E+03  0.33298599240E+04  0.33063943598E+04 0.  0.
        3    1    3    3  502    0 -0.54830345927E+03  0.57402883870E+03  0.16577438920E+04  0.18380045192E+04  0.10100000352E+00 0.  1.
       -3    1    3    3    0  502  0.54830345927E+03 -0.57402883870E+03 -0.12631257845E+04  0.14918554048E+04  0.10100000352E+00 0. -1.
</event>
<event>
 5   0  0.1116462E-06  0.3007167E+04  0.7818609E-02  0.8241687E-01
        2   -1    0    0  501    0  0.00000000000E+00  0.00000000000E+00  0.14353098949E+04  0.14353098949E+04  0.25500000920E-02 0. -1.
       -2   -1    0    0    0  501  0.00000000000E+00  0.00000000000E+00 -0.15751050692E+04  0.15751050692E+04  0.25500000920E-02 0.  1.
    10030    2    1    2    0    0  0.00000000000E+00  0.00000000000E+00 -0.13979517434E+03  0.30104149641E+04  0.30071673657E+04 0.  0.
        1    1    3    3  502    0  0.13362808637E+04  0.67356078405E+03  0.76661389438E+02  0.14984016968E+04  0.50400001928E-02 0. -1.
       -1    1    3    3    0  502 -0.13362808637E+04 -0.67356078405E+03 -0.21645656377E+03  0.15120132673E+04  0.50400001928E-02 0.  1.
</event>
<event>
 5   0  0.3796529E-07  0.3303091E+04  0.7818609E-02  0.8162109E-01
        1   -1    0    0  501    0  0.00000000000E+00  0.00000000000E+00  0.20434272183E+04  0.20434272183E+04  0.50400001928E-02 0.  1.
       -1   -1    0    0    0  501  0.00000000000E+00  0.00000000000E+00 -0.13348177185E+04  0.13348177185E+04  0.50400001928E-02 0. -1.
    10030    2    1    2    0    0  0.00000000000E+00  0.00000000000E+00  0.70860949985E+03  0.33782449368E+04  0.33030911931E+04 0.  0.
        5    1    3    3  502    0  0.12089168907E+04  0.49642172626E+03  0.13870651565E+04  0.19057508801E+04  0.46999998093E+01 0.  1.
       -5    1    3    3    0  502 -0.12089168907E+04 -0.49642172626E+03 -0.67845565665E+03  0.14724940566E+04  0.46999998093E+01 0. -1.
</event>
<event>
 5   0  0.3757406E-07  0.3308141E+04  0.7818609E-02  0.8160827E-01
        1   -1    0    0  501    0  0.00000000000E+00  0.00000000000E+00  0.20954151082E+04  0.20954151082E+04  0.50400001928E-02 0. -1.
       -1   -1    0    0    0  501  0.00000000000E+00  0.00000000000E+00 -0.13056838615E+04  0.13056838615E+04  0.50400001928E-02 0.  1.
    10030    2    1    2    0    0  0.00000000000E+00  0.00000000000E+00  0.78973124666E+03  0.34010989697E+04  0.33081412847E+04 0.  0.
        1    1    3    3  502    0  0.31330409657E+03 -0.98284784142E+03 -0.93444791234E+03  0.13918844195E+04  0.50400001928E-02 0.  1.
       -1    1    3    3    0  502 -0.31330409657E+03  0.98284784142E+03  0.17241791590E+04  0.20092145502E+04  0.50400001928E-02 0. -1.
</event>
<event>
 5   0  0.1126221E-06  0.3304258E+04  0.7818609E-02  0.8161813E-01
        2   -1    0    0  501    0  0.00000000000E+00  0.00000000000E+00  0.17737027222E+04  0.17737027222E+04  0.25500000920E-02 0.  1.
       -2   -1    0    0    0  501  0.00000000000E+00  0.00000000000E+00 -0.15388882962E+04  0.15388882962E+04  0.25500000920E-02 0. -1.
    10030    2    1    2    0    0  0.00000000000E+00  0.00000000000E+00  0.23481442592E+03  0.33125910184E+04  0.33042580772E+04 0.  0.
        2    1    3    3  502    0 -0.13142861539E+04 -0.32769233298E+03  0.10657314441E+04  0.17235178764E+04  0.25500000920E-02 0.  1.
       -2    1    3    3    0  502  0.13142861539E+04  0.32769233298E+03 -0.83091701822E+03  0.15890731420E+04  0.25500000920E-02 0. -1.
</event>
<event>
 5   0  0.3674967E-07  0.3327749E+04  0.7818609E-02  0.8155870E-01
        1   -1    0    0  501    0  0.00000000000E+00  0.00000000000E+00  0.29298217711E+04  0.29298217711E+04  0.50400001928E-02 0. -1.
       -1   -1    0    0    0  501  0.00000000000E+00  0.00000000000E+00 -0.94493067945E+03  0.94493067946E+03  0.50400001928E-02 0.  1.
    10030    2    1    2    0    0  0.00000000000E+00  0.00000000000E+00  0.19848910916E+04  0.38747524506E+04  0.33277490752E+04 0.  0.
        2    1    3    3  502    0 -0.55193937743E+03  0.25770032708E+03  0.27953243539E+04  0.28609237631E+04  0.25500000920E-02 0. -1.
       -2    1    3    3    0  502  0.55193937743E+03 -0.25770032708E+03 -0.81043326224E+03  0.10138286874E+04  0.25500000920E-02 0.  1.
</event>
<event>
 5   0  0.1129434E-06  0.3300711E+04  0.7818609E-02  0.8162714E-01
        2   -1    0    0  501    0  0.00000000000E+00  0.00000000000E+00  0.11095155566E+04  0.11095155566E+04  0.25500000920E-02 0. -1.
       -2   -1    0    0    0  501  0.00000000000E+00  0.00000000000E+00 -0.24548317636E+04  0.24548317636E+04  0.25500000920E-02 0.  1.
    10030    2    1    2    0    0  0.00000000000E+00  0.00000000000E+00 -0.13453162070E+04  0.35643473202E+04  0.33007114570E+04 0.  0.
        3    1    3    3  502    0  0.16064790807E+04  0.37731626989E+03 -0.64776438572E+03  0.17727778524E+04  0.10100000352E+00 0. -1.
       -3    1    3    3    0  502 -0.16064790807E+04 -0.37731626989E+03 -0.69755182124E+03  0.17915694678E+04  0.10100000352E+00 0.  1.
</event>
<event>
 5   0  0.1146799E-06  0.3292798E+04  0.7818609E-02  0.8164730E-01
       -2   -1    0    0    0  501  0.00000000000E+00  0.00000000000E+00  0.12782519412E+04  0.12782519412E+04  0.25500000920E-02 0. -1.
        2   -1    0    0  501    0  0.00000000000E+00  0.00000000000E+00 -0.21205758385E+04  0.21205758385E+04  0.25500000920E-02 0.  1.
    10030    2    1    2    0    0  0.00000000000E+00  0.00000000000E+00 -0.84232389732E+03  0.33988277798E+04  0.32927983128E+04 0.  0.
        5    1    3    3  502    0 -0.10425675195E+04  0.57557116154E+02  0.89275589088E+03  0.13737885664E+04  0.46999998093E+01 0. -1.
       -5    1    3    3    0  502  0.10425675195E+04 -0.57557116154E+02 -0.17350797882E+04  0.20250392134E+04  0.46999998093E+01 0.  1.
</event>
<event>
 5   0  0.3796529E-07  0.3459003E+04  0.7818609E-02  0.8123575E-01
        1   -1    0    0  501    0  0.00000000000E+00  0.00000000000E+00  0.24424795655E+04  0.24424795655E+04  0.50400001928E-02 0.  1.
       -1   -1    0    0    0  501  0.00000000000E+00  0.00000000000E+00 -0.12246471850E+04  0.12246471851E+04  0.50400001928E-02 0. -1.
    10030    2    1    2    0    0  0.00000000000E+00  0.00000000000E+00  0.12178323805E+04  0.36671267506E+04  0.34590031654E+04 0.  0.
        5    1    3    3  502    0 -0.21420884167E+03  0.16091228979E+04  0.12414662510E+04  0.20436297293E+04  0.46999998093E+01 0.  1.
       -5    1    3    3    0  502  0.21420884167E+03 -0.16091228979E+04 -0.23633870499E+02  0.16234970213E+04  0.46999998093E+01 0. -1.
</event>
<event>
 5   0  0.3796529E-07  0.3260838E+04  0.7818609E-02  0.8172932E-01
        1   -1    0    0  501    0  0.00000000000E+00  0.00000000000E+00  0.11922652021E+04  0.11922652021E+04  0.50400001928E-02 0. -1.
       -1   -1    0    0    0  501  0.00000000000E+00  0.00000000000E+00 -0.22295929899E+04  0.22295929899E+04  0.50400001928E-02 0.  1.
    10030    2    1    2    0    0  0.00000000000E+00  0.00000000000E+00 -0.10373277878E+04  0.34218581921E+04  0.32608380130E+04 0.  0.
        5    1    3    3  502    0  0.63097725918E+03  0.15010009372E+04 -0.60713560020E+03  0.17377490734E+04  0.46999998093E+01 0.  1.
       -5    1    3    3    0  502 -0.63097725918E+03 -0.15010009372E+04 -0.43019218762E+03  0.16841091186E+04  0.46999998093E+01 0. -1.
</event>
<event>
 5   0  0.1116462E-06  0.3303277E+04  0.7818609E-02  0.8162062E-01
        2   -1    0    0  501    0  0.00000000000E+00  0.00000000000E+00  0.24655204194E+04  0.24655204194E+04  0.25500000920E-02 0.  1.
       -2   -1    0    0    0  501  0.00000000000E+00  0.00000000000E+00 -0.11064237868E+04  0.11064237868E+04  0.25500000920E-02 0. -1.
    10030    2    1    2    0    0  0.00000000000E+00  0.00000000000E+00  0.13590966327E+04  0.35719442062E+04  0.33032774263E+04 0.  0.
        1    1    3    3  502    0  0.11322297696E+04  0.11900404749E+04  0.86612096677E+03  0.18569615269E+04  0.50400001928E-02 0.  1.
       -1    1    3    3    0  502 -0.11322297696E+04 -0.11900404749E+04  0.49297566589E+03  0.17149826793E+04  0.50400001928E-02 0. -1.
</event>
<event>
 5   0  0.1120545E-06  0.3289988E+04  0.7818609E-02  0.8165448E-01
        2   -1    0    0  501    0  0.00000000000E+00  0.00000000000E+00  0.25851473487E+04  0.25851473487E+04  0.25500000920E-02 0. -1.
       -2   -1    0    0    0  501  0.00000000000E+00  0.00000000000E+00 -0.10467511336E+04  0.10467511336E+04  0.25500000920E-02 0.  1.
    10030    2    1    2    0    0  0.00000000000E+00  0.00000000000E+00  0.15383962151E+04  0.36318984823E+04  0.32899883998E+04 0.  0.
        4    1    3    3  502    0  0.45290050679E+03 -0.89008506579E+03  0.22121898890E+04  0.24271703713E+04  0.12699999809E+01 0. -1.
       -4    1    3    3    0  502 -0.45290050679E+03  0.89008506579E+03 -0.67379367392E+03  0.12047281109E+04  0.12699999809E+01 0.  1.
</event>
<event>
 5   0  0.3674967E-07  0.3271190E+04  0.7818609E-02  0.8170265E-01
       -1   -1    0    0    0  501  0.00000000000E+00  0.00000000000E+00  0.17773541669E+04  0.17773541669E+04  0.50400001928E-02 0.  1.
        1   -1    0    0  501    0  0.00000000000E+00  0.00000000000E+00 -0.15051419552E+04  0.15051419552E+04  0.50400001928E-02 0. -1.
    10030    2    1    2    0    0  0.00000000000E+00  0.00000000000E+00  0.27221221174E+03  0.32824961221E+04  0.32711895854E+04 0.  0.
        2    1    3    3  502    0 -0.87306863744E+03  0.12291100559E+04 -0.50028618835E+03  0.15884730546E+04  0.25500000920E-02 0.  1.
       -2    1    3    3    0  502  0.87306863744E+03 -0.12291100559E+04  0.77249840009E+03  0.16940230675E+04  0.25500000920E-02 0. -1.
</event>
<event>
 5   0  0.3709747E-07  0.3330032E+04  0.7818609E-02  0.8155296E-01
        1   -1    0    0  501    0  0.00000000000E+00  0.00000000000E+00  0.17149751271E+04  0.17149751271E+04  0.50400001928E-02 0. -1.
       -1   -1    0    0    0  501  0.00000000000E+00  0.00000000000E+00 -0.16165121480E+04  0.16165121481E+04  0.50400001928E-02 0.  1.
    10030    2    1    2    0    0  0.00000000000E+00  0.00000000000E+00  0.98462979075E+02  0.33314872752E+04  0.33300319077E+04 0.  0.
        4    1    3    3  502    0  0.71508954874E+03  0.35089847696E+03 -0.14135271147E+04  0.16225114239E+04  0.12699999809E+01 0.  1.
       -4    1    3    3    0  502 -0.71508954874E+03 -0.35089847696E+03  0.15119900937E+04  0.17089758513E+04  0.12699999809E+01 0. -1.
</event>
<event>
 5   0  0.1146799E-06  0.3273054E+04  0.7818609E-02  0.8169786E-01
       -2   -1    0    0    0  501  0.00000000000E+00  0.00000000000E+00  0.12368653657E+04  0.12368653657E+04  0.25500000920E-02 0. -1.
        2   -1    0    0  501    0  0.00000000000E+00  0.00000000000E+00 -0.21653291359E+04  0.21653291359E+04  0.25500000920E-02 0.  1.
    10030    2    1    2    0    0  0.00000000000E+00  0.00000000000E+00 -0.92846377020E+03  0.34021945017E+04  0.32730539950E+04 0.  0.
        5    1    3    3  502    0  0.14867671765E+04  0.68172747927E+03 -0.40758841368E+03  0.16856391660E+04  0.46999998093E+01 0. -1.
       -5    1    3    3    0  502 -0.14867671765E+04 -0.68172747927E+03 -0.52087535652E+03  0.17165553356E+04  0.46999998093E+01 0.  1.
</event>
<event>
 5   0  0.3757406E-07  0.3301840E+04  0.7818609E-02  0.8162427E-01
        1   -1    0    0  501    0  0.00000000000E+00  0.00000000000E+00  0.93058343723E+03  0.93058343725E+03  0.50400001928E-02 0.  1.
       -1   -1    0    0    0  501  0.00000000000E+00  0.00000000000E+00 -0.29288464779E+04  0.29288464779E+04  0.50400001928E-02 0. -1.
    10030    2    1    2    0    0  0.00000000000E+00  0.00000000000E+00 -0.19982630407E+04  0.38594299152E+04  0.33018395010E+04 0.  0.
        1    1    3    3  502    0 -0.34892161958E+03  0.13711202806E+04 -0.46833338354E+01  0.14148282773E+04  0.50400001928E-02 0.  1.
       -1    1    3    3    0  502  0.34892161958E+03 -0.13711202806E+04 -0.19935797069E+04  0.24446016379E+04  0.50400001928E-02 0. -1.
</event>
<event>
 5   0  0.1146799E-06  0.3138405E+04  0.7818609E-02  0.8205276E-01
        2   -1    0    0  501    0  0.00000000000E+00  0.00000000000E+00  0.12575025747E+04  0.12575025747E+04  0.25500000920E-02 0. -1.
       -2   -1    0    0    0  501  0.00000000000E+00  0.00000000000E+00 -0.19581637776E+04  0.19581637776E+04  0.25500000920E-02 0.  1.
    10030    2    1    2    0    0  0.00000000000E+00  0.00000000000E+00 -0.70066120281E+03  0.32156663523E+04  0.31384046852E+04 0.  0.
        5    1    3    3  502    0  0.97602489535E+03  0.98588436297E+03 -0.11017197136E+04  0.17715532707E+04  0.46999998093E+01 0.  1.
       -5    1    3    3    0  502 -0.97602489535E+03 -0.98588436297E+03  0.40105851077E+03  0.14441130816E+04  0.46999998093E+01 0. -1.
</event>
<event>
 5   0  0.3674967E-07  0.3290788E+04  0.7818609E-02  0.8165243E-01
       -1   -1    0    0    0  501  0.00000000000E+00  0.00000000000E+00  0.24981457533E+04  0.24981457533E+04  0.50400001928E-02 0.  1.
        1   -1    0    0  501    0  0.00000000000E+00  0.00000000000E+00 -0.10837325039E+04  0.10837325039E+04  0.50400001928E-02 0. -1.
    10030    2    1    2    0    0  0.00000000000E+00  0.00000000000E+00  0.14144132495E+04  0.35818782572E+04  0.32907882048E+04 0.  0.
        2    1    3    3  502    0  0.51886945773E+03  0.94757708079E+03 -0.64361682196E+03  0.12575255273E+04  0.25500000920E-02 0. -1.
       -2    1    3    3    0  502 -0.51886945773E+03 -0.94757708079E+03  0.20580300714E+04  0.23243527299E+04  0.25500000920E-02 0.  1.
</event>
<event>
 5   0  0.1116462E-06  0.3254062E+04  0.7818609E-02  0.8174684E-01
        2   -1    0    0  501    0  0.00000000000E+00  0.00000000000E+00  0.14075659798E+04  0.14075659798E+04  0.25500000920E-02 0.  1.
       -2   -1    0    0    0  501  0.00000000000E+00  0.00000000000E+00 -0.18807145939E+04  0.18807145939E+04  0.25500000920E-02 0. -1.
    10030    2    1    2    0    0  0.00000000000E+00  0.00000000000E+00 -0.47314861402E+03  0.32882805737E+04  0.32540620032E+04 0.  0.
        1    1    3    3  502    0  0.13426731919E+04  0.50259272524E+03 -0.10139880604E+04  0.17560018606E+04  0.50400001928E-02 0. -1.
       -1    1    3    3    0  502 -0.13426731919E+04 -0.50259272524E+03  0.54083944639E+03  0.15322787131E+04  0.50400001928E-02 0.  1.
</event>
<event>
 5   0  0.1126221E-06  0.2940440E+04  0.7818609E-02  0.8260946E-01
        2   -1    0    0  501    0  0.00000000000E+00  0.00000000000E+00  0.18457410132E+04  0.18457410132E+04  0.25500000920E-02 0. -1.
       -2   -1    0    0    0  501  0.00000000000E+00  0.00000000000E+00 -0.11710994642E+04  0.11710994642E+04  0.25500000920E-02 0.  1.
    10030    2    1    2    0    0  0.00000000000E+00  0.00000000000E+00  0.67464154903E+03  0.30168404774E+04  0.29404396349E+04 0.  0.
        2    1    3    3  502    0 -0.76788238730E+03  0.11218540450E+03 -0.94385093151E+03  0.12219179623E+04  0.25500000920E-02 0.  1.
       -2    1    3    3    0  502  0.76788238730E+03 -0.11218540450E+03  0.16184924805E+04  0.17949225151E+04  0.25500000920E-02 0. -1.
</event>
<event>
 5   0  0.3709747E-07  0.3307149E+04  0.7818609E-02  0.8161079E-01
        1   -1    0    0  501    0  0.00000000000E+00  0.00000000000E+00  0.99036309477E+03  0.99036309478E+03  0.50400001928E-02 0. -1.
       -1   -1    0    0    0  501  0.00000000000E+00  0.00000000000E+00 -0.27609159298E+04  0.27609159298E+04  0.50400001928E-02 0.  1.
    10030    2    1    2    0    0  0.00000000000E+00  0.00000000000E+00 -0.17705528351E+04  0.37512790246E+04  0.33071493735E+04 0.  0.
        4    1    3    3  502    0  0.63733336743E+03  0.37630687201E+03  0.79198589461E+03  0.10839944434E+04  0.12699999809E+01 0. -1.
       -4    1    3    3    0  502 -0.63733336743E+03 -0.37630687201E+03 -0.25625387297E+04  0.26672845812E+04  0.12699999809E+01 0.  1.
</event>
<event>
 5   0  0.1120545E-06  0.3291201E+04  0.7818609E-02  0.8165138E-01
        2   -1    0    0  501    0  0.00000000000E+00  0.00000000000E+00  0.94844030169E+03  0.94844030170E+03  0.25500000920E-02 0.  1.
       -2   -1    0    0    0  501  0.00000000000E+00  0.00000000000E+00 -0.28552151286E+04  0.28552151286E+04  0.25500000920E-02 0. -1.
    10030    2    1    2    0    0  0.00000000000E+00  0.00000000000E+00 -0.19067748269E+04  0.38036554303E+04  0.32912010561E+04 0.  0.
        4    1    3    3  502    0  0.44440065541E+03  0.22093944511E+03 -0.27666626317E+04  0.28108237070E+04  0.12699999809E+01 0. -1.
       -4    1    3    3    0  502 -0.44440065541E+03 -0.22093944511E+03  0.85988780486E+03  0.99283172329E+03  0.12699999809E+01 0.  1.
</event>
<event>
 5   0  0.1146799E-06  0.3310359E+04  0.7818609E-02  0.8160265E-01
       -2   -1    0    0    0  501  0.00000000000E+00  0.00000000000E+00  0.18827574603E+04  0.18827574603E+04  0.25500000920E-02 0.  1.
        2   -1    0    0  501    0  0.00000000000E+00  0.00000000000E+00 -0.14551095735E+04  0.14551095735E+04  0.25500000920E-02 0. -1.
    10030    2    1    2    0    0  0.00000000000E+00  0.00000000000E+00  0.42764788676E+03  0.33378670338E+04  0.33103585335E+04 0.  0.
        5    1    3    3  502    0  0.12032221307E+04  0.20580809558E+03  0.13409212385E+04  0.18133373447E+04  0.46999998093E+01 0.  1.
       -5    1    3    3    0  502 -0.12032221307E+04 -0.20580809558E+03 -0.91327335169E+03  0.15245296891E+04  0.46999998093E+01 0. -1.
</event>
<event>
 5   0  0.3757406E-07  0.3163246E+04  0.7818609E-02  0.8198592E-01
        1   -1    0    0  501    0  0.00000000000E+00  0.00000000000E+00  0.22720087469E+04  0.22720087469E+04  0.50400001928E-02 0. -1.
       -1   -1    0    0    0  501  0.00000000000E+00  0.00000000000E+00 -0.11010219833E+04  0.11010219833E+04  0.50400001928E-02 0.  1.
    10030    2    1    2    0    0  0.00000000000E+00  0.00000000000E+00  0.11709867635E+04  0.33730307302E+04  0.31632461660E+04 0.  0.
        1    1    3    3  502    0 -0.52653866064E+03  0.14863634155E+04  0.45484243742E+03  0.16411583735E+04  0.50400001928E-02 0.  1.
       -1    1    3    3    0  502  0.52653866064E+03 -0.14863634155E+04  0.71614432610E+03  0.17318723567E+04  0.50400001928E-02 0. -1.
</event>
<event>
 5   0  0.1120545E-06  0.3308091E+04  0.7818609E-02  0.8160840E-01
       -2   -1    0    0    0  501  0.00000000000E+00  0.00000000000E+00  0.20053718061E+04  0.20053718061E+04  0.25500000920E-02 0. -1.
        2   -1    0    0  501    0  0.00000000000E+00  0.00000000000E+00 -0.13642688311E+04  0.13642688311E+04  0.25500000920E-02 0.  1.
    10030    2    1    2    0    0  0.00000000000E+00  0.00000000000E+00  0.64110297498E+03  0.33696406372E+04  0.33080908391E+04 0.  0.
        4    1    3    3  502    0  0.38743225326E+03  0.71868163378E+03 -0.11447042797E+04  0.14060428665E+04  0.12699999809E+01 0.  1.
       -4    1    3    3    0  502 -0.38743225326E+03 -0.71868163378E+03  0.17858072546E+04  0.19635977707E+04  0.12699999809E+01 0. -1.
</event>
<event>
 5   0  0.3749685E-07  0.3306040E+04  0.7818609E-02  0.8161360E-01
        1   -1    0    0  501    0  0.00000000000E+00  0.00000000000E+00  0.12052648474E+04  0.12052648474E+04  0.50400001928E-02 0.  1.
       -1   -1    0    0    0  501  0.00000000000E+00  0.00000000000E+00 -0.22671153971E+04  0.22671153971E+04  0.50400001928E-02 0. -1.
    10030    2    1    2    0    0  0.00000000000E+00  0.00000000000E+00 -0.10618505496E+04  0.34723802445E+04  0.33060396205E+04 0.  0.
        3    1    3    3  502    0  0.11948866391E+04  0.10805858757E+04 -0.14208971057E+03  0.16172845795E+04  0.10100000352E+00 0.  1.
       -3    1    3    3    0  502 -0.11948866391E+04 -0.10805858757E+04 -0.91976083908E+03  0.18550956650E+04  0.10100000352E+00 0. -1.
</event>
<event>
 5   0  0.3674967E-07  0.3282692E+04  0.7818609E-02  0.8167313E-01
        1   -1    0    0  501    0  0.00000000000E+00  0.00000000000E+00  0.23868163172E+04  0.23868163172E+04  0.50400001928E-02 0. -1.
       -1   -1    0    0    0  501  0.00000000000E+00  0.00000000000E+00 -0.11287073014E+04  0.11287073014E+04  0.50400001928E-02 0.  1.
    10030    2    1    2    0    0  0.00000000000E+00  0.00000000000E+00  0.12581090158E+04  0.35155236186E+04  0.32826921905E+04 0.  0.
        2    1    3    3  502    0 -0.10334036755E+04  0.75911448501E+02 -0.73415237032E+03  0.12699076374E+04  0.25500000920E-02 0.  1.
       -2    1    3    3    0  502  0.10334036755E+04 -0.75911448501E+02  0.19922613861E+04  0.22456159812E+04  0.25500000920E-02 0. -1.
</event>
<event>
 5   0  0.3674967E-07  0.3311369E+04  0.7818609E-02  0.8160009E-01
       -1   -1    0    0    0  501  0.00000000000E+00  0.00000000000E+00  0.12090628579E+04  0.12090628579E+04  0.50400001928E-02 0.  1.
        1   -1    0    0  501    0  0.00000000000E+00  0.00000000000E+00 -0.22672853076E+04  0.22672853076E+04  0.50400001928E-02 0. -1.
    10030    2    1    2    0    0  0.00000000000E+00  0.00000000000E+00 -0.10582224497E+04  0.34763481655E+04  0.33113685713E+04 0.  0.
        2    1    3    3  502    0  0.75125800737E+03  0.70256857420E+03 -0.18911717586E+04  0.21527939557E+04  0.25500000920E-02 0. -1.
       -2    1    3    3    0  502 -0.75125800737E+03 -0.70256857420E+03  0.83294930893E+03  0.13235542098E+04  0.25500000920E-02 0.  1.
</event>
<event>
 5   0  0.3757406E-07  0.3290734E+04  0.7818609E-02  0.8165257E-01
        1   -1    0    0  501    0  0.00000000000E+00  0.00000000000E+00  0.17787159901E+04  0.17787159901E+04  0.50400001928E-02 0. -1.
       -1   -1    0    0    0  501  0.00000000000E+00  0.00000000000E+00 -0.15220154553E+04  0.15220154553E+04  0.50400001928E-02 0.  1.
    10030    2    1    2    0    0  0.00000000000E+00  0.00000000000E+00  0.25670053481E+03  0.33007314454E+04  0.32907344028E+04 0.  0.
        1    1    3    3  502    0  0.35649115008E+03  0.64360578643E+03  0.16045273289E+04  0.17651691981E+04  0.50400001928E-02 0. -1.
       -1    1    3    3    0  502 -0.35649115008E+03 -0.64360578643E+03 -0.13478267941E+04  0.15355622473E+04  0.50400001928E-02 0.  1.
</event>
<event>
 5   0  0.3796529E-07  0.3321564E+04  0.7818609E-02  0.8157430E-01
        1   -1    0    0  501    0  0.00000000000E+00  0.00000000000E+00  0.21804761690E+04  0.21804761690E+04  0.50400001928E-02 0. -1.
       -1   -1    0    0    0  501  0.00000000000E+00  0.00000000000E+00 -0.12649519091E+04  0.12649519091E+04  0.50400001928E-02 0.  1.
    10030    2    1    2    0    0  0.00000000000E+00  0.00000000000E+00  0.91552425985E+03  0.34454280781E+04  0.33215643861E+04 0.  0.
        5    1    3    3  502    0  0.77184271772E+03  0.87284873178E+03 -0.76982638500E+03  0.13965173979E+04  0.46999998093E+01 0.  1.
       -5    1    3    3    0  502 -0.77184271772E+03 -0.87284873178E+03  0.16853506448E+04  0.20489106802E+04  0.46999998093E+01 0. -1.
</event>
<event>
 5   0  0.3674967E-07  0.3304258E+04  0.7818609E-02  0.8161813E-01
       -1   -1    0    0    0  501  0.00000000000E+00  0.00000000000E+00  0.11985521199E+04  0.11985521199E+04  0.50400001928E-02 0.  1.
        1   -1    0    0  501    0  0.00000000000E+00  0.00000000000E+00 -0.22773559623E+04  0.22773559623E+04  0.50400001928E-02 0. -1.
    10030    2    1    2    0    0  0.00000000000E+00  0.00000000000E+00 -0.10788038424E+04  0.34759080822E+04  0.33042577481E+04 0.  0.
        2    1    3    3  502    0  0.39348535998E+03 -0.11636740052E+04 -0.17015842577E+04  0.20986559759E+04  0.25500000920E-02 0. -1.
       -2    1    3    3    0  502 -0.39348535998E+03  0.11636740052E+04  0.62278041527E+03  0.13772521064E+04  0.25500000920E-02 0.  1.
</event>
<event>
 5   0  0.1120545E-06  0.3288385E+04  0.7818609E-02  0.8165857E-01
       -2   -1    0    0    0  501  0.00000000000E+00  0.00000000000E+00  0.17101543162E+04  0.17101543162E+04  0.25500000920E-02 0.  1.
        2   -1    0    0  501    0  0.00000000000E+00  0.00000000000E+00 -0.15807744634E+04  0.15807744634E+04  0.25500000920E-02 0. -1.
    10030    2    1    2    0    0  0.00000000000E+00  0.00000000000E+00  0.12937985276E+03  0.32909287796E+04  0.32883845708E+04 0.  0.
        4    1    3    3  502    0  0.75132725550E+03 -0.65228489687E+03  0.13746711287E+04  0.16969651017E+04  0.12699999809E+01 0.  1.
       -4    1    3    3    0  502 -0.75132725550E+03  0.65228489687E+03 -0.12452912759E+04  0.15939636778E+04  0.12699999809E+01 0. -1.
</event>
<event>
 5   0  0.1120545E-06  0.3325740E+04  0.7818609E-02  0.8156377E-01
        2   -1    0    0  501    0  0.00000000000E+00  0.00000000000E+00  0.99179960504E+03  0.99179960504E+03  0.25500000920E-02 0.  1.
       -2   -1    0    0    0  501  0.00000000000E+00  0.00000000000E+00 -0.27879995130E+04  0.27879995130E+04  0.25500000920E-02 0. -1.
    10030    2    1    2    0    0  0.00000000000E+00  0.00000000000E+00 -0.17961999080E+04  0.37797991180E+04  0.33257401076E+04 0.  0.
        4    1    3    3  502    0  0.94306015941E+03 -0.94835973431E+03 -0.20211298202E+04  0.24235750479E+04  0.12699999809E+01 0.  1.
       -4    1    3    3    0  502 -0.94306015941E+03  0.94835973431E+03  0.22492991228E+03  0.13562240701E+04  0.12699999809E+01 0. -1.
</event>
<event>
 5   0  0.1116462E-06  0.3292728E+04  0.7818609E-02  0.8164748E-01
       -2   -1    0    0    0  501  0.00000000000E+00  0.00000000000E+00  0.16716301280E+04  0.16716301280E+04  0.25500000920E-02 0.  1.
        2   -1    0    0  501    0  0.00000000000E+00  0.00000000000E+00 -0.16214801924E+04  0.16214801924E+04  0.25500000920E-02 0. -1.
    10030    2    1    2    0    0  0.00000000000E+00  0.00000000000E+00  0.50149935532E+02  0.32931103204E+04  0.32927284380E+04 0.  0.
        1    1    3    3  502    0 -0.12923889241E+04  0.87213280352E+03 -0.50378725327E+03  0.16385012526E+04  0.50400001928E-02 0. -1.
       -1    1    3    3    0  502  0.12923889241E+04 -0.87213280352E+03  0.55393718881E+03  0.16546090678E+04  0.50400001928E-02 0.  1.
</event>
<event>
 5   0  0.3709747E-07  0.3291978E+04  0.7818609E-02  0.8164940E-01
        1   -1    0    0  501    0  0.00000000000E+00  0.00000000000E+00  0.20657117048E+04  0.20657117048E+04  0.50400001928E-02 0. -1.
       -1   -1    0    0    0  501  0.00000000000E+00  0.00000000000E+00 -0.13115478474E+04  0.13115478474E+04  0.50400001928E-02 0.  1.
    10030    2    1    2    0    0  0.00000000000E+00  0.00000000000E+00  0.75416385738E+03  0.33772595522E+04  0.32919779706E+04 0.  0.
        4    1    3    3  502    0  0.71332271351E+03  0.46715860776E+03  0.18214654751E+04  0.20111699451E+04  0.12699999809E+01 0. -1.
       -4    1    3    3    0  502 -0.71332271351E+03 -0.46715860776E+03 -0.10673016177E+04  0.13660896070E+04  0.12699999809E+01 0.  1.
</event>
<event>
 5   0  0.3709747E-07  0.3289962E+04  0.7818609E-02  0.8165454E-01
        1   -1    0    0  501    0  0.00000000000E+00  0.00000000000E+00  0.16069977450E+04  0.16069977450E+04  0.50400001928E-02 0. -1.
       -1   -1    0    0    0  501  0.00000000000E+00  0.00000000000E+00 -0.16838621219E+04  0.16838621219E+04  0.50400001928E-02 0.  1.
    10030    2    1    2    0    0  0.00000000000E+00  0.00000000000E+00 -0.76864376885E+02  0.32908598668E+04  0.32899620865E+04 0.  0.
        4    1    3    3  502    0 -0.19021159940E+02  0.11126351872E+04  0.11733612176E+04  0.16171261621E+04  0.12699999809E+01 0. -1.
       -4    1    3    3    0  502  0.19021159940E+02 -0.11126351872E+04 -0.12502255945E+04  0.16737337047E+04  0.12699999809E+01 0.  1.
</event>
<event>
 5   0  0.1146799E-06  0.3336218E+04  0.7818609E-02  0.8153740E-01
       -2   -1    0    0    0  501  0.00000000000E+00  0.00000000000E+00  0.12925876028E+04  0.12925876028E+04  0.25500000920E-02 0.  1.
        2   -1    0    0  501    0  0.00000000000E+00  0.00000000000E+00 -0.21527262155E+04  0.21527262155E+04  0.25500000920E-02 0. -1.
    10030    2    1    2    0    0  0.00000000000E+00  0.00000000000E+00 -0.86013861268E+03  0.34453138184E+04  0.33362177498E+04 0.  0.
        5    1    3    3  502    0  0.16217877009E+04 -0.20219896087E+03 -0.77488206073E+03  0.18087410164E+04  0.46999998093E+01 0. -1.
       -5    1    3    3    0  502 -0.16217877009E+04  0.20219896087E+03 -0.85256551947E+02  0.16365728020E+04  0.46999998093E+01 0.  1.
</event>
<event>
 5   0  0.3796529E-07  0.3314905E+04  0.7818609E-02  0.8159113E-01
        1   -1    0    0  501    0  0.00000000000E+00  0.00000000000E+00  0.18698711142E+04  0.18698711142E+04  0.50400001928E-02 0. -1.
       -1   -1    0    0    0  501  0.00000000000E+00  0.00000000000E+00 -0.14691648172E+04  0.14691648172E+04  0.50400001928E-02 0.  1.
    10030    2    1    2    0    0  0.00000000000E+00  0.00000000000E+00  0.40070629694E+03  0.33390359314E+04  0.33149050386E+04 0.  0.
        5    1    3    3  502    0  0.75003466699E+03  0.11632431487E+04 -0.71811794856E+03  0.15592953866E+04  0.46999998093E+01 0.  1.
       -5    1    3    3    0  502 -0.75003466699E+03 -0.11632431487E+04  0.11188242455E+04  0.17797405448E+04  0.46999998093E+01 0. -1.
</event>
<event>
 5   0  0.3573375E-07  0.3296911E+04  0.7818609E-02  0.8163682E-01
       -3   -1    0    0    0  501  0.00000000000E+00  0.00000000000E+00  0.18562300366E+04  0.18562300393E+04  0.10100000352E+00 0. -1.
        3   -1    0    0  501    0  0.00000000000E+00  0.00000000000E+00 -0.14639381025E+04  0.14639381060E+04  0.10100000352E+00 0.  1.
    10030    2    1    2    0    0  0.00000000000E+00  0.00000000000E+00  0.39229193406E+03  0.33201681453E+04  0.32969112137E+04 0.  0.
        4    1    3    3  502    0  0.84944413217E+02  0.15104590908E+04  0.85551813286E+03  0.17379916878E+04  0.12699999809E+01 0. -1.
       -4    1    3    3    0  502 -0.84944413217E+02 -0.15104590908E+04 -0.46322619879E+03  0.15821764575E+04  0.12699999809E+01 0.  1.
</event>
<event>
 5   0  0.1126221E-06  0.3227885E+04  0.7818609E-02  0.8181491E-01
        2   -1    0    0  501    0  0.00000000000E+00  0.00000000000E+00  0.13226420641E+04  0.13226420641E+04  0.25500000920E-02 0.  1.
       -2   -1    0    0    0  501  0.00000000000E+00  0.00000000000E+00 -0.19693997946E+04  0.19693997946E+04  0.25500000920E-02 0. -1.
    10030    2    1    2    0    0  0.00000000000E+00  0.00000000000E+00 -0.64675773056E+03  0.32920418587E+04  0.32278853817E+04 0.  0.
        2    1    3    3  502    0  0.91328783802E+03 -0.66260958966E+03  0.85353509523E+03  0.14148032733E+04  0.25500000920E-02 0.  1.
       -2    1    3    3    0  502 -0.91328783802E+03  0.66260958966E+03 -0.15002928258E+04  0.18772385854E+04  0.25500000920E-02 0. -1.
</event>
<event>
 5   0  0.3749685E-07  0.3289826E+04  0.7818609E-02  0.8165489E-01
       -1   -1    0    0    0  501  0.00000000000E+00  0.00000000000E+00  0.13231273421E+04  0.13231273421E+04  0.50400001928E-02 0.  1.
        1   -1    0    0  501    0  0.00000000000E+00  0.00000000000E+00 -0.20449567586E+04  0.20449567586E+04  0.50400001928E-02 0. -1.
    10030    2    1    2    0    0  0.00000000000E+00  0.00000000000E+00 -0.72182941652E+03  0.33680841007E+04  0.32898256493E+04 0.  0.
        3    1    3    3  502    0  0.16891136614E+03  0.87979654612E+03 -0.17732840652E+04  0.19867333485E+04  0.10100000352E+00 0. -1.
       -3    1    3    3    0  502 -0.16891136614E+03 -0.87979654612E+03  0.10514546487E+04  0.13813507522E+04  0.10100000352E+00 0.  1.
</event>
<event>
 5   0  0.1129434E-06  0.3283664E+04  0.7818609E-02  0.8167065E-01
        2   -1    0    0  501    0  0.00000000000E+00  0.00000000000E+00  0.16354055106E+04  0.16354055106E+04  0.25500000920E-02 0.  1.
       -2   -1    0    0    0  501  0.00000000000E+00  0.00000000000E+00 -0.16482834296E+04  0.16482834296E+04  0.25500000920E-02 0. -1.
    10030    2    1    2    0    0  0.00000000000E+00  0.00000000000E+00 -0.12877919032E+02  0.32836889402E+04  0.32836636879E+04 0.  0.
        3    1    3    3  502    0  0.16064441917E+04 -0.27667372249E+03 -0.20240093140E+03  0.16426129906E+04  0.10100000352E+00 0. -1.
       -3    1    3    3    0  502 -0.16064441917E+04  0.27667372249E+03  0.18952301237E+03  0.16410759495E+04  0.10100000352E+00 0.  1.
</event>
<event>
 5   0  0.1120545E-06  0.3281184E+04  0.7818609E-02  0.8167700E-01
        2   -1    0    0  501    0  0.00000000000E+00  0.00000000000E+00  0.16311100188E+04  0.16311100188E+04  0.25500000920E-02 0.  1.
       -2   -1    0    0    0  501  0.00000000000E+00  0.00000000000E+00 -0.16501286819E+04  0.16501286819E+04  0.25500000920E-02 0. -1.
    10030    2    1    2    0    0  0.00000000000E+00  0.00000000000E+00 -0.19018663167E+02  0.32812387007E+04  0.32811835824E+04 0.  0.
        4    1    3    3  502    0  0.14415947999E+04  0.74289264175E+02  0.77013531276E+03  0.16361003865E+04  0.12699999809E+01 0.  1.
       -4    1    3    3    0  502 -0.14415947999E+04 -0.74289264175E+02 -0.78915397592E+03  0.16451383141E+04  0.12699999809E+01 0. -1.
</event>
<event>
 5   0  0.1120545E-06  0.3325614E+04  0.7818609E-02  0.8156408E-01
        2   -1    0    0  501    0  0.00000000000E+00  0.00000000000E+00  0.20334758939E+04  0.20334758939E+04  0.25500000920E-02 0. -1.
       -2   -1    0    0    0  501  0.00000000000E+00  0.00000000000E+00 -0.13597048301E+04  0.13597048301E+04  0.25500000920E-02 0.  1.
    10030    2    1    2    0    0  0.00000000000E+00  0.00000000000E+00  0.67377106378E+03  0.33931807240E+04  0.33256139252E+04 0.  0.
        4    1    3    3  502    0 -0.13884601657E+04  0.36083709128E+03 -0.52097020042E+03  0.15262491935E+04  0.12699999809E+01 0.  1.
       -4    1    3    3    0  502  0.13884601657E+04 -0.36083709128E+03  0.11947412642E+04  0.18669315305E+04  0.12699999809E+01 0. -1.
</event>
<event>
 5   0  0.3674967E-07  0.3286566E+04  0.7818609E-02  0.8166322E-01
        1   -1    0    0  501    0  0.00000000000E+00  0.00000000000E+00  0.25543519077E+04  0.25543519077E+04  0.50400001928E-02 0. -1.
       -1   -1    0    0    0  501  0.00000000000E+00  0.00000000000E+00 -0.10571681924E+04  0.10571681924E+04  0.50400001928E-02 0.  1.
    10030    2    1    2    0    0  0.00000000000E+00  0.00000000000E+00  0.14971837154E+04  0.36115201001E+04  0.32865663474E+04 0.  0.
        2    1    3    3  502    0 -0.29437609378E+03 -0.32000913486E+02  0.25247934667E+04  0.25420982264E+04  0.25500000920E-02 0. -1.
       -2    1    3    3    0  502  0.29437609378E+03  0.32000913486E+02 -0.10276097513E+04  0.10694218738E+04  0.25500000920E-02 0.  1.
</event>
<event>
 5   0  0.1116462E-06  0.3265255E+04  0.7818609E-02  0.8171793E-01
        2   -1    0    0  501    0  0.00000000000E+00  0.00000000000E+00  0.29714319678E+04  0.29714319678E+04  0.25500000920E-02 0.  1.
       -2   -1    0    0    0  501  0.00000000000E+00  0.00000000000E+00 -0.89703286809E+03  0.89703286809E+03  0.25500000920E-02 0. -1.
    10030    2    1    2    0    0  0.00000000000E+00  0.00000000000E+00  0.20743990997E+04  0.38684648359E+04  0.32652547468E+04 0.  0.
        1    1    3    3  502    0 -0.99782587983E+03  0.11789284485E+04  0.16640395111E+04  0.22703647873E+04  0.50400001928E-02 0.  1.
       -1    1    3    3    0  502  0.99782587983E+03 -0.11789284485E+04  0.41035958866E+03  0.15981000486E+04  0.50400001928E-02 0. -1.
</event>
<event>
 5   0  0.3757406E-07  0.3298733E+04  0.7818609E-02  0.8163218E-01
        1   -1    0    0  501    0  0.00000000000E+00  0.00000000000E+00  0.28231148293E+04  0.28231148293E+04  0.50400001928E-02 0.  1.
       -1   -1    0    0    0  501  0.00000000000E+00  0.00000000000E+00 -0.96362006280E+03  0.96362006282E+03  0.50400001928E-02 0. -1.
    10030    2    1    2    0    0  0.00000000000E+00  0.00000000000E+00  0.18594947665E+04  0.37867348922E+04  0.32987331442E+04 0.  0.
        1    1    3    3  502    0  0.30153425746E+03 -0.13319305685E+04  0.19914785371E+04  0.24147357436E+04  0.50400001928E-02 0.  1.
       -1    1    3    3    0  502 -0.30153425746E+03  0.13319305685E+04 -0.13198377057E+03  0.13719991485E+04  0.50400001928E-02 0. -1.
</event>
<event>
 5   0  0.3796529E-07  0.3285675E+04  0.7818609E-02  0.8166550E-01
       -1   -1    0    0    0  501  0.00000000000E+00  0.00000000000E+00  0.17258136040E+04  0.17258136040E+04  0.50400001928E-02 0.  1.
        1   -1    0    0  501    0  0.00000000000E+00  0.00000000000E+00 -0.15638503974E+04  0.15638503974E+04  0.50400001928E-02 0. -1.
    10030    2    1    2    0    0  0.00000000000E+00  0.00000000000E+00  0.16196320662E+03  0.32896640014E+04  0.32856745369E+04 0.  0.
        5    1    3    3  502    0 -0.50171258818E+03  0.14325815631E+04 -0.54818154653E+03  0.16138558034E+04  0.46999998093E+01 0. -1.
       -5    1    3    3    0  502  0.50171258818E+03 -0.14325815631E+04  0.71014475315E+03  0.16758081980E+04  0.46999998093E+01 0.  1.
</event>
<event>
 5   0  0.1116462E-06  0.3295470E+04  0.7818609E-02  0.8164049E-01
       -2   -1    0    0    0  501  0.00000000000E+00  0.00000000000E+00  0.11817939089E+04  0.11817939089E+04  0.25500000920E-02 0.  1.
        2   -1    0    0  501    0  0.00000000000E+00  0.00000000000E+00 -0.22973813966E+04  0.22973813966E+04  0.25500000920E-02 0. -1.
    10030    2    1    2    0    0  0.00000000000E+00  0.00000000000E+00 -0.11155874877E+04  0.34791753054E+04  0.32954704313E+04 0.  0.
        1    1    3    3  502    0  0.39430353744E+03 -0.16994230816E+03  0.11216951567E+04  0.12010643997E+04  0.50400001928E-02 0.  1.
       -1    1    3    3    0  502 -0.39430353744E+03  0.16994230816E+03 -0.22372826444E+04  0.22781109057E+04  0.50400001928E-02 0. -1.
</event>
<event>
 5   0  0.3796529E-07  0.3315560E+04  0.7818609E-02  0.8158948E-01
        1   -1    0    0  501    0  0.00000000000E+00  0.00000000000E+00  0.18401985227E+04  0.18401985227E+04  0.50400001928E-02 0.  1.
       -1   -1    0    0    0  501  0.00000000000E+00  0.00000000000E+00 -0.14934441623E+04  0.14934441623E+04  0.50400001928E-02 0. -1.
    10030    2    1    2    0    0  0.00000000000E+00  0.00000000000E+00  0.34675436039E+03  0.33336426849E+04  0.33155595251E+04 0.  0.
        5    1    3    3  502    0 -0.14199308313E+04 -0.35028351542E+03 -0.61146296500E+03  0.15851848960E+04  0.46999998093E+01 0. -1.
       -5    1    3    3    0  502  0.14199308313E+04  0.35028351542E+03  0.95821732539E+03  0.17484577889E+04  0.46999998093E+01 0.  1.
</event>
<event>
 5   0  0.3796529E-07  0.3317306E+04  0.7818609E-02  0.8158506E-01
       -1   -1    0    0    0  501  0.00000000000E+00  0.00000000000E+00  0.32790686353E+04  0.32790686353E+04  0.50400001928E-02 0.  1.
        1   -1    0    0  501    0  0.00000000000E+00  0.00000000000E+00 -0.83899741768E+03  0.83899741770E+03  0.50400001928E-02 0. -1.
    10030    2    1    2    0    0  0.00000000000E+00  0.00000000000E+00  0.24400712176E+04  0.41180660530E+04  0.33173062068E+04 0.  0.
        5    1    3    3  502    0 -0.13077186598E+04 -0.93469710174E+03  0.71224658043E+03  0.17581535902E+04  0.46999998093E+01 0. -1.
       -5    1    3    3    0  502  0.13077186598E+04  0.93469710174E+03  0.17278246371E+04  0.23599124628E+04  0.46999998093E+01 0.  1.
</event>
<event>
 5   0  0.3709747E-07  0.3301523E+04  0.7818609E-02  0.8162508E-01
        1   -1    0    0  501    0  0.00000000000E+00  0.00000000000E+00  0.25962526244E+04  0.25962526244E+04  0.50400001928E-02 0.  1.
       -1   -1    0    0    0  501  0.00000000000E+00  0.00000000000E+00 -0.10495950604E+04  0.10495950604E+04  0.50400001928E-02 0. -1.
    10030    2    1    2    0    0  0.00000000000E+00  0.00000000000E+00  0.15466575640E+04  0.36458476847E+04  0.33015232424E+04 0.  0.
        4    1    3    3  502    0  0.15974144797E+04  0.25385463342E+03  0.40901744460E+03  0.16683740821E+04  0.12699999809E+01 0. -1.
       -4    1    3    3    0  502 -0.15974144797E+04 -0.25385463342E+03  0.11376401194E+04  0.19774736026E+04  0.12699999809E+01 0.  1.
</event>
<event>
 5   0  0.1146799E-06  0.3258745E+04  0.7818609E-02  0.8173473E-01
        2   -1    0    0  501    0  0.00000000000E+00  0.00000000000E+00  0.15708388312E+04  0.15708388312E+04  0.25500000920E-02 0.  1.
       -2   -1    0    0    0  501  0.00000000000E+00  0.00000000000E+00 -0.16900877286E+04  0.16900877286E+04  0.25500000920E-02 0. -1.
    10030    2    1    2    0    0  0.00000000000E+00  0.00000000000E+00 -0.11924889743E+03  0.32609265598E+04  0.32587454225E+04 0.  0.
        5    1    3    3  502    0 -0.10906227859E+04 -0.10752854120E+04  0.49674819961E+03  0.16101172759E+04  0.46999998093E+01 0.  1.
       -5    1    3    3    0  502  0.10906227859E+04  0.10752854120E+04 -0.61599709704E+03  0.16508092839E+04  0.46999998093E+01 0. -1.
</event>
<event>
 5   0  0.1116462E-06  0.3319337E+04  0.7818609E-02  0.8157992E-01
        2   -1    0    0  501    0  0.00000000000E+00  0.00000000000E+00  0.17631122535E+04  0.17631122535E+04  0.25500000920E-02 0. -1.
       -2   -1    0    0    0  501  0.00000000000E+00  0.00000000000E+00 -0.15622942810E+04  0.15622942810E+04  0.25500000920E-02 0.  1.
    10030    2    1    2    0    0  0.00000000000E+00  0.00000000000E+00  0.20081797249E+03  0.33254065346E+04  0.33193373981E+04 0.  0.
        1    1    3    3  502    0  0.11931269759E+04 -0.21917406987E+03  0.12351365399E+04  0.17312283286E+04  0.50400001928E-02 0. -1.
       -1    1    3    3    0  502 -0.11931269759E+04  0.21917406987E+03 -0.10343185674E+04  0.15941782060E+04  0.50400001928E-02 0.  1.
</event>
<event>
 5   0  0.3674967E-07  0.3289388E+04  0.7818609E-02  0.8165601E-01
        1   -1    0    0  501    0  0.00000000000E+00  0.00000000000E+00  0.14271392973E+04  0.14271392973E+04  0.50400001928E-02 0. -1.
       -1   -1    0    0    0  501  0.00000000000E+00  0.00000000000E+00 -0.18954132220E+04  0.18954132220E+04  0.50400001928E-02 0.  1.
    10030    2    1    2    0    0  0.00000000000E+00  0.00000000000E+00 -0.46827392479E+03  0.33225525193E+04  0.32893882068E+04 0.  0.
        2    1    3    3  502    0  0.74954338851E+03 -0.70938572287E+03  0.10593896760E+04  0.14789691953E+04  0.25500000920E-02 0. -1.
       -2    1    3    3    0  502 -0.74954338851E+03  0.70938572287E+03 -0.15276636008E+04  0.18435833240E+04  0.25500000920E-02 0.  1.
</event>
<event>
 5   0  0.3796529E-07  0.3300722E+04  0.7818609E-02  0.8162712E-01
        1   -1    0    0  501    0  0.00000000000E+00  0.00000000000E+00  0.17907944681E+04  0.17907944681E+04  0.50400001928E-02 0.  1.
       -1   -1    0    0    0  501  0.00000000000E+00  0.00000000000E+00 -0.15209406020E+04  0.15209406021E+04  0.50400001928E-02 0. -1.
    10030    2    1    2    0    0  0.00000000000E+00  0.00000000000E+00  0.26985386605E+03  0.33117350701E+04  0.33007223552E+04 0.  0.
        5    1    3    3  502    0  0.45198533954E+03 -0.10738461830E+04 -0.10378328547E+04  0.15603062187E+04  0.46999998093E+01 0. -1.
       -5    1    3    3    0  502 -0.45198533954E+03  0.10738461830E+04  0.13076867207E+04  0.17514288514E+04  0.46999998093E+01 0.  1.
</event>
<event>
 5   0  0.1129434E-06  0.3455742E+04  0.7818609E-02  0.8124359E-01
        2   -1    0    0  501    0  0.00000000000E+00  0.00000000000E+00  0.25194087929E+04  0.25194087929E+04  0.25500000920E-02 0.  1.
       -2   -1    0    0    0  501  0.00000000000E+00  0.00000000000E+00 -0.11850156573E+04  0.11850156574E+04  0.25500000920E-02 0. -1.
    10030    2    1    2    0    0  0.00000000000E+00  0.00000000000E+00  0.13343931355E+04  0.37044244502E+04  0.34557423902E+04 0.  0.
        3    1    3    3  502    0 -0.17094194851E+04  0.12788021328E+03  0.43462643850E+03  0.17684367323E+04  0.10100000352E+00 0. -1.
       -3    1    3    3    0  502  0.17094194851E+04 -0.12788021328E+03  0.89976669704E+03  0.19359877180E+04  0.10100000352E+00 0.  1.
</event>
<event>
 5   0  0.1116462E-06  0.3317162E+04  0.7818609E-02  0.8158542E-01
        2   -1    0    0  501    0  0.00000000000E+00  0.00000000000E+00  0.14970226708E+04  0.14970226708E+04  0.25500000920E-02 0.  1.
       -2   -1    0    0    0  501  0.00000000000E+00  0.00000000000E+00 -0.18375742355E+04  0.18375742355E+04  0.25500000920E-02 0. -1.
    10030    2    1    2    0    0  0.00000000000E+00  0.00000000000E+00 -0.34055156469E+03  0.33345969064E+04  0.33171616119E+04 0.  0.
        1    1    3    3  502    0 -0.63454307539E+03  0.10690479393E+04 -0.12739452829E+04  0.17800126390E+04  0.50400001928E-02 0. -1.
       -1    1    3    3    0  502  0.63454307539E+03 -0.10690479393E+04  0.93339371822E+03  0.15545842674E+04  0.50400001928E-02 0.  1.
</event>
<event>
 5   0  0.3573375E-07  0.3300019E+04  0.7818609E-02  0.8162891E-01
        3   -1    0    0  501    0  0.00000000000E+00  0.00000000000E+00  0.15089636805E+04  0.15089636839E+04  0.10100000352E+00 0.  1.
       -3   -1    0    0    0  501  0.00000000000E+00  0.00000000000E+00 -0.18042391117E+04  0.18042391145E+04  0.10100000352E+00 0. -1.
    10030    2    1    2    0    0  0.00000000000E+00  0.00000000000E+00 -0.29527543121E+03  0.33132027984E+04  0.33000189701E+04 0.  0.
        5    1    3    3  502    0  0.57527204351E+03 -0.13101897477E+04  0.67721259267E+03  0.15830900432E+04  0.46999998093E+01 0.  1.
       -5    1    3    3    0  502 -0.57527204351E+03  0.13101897477E+04 -0.97248802388E+03  0.17301127552E+04  0.46999998093E+01 0. -1.
</event>
<event>
 5   0  0.3674967E-07  0.3297496E+04  0.7818609E-02  0.8163533E-01
        1   -1    0    0  501    0  0.00000000000E+00  0.00000000000E+00  0.17215850067E+04  0.17215850067E+04  0.50400001928E-02 0. -1.
       -1   -1    0    0    0  501  0.00000000000E+00  0.00000000000E+00 -0.15789928187E+04  0.15789928187E+04  0.50400001928E-02 0.  1.
    10030    2    1    2    0    0  0.00000000000E+00  0.00000000000E+00  0.14259218800E+03  0.33005778254E+04  0.32974962395E+04 0.  0.
        2    1    3    3  502    0  0.74494745904E+03  0.12281215895E+04 -0.73886812871E+03  0.16152880446E+04  0.25500000920E-02 0.  1.
       -2    1    3    3    0  502 -0.74494745904E+03 -0.12281215895E+04  0.88146031671E+03  0.16852897808E+04  0.25500000920E-02 0. -1.
</event>
<event>
 5   0  0.3796529E-07  0.3260442E+04  0.7818609E-02  0.8173035E-01
       -1   -1    0    0    0  501  0.00000000000E+00  0.00000000000E+00  0.12872749432E+04  0.12872749432E+04  0.50400001928E-02 0. -1.
        1   -1    0    0  501    0  0.00000000000E+00  0.00000000000E+00 -0.20645320022E+04  0.20645320022E+04  0.50400001928E-02 0.  1.
    10030    2    1    2    0    0  0.00000000000E+00  0.00000000000E+00 -0.77725705904E+03  0.33518069454E+04  0.32604418816E+04 0.  0.
        5    1    3    3  502    0  0.13417240547E+04  0.53894523686E+03 -0.11626636596E+04  0.18553959908E+04  0.46999998093E+01 0.  1.
       -5    1    3    3    0  502 -0.13417240547E+04 -0.53894523686E+03  0.38540660053E+03  0.14964109546E+04  0.46999998093E+01 0. -1.
</event>
<event>
 5   0  0.3674967E-07  0.3075828E+04  0.7818609E-02  0.8222403E-01
       -1   -1    0    0    0  501  0.00000000000E+00  0.00000000000E+00  0.21500742228E+04  0.21500742228E+04  0.50400001928E-02 0. -1.
        1   -1    0    0  501    0  0.00000000000E+00  0.00000000000E+00 -0.11000457640E+04  0.11000457640E+04  0.50400001928E-02 0.  1.
    10030    2    1    2    0    0  0.00000000000E+00  0.00000000000E+00  0.10500284589E+04  0.32501199868E+04  0.30758283704E+04 0.  0.
        2    1    3    3  502    0 -0.15179235626E+04 -0.22724302696E+03  0.62772676677E+03  0.16582437182E+04  0.25500000920E-02 0. -1.
       -2    1    3    3    0  502  0.15179235626E+04  0.22724302696E+03  0.42230169209E+03  0.15918762686E+04  0.25500000920E-02 0.  1.
</event>
<event>
 5   0  0.3796529E-07  0.3283838E+04  0.7818609E-02  0.8167020E-01
        1   -1    0    0  501    0  0.00000000000E+00  0.00000000000E+00  0.15334542250E+04  0.15334542250E+04  0.50400001928E-02 0.  1.
       -1   -1    0    0    0  501  0.00000000000E+00  0.00000000000E+00 -0.17580560670E+04  0.17580560670E+04  0.50400001928E-02 0. -1.
    10030    2    1    2    0    0  0.00000000000E+00  0.00000000000E+00 -0.22460184206E+03  0.32915102920E+04  0.32838383052E+04 0.  0.
        5    1    3    3  502    0  0.76693453284E+03  0.11706499167E+04 -0.97294926077E+03  0.17044829595E+04  0.46999998093E+01 0. -1.
       -5    1    3    3    0  502 -0.76693453284E+03 -0.11706499167E+04  0.74834741871E+03  0.15870273325E+04  0.46999998093E+01 0.  1.
</event>
<event>
 5   0  0.3674967E-07  0.3275790E+04  0.7818609E-02  0.8169083E-01
        1   -1    0    0  501    0  0.00000000000E+00  0.00000000000E+00  0.17906709723E+04  0.17906709723E+04  0.50400001928E-02 0.  1.
       -1   -1    0    0    0  501  0.00000000000E+00  0.00000000000E+00 -0.14981534142E+04  0.14981534142E+04  0.50400001928E-02 0. -1.
    10030    2    1    2    0    0  0.00000000000E+00  0.00000000000E+00  0.29251755814E+03  0.32888243865E+04  0.32757898778E+04 0.  0.
        2    1    3    3  502    0 -0.53708802871E+03  0.45523117067E+03 -0.13384768300E+04  0.15123555117E+04  0.25500000920E-02 0. -1.
       -2    1    3    3    0  502  0.53708802871E+03 -0.45523117067E+03  0.16309943881E+04  0.17764688749E+04  0.25500000920E-02 0.  1.
</event>
<event>
 5   0  0.1129434E-06  0.3330342E+04  0.7818609E-02  0.8155218E-01
       -2   -1    0    0    0  501  0.00000000000E+00  0.00000000000E+00  0.15812694425E+04  0.15812694425E+04  0.25500000920E-02 0. -1.
        2   -1    0    0  501    0  0.00000000000E+00  0.00000000000E+00 -0.17535240299E+04  0.17535240299E+04  0.25500000920E-02 0.  1.
    10030    2    1    2    0    0  0.00000000000E+00  0.00000000000E+00 -0.17225458745E+03  0.33347934724E+04  0.33303417033E+04 0.  0.
        3    1    3    3  502    0  0.25329507702E+03 -0.11357199574E+03 -0.17301919898E+04  0.17523188426E+04  0.10100000352E+00 0.  1.
       -3    1    3    3    0  502 -0.25329507702E+03  0.11357199574E+03  0.15579374023E+04  0.15824746298E+04  0.10100000352E+00 0. -1.
</event>
<event>
 5   0  0.1126221E-06  0.3322354E+04  0.7818609E-02  0.8157231E-01
       -2   -1    0    0    0  501  0.00000000000E+00  0.00000000000E+00  0.12188947778E+04  0.12188947778E+04  0.25500000920E-02 0. -1.
        2   -1    0    0  501    0  0.00000000000E+00  0.00000000000E+00 -0.22639434611E+04  0.22639434611E+04  0.25500000920E-02 0.  1.
    10030    2    1    2    0    0  0.00000000000E+00  0.00000000000E+00 -0.10450486832E+04  0.34828382389E+04  0.33223539017E+04 0.  0.
        2    1    3    3  502    0 -0.20919584974E+03  0.92825150958E+03  0.90490103757E+03  0.13131106794E+04  0.25500000920E-02 0. -1.
       -2    1    3    3    0  502  0.20919584974E+03 -0.92825150958E+03 -0.19499497208E+04  0.21697275595E+04  0.25500000920E-02 0.  1.
</event>
<event>
 5   0  0.1116462E-06  0.3310025E+04  0.7818609E-02  0.8160349E-01
       -2   -1    0    0    0  501  0.00000000000E+00  0.00000000000E+00  0.17227182625E+04  0.17227182625E+04  0.25500000920E-02 0.  1.
        2   -1    0    0  501    0  0.00000000000E+00  0.00000000000E+00 -0.15899681576E+04  0.15899681576E+04  0.25500000920E-02 0. -1.
    10030    2    1    2    0    0  0.00000000000E+00  0.00000000000E+00  0.13275010491E+03  0.33126864201E+04  0.33100254874E+04 0.  0.
        1    1    3    3  502    0 -0.82110539744E+02  0.99072891634E+03 -0.12578595553E+04  0.16032768280E+04  0.50400001928E-02 0. -1.
       -1    1    3    3    0  502  0.82110539744E+02 -0.99072891634E+03  0.13906096602E+04  0.17094095921E+04  0.50400001928E-02 0.  1.
</event>
<event>
 5   0  0.3674967E-07  0.3296922E+04  0.7818609E-02  0.8163679E-01
       -1   -1    0    0    0  501  0.00000000000E+00  0.00000000000E+00  0.13763747052E+04  0.13763747052E+04  0.50400001928E-02 0.  1.
        1   -1    0    0  501    0  0.00000000000E+00  0.00000000000E+00 -0.19743342804E+04  0.19743342804E+04  0.50400001928E-02 0. -1.
    10030    2    1    2    0    0  0.00000000000E+00  0.00000000000E+00 -0.59795957512E+03  0.33507089856E+04  0.32969220574E+04 0.  0.
        2    1    3    3  502    0 -0.53191268244E+03 -0.31865029118E+03  0.12533399476E+04  0.13983311962E+04  0.25500000920E-02 0.  1.
       -2    1    3    3    0  502  0.53191268244E+03  0.31865029118E+03 -0.18512995228E+04  0.19523777895E+04  0.25500000920E-02 0. -1.
</event>
<event>
 5   0  0.1120545E-06  0.3304939E+04  0.7818609E-02  0.8161640E-01
        2   -1    0    0  501    0  0.00000000000E+00  0.00000000000E+00  0.13317208459E+04  0.13317208459E+04  0.25500000920E-02 0. -1.
       -2   -1    0    0    0  501  0.00000000000E+00  0.00000000000E+00 -0.20504714051E+04  0.20504714051E+04  0.25500000920E-02 0.  1.
    10030    2    1    2    0    0  0.00000000000E+00  0.00000000000E+00 -0.71875055914E+03  0.33821922510E+04  0.33049390397E+04 0.  0.
        4    1    3    3  502    0  0.14476818496E+03  0.15114500501E+04 -0.10267027965E+04  0.18329100705E+04  0.12699999809E+01 0.  1.
       -4    1    3    3    0  502 -0.14476818496E+03 -0.15114500501E+04  0.30795223732E+03  0.15492821805E+04  0.12699999809E+01 0. -1.
</event>
<event>
 5   0  0.3757406E-07  0.3066457E+04  0.7818609E-02  0.8225004E-01
        1   -1    0    0  501    0  0.00000000000E+00  0.00000000000E+00  0.26457762273E+04  0.26457762273E+04  0.50400001928E-02 0. -1.
       -1   -1    0    0    0  501  0.00000000000E+00  0.00000000000E+00 -0.88850653479E+03  0.88850653480E+03  0.50400001928E-02 0.  1.
    10030    2    1    2    0    0  0.00000000000E+00  0.00000000000E+00  0.17572696925E+04  0.35342827621E+04  0.30664568920E+04 0.  0.
        1    1    3    3  502    0  0.12712211434E+04 -0.73961398035E+03  0.13780514735E+04  0.20154547623E+04  0.50400001928E-02 0. -1.
       -1    1    3    3    0  502 -0.12712211434E+04  0.73961398035E+03  0.37921821902E+03  0.15188279998E+04  0.50400001928E-02 0.  1.
</event>
<event>
 5   0  0.3709747E-07  0.3300465E+04  0.7818609E-02  0.8162777E-01
        1   -1    0    0  501    0  0.00000000000E+00  0.00000000000E+00  0.17542765447E+04  0.17542765447E+04  0.50400001928E-02 0. -1.
       -1   -1    0    0    0  501  0.00000000000E+00  0.00000000000E+00 -0.15523591275E+04  0.15523591275E+04  0.50400001928E-02 0.  1.
    10030    2    1    2    0    0  0.00000000000E+00  0.00000000000E+00  0.20191741718E+03  0.33066356723E+04  0.33004649409E+04 0.  0.
        4    1    3    3  502    0  0.53903960460E+03  0.12796495809E+04 -0.79244776285E+03  0.15987625887E+04  0.12699999809E+01 0.  1.
       -4    1    3    3    0  502 -0.53903960460E+03 -0.12796495809E+04  0.99436518004E+03  0.17078730836E+04  0.12699999809E+01 0. -1.
</event>
<event>
 5   0  0.1129434E-06  0.3252870E+04  0.7818609E-02  0.8174992E-01
        2   -1    0    0  501    0  0.00000000000E+00  0.00000000000E+00  0.19210514998E+04  0.19210514999E+04  0.25500000920E-02 0. -1.
       -2   -1    0    0    0  501  0.00000000000E+00  0.00000000000E+00 -0.13770014142E+04  0.13770014142E+04  0.25500000920E-02 0.  1.
    10030    2    1    2    0    0  0.00000000000E+00  0.00000000000E+00  0.54405008563E+03  0.32980529141E+04  0.32528698911E+04 0.  0.
        3    1    3    3  502    0  0.74027328549E+03 -0.25351465723E+03 -0.11736189900E+04  0.14105515810E+04  0.10100000352E+00 0.  1.
       -3    1    3    3    0  502 -0.74027328549E+03  0.25351465723E+03  0.17176690757E+04  0.18875013331E+04  0.10100000352E+00 0. -1.
</event>
<event>
 5   0  0.3796529E-07  0.3361585E+04  0.7818609E-02  0.8147400E-01
       -1   -1    0    0    0  501  0.00000000000E+00  0.00000000000E+00  0.11576585440E+04  0.11576585440E+04  0.50400001928E-02 0.  1.
        1   -1    0    0  501    0  0.00000000000E+00  0.00000000000E+00 -0.24403247096E+04  0.24403247096E+04  0.50400001928E-02 0. -1.
    10030    2    1    2    0    0  0.00000000000E+00  0.00000000000E+00 -0.12826661656E+04  0.35979832536E+04  0.33615845967E+04 0.  0.
        5    1    3    3  502    0  0.70768049603E+03  0.64802759393E+03 -0.21183366570E+04  0.23255372991E+04  0.46999998093E+01 0. -1.
       -5    1    3    3    0  502 -0.70768049603E+03 -0.64802759393E+03  0.83567049138E+03  0.12724459545E+04  0.46999998093E+01 0.  1.
</event>
<event>
 5   0  0.1129434E-06  0.3294674E+04  0.7818609E-02  0.8164252E-01
        2   -1    0    0  501    0  0.00000000000E+00  0.00000000000E+00  0.15669737393E+04  0.15669737393E+04  0.25500000920E-02 0. -1.
       -2   -1    0    0    0  501  0.00000000000E+00  0.00000000000E+00 -0.17318221287E+04  0.17318221287E+04  0.25500000920E-02 0.  1.
    10030    2    1    2    0    0  0.00000000000E+00  0.00000000000E+00 -0.16484838940E+03  0.32987958680E+04  0.32946743674E+04 0.  0.
        3    1    3    3  502    0 -0.54430859562E+03 -0.68616589256E+03 -0.14793843393E+04  0.17192072339E+04  0.10100000352E+00 0.  1.
       -3    1    3    3    0  502  0.54430859562E+03  0.68616589256E+03  0.13145359499E+04  0.15795886342E+04  0.10100000352E+00 0. -1.
</event>
<event>
 5   0  0.3709747E-07  0.3331752E+04  0.7818609E-02  0.8154863E-01
       -1   -1    0    0    0  501  0.00000000000E+00  0.00000000000E+00  0.13750828582E+04  0.13750828582E+04  0.50400001928E-02 0.  1.
        1   -1    0    0  501    0  0.00000000000E+00  0.00000000000E+00 -0.20181641854E+04  0.20181641854E+04  0.50400001928E-02 0. -1.
    10030    2    1    2    0    0  0.00000000000E+00  0.00000000000E+00 -0.64308132719E+03  0.33932470436E+04  0.33317520774E+04 0.  0.
        4    1    3    3  502    0  0.41399580877E+03 -0.15800037912E+04 -0.65521071796E+03  0.17598599967E+04  0.12699999809E+01 0.  1.
       -4    1    3    3    0  502 -0.41399580877E+03  0.15800037912E+04  0.12129390771E+02  0.16333870469E+04  0.12699999809E+01 0. -1.
</event>
<event>
 5   0  0.3796529E-07  0.3243421E+04  0.7818609E-02  0.8177443E-01
        1   -1    0    0  501    0  0.00000000000E+00  0.00000000000E+00  0.10891836670E+04  0.10891836670E+04  0.50400001928E-02 0.  1.
       -1   -1    0    0    0  501  0.00000000000E+00  0.00000000000E+00 -0.24146022790E+04  0.24146022790E+04  0.50400001928E-02 0. -1.
    10030    2    1    2    0    0  0.00000000000E+00  0.00000000000E+00 -0.13254186120E+04  0.35037859460E+04  0.32434212582E+04 0.  0.
        5    1    3    3  502    0  0.10407550648E+04  0.96292351629E+03 -0.15129963142E+04  0.20735411112E+04  0.46999998093E+01 0. -1.
       -5    1    3    3    0  502 -0.10407550648E+04 -0.96292351629E+03  0.18757770216E+03  0.14302448348E+04  0.46999998093E+01 0.  1.
</event>
<event>
 5   0  0.1146799E-06  0.2951601E+04  0.7818609E-02  0.8257688E-01
        2   -1    0    0  501    0  0.00000000000E+00  0.00000000000E+00  0.18360590354E+04  0.18360590354E+04  0.25500000920E-02 0.  1.
       -2   -1    0    0    0  501  0.00000000000E+00  0.00000000000E+00 -0.11862291543E+04  0.11862291543E+04  0.25500000920E-02 0. -1.
    10030    2    1    2    0    0  0.00000000000E+00  0.00000000000E+00  0.64982988105E+03  0.30222881897E+04  0.29516007567E+04 0.  0.
        5    1    3    3  502    0  0.13909428361E+04 -0.91726893992E+02 -0.17128191249E+03  0.14044555457E+04  0.46999998093E+01 0. -1.
       -5    1    3    3    0  502 -0.13909428361E+04  0.91726893992E+02  0.82111179354E+03  0.16178326440E+04  0.46999998093E+01 0.  1.
</event>
<event>
 5   0  0.3757406E-07  0.3304635E+04  0.7818609E-02  0.8161717E-01
        1   -1    0    0  501    0  0.00000000000E+00  0.00000000000E+00  0.18372392546E+04  0.18372392546E+04  0.50400001928E-02 0. -1.
       -1   -1    0    0    0  501  0.00000000000E+00  0.00000000000E+00 -0.14860087038E+04  0.14860087038E+04  0.50400001928E-02 0.  1.
    10030    2    1    2    0    0  0.00000000000E+00  0.00000000000E+00  0.35123055078E+03  0.33232479584E+04  0.33046352436E+04 0.  0.
        1    1    3    3  502    0  0.16001990188E+04  0.40522731505E+03  0.10235272546E+03  0.16538809380E+04  0.50400001928E-02 0.  1.
       -1    1    3    3    0  502 -0.16001990188E+04 -0.40522731505E+03  0.24887782532E+03  0.16693670204E+04  0.50400001928E-02 0. -1.
</event>
<event>
 5   0  0.1146799E-06  0.3285370E+04  0.7818609E-02  0.8166628E-01
        2   -1    0    0  501    0  0.00000000000E+00  0.00000000000E+00  0.25435460984E+04  0.25435460984E+04  0.25500000920E-02 0. -1.
       -2   -1    0    0    0  501  0.00000000000E+00  0.00000000000E+00 -0.10608867920E+04  0.10608867920E+04  0.25500000920E-02 0.  1.
    10030    2    1    2    0    0  0.00000000000E+00  0.00000000000E+00  0.14826593064E+04  0.36044328904E+04  0.32853702748E+04 0.  0.
        5    1    3    3  502    0 -0.13983051364E+04  0.70426515475E+03  0.19591204204E+03  0.15778625672E+04  0.46999998093E+01 0.  1.
       -5    1    3    3    0  502  0.13983051364E+04 -0.70426515475E+03  0.12867472644E+04  0.20265703232E+04  0.46999998093E+01 0. -1.
</event>
<event>
 5   0  0.3674967E-07  0.3330164E+04  0.7818609E-02  0.8155262E-01
        1   -1    0    0  501    0  0.00000000000E+00  0.00000000000E+00  0.22884786188E+04  0.22884786188E+04  0.50400001928E-02 0.  1.
       -1   -1    0    0    0  501  0.00000000000E+00  0.00000000000E+00 -0.12115030325E+04  0.12115030325E+04  0.50400001928E-02 0. -1.
    10030    2    1    2    0    0  0.00000000000E+00  0.00000000000E+00  0.10769755863E+04  0.34999816513E+04  0.33301644323E+04 0.  0.
        2    1    3    3  502    0 -0.15601100944E+04  0.34109001608E+03  0.10339205348E+04  0.19024399013E+04  0.25500000920E-02 0.  1.
       -2    1    3    3    0  502  0.15601100944E+04 -0.34109001608E+03  0.43055051423E+02  0.15975417500E+04  0.25500000920E-02 0. -1.
</event>
<event>
 5   0  0.3749685E-07  0.3308982E+04  0.7818609E-02  0.8160614E-01
       -1   -1    0    0    0  501  0.00000000000E+00  0.00000000000E+00  0.20934079557E+04  0.20934079557E+04  0.50400001928E-02 0.  1.
        1   -1    0    0  501    0  0.00000000000E+00  0.00000000000E+00 -0.13076003551E+04  0.13076003551E+04  0.50400001928E-02 0. -1.
    10030    2    1    2    0    0  0.00000000000E+00  0.00000000000E+00  0.78580760064E+03  0.34010083108E+04  0.33089823125E+04 0.  0.
        3    1    3    3  502    0 -0.11616760486E+04  0.11597159946E+04  0.17999915081E+03  0.16513122462E+04  0.10100000352E+00 0. -1.
       -3    1    3    3    0  502  0.11616760486E+04 -0.11597159946E+04  0.60580844983E+03  0.17496960645E+04  0.10100000352E+00 0.  1.
</event>
<event>
 5   0  0.3796529E-07  0.3311516E+04  0.7818609E-02  0.8159971E-01
        1   -1    0    0  501    0  0.00000000000E+00  0.00000000000E+00  0.16869791533E+04  0.16869791533E+04  0.50400001928E-02 0. -1.
       -1   -1    0    0    0  501  0.00000000000E+00  0.00000000000E+00 -0.16251146145E+04  0.16251146145E+04  0.50400001928E-02 0.  1.
    10030    2    1    2    0    0  0.00000000000E+00  0.00000000000E+00  0.61864538793E+02  0.33120937678E+04  0.33115159528E+04 0.  0.
        5    1    3    3  502    0 -0.11630854977E+04  0.11710040239E+04  0.16322056390E+03  0.16585178146E+04  0.46999998093E+01 0. -1.
       -5    1    3    3    0  502  0.11630854977E+04 -0.11710040239E+04 -0.10135602510E+03  0.16535759531E+04  0.46999998093E+01 0.  1.
</event>
<event>
 5   0  0.1126221E-06  0.3275504E+04  0.7818609E-02  0.8169157E-01
       -2   -1    0    0    0  501  0.00000000000E+00  0.00000000000E+00  0.26780651837E+04  0.26780651837E+04  0.25500000920E-02 0. -1.
        2   -1    0    0  501    0  0.00000000000E+00  0.00000000000E+00 -0.10015557274E+04  0.10015557274E+04  0.25500000920E-02 0.  1.
    10030    2    1    2    0    0  0.00000000000E+00  0.00000000000E+00  0.16765094564E+04  0.36796209111E+04  0.32755039448E+04 0.  0.
        2    1    3    3  502    0  0.10655517031E+04 -0.12400868963E+04  0.73158976210E+03  0.17912117470E+04  0.25500000920E-02 0.  1.
       -2    1    3    3    0  502 -0.10655517031E+04  0.12400868963E+04  0.94491969427E+03  0.18884091641E+04  0.25500000920E-02 0. -1.
</event>
<event>
 5   0  0.1116462E-06  0.3304492E+04  0.7818609E-02  0.8161753E-01
        2   -1    0    0  501    0  0.00000000000E+00  0.00000000000E+00  0.24896057732E+04  0.24896057732E+04  0.25500000920E-02 0.  1.
       -2   -1    0    0    0  501  0.00000000000E+00  0.00000000000E+00 -0.10965256154E+04  0.10965256154E+04  0.25500000920E-02 0. -1.
    10030    2    1    2    0    0  0.00000000000E+00  0.00000000000E+00  0.13930801578E+04  0.35861313886E+04  0.33044917930E+04 0.  0.
        1    1    3    3  502    0 -0.96905000229E+03 -0.55760509610E+03 -0.62366944854E+03  0.12802128461E+04  0.50400001928E-02 0.  1.
       -1    1    3    3    0  502  0.96905000229E+03  0.55760509610E+03  0.20167496063E+04  0.23059185425E+04  0.50400001928E-02 0. -1.
</event>
<event>
 5   0  0.3757406E-07  0.3263540E+04  0.7818609E-02  0.8172235E-01
        1   -1    0    0  501    0  0.00000000000E+00  0.00000000000E+00  0.15956358510E+04  0.15956358510E+04  0.50400001928E-02 0. -1.
       -1   -1    0    0    0  501  0.00000000000E+00  0.00000000000E+00 -0.16687219305E+04  0.16687219305E+04  0.50400001928E-02 0.  1.
    10030    2    1    2    0    0  0.00000000000E+00  0.00000000000E+00 -0.73086079472E+02  0.32643577815E+04  0.32635395127E+04 0.  0.
        1    1    3    3  502    0  0.12392282592E+04  0.72174614103E+03  0.74215608368E+03  0.16147445071E+04  0.50400001928E-02 0.  1.
       -1    1    3    3    0  502 -0.12392282592E+04 -0.72174614103E+03 -0.81524216315E+03  0.16496132744E+04  0.50400001928E-02 0. -1.
</event>
<event>
 5   0  0.3749685E-07  0.3347815E+04  0.7818609E-02  0.8150834E-01
        1   -1    0    0  501    0  0.00000000000E+00  0.00000000000E+00  0.20397707804E+04  0.20397707804E+04  0.50400001928E-02 0. -1.
       -1   -1    0    0    0  501  0.00000000000E+00  0.00000000000E+00 -0.13736670933E+04  0.13736670933E+04  0.50400001928E-02 0.  1.
    10030    2    1    2    0    0  0.00000000000E+00  0.00000000000E+00  0.66610368713E+03  0.34134378737E+04  0.33478148091E+04 0.  0.
        3    1    3    3  502    0  0.16422243085E+04  0.14164105010E+03  0.63031974389E+03  0.17647282670E+04  0.10100000352E+00 0. -1.
       -3    1    3    3    0  502 -0.16422243085E+04 -0.14164105010E+03  0.35783943235E+02  0.16487096067E+04  0.10100000352E+00 0.  1.
</event>
<event>
 5   0  0.3749685E-07  0.3221444E+04  0.7818609E-02  0.8183177E-01
        1   -1    0    0  501    0  0.00000000000E+00  0.00000000000E+00  0.15649443020E+04  0.15649443020E+04  0.50400001928E-02 0.  1.
       -1   -1    0    0    0  501  0.00000000000E+00  0.00000000000E+00 -0.16578389295E+04  0.16578389295E+04  0.50400001928E-02 0. -1.
    10030    2    1    2    0    0  0.00000000000E+00  0.00000000000E+00 -0.92894627493E+02  0.32227832315E+04  0.32214441397E+04 0.  0.
        3    1    3    3  502    0 -0.13615613140E+04  0.29647616492E+03  0.76177355462E+03  0.15880951757E+04  0.10100000352E+00 0.  1.
       -3    1    3    3    0  502  0.13615613140E+04 -0.29647616492E+03 -0.85466818212E+03  0.16346880558E+04  0.10100000352E+00 0. -1.
</event>
<event>
 5   0  0.3709747E-07  0.3317849E+04  0.7818609E-02  0.8158369E-01
       -1   -1    0    0    0  501  0.00000000000E+00  0.00000000000E+00  0.88944133357E+03  0.88944133358E+03  0.50400001928E-02 0.  1.
        1   -1    0    0  501    0  0.00000000000E+00  0.00000000000E+00 -0.30941111808E+04  0.30941111808E+04  0.50400001928E-02 0. -1.
    10030    2    1    2    0    0  0.00000000000E+00  0.00000000000E+00 -0.22046698472E+04  0.39835525144E+04  0.33178489266E+04 0.  0.
        4    1    3    3  502    0 -0.16791060665E+03 -0.82548412324E+03 -0.28182092795E+04  0.29414151638E+04  0.12699999809E+01 0. -1.
       -4    1    3    3    0  502  0.16791060665E+03  0.82548412324E+03  0.61353943233E+03  0.10421373506E+04  0.12699999809E+01 0.  1.
</event>
<event>
 5   0  0.1116462E-06  0.3284458E+04  0.7818609E-02  0.8166861E-01
       -2   -1    0    0    0  501  0.00000000000E+00  0.00000000000E+00  0.16342232432E+04  0.16342232432E+04  0.25500000920E-02 0.  1.
        2   -1    0    0  501    0  0.00000000000E+00  0.00000000000E+00 -0.16502735263E+04  0.16502735263E+04  0.25500000920E-02 0. -1.
    10030    2    1    2    0    0  0.00000000000E+00  0.00000000000E+00 -0.16050283090E+02  0.32844967695E+04  0.32844575529E+04 0.  0.
        1    1    3    3  502    0  0.26290532432E+03  0.36146796807E+02  0.16126390047E+04  0.16343287184E+04  0.50400001928E-02 0.  1.
       -1    1    3    3    0  502 -0.26290532432E+03 -0.36146796807E+02 -0.16286892878E+04  0.16501680510E+04  0.50400001928E-02 0. -1.
</event>
<event>
 5   0  0.1129434E-06  0.3272802E+04  0.7818609E-02  0.8169851E-01
       -2   -1    0    0    0  501  0.00000000000E+00  0.00000000000E+00  0.13154458516E+04  0.13154458516E+04  0.25500000920E-02 0. -1.
        2   -1    0    0  501    0  0.00000000000E+00  0.00000000000E+00 -0.20356660351E+04  0.20356660351E+04  0.25500000920E-02 0.  1.
    10030    2    1    2    0    0  0.00000000000E+00  0.00000000000E+00 -0.72022018344E+03  0.33511118867E+04  0.32728021273E+04 0.  0.
        3    1    3    3  502    0  0.75667964579E+03 -0.12033295943E+04  0.46999276883E+03  0.14971504306E+04  0.10100000352E+00 0. -1.
       -3    1    3    3    0  502 -0.75667964579E+03  0.12033295943E+04 -0.11902129523E+04  0.18539614561E+04  0.10100000352E+00 0.  1.
</event>
<event>
 5   0  0.3749685E-07  0.3334028E+04  0.7818609E-02  0.8154290E-01
        1   -1    0    0  501    0  0.00000000000E+00  0.00000000000E+00  0.21680002458E+04  0.21680002458E+04  0.50400001928E-02 0. -1.
       -1   -1    0    0    0  501  0.00000000000E+00  0.00000000000E+00 -0.12817970508E+04  0.12817970508E+04  0.50400001928E-02 0.  1.
    10030    2    1    2    0    0  0.00000000000E+00  0.00000000000E+00  0.88620319494E+03  0.34497972966E+04  0.33340283870E+04 0.  0.
        3    1    3    3  502    0  0.10155658142E+04 -0.70145309458E+03  0.16025118327E+04  0.20227344243E+04  0.10100000352E+00 0.  1.
       -3    1    3    3    0  502 -0.10155658142E+04  0.70145309458E+03 -0.71630863776E+03  0.14270628724E+04  0.10100000352E+00 0. -1.
</event>
<event>
 5   0  0.1120545E-06  0.3301248E+04  0.7818609E-02  0.8162578E-01
        2   -1    0    0  501    0  0.00000000000E+00  0.00000000000E+00  0.11759933014E+04  0.11759933014E+04  0.25500000920E-02 0. -1.
       -2   -1    0    0    0  501  0.00000000000E+00  0.00000000000E+00 -0.23168162159E+04  0.23168162159E+04  0.25500000920E-02 0.  1.
    10030    2    1    2    0    0  0.00000000000E+00  0.00000000000E+00 -0.11408229145E+04  0.34928095173E+04  0.33012484610E+04 0.  0.
        4    1    3    3  502    0 -0.77538700732E+03  0.78033868535E+02 -0.21099203103E+04  0.22492397881E+04  0.12699999809E+01 0.  1.
       -4    1    3    3    0  502  0.77538700732E+03 -0.78033868535E+02  0.96909739579E+03  0.12435697291E+04  0.12699999809E+01 0. -1.
</event>
<event>
 5   0  0.3749685E-07  0.3297261E+04  0.7818609E-02  0.8163593E-01
        1   -1    0    0  501    0  0.00000000000E+00  0.00000000000E+00  0.13013912058E+04  0.13013912058E+04  0.50400001928E-02 0.  1.
       -1   -1    0    0    0  501  0.00000000000E+00  0.00000000000E+00 -0.20885205165E+04  0.20885205165E+04  0.50400001928E-02 0. -1.
    10030    2    1    2    0    0  0.00000000000E+00  0.00000000000E+00 -0.78712931072E+03  0.33899117223E+04  0.32972608227E+04 0.  0.
        3    1    3    3  502    0  0.11603609869E+04 -0.33598012096E+03  0.75986108752E+03  0.14271331907E+04  0.10100000352E+00 0.  1.
       -3    1    3    3    0  502 -0.11603609869E+04  0.33598012096E+03 -0.15469903982E+04  0.19627785316E+04  0.10100000352E+00 0. -1.
</event>
<event>
 5   0  0.3749685E-07  0.3293584E+04  0.7818609E-02  0.8164530E-01
       -1   -1    0    0    0  501  0.00000000000E+00  0.00000000000E+00  0.21281385660E+04  0.21281385660E+04  0.50400001928E-02 0.  1.
        1   -1    0    0  501    0  0.00000000000E+00  0.00000000000E+00 -0.12743174719E+04  0.12743174719E+04  0.50400001928E-02 0. -1.
    10030    2    1    2    0    0  0.00000000000E+00  0.00000000000E+00  0.85382109410E+03  0.34024560379E+04  0.32935841615E+04 0.  0.
        3    1    3    3  502    0  0.58003254360E+03  0.13264884210E+04  0.12376552124E+04  0.19046783764E+04  0.10100000352E+00 0.  1.
       -3    1    3    3    0  502 -0.58003254360E+03 -0.13264884210E+04 -0.38383411828E+03  0.14977776615E+04  0.10100000352E+00 0. -1.
</event>
<event>
 5   0  0.1146799E-06  0.3294109E+04  0.7818609E-02  0.8164396E-01
        2   -1    0    0  501    0  0.00000000000E+00  0.00000000000E+00  0.24475515892E+04  0.24475515892E+04  0.25500000920E-02 0.  1.
       -2   -1    0    0    0  501  0.00000000000E+00  0.00000000000E+00 -0.11083682862E+04  0.11083682862E+04  0.25500000920E-02 0. -1.
    10030    2    1    2    0    0  0.00000000000E+00  0.00000000000E+00  0.13391833030E+04  0.35559198753E+04  0.32941090208E+04 0.  0.
        5    1    3    3  502    0 -0.32803534751E+03 -0.15838970973E+04  0.10048027807E+04  0.19042026999E+04  0.46999998093E+01 0. -1.
       -5    1    3    3    0  502  0.32803534751E+03  0.15838970973E+04  0.33438052228E+03  0.16517171755E+04  0.46999998093E+01 0.  1.
</event>
<event>
 5   0  0.3709747E-07  0.3301815E+04  0.7818609E-02  0.8162434E-01
        1   -1    0    0  501    0  0.00000000000E+00  0.00000000000E+00  0.15348753491E+04  0.15348753491E+04  0.50400001928E-02 0. -1.
       -1   -1    0    0    0  501  0.00000000000E+00  0.00000000000E+00 -0.17757118380E+04  0.17757118380E+04  0.50400001928E-02 0.  1.
    10030    2    1    2    0    0  0.00000000000E+00  0.00000000000E+00 -0.24083648890E+03  0.33105871870E+04  0.33018154565E+04 0.  0.
        4    1    3    3  502    0 -0.13557590663E+04 -0.50411790465E+03  0.67748303609E+03  0.15972483792E+04  0.12699999809E+01 0. -1.
       -4    1    3    3    0  502  0.13557590663E+04  0.50411790465E+03 -0.91831952499E+03  0.17133388079E+04  0.12699999809E+01 0.  1.
</event>
<event>
 5   0  0.3749685E-07  0.3316020E+04  0.7818609E-02  0.8158831E-01
       -1   -1    0    0    0  501  0.00000000000E+00  0.00000000000E+00  0.17747140989E+04  0.17747140989E+04  0.50400001928E-02 0. -1.
        1   -1    0    0  501    0  0.00000000000E+00  0.00000000000E+00 -0.15489800121E+04  0.15489800121E+04  0.50400001928E-02 0.  1.
    10030    2    1    2    0    0  0.00000000000E+00  0.00000000000E+00  0.22573408686E+03  0.33236941110E+04  0.33160197023E+04 0.  0.
        3    1    3    3  502    0  0.55785914956E+02 -0.13058619045E+04 -0.90959640467E+03  0.15924047888E+04  0.10100000352E+00 0. -1.
       -3    1    3    3    0  502 -0.55785914956E+02  0.13058619045E+04  0.11353304915E+04  0.17312893222E+04  0.10100000352E+00 0.  1.
</event>
<event>
 5   0  0.1126221E-06  0.3319297E+04  0.7818609E-02  0.8158003E-01
        2   -1    0    0  501    0  0.00000000000E+00  0.00000000000E+00  0.18735222887E+04  0.18735222887E+04  0.25500000920E-02 0.  1.
       -2   -1    0    0    0  501  0.00000000000E+00  0.00000000000E+00 -0.14701897299E+04  0.14701897299E+04  0.25500000920E-02 0. -1.
    10030    2    1    2    0    0  0.00000000000E+00  0.00000000000E+00  0.40333255876E+03  0.33437120186E+04  0.33192970506E+04 0.  0.
        2    1    3    3  502    0 -0.10714872603E+04 -0.12661671001E+04  0.14495697020E+03  0.16650154947E+04  0.25500000920E-02 0. -1.
       -2    1    3    3    0  502  0.10714872603E+04  0.12661671001E+04  0.25837558857E+03  0.16786965239E+04  0.25500000920E-02 0.  1.
</event>
<event>
 5   0  0.3757406E-07  0.3300182E+04  0.7818609E-02  0.8162849E-01
       -1   -1    0    0    0  501  0.00000000000E+00  0.00000000000E+00  0.22721566471E+04  0.22721566471E+04  0.50400001928E-02 0.  1.
        1   -1    0    0  501    0  0.00000000000E+00  0.00000000000E+00 -0.11983327565E+04  0.11983327565E+04  0.50400001928E-02 0. -1.
    10030    2    1    2    0    0  0.00000000000E+00  0.00000000000E+00  0.10738238906E+04  0.34704894036E+04  0.33001816545E+04 0.  0.
        1    1    3    3  502    0 -0.10887644251E+04 -0.10330187922E+04  0.12580588038E+04  0.19583788582E+04  0.50400001928E-02 0.  1.
       -1    1    3    3    0  502  0.10887644251E+04  0.10330187922E+04 -0.18423491315E+03  0.15121105454E+04  0.50400001928E-02 0. -1.
</event>
<event>
 5   0  0.1116462E-06  0.3297555E+04  0.7818609E-02  0.8163518E-01
        2   -1    0    0  501    0  0.00000000000E+00  0.00000000000E+00  0.19498680424E+04  0.19498680424E+04  0.25500000920E-02 0.  1.
       -2   -1    0    0    0  501  0.00000000000E+00  0.00000000000E+00 -0.13941798665E+04  0.13941798665E+04  0.25500000920E-02 0. -1.
    10030    2    1    2    0    0  0.00000000000E+00  0.00000000000E+00  0.55568817591E+03  0.33440479090E+04  0.32975547105E+04 0.  0.
        1    1    3    3  502    0  0.15559696516E+04 -0.51836428632E+03  0.10597392058E+03  0.16434638912E+04  0.50400001928E-02 0. -1.
       -1    1    3    3    0  502 -0.15559696516E+04  0.51836428632E+03  0.44971425533E+03  0.17005840177E+04  0.50400001928E-02 0.  1.
</event>
<event>
 5   0  0.3674967E-07  0.3277622E+04  0.7818609E-02  0.8168613E-01
        1   -1    0    0  501    0  0.00000000000E+00  0.00000000000E+00  0.19316520021E+04  0.19316520021E+04  0.50400001928E-02 0. -1.
       -1   -1    0    0    0  501  0.00000000000E+00  0.00000000000E+00 -0.13903650587E+04  0.13903650587E+04  0.50400001928E-02 0.  1.
    10030    2    1    2    0    0  0.00000000000E+00  0.00000000000E+00  0.54128694343E+03  0.33220170608E+04  0.32776219728E+04 0.  0.
        2    1    3    3  502    0  0.95371630614E+03 -0.63776417094E+03  0.14567004263E+04  0.18542637521E+04  0.25500000920E-02 0. -1.
       -2    1    3    3    0  502 -0.95371630614E+03  0.63776417094E+03 -0.91541348291E+03  0.14677533086E+04  0.25500000920E-02 0.  1.
</event>
<event>
 5   0  0.3709747E-07  0.3289735E+04  0.7818609E-02  0.8165512E-01
        1   -1    0    0  501    0  0.00000000000E+00  0.00000000000E+00  0.17607546192E+04  0.17607546192E+04  0.50400001928E-02 0. -1.
       -1   -1    0    0    0  501  0.00000000000E+00  0.00000000000E+00 -0.15366077257E+04  0.15366077257E+04  0.50400001928E-02 0.  1.
    10030    2    1    2    0    0  0.00000000000E+00  0.00000000000E+00  0.22414689346E+03  0.32973623449E+04  0.32897350355E+04 0.  0.
        4    1    3    3  502    0 -0.11188789260E+04  0.10538659163E+04 -0.47500130347E+03  0.16087732195E+04  0.12699999809E+01 0.  1.
       -4    1    3    3    0  502  0.11188789260E+04 -0.10538659163E+04  0.69914819693E+03  0.16885891255E+04  0.12699999809E+01 0. -1.
</event>
<event>
 5   0  0.1129434E-06  0.3287824E+04  0.7818609E-02  0.8166000E-01
        2   -1    0    0  501    0  0.00000000000E+00  0.00000000000E+00  0.10032788230E+04  0.10032788230E+04  0.25500000920E-02 0.  1.
       -2   -1    0    0    0  501  0.00000000000E+00  0.00000000000E+00 -0.26936147868E+04  0.26936147868E+04  0.25500000920E-02 0. -1.
    10030    2    1    2    0    0  0.00000000000E+00  0.00000000000E+00 -0.16903359638E+04  0.36968936098E+04  0.32878240057E+04 0.  0.
        3    1    3    3  502    0 -0.13816541393E+04  0.64097133602E+03 -0.15407050981E+04  0.21664682374E+04  0.10100000352E+00 0. -1.
       -3    1    3    3    0  502  0.13816541393E+04 -0.64097133602E+03 -0.14963086565E+03  0.15304253724E+04  0.10100000352E+00 0.  1.
</event>
<event>
 5   0  0.3749685E-07  0.3295783E+04  0.7818609E-02  0.8163969E-01
       -1   -1    0    0    0  501  0.00000000000E+00  0.00000000000E+00  0.14030882379E+04  0.14030882379E+04  0.50400001928E-02 0. -1.
        1   -1    0    0  501    0  0.00000000000E+00  0.00000000000E+00 -0.19354067423E+04  0.19354067423E+04  0.50400001928E-02 0.  1.
    10030    2    1    2    0    0  0.00000000000E+00  0.00000000000E+00 -0.53231850439E+03  0.33384949801E+04  0.32957830242E+04 0.  0.
        3    1    3    3  502    0  0.37134513970E+03 -0.15908747126E+04 -0.48521831640E+03  0.17041761613E+04  0.10100000352E+00 0.  1.
       -3    1    3    3    0  502 -0.37134513970E+03  0.15908747126E+04 -0.47100187986E+02  0.16343188189E+04  0.10100000352E+00 0. -1.
</event>
<event>
 5   0  0.1126221E-06  0.3287204E+04  0.7818609E-02  0.8166159E-01
        2   -1    0    0  501    0  0.00000000000E+00  0.00000000000E+00  0.21056403288E+04  0.21056403288E+04  0.25500000920E-02 0.  1.
       -2   -1    0    0    0  501  0.00000000000E+00  0.00000000000E+00 -0.12829479185E+04  0.12829479185E+04  0.25500000920E-02 0. -1.
    10030    2    1    2    0    0  0.00000000000E+00  0.00000000000E+00  0.82269241034E+03  0.33885882473E+04  0.32872036000E+04 0.  0.
        2    1    3    3  502    0 -0.13524382847E+04  0.15824267748E+03  0.13602233456E+04  0.19246655836E+04  0.25500000920E-02 0.  1.
       -2    1    3    3    0  502  0.13524382847E+04 -0.15824267748E+03 -0.53753093525E+03  0.14639226637E+04  0.25500000920E-02 0. -1.
</event>
<event>
 5   0  0.1129434E-06  0.3298391E+04  0.7818609E-02  0.8163305E-01
       -2   -1    0    0    0  501  0.00000000000E+00  0.00000000000E+00  0.13705161662E+04  0.13705161662E+04  0.25500000920E-02 0.  1.
        2   -1    0    0  501    0  0.00000000000E+00  0.00000000000E+00 -0.19845407738E+04  0.19845407738E+04  0.25500000920E-02 0. -1.
    10030    2    1    2    0    0  0.00000000000E+00  0.00000000000E+00 -0.61402460767E+03  0.33550569400E+04  0.32983906457E+04 0.  0.
        3    1    3    3  502    0 -0.64737452438E+03 -0.11835823139E+04  0.65790734639E+03  0.15009340276E+04  0.10100000352E+00 0.  1.
       -3    1    3    3    0  502  0.64737452438E+03  0.11835823139E+04 -0.12719319541E+04  0.18541229124E+04  0.10100000352E+00 0. -1.
</event>
<event>
 5   0  0.1126221E-06  0.3062504E+04  0.7818609E-02  0.8226104E-01
        2   -1    0    0  501    0  0.00000000000E+00  0.00000000000E+00  0.28532778231E+04  0.28532778231E+04  0.25500000920E-02 0.  1.
       -2   -1    0    0    0  501  0.00000000000E+00  0.00000000000E+00 -0.82176804340E+03  0.82176804340E+03  0.25500000920E-02 0. -1.
    10030    2    1    2    0    0  0.00000000000E+00  0.00000000000E+00  0.20315097797E+04  0.36750458665E+04  0.30625038998E+04 0.  0.
        2    1    3    3  502    0 -0.22304152236E+03  0.15144031846E+04  0.96823666457E+03  0.18112555769E+04  0.25500000920E-02 0.  1.
       -2    1    3    3    0  502  0.22304152236E+03 -0.15144031846E+04  0.10632731152E+04  0.18637902896E+04  0.25500000920E-02 0. -1.
</event>
<event>
 5   0  0.1126221E-06  0.3282098E+04  0.7818609E-02  0.8167466E-01
        2   -1    0    0  501    0  0.00000000000E+00  0.00000000000E+00  0.15553815843E+04  0.15553815843E+04  0.25500000920E-02 0.  1.
       -2   -1    0    0    0  501  0.00000000000E+00  0.00000000000E+00 -0.17314348581E+04  0.17314348581E+04  0.25500000920E-02 0. -1.
    10030    2    1    2    0    0  0.00000000000E+00  0.00000000000E+00 -0.17605327387E+03  0.32868164424E+04  0.32820980441E+04 0.  0.
        2    1    3    3  502    0  0.16000487826E+04 -0.19120898459E+03 -0.39883536562E+03  0.16600562133E+04  0.25500000920E-02 0.  1.
       -2    1    3    3    0  502 -0.16000487826E+04  0.19120898459E+03  0.22278209174E+03  0.16267602291E+04  0.25500000920E-02 0. -1.
</event>
<event>
 5   0  0.3796529E-07  0.3297014E+04  0.7818609E-02  0.8163656E-01
       -1   -1    0    0    0  501  0.00000000000E+00  0.00000000000E+00  0.10151500586E+04  0.10151500586E+04  0.50400001928E-02 0.  1.
        1   -1    0    0  501    0  0.00000000000E+00  0.00000000000E+00 -0.26770183506E+04  0.26770183506E+04  0.50400001928E-02 0. -1.
    10030    2    1    2    0    0  0.00000000000E+00  0.00000000000E+00 -0.16618682920E+04  0.36921684092E+04  0.32970140039E+04 0.  0.
        5    1    3    3  502    0  0.10867697485E+04 -0.11188814573E+04 -0.23352784559E+03  0.15771878602E+04  0.46999998093E+01 0.  1.
       -5    1    3    3    0  502 -0.10867697485E+04  0.11188814573E+04 -0.14283404464E+04  0.21149805490E+04  0.46999998093E+01 0. -1.
</event>
<event>
 5   0  0.3757406E-07  0.3308786E+04  0.7818609E-02  0.8160663E-01
       -1   -1    0    0    0  501  0.00000000000E+00  0.00000000000E+00  0.15057698753E+04  0.15057698753E+04  0.50400001928E-02 0.  1.
        1   -1    0    0  501    0  0.00000000000E+00  0.00000000000E+00 -0.18176856158E+04  0.18176856158E+04  0.50400001928E-02 0. -1.
    10030    2    1    2    0    0  0.00000000000E+00  0.00000000000E+00 -0.31191574049E+03  0.33234554912E+04  0.33087860270E+04 0.  0.
        1    1    3    3  502    0  0.68068709568E+03  0.13149190964E+04  0.58533111846E+03  0.15921556678E+04  0.50400001928E-02 0.  1.
       -1    1    3    3    0  502 -0.68068709568E+03 -0.13149190964E+04 -0.89724685895E+03  0.17312998233E+04  0.50400001928E-02 0. -1.
</event>
<event>
 5   0  0.1126221E-06  0.3317813E+04  0.7818609E-02  0.8158378E-01
       -2   -1    0    0    0  501  0.00000000000E+00  0.00000000000E+00  0.13683308698E+04  0.13683308698E+04  0.25500000920E-02 0. -1.
        2   -1    0    0  501    0  0.00000000000E+00  0.00000000000E+00 -0.20111877687E+04  0.20111877687E+04  0.25500000920E-02 0.  1.
    10030    2    1    2    0    0  0.00000000000E+00  0.00000000000E+00 -0.64285689897E+03  0.33795186385E+04  0.33178127186E+04 0.  0.
        2    1    3    3  502    0  0.17988501784E+03 -0.15168845050E+03  0.13512460227E+04  0.13715807740E+04  0.25500000920E-02 0. -1.
       -2    1    3    3    0  502 -0.17988501784E+03  0.15168845050E+03 -0.19941029217E+04  0.20079378646E+04  0.25500000920E-02 0.  1.
</event>
<event>
 5   0  0.1126221E-06  0.3281737E+04  0.7818609E-02  0.8167558E-01
        2   -1    0    0  501    0  0.00000000000E+00  0.00000000000E+00  0.18191068170E+04  0.18191068170E+04  0.25500000920E-02 0.  1.
       -2   -1    0    0    0  501  0.00000000000E+00  0.00000000000E+00 -0.14800941457E+04  0.14800941457E+04  0.25500000920E-02 0. -1.
    10030    2    1    2    0    0  0.00000000000E+00  0.00000000000E+00  0.33901267131E+03  0.32992009627E+04  0.32817369487E+04 0.  0.
        2    1    3    3  502    0 -0.16184222244E+04  0.27046117620E+03  0.17262215276E+03  0.16499206502E+04  0.25500000920E-02 0.  1.
       -2    1    3    3    0  502  0.16184222244E+04 -0.27046117620E+03  0.16639051855E+03  0.16492803125E+04  0.25500000920E-02 0. -1.
</event>
<event>
 5   0  0.1129434E-06  0.3312721E+04  0.7818609E-02  0.8159666E-01
       -2   -1    0    0    0  501  0.00000000000E+00  0.00000000000E+00  0.16508185481E+04  0.16508185481E+04  0.25500000920E-02 0. -1.
        2   -1    0    0  501    0  0.00000000000E+00  0.00000000000E+00 -0.16619208013E+04  0.16619208013E+04  0.25500000920E-02 0.  1.
    10030    2    1    2    0    0  0.00000000000E+00  0.00000000000E+00 -0.11102253171E+02  0.33127393494E+04  0.33127207454E+04 0.  0.
        3    1    3    3  502    0  0.74680294436E+03 -0.11126483294E+04  0.96801930093E+03  0.16531068689E+04  0.10100000352E+00 0. -1.
       -3    1    3    3    0  502 -0.74680294436E+03  0.11126483294E+04 -0.97912155410E+03  0.16596324806E+04  0.10100000352E+00 0.  1.
</event>
<event>
 5   0  0.3674967E-07  0.3319711E+04  0.7818609E-02  0.8157898E-01
        1   -1    0    0  501    0  0.00000000000E+00  0.00000000000E+00  0.19715744626E+04  0.19715744626E+04  0.50400001928E-02 0.  1.
       -1   -1    0    0    0  501  0.00000000000E+00  0.00000000000E+00 -0.13974216777E+04  0.13974216777E+04  0.50400001928E-02 0. -1.
    10030    2    1    2    0    0  0.00000000000E+00  0.00000000000E+00  0.57415278492E+03  0.33689961403E+04  0.33197113689E+04 0.  0.
        2    1    3    3  502    0 -0.31451310180E+03  0.69114975058E+03  0.17849680692E+04  0.19397725323E+04  0.25500000920E-02 0.  1.
       -2    1    3    3    0  502  0.31451310180E+03 -0.69114975058E+03 -0.12108152843E+04  0.14292236080E+04  0.25500000920E-02 0. -1.
</event>
<event>
 5   0  0.3757406E-07  0.3322273E+04  0.7818609E-02  0.8157251E-01
        1   -1    0    0  501    0  0.00000000000E+00  0.00000000000E+00  0.28790856670E+04  0.28790856670E+04  0.50400001928E-02 0. -1.
       -1   -1    0    0    0  501  0.00000000000E+00  0.00000000000E+00 -0.95842028419E+03  0.95842028420E+03  0.50400001928E-02 0.  1.
    10030    2    1    2    0    0  0.00000000000E+00  0.00000000000E+00  0.19206653828E+04  0.38375059512E+04  0.33222727782E+04 0.  0.
        1    1    3    3  502    0  0.49408622440E+03  0.15176173574E+04  0.42837836665E+03  0.16525107157E+04  0.50400001928E-02 0.  1.
       -1    1    3    3    0  502 -0.49408622440E+03 -0.15176173574E+04  0.14922870162E+04  0.21849952355E+04  0.50400001928E-02 0. -1.
</event>
<event>
 5   0  0.1126221E-06  0.3285877E+04  0.7818609E-02  0.8166498E-01
        2   -1    0    0  501    0  0.00000000000E+00  0.00000000000E+00  0.18873845091E+04  0.18873845091E+04  0.25500000920E-02 0.  1.
       -2   -1    0    0    0  501  0.00000000000E+00  0.00000000000E+00 -0.14301521647E+04  0.14301521647E+04  0.25500000920E-02 0. -1.
    10030    2    1    2    0    0  0.00000000000E+00  0.00000000000E+00  0.45723234444E+03  0.33175366738E+04  0.32858770770E+04 0.  0.
        2    1    3    3  502    0 -0.18094689301E+03 -0.12784178367E+04  0.12543542551E+04  0.18001384782E+04  0.25500000920E-02 0.  1.
       -2    1    3    3    0  502  0.18094689301E+03  0.12784178367E+04 -0.79712191068E+03  0.15173981956E+04  0.25500000920E-02 0. -1.
</event>
<event>
 5   0  0.1146799E-06  0.3314581E+04  0.7818609E-02  0.8159195E-01
        2   -1    0    0  501    0  0.00000000000E+00  0.00000000000E+00  0.20053569762E+04  0.20053569762E+04  0.25500000920E-02 0.  1.
       -2   -1    0    0    0  501  0.00000000000E+00  0.00000000000E+00 -0.13696374207E+04  0.13696374207E+04  0.25500000920E-02 0. -1.
    10030    2    1    2    0    0  0.00000000000E+00  0.00000000000E+00  0.63571955557E+03  0.33749943969E+04  0.33145810936E+04 0.  0.
        5    1    3    3  502    0 -0.55054747465E+03  0.14095992244E+04  0.10058354184E+04  0.18170854339E+04  0.46999998093E+01 0.  1.
       -5    1    3    3    0  502  0.55054747465E+03 -0.14095992244E+04 -0.37011586278E+03  0.15579089630E+04  0.46999998093E+01 0. -1.
</event>
<event>
 5   0  0.3674967E-07  0.3309113E+04  0.7818609E-02  0.8160580E-01
       -1   -1    0    0    0  501  0.00000000000E+00  0.00000000000E+00  0.17350326962E+04  0.17350326962E+04  0.50400001928E-02 0. -1.
        1   -1    0    0  501    0  0.00000000000E+00  0.00000000000E+00 -0.15778134480E+04  0.15778134480E+04  0.50400001928E-02 0.  1.
    10030    2    1    2    0    0  0.00000000000E+00  0.00000000000E+00  0.15721924823E+03  0.33128461442E+04  0.33091134285E+04 0.  0.
        2    1    3    3  502    0  0.14870095743E+04  0.37316935802E+02 -0.64675435332E+03  0.16219991434E+04  0.25500000920E-02 0.  1.
       -2    1    3    3    0  502 -0.14870095743E+04 -0.37316935802E+02  0.80397360155E+03  0.16908470007E+04  0.25500000920E-02 0. -1.
</event>
<event>
 5   0  0.3796529E-07  0.3315757E+04  0.7818609E-02  0.8158898E-01
       -1   -1    0    0    0  501  0.00000000000E+00  0.00000000000E+00  0.17489986300E+04  0.17489986300E+04  0.50400001928E-02 0.  1.
        1   -1    0    0  501    0  0.00000000000E+00  0.00000000000E+00 -0.15715056111E+04  0.15715056111E+04  0.50400001928E-02 0. -1.
    10030    2    1    2    0    0  0.00000000000E+00  0.00000000000E+00  0.17749301886E+03  0.33205042411E+04  0.33157570242E+04 0.  0.
        5    1    3    3  502    0 -0.14732869685E+04 -0.28510964929E+02  0.84953920118E+03  0.17009192547E+04  0.46999998093E+01 0.  1.
       -5    1    3    3    0  502  0.14732869685E+04  0.28510964929E+02 -0.67204618231E+03  0.16195849863E+04  0.46999998093E+01 0. -1.
</event>
<event>
 5   0  0.1120545E-06  0.3304640E+04  0.7818609E-02  0.8161716E-01
        2   -1    0    0  501    0  0.00000000000E+00  0.00000000000E+00  0.18696940719E+04  0.18696940719E+04  0.25500000920E-02 0. -1.
       -2   -1    0    0    0  501  0.00000000000E+00  0.00000000000E+00 -0.14602182018E+04  0.14602182018E+04  0.25500000920E-02 0.  1.
    10030    2    1    2    0    0  0.00000000000E+00  0.00000000000E+00  0.40947587005E+03  0.33299122737E+04  0.33046399596E+04 0.  0.
        4    1    3    3  502    0 -0.16361975599E+04 -0.65865786681E+02  0.42705828882E+03  0.16922946409E+04  0.12699999809E+01 0.  1.
       -4    1    3    3    0  502  0.16361975599E+04  0.65865786681E+02 -0.17582418772E+02  0.16376176328E+04  0.12699999809E+01 0. -1.
</event>
<event>
 5   0  0.3749685E-07  0.3250627E+04  0.7818609E-02  0.8175573E-01
       -1   -1    0    0    0  501  0.00000000000E+00  0.00000000000E+00  0.17347111520E+04  0.17347111520E+04  0.50400001928E-02 0.  1.
        1   -1    0    0  501    0  0.00000000000E+00  0.00000000000E+00 -0.15228150060E+04  0.15228150060E+04  0.50400001928E-02 0. -1.
    10030    2    1    2    0    0  0.00000000000E+00  0.00000000000E+00  0.21189614608E+03  0.32575261580E+04  0.32506271231E+04 0.  0.
        3    1    3    3  502    0 -0.83239331503E+03  0.38184744514E+03  0.14515406087E+04  0.17162914237E+04  0.10100000352E+00 0.  1.
       -3    1    3    3    0  502  0.83239331503E+03 -0.38184744514E+03 -0.12396444626E+04  0.15412347343E+04  0.10100000352E+00 0. -1.
</event>
<event>
 5   0  0.3674967E-07  0.3285961E+04  0.7818609E-02  0.8166477E-01
        1   -1    0    0  501    0  0.00000000000E+00  0.00000000000E+00  0.12576286138E+04  0.12576286138E+04  0.50400001928E-02 0. -1.
       -1   -1    0    0    0  501  0.00000000000E+00  0.00000000000E+00 -0.21464089076E+04  0.21464089076E+04  0.50400001928E-02 0.  1.
    10030    2    1    2    0    0  0.00000000000E+00  0.00000000000E+00 -0.88878029373E+03  0.34040375214E+04  0.32859612044E+04 0.  0.
        2    1    3    3  502    0  0.60665361371E+03 -0.52501764461E+02  0.11364187579E+04  0.12892760122E+04  0.25500000920E-02 0. -1.
       -2    1    3    3    0  502 -0.60665361371E+03  0.52501764461E+02 -0.20251990516E+04  0.21147615092E+04  0.25500000920E-02 0.  1.
</event>
<event>
 5   0  0.1126221E-06  0.3308427E+04  0.7818609E-02  0.8160754E-01
       -2   -1    0    0    0  501  0.00000000000E+00  0.00000000000E+00  0.11433508789E+04  0.11433508789E+04  0.25500000920E-02 0. -1.
        2   -1    0    0  501    0  0.00000000000E+00  0.00000000000E+00 -0.23933358902E+04  0.23933358902E+04  0.25500000920E-02 0.  1.
    10030    2    1    2    0    0  0.00000000000E+00  0.00000000000E+00 -0.12499850113E+04  0.35366867691E+04  0.33084272358E+04 0.  0.
        2    1    3    3  502    0  0.67058342662E+03 -0.15074827532E+04 -0.49744448212E+03  0.17232635887E+04  0.25500000920E-02 0. -1.
       -2    1    3    3    0  502 -0.67058342662E+03  0.15074827532E+04 -0.75254052921E+03  0.18134231804E+04  0.25500000920E-02 0.  1.
</event>
<event>
 5   0  0.1146799E-06  0.3296408E+04  0.7818609E-02  0.8163810E-01
       -2   -1    0    0    0  501  0.00000000000E+00  0.00000000000E+00  0.29199094965E+04  0.29199094965E+04  0.25500000920E-02 0.  1.
        2   -1    0    0  501    0  0.00000000000E+00  0.00000000000E+00 -0.93036310771E+03  0.93036310772E+03  0.25500000920E-02 0. -1.
    10030    2    1    2    0    0  0.00000000000E+00  0.00000000000E+00  0.19895463888E+04  0.38502726042E+04  0.32964077863E+04 0.  0.
        5    1    3    3  502    0 -0.54059235470E+03 -0.14152267416E+04  0.17530401204E+04  0.23169545912E+04  0.46999998093E+01 0.  1.
       -5    1    3    3    0  502  0.54059235470E+03  0.14152267416E+04  0.23650626837E+03  0.15333180130E+04  0.46999998093E+01 0. -1.
</event>
<event>
 5   0  0.3709747E-07  0.3318801E+04  0.7818609E-02  0.8158128E-01
       -1   -1    0    0    0  501  0.00000000000E+00  0.00000000000E+00  0.24908321743E+04  0.24908321743E+04  0.50400001928E-02 0. -1.
        1   -1    0    0  501    0  0.00000000000E+00  0.00000000000E+00 -0.11054980385E+04  0.11054980385E+04  0.50400001928E-02 0.  1.
    10030    2    1    2    0    0  0.00000000000E+00  0.00000000000E+00  0.13853341358E+04  0.35963302128E+04  0.33188010383E+04 0.  0.
        4    1    3    3  502    0 -0.35322680660E+03 -0.31620315469E+03 -0.10305512251E+04  0.11343681291E+04  0.12699999809E+01 0.  1.
       -4    1    3    3    0  502  0.35322680660E+03  0.31620315469E+03  0.24158853609E+04  0.24619620837E+04  0.12699999809E+01 0. -1.
</event>
<event>
 5   0  0.1146799E-06  0.3314799E+04  0.7818609E-02  0.8159140E-01
       -2   -1    0    0    0  501  0.00000000000E+00  0.00000000000E+00  0.12009739703E+04  0.12009739703E+04  0.25500000920E-02 0.  1.
        2   -1    0    0  501    0  0.00000000000E+00  0.00000000000E+00 -0.22872876315E+04  0.22872876315E+04  0.25500000920E-02 0. -1.
    10030    2    1    2    0    0  0.00000000000E+00  0.00000000000E+00 -0.10863136612E+04  0.34882616018E+04  0.33147988827E+04 0.  0.
        5    1    3    3  502    0  0.13016941173E+04 -0.84088212598E+02  0.53283296564E+03  0.14090462951E+04  0.46999998093E+01 0.  1.
       -5    1    3    3    0  502 -0.13016941173E+04  0.84088212598E+02 -0.16191466268E+04  0.20792153067E+04  0.46999998093E+01 0. -1.
</event>
<event>
 5   0  0.3749685E-07  0.3307654E+04  0.7818609E-02  0.8160950E-01
       -1   -1    0    0    0  501  0.00000000000E+00  0.00000000000E+00  0.10588903432E+04  0.10588903432E+04  0.50400001928E-02 0. -1.
        1   -1    0    0  501    0  0.00000000000E+00  0.00000000000E+00 -0.25830288385E+04  0.25830288385E+04  0.50400001928E-02 0.  1.
    10030    2    1    2    0    0  0.00000000000E+00  0.00000000000E+00 -0.15241384953E+04  0.36419191816E+04  0.33076543309E+04 0.  0.
        3    1    3    3  502    0 -0.86281093727E+02  0.16412855377E+04 -0.96474061443E+03  0.19057772973E+04  0.10100000352E+00 0.  1.
       -3    1    3    3    0  502  0.86281093727E+02 -0.16412855377E+04 -0.55939788085E+03  0.17361418844E+04  0.10100000352E+00 0. -1.
</event>
<event>
 5   0  0.1126221E-06  0.3313696E+04  0.7818609E-02  0.8159419E-01
       -2   -1    0    0    0  501  0.00000000000E+00  0.00000000000E+00  0.24326623439E+04  0.24326623439E+04  0.25500000920E-02 0.  1.
        2   -1    0    0  501    0  0.00000000000E+00  0.00000000000E+00 -0.11284530177E+04  0.11284530177E+04  0.25500000920E-02 0. -1.
    10030    2    1    2    0    0  0.00000000000E+00  0.00000000000E+00  0.13042093262E+04  0.35611153617E+04  0.33136959204E+04 0.  0.
        2    1    3    3  502    0  0.56893489000E+03  0.89153820651E+02 -0.10174395613E+04  0.11691101632E+04  0.25500000920E-02 0. -1.
       -2    1    3    3    0  502 -0.56893489000E+03 -0.89153820651E+02  0.23216488875E+04  0.23920051985E+04  0.25500000920E-02 0.  1.
</event>
<event>
 5   0  0.1129434E-06  0.3322273E+04  0.7818609E-02  0.8157251E-01
       -2   -1    0    0    0  501  0.00000000000E+00  0.00000000000E+00  0.11115948080E+04  0.11115948080E+04  0.25500000920E-02 0. -1.
        2   -1    0    0  501    0  0.00000000000E+00  0.00000000000E+00 -0.24823557378E+04  0.24823557378E+04  0.25500000920E-02 0.  1.
    10030    2    1    2    0    0  0.00000000000E+00  0.00000000000E+00 -0.13707609298E+04  0.35939505457E+04  0.33222725653E+04 0.  0.
        3    1    3    3  502    0  0.79121739165E+03 -0.91829539191E+03 -0.19140796039E+04  0.22656107626E+04  0.10100000352E+00 0.  1.
       -3    1    3    3    0  502 -0.79121739165E+03  0.91829539191E+03  0.54331867403E+03  0.13283397831E+04  0.10100000352E+00 0. -1.
</event>
<event>
 5   0  0.1116462E-06  0.3168564E+04  0.7818609E-02  0.8197169E-01
       -2   -1    0    0    0  501  0.00000000000E+00  0.00000000000E+00  0.16152361380E+04  0.16152361380E+04  0.25500000920E-02 0.  1.
        2   -1    0    0  501    0  0.00000000000E+00  0.00000000000E+00 -0.15539214556E+04  0.15539214556E+04  0.25500000920E-02 0. -1.
    10030    2    1    2    0    0  0.00000000000E+00  0.00000000000E+00  0.61314682414E+02  0.31691575936E+04  0.31685644009E+04 0.  0.
        1    1    3    3  502    0  0.59773018424E+03  0.27073581426E+03 -0.14116149891E+04  0.15566747033E+04  0.50400001928E-02 0. -1.
       -1    1    3    3    0  502 -0.59773018424E+03 -0.27073581426E+03  0.14729296715E+04  0.16124828903E+04  0.50400001928E-02 0.  1.
</event>
<event>
 5   0  0.3757406E-07  0.3245184E+04  0.7818609E-02  0.8176985E-01
        1   -1    0    0  501    0  0.00000000000E+00  0.00000000000E+00  0.14833970684E+04  0.14833970684E+04  0.50400001928E-02 0.  1.
       -1   -1    0    0    0  501  0.00000000000E+00  0.00000000000E+00 -0.17748481477E+04  0.17748481477E+04  0.50400001928E-02 0. -1.
    10030    2    1    2    0    0  0.00000000000E+00  0.00000000000E+00 -0.29145107929E+03  0.32582452161E+04  0.32451838402E+04 0.  0.
        1    1    3    3  502    0 -0.80697443908E+03  0.31086769559E+03  0.12327380795E+04  0.15058185953E+04  0.50400001928E-02 0.  1.
       -1    1    3    3    0  502  0.80697443908E+03 -0.31086769559E+03 -0.15241891587E+04  0.17524266208E+04  0.50400001928E-02 0. -1.
</event>
<event>
 5   0  0.1129434E-06  0.3291964E+04  0.7818609E-02  0.8164943E-01
        2   -1    0    0  501    0  0.00000000000E+00  0.00000000000E+00  0.21819582405E+04  0.21819582405E+04  0.25500000920E-02 0.  1.
       -2   -1    0    0    0  501  0.00000000000E+00  0.00000000000E+00 -0.12416626280E+04  0.12416626280E+04  0.25500000920E-02 0. -1.
    10030    2    1    2    0    0  0.00000000000E+00  0.00000000000E+00  0.94029561252E+03  0.34236208685E+04  0.32919635497E+04 0.  0.
        3    1    3    3  502    0 -0.10437862322E+04  0.85491840735E+03  0.14506586760E+04  0.19811072122E+04  0.10100000352E+00 0.  1.
       -3    1    3    3    0  502  0.10437862322E+04 -0.85491840735E+03 -0.51036306351E+03  0.14425136563E+04  0.10100000352E+00 0. -1.
</event>
<event>
 5   0  0.3709747E-07  0.3271859E+04  0.7818609E-02  0.8170093E-01
        1   -1    0    0  501    0  0.00000000000E+00  0.00000000000E+00  0.16283569474E+04  0.16283569474E+04  0.50400001928E-02 0.  1.
       -1   -1    0    0    0  501  0.00000000000E+00  0.00000000000E+00 -0.16435367789E+04  0.16435367789E+04  0.50400001928E-02 0. -1.
    10030    2    1    2    0    0  0.00000000000E+00  0.00000000000E+00 -0.15179831498E+02  0.32718937263E+04  0.32718585130E+04 0.  0.
        4    1    3    3  502    0 -0.54447394566E+03 -0.11691340490E+04 -0.10140482710E+04  0.16406162900E+04  0.12699999809E+01 0. -1.
       -4    1    3    3    0  502  0.54447394566E+03  0.11691340490E+04  0.99886843952E+03  0.16312774364E+04  0.12699999809E+01 0.  1.
</event>
<event>
 5   0  0.1146799E-06  0.3338504E+04  0.7818609E-02  0.8153166E-01
       -2   -1    0    0    0  501  0.00000000000E+00  0.00000000000E+00  0.18462234869E+04  0.18462234869E+04  0.25500000920E-02 0. -1.
        2   -1    0    0  501    0  0.00000000000E+00  0.00000000000E+00 -0.15092445802E+04  0.15092445802E+04  0.25500000920E-02 0.  1.
    10030    2    1    2    0    0  0.00000000000E+00  0.00000000000E+00  0.33697890667E+03  0.33554680671E+04  0.33385043307E+04 0.  0.
        5    1    3    3  502    0  0.16134585526E+04  0.42793830682E+03  0.16748128385E+03  0.16776327863E+04  0.46999998093E+01 0. -1.
       -5    1    3    3    0  502 -0.16134585526E+04 -0.42793830682E+03  0.16949762282E+03  0.16778352808E+04  0.46999998093E+01 0.  1.
</event>
<event>
 5   0  0.3709747E-07  0.3288039E+04  0.7818609E-02  0.8165946E-01
       -1   -1    0    0    0  501  0.00000000000E+00  0.00000000000E+00  0.18204578962E+04  0.18204578963E+04  0.50400001928E-02 0. -1.
        1   -1    0    0  501    0  0.00000000000E+00  0.00000000000E+00 -0.14846811137E+04  0.14846811137E+04  0.50400001928E-02 0.  1.
    10030    2    1    2    0    0  0.00000000000E+00  0.00000000000E+00  0.33577678251E+03  0.33051390100E+04  0.32880385989E+04 0.  0.
        4    1    3    3  502    0  0.11307467209E+04  0.88399023201E+03  0.97378800745E+03  0.17344427271E+04  0.12699999809E+01 0. -1.
       -4    1    3    3    0  502 -0.11307467209E+04 -0.88399023201E+03 -0.63801122494E+03  0.15706962829E+04  0.12699999809E+01 0.  1.
</event>
<event>
 5   0  0.3796529E-07  0.3284206E+04  0.7818609E-02  0.8166926E-01
        1   -1    0    0  501    0  0.00000000000E+00  0.00000000000E+00  0.21930977671E+04  0.21930977671E+04  0.50400001928E-02 0. -1.
       -1   -1    0    0    0  501  0.00000000000E+00  0.00000000000E+00 -0.12295406826E+04  0.12295406826E+04  0.50400001928E-02 0.  1.
    10030    2    1    2    0    0  0.00000000000E+00  0.00000000000E+00  0.96355708453E+03  0.34226384497E+04  0.32842064037E+04 0.  0.
        5    1    3    3  502    0  0.85766660966E+03  0.85071487377E+03  0.16409449916E+04  0.20376531514E+04  0.46999998093E+01 0. -1.
       -5    1    3    3    0  502 -0.85766660966E+03 -0.85071487377E+03 -0.67738790711E+03  0.13849852983E+04  0.46999998093E+01 0.  1.
</event>
<event>
 5   0  0.1116462E-06  0.3308822E+04  0.7818609E-02  0.8160654E-01
       -2   -1    0    0    0  501  0.00000000000E+00  0.00000000000E+00  0.27485688951E+04  0.27485688951E+04  0.25500000920E-02 0.  1.
        2   -1    0    0  501    0  0.00000000000E+00  0.00000000000E+00 -0.99581856489E+03  0.99581856489E+03  0.25500000920E-02 0. -1.
    10030    2    1    2    0    0  0.00000000000E+00  0.00000000000E+00  0.17527503302E+04  0.37443874600E+04  0.33088221062E+04 0.  0.
        1    1    3    3  502    0  0.56245011252E+03 -0.13223079492E+04  0.18041989426E+04  0.23065086746E+04  0.50400001928E-02 0.  1.
       -1    1    3    3    0  502 -0.56245011252E+03  0.13223079492E+04 -0.51448612371E+02  0.14378787854E+04  0.50400001928E-02 0. -1.
</event>
<event>
 5   0  0.1120545E-06  0.3325565E+04  0.7818609E-02  0.8156421E-01
       -2   -1    0    0    0  501  0.00000000000E+00  0.00000000000E+00  0.10527931787E+04  0.10527931787E+04  0.25500000920E-02 0. -1.
        2   -1    0    0  501    0  0.00000000000E+00  0.00000000000E+00 -0.26262004251E+04  0.26262004251E+04  0.25500000920E-02 0.  1.
    10030    2    1    2    0    0  0.00000000000E+00  0.00000000000E+00 -0.15734072463E+04  0.36789936038E+04  0.33255651511E+04 0.  0.
        4    1    3    3  502    0  0.39319196379E+03  0.45143136050E+02 -0.25733333478E+04  0.26035905890E+04  0.12699999809E+01 0.  1.
       -4    1    3    3    0  502 -0.39319196379E+03 -0.45143136050E+02  0.99992610145E+03  0.10754030149E+04  0.12699999809E+01 0. -1.
</event>
<event>
 5   0  0.1129434E-06  0.3320575E+04  0.7818609E-02  0.8157680E-01
       -2   -1    0    0    0  501  0.00000000000E+00  0.00000000000E+00  0.97739375659E+03  0.97739375659E+03  0.25500000920E-02 0.  1.
        2   -1    0    0  501    0  0.00000000000E+00  0.00000000000E+00 -0.28203116300E+04  0.28203116300E+04  0.25500000920E-02 0. -1.
    10030    2    1    2    0    0  0.00000000000E+00  0.00000000000E+00 -0.18429178734E+04  0.37977053865E+04  0.33205752386E+04 0.  0.
        3    1    3    3  502    0  0.64469057760E+03 -0.25486593613E+03 -0.26468654750E+04  0.27361431686E+04  0.10100000352E+00 0. -1.
       -3    1    3    3    0  502 -0.64469057760E+03  0.25486593613E+03  0.80394760161E+03  0.10615622180E+04  0.10100000352E+00 0.  1.
</event>
<event>
 5   0  0.3709747E-07  0.3200780E+04  0.7818609E-02  0.8188611E-01
        1   -1    0    0  501    0  0.00000000000E+00  0.00000000000E+00  0.16858716642E+04  0.16858716642E+04  0.50400001928E-02 0. -1.
       -1   -1    0    0    0  501  0.00000000000E+00  0.00000000000E+00 -0.15192427656E+04  0.15192427656E+04  0.50400001928E-02 0.  1.
    10030    2    1    2    0    0  0.00000000000E+00  0.00000000000E+00  0.16662889857E+03  0.32051144298E+04  0.32007801108E+04 0.  0.
        4    1    3    3  502    0 -0.91449589342E+03  0.11565918984E+04  0.70644254512E+03  0.16349526724E+04  0.12699999809E+01 0. -1.
       -4    1    3    3    0  502  0.91449589342E+03 -0.11565918984E+04 -0.53981364655E+03  0.15701617574E+04  0.12699999809E+01 0.  1.
</event>
<event>
 5   0  0.3674967E-07  0.3306254E+04  0.7818609E-02  0.8161306E-01
        1   -1    0    0  501    0  0.00000000000E+00  0.00000000000E+00  0.15254367962E+04  0.15254367962E+04  0.50400001928E-02 0. -1.
       -1   -1    0    0    0  501  0.00000000000E+00  0.00000000000E+00 -0.17915053891E+04  0.17915053891E+04  0.50400001928E-02 0.  1.
    10030    2    1    2    0    0  0.00000000000E+00  0.00000000000E+00 -0.26606859290E+03  0.33169421853E+04  0.33062536146E+04 0.  0.
        2    1    3    3  502    0 -0.37009177783E+03 -0.13030442645E+04 -0.10836925437E+04  0.17347281656E+04  0.25500000920E-02 0.  1.
       -2    1    3    3    0  502  0.37009177783E+03  0.13030442645E+04  0.81762395078E+03  0.15822140197E+04  0.25500000920E-02 0. -1.
</event>
<event>
 5   0  0.1146799E-06  0.3322003E+04  0.7818609E-02  0.8157319E-01
       -2   -1    0    0    0  501  0.00000000000E+00  0.00000000000E+00  0.18836208500E+04  0.18836208500E+04  0.25500000920E-02 0.  1.
        2   -1    0    0  501    0  0.00000000000E+00  0.00000000000E+00 -0.14646927784E+04  0.14646927784E+04  0.25500000920E-02 0. -1.
    10030    2    1    2    0    0  0.00000000000E+00  0.00000000000E+00  0.41892807164E+03  0.33483136284E+04  0.33220029236E+04 0.  0.
        5    1    3    3  502    0 -0.25283689928E+03 -0.20978669804E+03 -0.14316103440E+04  0.14688319248E+04  0.46999998093E+01 0. -1.
       -5    1    3    3    0  502  0.25283689928E+03  0.20978669804E+03  0.18505384156E+04  0.18794817036E+04  0.46999998093E+01 0.  1.
</event>
<event>
 5   0  0.3757406E-07  0.3293597E+04  0.7818609E-02  0.8164527E-01
        1   -1    0    0  501    0  0.00000000000E+00  0.00000000000E+00  0.18517826440E+04  0.18517826440E+04  0.50400001928E-02 0. -1.
       -1   -1    0    0    0  501  0.00000000000E+00  0.00000000000E+00 -0.14645048354E+04  0.14645048354E+04  0.50400001928E-02 0.  1.
    10030    2    1    2    0    0  0.00000000000E+00  0.00000000000E+00  0.38727780860E+03  0.33162874794E+04  0.32935965972E+04 0.  0.
        1    1    3    3  502    0  0.81954992476E+03 -0.11692029331E+04 -0.63253029181E+03  0.15616632633E+04  0.50400001928E-02 0.  1.
       -1    1    3    3    0  502 -0.81954992476E+03  0.11692029331E+04  0.10198081004E+04  0.17546242161E+04  0.50400001928E-02 0. -1.
</event>
<event>
 5   0  0.1129434E-06  0.3309948E+04  0.7818609E-02  0.8160369E-01
        2   -1    0    0  501    0  0.00000000000E+00  0.00000000000E+00  0.86682054982E+03  0.86682054982E+03  0.25500000920E-02 0. -1.
       -2   -1    0    0    0  501  0.00000000000E+00  0.00000000000E+00 -0.31597525621E+04  0.31597525621E+04  0.25500000920E-02 0.  1.
    10030    2    1    2    0    0  0.00000000000E+00  0.00000000000E+00 -0.22929320123E+04  0.40265731120E+04  0.33099477055E+04 0.  0.
        3    1    3    3  502    0 -0.66549507661E+03 -0.42898118461E+03  0.62146163849E+03  0.10065401791E+04  0.10100000352E+00 0. -1.
       -3    1    3    3    0  502  0.66549507661E+03  0.42898118461E+03 -0.29143936508E+04  0.30200329329E+04  0.10100000352E+00 0.  1.
</event>
<event>
 5   0  0.3674967E-07  0.3269313E+04  0.7818609E-02  0.8170748E-01
        1   -1    0    0  501    0  0.00000000000E+00  0.00000000000E+00  0.32677766176E+04  0.32677766176E+04  0.50400001928E-02 0. -1.
       -1   -1    0    0    0  501  0.00000000000E+00  0.00000000000E+00 -0.81771250049E+03  0.81771250051E+03  0.50400001928E-02 0.  1.
    10030    2    1    2    0    0  0.00000000000E+00  0.00000000000E+00  0.24500641171E+04  0.40854891181E+04  0.32693129486E+04 0.  0.
        2    1    3    3  502    0 -0.14233274341E+04  0.39262269223E+03  0.34841675022E+03  0.15170391541E+04  0.25500000920E-02 0.  1.
       -2    1    3    3    0  502  0.14233274341E+04 -0.39262269223E+03  0.21016473669E+04  0.25684499640E+04  0.25500000920E-02 0. -1.
</event>
<event>
 5   0  0.3709747E-07  0.3289533E+04  0.7818609E-02  0.8165564E-01
        1   -1    0    0  501    0  0.00000000000E+00  0.00000000000E+00  0.18081505571E+04  0.18081505571E+04  0.50400001928E-02 0. -1.
       -1   -1    0    0    0  501  0.00000000000E+00  0.00000000000E+00 -0.14961456709E+04  0.14961456709E+04  0.50400001928E-02 0.  1.
    10030    2    1    2    0    0  0.00000000000E+00  0.00000000000E+00  0.31200488620E+03  0.33042962281E+04  0.32895328717E+04 0.  0.
        4    1    3    3  502    0 -0.10071359775E+04 -0.43474795211E+03  0.13870336522E+04  0.17683870121E+04  0.12699999809E+01 0. -1.
       -4    1    3    3    0  502  0.10071359775E+04  0.43474795211E+03 -0.10750287660E+04  0.15359092160E+04  0.12699999809E+01 0.  1.
</event>
<event>
 5   0  0.3573375E-07  0.3301769E+04  0.7818609E-02  0.8162445E-01
        3   -1    0    0  501    0  0.00000000000E+00  0.00000000000E+00  0.14166375635E+04  0.14166375671E+04  0.10100000352E+00 0. -1.
       -3   -1    0    0    0  501  0.00000000000E+00  0.00000000000E+00 -0.19238656317E+04  0.19238656344E+04  0.10100000352E+00 0.  1.
    10030    2    1    2    0    0  0.00000000000E+00  0.00000000000E+00 -0.50722806821E+03  0.33405032015E+04  0.33017694235E+04 0.  0.
        5    1    3    3  502    0 -0.46108731154E+03 -0.31788955866E+03  0.13175830367E+04  0.14316781862E+04  0.46999998093E+01 0. -1.
       -5    1    3    3    0  502  0.46108731154E+03  0.31788955866E+03 -0.18248111049E+04  0.19088250153E+04  0.46999998093E+01 0.  1.
</event>
<event>
 5   0  0.1120545E-06  0.3293739E+04  0.7818609E-02  0.8164490E-01
        2   -1    0    0  501    0  0.00000000000E+00  0.00000000000E+00  0.25156484008E+04  0.25156484008E+04  0.25500000920E-02 0.  1.
       -2   -1    0    0    0  501  0.00000000000E+00  0.00000000000E+00 -0.10781236081E+04  0.10781236081E+04  0.25500000920E-02 0. -1.
    10030    2    1    2    0    0  0.00000000000E+00  0.00000000000E+00  0.14375247927E+04  0.35937720090E+04  0.32937394740E+04 0.  0.
        4    1    3    3  502    0 -0.87097979236E+03 -0.34265356861E+03 -0.75972171767E+03  0.12054857809E+04  0.12699999809E+01 0. -1.
       -4    1    3    3    0  502  0.87097979236E+03  0.34265356861E+03  0.21972465104E+04  0.23882862280E+04  0.12699999809E+01 0.  1.
</event>
<event>
 5   0  0.3796529E-07  0.3287958E+04  0.7818609E-02  0.8165966E-01
        1   -1    0    0  501    0  0.00000000000E+00  0.00000000000E+00  0.26914240489E+04  0.26914240490E+04  0.50400001928E-02 0. -1.
       -1   -1    0    0    0  501  0.00000000000E+00  0.00000000000E+00 -0.10041773684E+04  0.10041773684E+04  0.50400001928E-02 0.  1.
    10030    2    1    2    0    0  0.00000000000E+00  0.00000000000E+00  0.16872466805E+04  0.36956014174E+04  0.32879581012E+04 0.  0.
        5    1    3    3  502    0  0.85405130637E+03 -0.62108187934E+03  0.22597938249E+04  0.24943609513E+04  0.46999998093E+01 0. -1.
       -5    1    3    3    0  502 -0.85405130637E+03  0.62108187934E+03 -0.57254714432E+03  0.12012404660E+04  0.46999998093E+01 0.  1.
</event>
<event>
 5   0  0.1126221E-06  0.3329918E+04  0.7818609E-02  0.8155324E-01
        2   -1    0    0  501    0  0.00000000000E+00  0.00000000000E+00  0.27132052397E+04  0.27132052397E+04  0.25500000920E-02 0. -1.
       -2   -1    0    0    0  501  0.00000000000E+00  0.00000000000E+00 -0.10217022678E+04  0.10217022678E+04  0.25500000920E-02 0.  1.
    10030    2    1    2    0    0  0.00000000000E+00  0.00000000000E+00  0.16915029719E+04  0.37349075075E+04  0.33299176845E+04 0.  0.
        2    1    3    3  502    0  0.15930191421E+04 -0.61981082031E+01  0.13887131189E+04  0.21133557510E+04  0.25500000920E-02 0. -1.
       -2    1    3    3    0  502 -0.15930191421E+04  0.61981082031E+01  0.30278985300E+03  0.16215517565E+04  0.25500000920E-02 0.  1.
</event>
<event>
 5   0  0.3709747E-07  0.3298321E+04  0.7818609E-02  0.8163323E-01
       -1   -1    0    0    0  501  0.00000000000E+00  0.00000000000E+00  0.17151854740E+04  0.17151854740E+04  0.50400001928E-02 0.  1.
        1   -1    0    0  501    0  0.00000000000E+00  0.00000000000E+00 -0.15856773514E+04  0.15856773514E+04  0.50400001928E-02 0. -1.
    10030    2    1    2    0    0  0.00000000000E+00  0.00000000000E+00  0.12950812263E+03  0.33008628255E+04  0.32983212455E+04 0.  0.
        4    1    3    3  502    0  0.30949792408E+03 -0.12200373748E+04  0.11311496449E+04  0.16922710460E+04  0.12699999809E+01 0.  1.
       -4    1    3    3    0  502 -0.30949792408E+03  0.12200373748E+04 -0.10016415223E+04  0.16085917795E+04  0.12699999809E+01 0. -1.
</event>
<event>
 5   0  0.3757406E-07  0.3388623E+04  0.7818609E-02  0.8140704E-01
       -1   -1    0    0    0  501  0.00000000000E+00  0.00000000000E+00  0.10508880370E+04  0.10508880370E+04  0.50400001928E-02 0. -1.
        1   -1    0    0  501    0  0.00000000000E+00  0.00000000000E+00 -0.27316818010E+04  0.27316818010E+04  0.50400001928E-02 0.  1.
    10030    2    1    2    0    0  0.00000000000E+00  0.00000000000E+00 -0.16807937640E+04  0.37825698380E+04  0.33886231572E+04 0.  0.
        1    1    3    3  502    0 -0.95755454426E+02  0.94959192083E+03  0.72228045560E+03  0.11969055851E+04  0.50400001928E-02 0. -1.
       -1    1    3    3    0  502  0.95755454426E+02 -0.94959192083E+03 -0.24030742197E+04  0.25856642528E+04  0.50400001928E-02 0.  1.
</event>
<event>
 5   0  0.1126221E-06  0.3300569E+04  0.7818609E-02  0.8162751E-01
        2   -1    0    0  501    0  0.00000000000E+00  0.00000000000E+00  0.13098959553E+04  0.13098959553E+04  0.25500000920E-02 0. -1.
       -2   -1    0    0    0  501  0.00000000000E+00  0.00000000000E+00 -0.20791256484E+04  0.20791256484E+04  0.25500000920E-02 0.  1.
    10030    2    1    2    0    0  0.00000000000E+00  0.00000000000E+00 -0.76922969310E+03  0.33890216037E+04  0.33005686040E+04 0.  0.
        2    1    3    3  502    0  0.86766435237E+03 -0.21977419276E+03 -0.18082402254E+04  0.20176409088E+04  0.25500000920E-02 0.  1.
       -2    1    3    3    0  502 -0.86766435237E+03  0.21977419276E+03  0.10390105323E+04  0.13713806949E+04  0.25500000920E-02 0. -1.
</event>
<event>
 5   0  0.1116462E-06  0.3344118E+04  0.7818609E-02  0.8151759E-01
       -2   -1    0    0    0  501  0.00000000000E+00  0.00000000000E+00  0.17643082172E+04  0.17643082172E+04  0.25500000920E-02 0.  1.
        2   -1    0    0  501    0  0.00000000000E+00  0.00000000000E+00 -0.15846333421E+04  0.15846333421E+04  0.25500000920E-02 0. -1.
    10030    2    1    2    0    0  0.00000000000E+00  0.00000000000E+00  0.17967487514E+03  0.33489415593E+04  0.33441181957E+04 0.  0.
        1    1    3    3  502    0  0.83153613100E+03 -0.12940721854E+04  0.74630292048E+03  0.17096909684E+04  0.50400001928E-02 0.  1.
       -1    1    3    3    0  502 -0.83153613100E+03  0.12940721854E+04 -0.56662804535E+03  0.16392505910E+04  0.50400001928E-02 0. -1.
</event>
<event>
 5   0  0.3674967E-07  0.3294035E+04  0.7818609E-02  0.8164415E-01
        1   -1    0    0  501    0  0.00000000000E+00  0.00000000000E+00  0.20974098281E+04  0.20974098281E+04  0.50400001928E-02 0.  1.
       -1   -1    0    0    0  501  0.00000000000E+00  0.00000000000E+00 -0.12933410737E+04  0.12933410738E+04  0.50400001928E-02 0. -1.
    10030    2    1    2    0    0  0.00000000000E+00  0.00000000000E+00  0.80406875435E+03  0.33907509018E+04  0.32940347777E+04 0.  0.
        2    1    3    3  502    0  0.14366797111E+04  0.88191914592E+02  0.12260633253E+04  0.18907822942E+04  0.25500000920E-02 0.  1.
       -2    1    3    3    0  502 -0.14366797111E+04 -0.88191914592E+02 -0.42199457100E+03  0.14999686077E+04  0.25500000920E-02 0. -1.
</event>
<event>
 5   0  0.3757406E-07  0.3294890E+04  0.7818609E-02  0.8164197E-01
        1   -1    0    0  501    0  0.00000000000E+00  0.00000000000E+00  0.19350290238E+04  0.19350290238E+04  0.50400001928E-02 0.  1.
       -1   -1    0    0    0  501  0.00000000000E+00  0.00000000000E+00 -0.14026016988E+04  0.14026016988E+04  0.50400001928E-02 0. -1.
    10030    2    1    2    0    0  0.00000000000E+00  0.00000000000E+00  0.53242732504E+03  0.33376307226E+04  0.32948899805E+04 0.  0.
        1    1    3    3  502    0  0.34002196297E+03 -0.14835497030E+04 -0.37247317893E+03  0.15669304151E+04  0.50400001928E-02 0. -1.
       -1    1    3    3    0  502 -0.34002196297E+03  0.14835497030E+04  0.90490050397E+03  0.17707003075E+04  0.50400001928E-02 0.  1.
</event>
<event>
 5   0  0.3757406E-07  0.3286585E+04  0.7818609E-02  0.8166317E-01
       -1   -1    0    0    0  501  0.00000000000E+00  0.00000000000E+00  0.15246563718E+04  0.15246563718E+04  0.50400001928E-02 0. -1.
        1   -1    0    0  501    0  0.00000000000E+00  0.00000000000E+00 -0.17711596260E+04  0.17711596261E+04  0.50400001928E-02 0.  1.
    10030    2    1    2    0    0  0.00000000000E+00  0.00000000000E+00 -0.24650325428E+03  0.32958159978E+04  0.32865847376E+04 0.  0.
        1    1    3    3  502    0 -0.70026874705E+03  0.89636799042E+03  0.10660634735E+04  0.15589558114E+04  0.50400001928E-02 0. -1.
       -1    1    3    3    0  502  0.70026874705E+03 -0.89636799042E+03 -0.13125667278E+04  0.17368601864E+04  0.50400001928E-02 0.  1.
</event>
<event>
 5   0  0.1120545E-06  0.3241198E+04  0.7818609E-02  0.8178021E-01
        2   -1    0    0  501    0  0.00000000000E+00  0.00000000000E+00  0.18505556503E+04  0.18505556503E+04  0.25500000920E-02 0. -1.
       -2   -1    0    0    0  501  0.00000000000E+00  0.00000000000E+00 -0.14192174473E+04  0.14192174473E+04  0.25500000920E-02 0.  1.
    10030    2    1    2    0    0  0.00000000000E+00  0.00000000000E+00  0.43133820301E+03  0.32697730976E+04  0.32411978441E+04 0.  0.
        4    1    3    3  502    0  0.74331074175E+03 -0.12553250619E+04 -0.49623458990E+03  0.15409744485E+04  0.12699999809E+01 0.  1.
       -4    1    3    3    0  502 -0.74331074175E+03  0.12553250619E+04  0.92757279291E+03  0.17287986491E+04  0.12699999809E+01 0. -1.
</event>
<event>
 5   0  0.3749685E-07  0.3313675E+04  0.7818609E-02  0.8159424E-01
       -1   -1    0    0    0  501  0.00000000000E+00  0.00000000000E+00  0.15200300428E+04  0.15200300428E+04  0.50400001928E-02 0.  1.
        1   -1    0    0  501    0  0.00000000000E+00  0.00000000000E+00 -0.18059585114E+04  0.18059585114E+04  0.50400001928E-02 0. -1.
    10030    2    1    2    0    0  0.00000000000E+00  0.00000000000E+00 -0.28592846858E+03  0.33259885542E+04  0.33136754176E+04 0.  0.
        3    1    3    3  502    0  0.37452273767E+03 -0.90499820414E+02  0.14744371117E+04  0.15239495743E+04  0.10100000352E+00 0.  1.
       -3    1    3    3    0  502 -0.37452273767E+03  0.90499820414E+02 -0.17603655803E+04  0.18020389799E+04  0.10100000352E+00 0. -1.
</event>
<event>
 5   0  0.3757406E-07  0.3274470E+04  0.7818609E-02  0.8169422E-01
       -1   -1    0    0    0  501  0.00000000000E+00  0.00000000000E+00  0.11691939177E+04  0.11691939177E+04  0.50400001928E-02 0. -1.
        1   -1    0    0  501    0  0.00000000000E+00  0.00000000000E+00 -0.22926386987E+04  0.22926386987E+04  0.50400001928E-02 0.  1.
    10030    2    1    2    0    0  0.00000000000E+00  0.00000000000E+00 -0.11234447810E+04  0.34618326164E+04  0.32744704745E+04 0.  0.
        1    1    3    3  502    0  0.25495308435E+02 -0.13806853653E+04 -0.14915927674E+04  0.20326807601E+04  0.50400001928E-02 0.  1.
       -1    1    3    3    0  502 -0.25495308435E+02  0.13806853653E+04  0.36814798634E+03  0.14291518564E+04  0.50400001928E-02 0. -1.
</event>
<event>
 5   0  0.3757406E-07  0.3309940E+04  0.7818609E-02  0.8160371E-01
        1   -1    0    0  501    0  0.00000000000E+00  0.00000000000E+00  0.26196925335E+04  0.26196925335E+04  0.50400001928E-02 0.  1.
       -1   -1    0    0    0  501  0.00000000000E+00  0.00000000000E+00 -0.10455142038E+04  0.10455142038E+04  0.50400001928E-02 0. -1.
    10030    2    1    2    0    0  0.00000000000E+00  0.00000000000E+00  0.15741783296E+04  0.36652067373E+04  0.33099400317E+04 0.  0.
        1    1    3    3  502    0  0.97236121418E+03 -0.64984934983E+03  0.20837264270E+04  0.23894991800E+04  0.50400001928E-02 0.  1.
       -1    1    3    3    0  502 -0.97236121418E+03  0.64984934983E+03 -0.50954809737E+03  0.12757075573E+04  0.50400001928E-02 0. -1.
</event>
<event>
 5   0  0.1120545E-06  0.3289210E+04  0.7818609E-02  0.8165646E-01
        2   -1    0    0  501    0  0.00000000000E+00  0.00000000000E+00  0.13684113105E+04  0.13684113105E+04  0.25500000920E-02 0. -1.
       -2   -1    0    0    0  501  0.00000000000E+00  0.00000000000E+00 -0.19765437796E+04  0.19765437796E+04  0.25500000920E-02 0.  1.
    10030    2    1    2    0    0  0.00000000000E+00  0.00000000000E+00 -0.60813246914E+03  0.33449550901E+04  0.32892095486E+04 0.  0.
        4    1    3    3  502    0 -0.51158445676E+03 -0.90149885332E+03  0.99440729555E+03  0.14364074357E+04  0.12699999809E+01 0. -1.
       -4    1    3    3    0  502  0.51158445676E+03  0.90149885332E+03 -0.16025397647E+04  0.19085476544E+04  0.12699999809E+01 0.  1.
</event>
<event>
 5   0  0.1129434E-06  0.3300779E+04  0.7818609E-02  0.8162697E-01
       -2   -1    0    0    0  501  0.00000000000E+00  0.00000000000E+00  0.13825521224E+04  0.13825521224E+04  0.25500000920E-02 0. -1.
        2   -1    0    0  501    0  0.00000000000E+00  0.00000000000E+00 -0.19701142684E+04  0.19701142684E+04  0.25500000920E-02 0.  1.
    10030    2    1    2    0    0  0.00000000000E+00  0.00000000000E+00 -0.58756214603E+03  0.33526663908E+04  0.33007790978E+04 0.  0.
        3    1    3    3  502    0  0.17270221143E+03  0.10388731645E+04 -0.15844655646E+04  0.19025284863E+04  0.10100000352E+00 0.  1.
       -3    1    3    3    0  502 -0.17270221143E+03 -0.10388731645E+04  0.99690341856E+03  0.14501379044E+04  0.10100000352E+00 0. -1.
</event>
<event>
 5   0  0.1146799E-06  0.3272030E+04  0.7818609E-02  0.8170049E-01
        2   -1    0    0  501    0  0.00000000000E+00  0.00000000000E+00  0.29052667813E+04  0.29052667813E+04  0.25500000920E-02 0.  1.
       -2   -1    0    0    0  501  0.00000000000E+00  0.00000000000E+00 -0.92127327845E+03  0.92127327845E+03  0.25500000920E-02 0. -1.
    10030    2    1    2    0    0  0.00000000000E+00  0.00000000000E+00  0.19839935029E+04  0.38265400598E+04  0.32720297385E+04 0.  0.
        5    1    3    3  502    0  0.15335881182E+04  0.17506888133E+03  0.35791010986E+03  0.15845072945E+04  0.46999998093E+01 0. -1.
       -5    1    3    3    0  502 -0.15335881182E+04 -0.17506888133E+03  0.16260833930E+04  0.22420327653E+04  0.46999998093E+01 0.  1.
</event>
<event>
 5   0  0.1129434E-06  0.3293327E+04  0.7818609E-02  0.8164595E-01
        2   -1    0    0  501    0  0.00000000000E+00  0.00000000000E+00  0.25564330768E+04  0.25564330768E+04  0.25500000920E-02 0.  1.
       -2   -1    0    0    0  501  0.00000000000E+00  0.00000000000E+00 -0.10606577637E+04  0.10606577637E+04  0.25500000920E-02 0. -1.
    10030    2    1    2    0    0  0.00000000000E+00  0.00000000000E+00  0.14957753131E+04  0.36170908405E+04  0.32933269442E+04 0.  0.
        3    1    3    3  502    0 -0.12692518488E+04  0.33541388630E+03 -0.34381047789E+03  0.13570955698E+04  0.10100000352E+00 0. -1.
       -3    1    3    3    0  502  0.12692518488E+04 -0.33541388630E+03  0.18395857910E+04  0.22599952707E+04  0.10100000352E+00 0.  1.
</event>
<event>
 5   0  0.3796529E-07  0.3306758E+04  0.7818609E-02  0.8161178E-01
       -1   -1    0    0    0  501  0.00000000000E+00  0.00000000000E+00  0.20805733198E+04  0.20805733198E+04  0.50400001928E-02 0.  1.
        1   -1    0    0  501    0  0.00000000000E+00  0.00000000000E+00 -0.13138984454E+04  0.13138984454E+04  0.50400001928E-02 0. -1.
    10030    2    1    2    0    0  0.00000000000E+00  0.00000000000E+00  0.76667487438E+03  0.33944717653E+04  0.33067579594E+04 0.  0.
        5    1    3    3  502    0  0.72319706986E+03 -0.71637204127E+03  0.17207538009E+04  0.19993045382E+04  0.46999998093E+01 0.  1.
       -5    1    3    3    0  502 -0.72319706986E+03  0.71637204127E+03 -0.95407892650E+03  0.13951672270E+04  0.46999998093E+01 0. -1.
</event>
<event>
 5   0  0.1146799E-06  0.3305572E+04  0.7818609E-02  0.8161479E-01
        2   -1    0    0  501    0  0.00000000000E+00  0.00000000000E+00  0.20576622696E+04  0.20576622696E+04  0.25500000920E-02 0. -1.
       -2   -1    0    0    0  501  0.00000000000E+00  0.00000000000E+00 -0.13275753893E+04  0.13275753893E+04  0.25500000920E-02 0.  1.
    10030    2    1    2    0    0  0.00000000000E+00  0.00000000000E+00  0.73008688038E+03  0.33852376589E+04  0.33055721372E+04 0.  0.
        5    1    3    3  502    0  0.94550264236E+03 -0.12345008274E+04  0.93864219530E+03  0.18163256317E+04  0.46999998093E+01 0. -1.
       -5    1    3    3    0  502 -0.94550264236E+03  0.12345008274E+04 -0.20855531492E+03  0.15689120272E+04  0.46999998093E+01 0.  1.
</event>
<event>
 5   0  0.1126221E-06  0.3302136E+04  0.7818609E-02  0.8162352E-01
        2   -1    0    0  501    0  0.00000000000E+00  0.00000000000E+00  0.22616682150E+04  0.22616682150E+04  0.25500000920E-02 0. -1.
       -2   -1    0    0    0  501  0.00000000000E+00  0.00000000000E+00 -0.12053162114E+04  0.12053162114E+04  0.25500000920E-02 0.  1.
    10030    2    1    2    0    0  0.00000000000E+00  0.00000000000E+00  0.10563520036E+04  0.34669844264E+04  0.33021358932E+04 0.  0.
        2    1    3    3  502    0  0.13916324457E+04 -0.83443035232E+03  0.20780274990E+03  0.16358780088E+04  0.25500000920E-02 0. -1.
       -2    1    3    3    0  502 -0.13916324457E+04  0.83443035232E+03  0.84854925371E+03  0.18311064176E+04  0.25500000920E-02 0.  1.
</event>
<event>
 5   0  0.1146799E-06  0.3351204E+04  0.7818609E-02  0.8149987E-01
       -2   -1    0    0    0  501  0.00000000000E+00  0.00000000000E+00  0.15021419108E+04  0.15021419108E+04  0.25500000920E-02 0.  1.
        2   -1    0    0  501    0  0.00000000000E+00  0.00000000000E+00 -0.18690919279E+04  0.18690919279E+04  0.25500000920E-02 0. -1.
    10030    2    1    2    0    0  0.00000000000E+00  0.00000000000E+00 -0.36695001713E+03  0.33712338388E+04  0.33512035570E+04 0.  0.
        5    1    3    3  502    0  0.99925522129E+03  0.69820525302E+03  0.97301260431E+03  0.15597362568E+04  0.46999998093E+01 0.  1.
       -5    1    3    3    0  502 -0.99925522129E+03 -0.69820525302E+03 -0.13399626214E+04  0.18114975820E+04  0.46999998093E+01 0. -1.
</event>
<event>
 5   0  0.3757406E-07  0.3304668E+04  0.7818609E-02  0.8161709E-01
        1   -1    0    0  501    0  0.00000000000E+00  0.00000000000E+00  0.93442861359E+03  0.93442861360E+03  0.50400001928E-02 0.  1.
       -1   -1    0    0    0  501  0.00000000000E+00  0.00000000000E+00 -0.29217938861E+04  0.29217938861E+04  0.50400001928E-02 0. -1.
    10030    2    1    2    0    0  0.00000000000E+00  0.00000000000E+00 -0.19873652725E+04  0.38562224997E+04  0.33046680984E+04 0.  0.
        1    1    3    3  502    0 -0.73802594799E+03 -0.12113976910E+04 -0.48816258837E+01  0.14185170058E+04  0.50400001928E-02 0.  1.
       -1    1    3    3    0  502  0.73802594799E+03  0.12113976910E+04 -0.19824836466E+04  0.24377054938E+04  0.50400001928E-02 0. -1.
</event>
<event>
 5   0  0.1126221E-06  0.2911673E+04  0.7818609E-02  0.8269413E-01
        2   -1    0    0  501    0  0.00000000000E+00  0.00000000000E+00  0.15347953574E+04  0.15347953574E+04  0.25500000920E-02 0. -1.
       -2   -1    0    0    0  501  0.00000000000E+00  0.00000000000E+00 -0.13809393510E+04  0.13809393510E+04  0.25500000920E-02 0.  1.
    10030    2    1    2    0    0  0.00000000000E+00  0.00000000000E+00  0.15385600643E+03  0.29157347084E+04  0.29116725810E+04 0.  0.
        2    1    3    3  502    0 -0.64817304439E+03  0.96780939355E+02  0.13787279681E+04  0.15265600728E+04  0.25500000920E-02 0. -1.
       -2    1    3    3    0  502  0.64817304439E+03 -0.96780939355E+02 -0.12248719617E+04  0.13891746356E+04  0.25500000920E-02 0.  1.
</event>
<event>
 5   0  0.3796529E-07  0.3307467E+04  0.7818609E-02  0.8160998E-01
       -1   -1    0    0    0  501  0.00000000000E+00  0.00000000000E+00  0.24732370703E+04  0.24732370703E+04  0.50400001928E-02 0.  1.
        1   -1    0    0  501    0  0.00000000000E+00  0.00000000000E+00 -0.11057710199E+04  0.11057710199E+04  0.50400001928E-02 0. -1.
    10030    2    1    2    0    0  0.00000000000E+00  0.00000000000E+00  0.13674660504E+04  0.35790080902E+04  0.33074666303E+04 0.  0.
        5    1    3    3  502    0  0.13119357651E+04  0.85558515061E+03  0.10949553506E+03  0.15700996032E+04  0.46999998093E+01 0. -1.
       -5    1    3    3    0  502 -0.13119357651E+04 -0.85558515061E+03  0.12579705154E+04  0.20089084870E+04  0.46999998093E+01 0.  1.
</event>
<event>
 5   0  0.3749685E-07  0.3275659E+04  0.7818609E-02  0.8169117E-01
       -1   -1    0    0    0  501  0.00000000000E+00  0.00000000000E+00  0.92174139346E+03  0.92174139347E+03  0.50400001928E-02 0.  1.
        1   -1    0    0  501    0  0.00000000000E+00  0.00000000000E+00 -0.29102363054E+04  0.29102363054E+04  0.50400001928E-02 0. -1.
    10030    2    1    2    0    0  0.00000000000E+00  0.00000000000E+00 -0.19884949119E+04  0.38319776989E+04  0.32756588757E+04 0.  0.
        3    1    3    3  502    0 -0.12203009797E+04  0.99591186012E+03 -0.15193848876E+04  0.21884938567E+04  0.10100000352E+00 0. -1.
       -3    1    3    3    0  502  0.12203009797E+04 -0.99591186012E+03 -0.46911002435E+03  0.16434838421E+04  0.10100000352E+00 0.  1.
</event>
<event>
 5   0  0.1120545E-06  0.3237655E+04  0.7818609E-02  0.8178943E-01
       -2   -1    0    0    0  501  0.00000000000E+00  0.00000000000E+00  0.10267787078E+04  0.10267787079E+04  0.25500000920E-02 0.  1.
        2   -1    0    0  501    0  0.00000000000E+00  0.00000000000E+00 -0.25522558894E+04  0.25522558894E+04  0.25500000920E-02 0. -1.
    10030    2    1    2    0    0  0.00000000000E+00  0.00000000000E+00 -0.15254771815E+04  0.35790345972E+04  0.32376547093E+04 0.  0.
        4    1    3    3  502    0 -0.11119566495E+04 -0.34872114768E+03  0.47936847969E+03  0.12600991157E+04  0.12699999809E+01 0.  1.
       -4    1    3    3    0  502  0.11119566495E+04  0.34872114768E+03 -0.20048456612E+04  0.23189354815E+04  0.12699999809E+01 0. -1.
</event>
<event>
 5   0  0.3796529E-07  0.3290039E+04  0.7818609E-02  0.8165435E-01
       -1   -1    0    0    0  501  0.00000000000E+00  0.00000000000E+00  0.10987701112E+04  0.10987701112E+04  0.50400001928E-02 0. -1.
        1   -1    0    0  501    0  0.00000000000E+00  0.00000000000E+00 -0.24628348335E+04  0.24628348335E+04  0.50400001928E-02 0.  1.
    10030    2    1    2    0    0  0.00000000000E+00  0.00000000000E+00 -0.13640647223E+04  0.35616049447E+04  0.32900390902E+04 0.  0.
        5    1    3    3  502    0 -0.56281426325E+03  0.75200577480E+02  0.98931273190E+03  0.11406913663E+04  0.46999998093E+01 0. -1.
       -5    1    3    3    0  502  0.56281426325E+03 -0.75200577480E+02 -0.23533774542E+04  0.24209135783E+04  0.46999998093E+01 0.  1.
</event>
<event>
 5   0  0.3757406E-07  0.3288249E+04  0.7818609E-02  0.8165892E-01
        1   -1    0    0  501    0  0.00000000000E+00  0.00000000000E+00  0.10918459856E+04  0.10918459856E+04  0.50400001928E-02 0. -1.
       -1   -1    0    0    0  501  0.00000000000E+00  0.00000000000E+00 -0.24757564456E+04  0.24757564456E+04  0.50400001928E-02 0.  1.
    10030    2    1    2    0    0  0.00000000000E+00  0.00000000000E+00 -0.13839104599E+04  0.35676024312E+04  0.32882486138E+04 0.  0.
        1    1    3    3  502    0  0.52896048919E+02  0.14531149728E+04 -0.15244797651E+04  0.21067462283E+04  0.50400001928E-02 0.  1.
       -1    1    3    3    0  502 -0.52896048919E+02 -0.14531149728E+04  0.14056930518E+03  0.14608562029E+04  0.50400001928E-02 0. -1.
</event>
<event>
 5   0  0.3796529E-07  0.3285067E+04  0.7818609E-02  0.8166706E-01
       -1   -1    0    0    0  501  0.00000000000E+00  0.00000000000E+00  0.15592981032E+04  0.15592981033E+04  0.50400001928E-02 0. -1.
        1   -1    0    0  501    0  0.00000000000E+00  0.00000000000E+00 -0.17302119667E+04  0.17302119668E+04  0.50400001928E-02 0.  1.
    10030    2    1    2    0    0  0.00000000000E+00  0.00000000000E+00 -0.17091386350E+03  0.32895100700E+04  0.32850669631E+04 0.  0.
        5    1    3    3  502    0 -0.11754549835E+04 -0.90742632854E+03  0.61747341182E+03  0.16082327146E+04  0.46999998093E+01 0. -1.
       -5    1    3    3    0  502  0.11754549835E+04  0.90742632854E+03 -0.78838727533E+03  0.16812773554E+04  0.46999998093E+01 0.  1.
</event>
<event>
 5   0  0.1146799E-06  0.3289483E+04  0.7818609E-02  0.8165577E-01
       -2   -1    0    0    0  501  0.00000000000E+00  0.00000000000E+00  0.92157201120E+03  0.92157201121E+03  0.25500000920E-02 0.  1.
        2   -1    0    0  501    0  0.00000000000E+00  0.00000000000E+00 -0.29353913261E+04  0.29353913261E+04  0.25500000920E-02 0. -1.
    10030    2    1    2    0    0  0.00000000000E+00  0.00000000000E+00 -0.20138193149E+04  0.38569633373E+04  0.32894829308E+04 0.  0.
        5    1    3    3  502    0 -0.70311369201E+03  0.37743723805E+03  0.67936079053E+03  0.10480366913E+04  0.46999998093E+01 0.  1.
       -5    1    3    3    0  502  0.70311369201E+03 -0.37743723805E+03 -0.26931801054E+04  0.28089266460E+04  0.46999998093E+01 0. -1.
</event>
<event>
 5   0  0.3757406E-07  0.3304733E+04  0.7818609E-02  0.8161692E-01
        1   -1    0    0  501    0  0.00000000000E+00  0.00000000000E+00  0.16384998452E+04  0.16384998452E+04  0.50400001928E-02 0. -1.
       -1   -1    0    0    0  501  0.00000000000E+00  0.00000000000E+00 -0.16663504781E+04  0.16663504781E+04  0.50400001928E-02 0.  1.
    10030    2    1    2    0    0  0.00000000000E+00  0.00000000000E+00 -0.27850632931E+02  0.33048503233E+04  0.33047329698E+04 0.  0.
        1    1    3    3  502    0  0.15298248750E+04 -0.30828023568E+03 -0.55700458709E+03  0.16570017990E+04  0.50400001928E-02 0. -1.
       -1    1    3    3    0  502 -0.15298248750E+04  0.30828023568E+03  0.52915395416E+03  0.16478485243E+04  0.50400001928E-02 0.  1.
</event>
<event>
 5   0  0.3573375E-07  0.3098662E+04  0.7818609E-02  0.8216105E-01
       -3   -1    0    0    0  501  0.00000000000E+00  0.00000000000E+00  0.83056147643E+03  0.83056148257E+03  0.10100000352E+00 0.  1.
        3   -1    0    0  501    0  0.00000000000E+00  0.00000000000E+00 -0.28901241679E+04  0.28901241697E+04  0.10100000352E+00 0. -1.
    10030    2    1    2    0    0  0.00000000000E+00  0.00000000000E+00 -0.20595626915E+04  0.37206856522E+04  0.30986615244E+04 0.  0.
        1    1    3    3  502    0  0.98867075529E+03 -0.11746536174E+04 -0.78037172177E+03  0.17222836606E+04  0.50400001928E-02 0.  1.
       -1    1    3    3    0  502 -0.98867075529E+03  0.11746536174E+04 -0.12791909697E+04  0.19984019917E+04  0.50400001928E-02 0. -1.
</event>
<event>
 5   0  0.1146799E-06  0.3308635E+04  0.7818609E-02  0.8160702E-01
        2   -1    0    0  501    0  0.00000000000E+00  0.00000000000E+00  0.17330600971E+04  0.17330600971E+04  0.25500000920E-02 0. -1.
       -2   -1    0    0    0  501  0.00000000000E+00  0.00000000000E+00 -0.15791526327E+04  0.15791526327E+04  0.25500000920E-02 0.  1.
    10030    2    1    2    0    0  0.00000000000E+00  0.00000000000E+00  0.15390746439E+03  0.33122127299E+04  0.33086350147E+04 0.  0.
        5    1    3    3  502    0  0.62325780509E+02  0.14957707234E+04 -0.62774620644E+03  0.16233613121E+04  0.46999998093E+01 0.  1.
       -5    1    3    3    0  502 -0.62325780509E+02 -0.14957707234E+04  0.78165367084E+03  0.16888514177E+04  0.46999998093E+01 0. -1.
</event>
<event>
 5   0  0.3796529E-07  0.3291250E+04  0.7818609E-02  0.8165125E-01
       -1   -1    0    0    0  501  0.00000000000E+00  0.00000000000E+00  0.19317927721E+04  0.19317927721E+04  0.50400001928E-02 0.  1.
        1   -1    0    0  501    0  0.00000000000E+00  0.00000000000E+00 -0.14018493591E+04  0.14018493591E+04  0.50400001928E-02 0. -1.
    10030    2    1    2    0    0  0.00000000000E+00  0.00000000000E+00  0.52994341294E+03  0.33336421312E+04  0.32912504976E+04 0.  0.
        5    1    3    3  502    0  0.14721533057E+04 -0.28136673244E+02  0.10093065087E+04  0.17851467016E+04  0.46999998093E+01 0.  1.
       -5    1    3    3    0  502 -0.14721533057E+04  0.28136673244E+02 -0.47936309575E+03  0.15484954296E+04  0.46999998093E+01 0. -1.
</event>
<event>
 5   0  0.1120545E-06  0.3315811E+04  0.7818609E-02  0.8158884E-01
       -2   -1    0    0    0  501  0.00000000000E+00  0.00000000000E+00  0.16576913738E+04  0.16576913738E+04  0.25500000920E-02 0.  1.
        2   -1    0    0  501    0  0.00000000000E+00  0.00000000000E+00 -0.16581195727E+04  0.16581195727E+04  0.25500000920E-02 0. -1.
    10030    2    1    2    0    0  0.00000000000E+00  0.00000000000E+00 -0.42819895447E+00  0.33158109465E+04  0.33158109188E+04 0.  0.
        4    1    3    3  502    0  0.94859013002E+03 -0.11912683750E+04  0.65530503109E+03  0.16578208205E+04  0.12699999809E+01 0.  1.
       -4    1    3    3    0  502 -0.94859013002E+03  0.11912683750E+04 -0.65573323004E+03  0.16579901260E+04  0.12699999809E+01 0. -1.
</event>
<event>
 5   0  0.3709747E-07  0.3291424E+04  0.7818609E-02  0.8165081E-01
       -1   -1    0    0    0  501  0.00000000000E+00  0.00000000000E+00  0.90787264709E+03  0.90787264711E+03  0.50400001928E-02 0.  1.
        1   -1    0    0  501    0  0.00000000000E+00  0.00000000000E+00 -0.29832022791E+04  0.29832022791E+04  0.50400001928E-02 0. -1.
    10030    2    1    2    0    0  0.00000000000E+00  0.00000000000E+00 -0.20753296320E+04  0.38910749262E+04  0.32914238560E+04 0.  0.
        4    1    3    3  502    0 -0.35267630521E+03  0.94593224553E+03 -0.25741416899E+04  0.27650272045E+04  0.12699999809E+01 0. -1.
       -4    1    3    3    0  502  0.35267630521E+03 -0.94593224553E+03  0.49881205791E+03  0.11260477216E+04  0.12699999809E+01 0.  1.
</event>
<event>
 5   0  0.3674967E-07  0.3322792E+04  0.7818609E-02  0.8157120E-01
       -1   -1    0    0    0  501  0.00000000000E+00  0.00000000000E+00  0.15580016672E+04  0.15580016672E+04  0.50400001928E-02 0.  1.
        1   -1    0    0  501    0  0.00000000000E+00  0.00000000000E+00 -0.17716521660E+04  0.17716521660E+04  0.50400001928E-02 0. -1.
    10030    2    1    2    0    0  0.00000000000E+00  0.00000000000E+00 -0.21365049883E+03  0.33296538332E+04  0.33227922164E+04 0.  0.
        2    1    3    3  502    0 -0.10535182159E+04  0.11723139612E+04  0.41963225747E+03  0.16310462551E+04  0.25500000920E-02 0.  1.
       -2    1    3    3    0  502  0.10535182159E+04 -0.11723139612E+04 -0.63328275631E+03  0.16986075781E+04  0.25500000920E-02 0. -1.
</event>
<event>
 5   0  0.3749685E-07  0.3276516E+04  0.7818609E-02  0.8168897E-01
        1   -1    0    0  501    0  0.00000000000E+00  0.00000000000E+00  0.29162388642E+04  0.29162388642E+04  0.50400001928E-02 0.  1.
       -1   -1    0    0    0  501  0.00000000000E+00  0.00000000000E+00 -0.92032572853E+03  0.92032572854E+03  0.50400001928E-02 0. -1.
    10030    2    1    2    0    0  0.00000000000E+00  0.00000000000E+00  0.19959131357E+04  0.38365645927E+04  0.32765162336E+04 0.  0.
        3    1    3    3  502    0  0.93594348735E+02  0.14475399203E+04  0.10639048825E+03  0.14544588922E+04  0.10100000352E+00 0. -1.
       -3    1    3    3    0  502 -0.93594348735E+02 -0.14475399203E+04  0.18895226474E+04  0.23821057005E+04  0.10100000352E+00 0.  1.
</event>
<event>
 5   0  0.1129434E-06  0.3287856E+04  0.7818609E-02  0.8165992E-01
        2   -1    0    0  501    0  0.00000000000E+00  0.00000000000E+00  0.21670351445E+04  0.21670351445E+04  0.25500000920E-02 0.  1.
       -2   -1    0    0    0  501  0.00000000000E+00  0.00000000000E+00 -0.12470951164E+04  0.12470951164E+04  0.25500000920E-02 0. -1.
    10030    2    1    2    0    0  0.00000000000E+00  0.00000000000E+00  0.91994002810E+03  0.34141302610E+04  0.32878558033E+04 0.  0.
        3    1    3    3  502    0 -0.24315711446E+03 -0.13927260489E+04  0.13310485379E+04  0.19417779096E+04  0.10100000352E+00 0.  1.
       -3    1    3    3    0  502  0.24315711446E+03  0.13927260489E+04 -0.41110850984E+03  0.14723523514E+04  0.10100000352E+00 0. -1.
</event>
<event>
 5   0  0.3674967E-07  0.3320121E+04  0.7818609E-02  0.8157794E-01
       -1   -1    0    0    0  501  0.00000000000E+00  0.00000000000E+00  0.11706458362E+04  0.11706458363E+04  0.50400001928E-02 0. -1.
        1   -1    0    0  501    0  0.00000000000E+00  0.00000000000E+00 -0.23540856842E+04  0.23540856842E+04  0.50400001928E-02 0.  1.
    10030    2    1    2    0    0  0.00000000000E+00  0.00000000000E+00 -0.11834398480E+04  0.35247315205E+04  0.33201208439E+04 0.  0.
        2    1    3    3  502    0 -0.65028895027E+03 -0.12026496671E+04  0.40787925385E+03  0.14267471487E+04  0.25500000920E-02 0. -1.
       -2    1    3    3    0  502  0.65028895027E+03  0.12026496671E+04 -0.15913191018E+04  0.20979843718E+04  0.25500000920E-02 0.  1.
</event>
<event>
 5   0  0.3709747E-07  0.3303790E+04  0.7818609E-02  0.8161932E-01
        1   -1    0    0  501    0  0.00000000000E+00  0.00000000000E+00  0.27643725123E+04  0.27643725123E+04  0.50400001928E-02 0. -1.
       -1   -1    0    0    0  501  0.00000000000E+00  0.00000000000E+00 -0.98711630554E+03  0.98711630555E+03  0.50400001928E-02 0.  1.
    10030    2    1    2    0    0  0.00000000000E+00  0.00000000000E+00  0.17772562067E+04  0.37514888178E+04  0.33037900548E+04 0.  0.
        4    1    3    3  502    0 -0.94036676237E+03 -0.58670167888E+03 -0.50219727634E+03  0.12168451935E+04  0.12699999809E+01 0.  1.
       -4    1    3    3    0  502  0.94036676237E+03  0.58670167888E+03  0.22794534831E+04  0.25346436243E+04  0.12699999809E+01 0. -1.
</event>
<event>
 5   0  0.1146799E-06  0.3273921E+04  0.7818609E-02  0.8169563E-01
       -2   -1    0    0    0  501  0.00000000000E+00  0.00000000000E+00  0.23412932842E+04  0.23412932842E+04  0.25500000920E-02 0. -1.
        2   -1    0    0  501    0  0.00000000000E+00  0.00000000000E+00 -0.11445128848E+04  0.11445128848E+04  0.25500000920E-02 0.  1.
    10030    2    1    2    0    0  0.00000000000E+00  0.00000000000E+00  0.11967803994E+04  0.34858061690E+04  0.32739213984E+04 0.  0.
        5    1    3    3  502    0  0.14768545227E+04 -0.56335093357E+02  0.13477476272E+04  0.20001796621E+04  0.46999998093E+01 0. -1.
       -5    1    3    3    0  502 -0.14768545227E+04  0.56335093357E+02 -0.15096722782E+03  0.14856265068E+04  0.46999998093E+01 0.  1.
</event>
<event>
 5   0  0.1120545E-06  0.3300178E+04  0.7818609E-02  0.8162850E-01
        2   -1    0    0  501    0  0.00000000000E+00  0.00000000000E+00  0.13195680191E+04  0.13195680191E+04  0.25500000920E-02 0. -1.
       -2   -1    0    0    0  501  0.00000000000E+00  0.00000000000E+00 -0.20633982820E+04  0.20633982820E+04  0.25500000920E-02 0.  1.
    10030    2    1    2    0    0  0.00000000000E+00  0.00000000000E+00 -0.74383026291E+03  0.33829663011E+04  0.33001784095E+04 0.  0.
        4    1    3    3  502    0  0.99778697202E+03 -0.17282884758E+03 -0.17074191614E+04  0.19851273153E+04  0.12699999809E+01 0.  1.
       -4    1    3    3    0  502 -0.99778697202E+03  0.17282884758E+03  0.96358889854E+03  0.13978389858E+04  0.12699999809E+01 0. -1.
</event>
<event>
 5   0  0.3674967E-07  0.3324651E+04  0.7818609E-02  0.8156651E-01
       -1   -1    0    0    0  501  0.00000000000E+00  0.00000000000E+00  0.15904276759E+04  0.15904276760E+04  0.50400001928E-02 0.  1.
        1   -1    0    0  501    0  0.00000000000E+00  0.00000000000E+00 -0.17374733448E+04  0.17374733448E+04  0.50400001928E-02 0. -1.
    10030    2    1    2    0    0  0.00000000000E+00  0.00000000000E+00 -0.14704566887E+03  0.33279010208E+04  0.33246507750E+04 0.  0.
        2    1    3    3  502    0 -0.42604207402E+02  0.96581504079E+03  0.12800979402E+04  0.16041398156E+04  0.25500000920E-02 0.  1.
       -2    1    3    3    0  502  0.42604207402E+02 -0.96581504079E+03 -0.14271436091E+04  0.17237612052E+04  0.25500000920E-02 0. -1.
</event>
<event>
 5   0  0.3749685E-07  0.3259674E+04  0.7818609E-02  0.8173233E-01
        1   -1    0    0  501    0  0.00000000000E+00  0.00000000000E+00  0.26610996528E+04  0.26610996528E+04  0.50400001928E-02 0. -1.
       -1   -1    0    0    0  501  0.00000000000E+00  0.00000000000E+00 -0.99822193157E+03  0.99822193158E+03  0.50400001928E-02 0.  1.
    10030    2    1    2    0    0  0.00000000000E+00  0.00000000000E+00  0.16628777213E+04  0.36593215844E+04  0.32596736251E+04 0.  0.
        3    1    3    3  502    0 -0.72552126651E+03 -0.12090186855E+04  0.17491361120E+04  0.22466829858E+04  0.10100000352E+00 0. -1.
       -3    1    3    3    0  502  0.72552126651E+03  0.12090186855E+04 -0.86258390768E+02  0.14126385986E+04  0.10100000352E+00 0.  1.
</event>
<event>
 5   0  0.3749685E-07  0.3290810E+04  0.7818609E-02  0.8165238E-01
        1   -1    0    0  501    0  0.00000000000E+00  0.00000000000E+00  0.17457427386E+04  0.17457427386E+04  0.50400001928E-02 0.  1.
       -1   -1    0    0    0  501  0.00000000000E+00  0.00000000000E+00 -0.15508338759E+04  0.15508338759E+04  0.50400001928E-02 0. -1.
    10030    2    1    2    0    0  0.00000000000E+00  0.00000000000E+00  0.19490886265E+03  0.32965766145E+04  0.32908096132E+04 0.  0.
        3    1    3    3  502    0  0.23940491859E+03 -0.16196022221E+04 -0.66939509246E+02  0.16385685768E+04  0.10100000352E+00 0. -1.
       -3    1    3    3    0  502 -0.23940491859E+03  0.16196022221E+04  0.26184837190E+03  0.16580080377E+04  0.10100000352E+00 0.  1.
</event>
<event>
 5   0  0.1126221E-06  0.3306324E+04  0.7818609E-02  0.8161288E-01
        2   -1    0    0  501    0  0.00000000000E+00  0.00000000000E+00  0.19389867876E+04  0.19389867876E+04  0.25500000920E-02 0.  1.
       -2   -1    0    0    0  501  0.00000000000E+00  0.00000000000E+00 -0.14094700813E+04  0.14094700813E+04  0.25500000920E-02 0. -1.
    10030    2    1    2    0    0  0.00000000000E+00  0.00000000000E+00  0.52951670629E+03  0.33484568690E+04  0.33063235566E+04 0.  0.
        2    1    3    3  502    0  0.15197895771E+04  0.64811093541E+03  0.32146946225E+03  0.16831965893E+04  0.25500000920E-02 0. -1.
       -2    1    3    3    0  502 -0.15197895771E+04 -0.64811093541E+03  0.20804724404E+03  0.16652602796E+04  0.25500000920E-02 0.  1.
</event>
<event>
 5   0  0.3757406E-07  0.3232828E+04  0.7818609E-02  0.8180201E-01
        1   -1    0    0  501    0  0.00000000000E+00  0.00000000000E+00  0.12485720216E+04  0.12485720216E+04  0.50400001928E-02 0.  1.
       -1   -1    0    0    0  501  0.00000000000E+00  0.00000000000E+00 -0.20926257807E+04  0.20926257807E+04  0.50400001928E-02 0. -1.
    10030    2    1    2    0    0  0.00000000000E+00  0.00000000000E+00 -0.84405375902E+03  0.33411978023E+04  0.32328278652E+04 0.  0.
        1    1    3    3  502    0 -0.73903922518E+03  0.57652215009E+03  0.93902243005E+03  0.13267704738E+04  0.50400001928E-02 0.  1.
       -1    1    3    3    0  502  0.73903922518E+03 -0.57652215009E+03 -0.17830761891E+04  0.20144273285E+04  0.50400001928E-02 0. -1.
</event>
<event>
 5   0  0.1146799E-06  0.3078926E+04  0.7818609E-02  0.8221545E-01
       -2   -1    0    0    0  501  0.00000000000E+00  0.00000000000E+00  0.13356360351E+04  0.13356360351E+04  0.25500000920E-02 0.  1.
        2   -1    0    0  501    0  0.00000000000E+00  0.00000000000E+00 -0.17743948393E+04  0.17743948393E+04  0.25500000920E-02 0. -1.
    10030    2    1    2    0    0  0.00000000000E+00  0.00000000000E+00 -0.43875880424E+03  0.31100308745E+04  0.30789255840E+04 0.  0.
        5    1    3    3  502    0 -0.71628141552E+03  0.10554068434E+04 -0.10900509258E+04  0.16778485575E+04  0.46999998093E+01 0.  1.
       -5    1    3    3    0  502  0.71628141552E+03 -0.10554068434E+04  0.65129212156E+03  0.14321823169E+04  0.46999998093E+01 0. -1.
</event>
<event>
 5   0  0.3749685E-07  0.3303123E+04  0.7818609E-02  0.8162101E-01
        1   -1    0    0  501    0  0.00000000000E+00  0.00000000000E+00  0.16661980522E+04  0.16661980522E+04  0.50400001928E-02 0.  1.
       -1   -1    0    0    0  501  0.00000000000E+00  0.00000000000E+00 -0.16370535103E+04  0.16370535103E+04  0.50400001928E-02 0. -1.
    10030    2    1    2    0    0  0.00000000000E+00  0.00000000000E+00  0.29144541892E+02  0.33032515626E+04  0.33031229891E+04 0.  0.
        3    1    3    3  502    0  0.11848599653E+04  0.18332222175E+03 -0.11213219256E+04  0.16416038028E+04  0.10100000352E+00 0. -1.
       -3    1    3    3    0  502 -0.11848599653E+04 -0.18332222175E+03  0.11504664675E+04  0.16616477597E+04  0.10100000352E+00 0.  1.
</event>
<event>
 5   0  0.1126221E-06  0.3287227E+04  0.7818609E-02  0.8166153E-01
        2   -1    0    0  501    0  0.00000000000E+00  0.00000000000E+00  0.13986220548E+04  0.13986220548E+04  0.25500000920E-02 0. -1.
       -2   -1    0    0    0  501  0.00000000000E+00  0.00000000000E+00 -0.19315193665E+04  0.19315193665E+04  0.25500000920E-02 0.  1.
    10030    2    1    2    0    0  0.00000000000E+00  0.00000000000E+00 -0.53289731178E+03  0.33301414213E+04  0.32872271508E+04 0.  0.
        2    1    3    3  502    0 -0.82835446119E+03 -0.10534972962E+04 -0.12304159539E+04  0.18193270970E+04  0.25500000920E-02 0.  1.
       -2    1    3    3    0  502  0.82835446119E+03  0.10534972962E+04  0.69751864208E+03  0.15108143243E+04  0.25500000920E-02 0. -1.
</event>
<event>
 5   0  0.1146799E-06  0.3299482E+04  0.7818609E-02  0.8163027E-01
        2   -1    0    0  501    0  0.00000000000E+00  0.00000000000E+00  0.21538297652E+04  0.21538297652E+04  0.25500000920E-02 0. -1.
       -2   -1    0    0    0  501  0.00000000000E+00  0.00000000000E+00 -0.12636306378E+04  0.12636306378E+04  0.25500000920E-02 0.  1.
    10030    2    1    2    0    0  0.00000000000E+00  0.00000000000E+00  0.89019912748E+03  0.34174604030E+04  0.32994819472E+04 0.  0.
        5    1    3    3  502    0  0.53127167571E+03  0.12293637385E+04  0.14428931475E+04  0.19686410338E+04  0.46999998093E+01 0. -1.
       -5    1    3    3    0  502 -0.53127167571E+03 -0.12293637385E+04 -0.55269402001E+03  0.14488193692E+04  0.46999998093E+01 0.  1.
</event>
<event>
 5   0  0.3757406E-07  0.3312563E+04  0.7818609E-02  0.8159706E-01
        1   -1    0    0  501    0  0.00000000000E+00  0.00000000000E+00  0.10672449769E+04  0.10672449769E+04  0.50400001928E-02 0.  1.
       -1   -1    0    0    0  501  0.00000000000E+00  0.00000000000E+00 -0.25704212942E+04  0.25704212942E+04  0.50400001928E-02 0. -1.
    10030    2    1    2    0    0  0.00000000000E+00  0.00000000000E+00 -0.15031763173E+04  0.36376662712E+04  0.33125634876E+04 0.  0.
        1    1    3    3  502    0  0.13185207424E+03 -0.13975739261E+04 -0.17168742575E+04  0.22177139276E+04  0.50400001928E-02 0. -1.
       -1    1    3    3    0  502 -0.13185207424E+03  0.13975739261E+04  0.21369794023E+03  0.14199523436E+04  0.50400001928E-02 0.  1.
</event>
<event>
 5   0  0.3709747E-07  0.3401889E+04  0.7818609E-02  0.8137443E-01
       -1   -1    0    0    0  501  0.00000000000E+00  0.00000000000E+00  0.10232749048E+04  0.10232749048E+04  0.50400001928E-02 0. -1.
        1   -1    0    0  501    0  0.00000000000E+00  0.00000000000E+00 -0.28274046264E+04  0.28274046264E+04  0.50400001928E-02 0.  1.
    10030    2    1    2    0    0  0.00000000000E+00  0.00000000000E+00 -0.18041297216E+04  0.38506795313E+04  0.34018890047E+04 0.  0.
        4    1    3    3  502    0  0.60823709991E+03  0.14906659971E+04 -0.15232561088E+04  0.22163817971E+04  0.12699999809E+01 0.  1.
       -4    1    3    3    0  502 -0.60823709991E+03 -0.14906659971E+04 -0.28087361282E+03  0.16342977342E+04  0.12699999809E+01 0. -1.
</event>
<event>
 5   0  0.1129434E-06  0.3295677E+04  0.7818609E-02  0.8163996E-01
        2   -1    0    0  501    0  0.00000000000E+00  0.00000000000E+00  0.16835303561E+04  0.16835303561E+04  0.25500000920E-02 0.  1.
       -2   -1    0    0    0  501  0.00000000000E+00  0.00000000000E+00 -0.16129034528E+04  0.16129034528E+04  0.25500000920E-02 0. -1.
    10030    2    1    2    0    0  0.00000000000E+00  0.00000000000E+00  0.70626903349E+02  0.32964338089E+04  0.32956771227E+04 0.  0.
        3    1    3    3  502    0 -0.99672260012E+03 -0.62429036437E+03 -0.11191514973E+04  0.16234822096E+04  0.10100000352E+00 0. -1.
       -3    1    3    3    0  502  0.99672260012E+03  0.62429036437E+03  0.11897784007E+04  0.16729515993E+04  0.10100000352E+00 0.  1.
</event>
<event>
 5   0  0.3796529E-07  0.3265034E+04  0.7818609E-02  0.8171850E-01
        1   -1    0    0  501    0  0.00000000000E+00  0.00000000000E+00  0.24843273410E+04  0.24843273410E+04  0.50400001928E-02 0.  1.
       -1   -1    0    0    0  501  0.00000000000E+00  0.00000000000E+00 -0.10727698648E+04  0.10727698648E+04  0.50400001928E-02 0. -1.
    10030    2    1    2    0    0  0.00000000000E+00  0.00000000000E+00  0.14115574762E+04  0.35570972058E+04  0.32650338471E+04 0.  0.
        5    1    3    3  502    0  0.14753451777E+04 -0.26280359089E+03  0.14113031673E+04  0.20585207895E+04  0.46999998093E+01 0.  1.
       -5    1    3    3    0  502 -0.14753451777E+04  0.26280359089E+03  0.25430891186E+00  0.14985764163E+04  0.46999998093E+01 0. -1.
</event>
<event>
 5   0  0.1116462E-06  0.3338910E+04  0.7818609E-02  0.8153065E-01
        2   -1    0    0  501    0  0.00000000000E+00  0.00000000000E+00  0.19026379025E+04  0.19026379025E+04  0.25500000920E-02 0. -1.
       -2   -1    0    0    0  501  0.00000000000E+00  0.00000000000E+00 -0.14648508629E+04  0.14648508629E+04  0.25500000920E-02 0.  1.
    10030    2    1    2    0    0  0.00000000000E+00  0.00000000000E+00  0.43778703965E+03  0.33674887654E+04  0.33389104649E+04 0.  0.
        1    1    3    3  502    0 -0.58084506453E+03 -0.92127431539E+03 -0.10572241738E+04  0.15178439666E+04  0.50400001928E-02 0.  1.
       -1    1    3    3    0  502  0.58084506453E+03  0.92127431539E+03  0.14950112135E+04  0.18496447988E+04  0.50400001928E-02 0. -1.
</event>
<event>
 5   0  0.3757406E-07  0.3283158E+04  0.7818609E-02  0.8167194E-01
        1   -1    0    0  501    0  0.00000000000E+00  0.00000000000E+00  0.10803341396E+04  0.10803341396E+04  0.50400001928E-02 0.  1.
       -1   -1    0    0    0  501  0.00000000000E+00  0.00000000000E+00 -0.24943971667E+04  0.24943971667E+04  0.50400001928E-02 0. -1.
    10030    2    1    2    0    0  0.00000000000E+00  0.00000000000E+00 -0.14140630271E+04  0.35747313063E+04  0.32831584896E+04 0.  0.
        1    1    3    3  502    0  0.67015516044E+03 -0.10992713504E+04  0.40188518844E+03  0.13487094371E+04  0.50400001928E-02 0.  1.
       -1    1    3    3    0  502 -0.67015516044E+03  0.10992713504E+04 -0.18159482155E+04  0.22260218693E+04  0.50400001928E-02 0. -1.
</event>
<event>
 5   0  0.1126221E-06  0.3304255E+04  0.7818609E-02  0.8161814E-01
       -2   -1    0    0    0  501  0.00000000000E+00  0.00000000000E+00  0.13586567045E+04  0.13586567045E+04  0.25500000920E-02 0. -1.
        2   -1    0    0  501    0  0.00000000000E+00  0.00000000000E+00 -0.20089881069E+04  0.20089881069E+04  0.25500000920E-02 0.  1.
    10030    2    1    2    0    0  0.00000000000E+00  0.00000000000E+00 -0.65033140244E+03  0.33676448114E+04  0.33042549301E+04 0.  0.
        2    1    3    3  502    0  0.91839823195E+03  0.20606971327E+03  0.10586768682E+04  0.14165863018E+04  0.25500000920E-02 0. -1.
       -2    1    3    3    0  502 -0.91839823195E+03 -0.20606971327E+03 -0.17090082706E+04  0.19510585097E+04  0.25500000920E-02 0.  1.
</event>
<event>
 5   0  0.3749685E-07  0.3196849E+04  0.7818609E-02  0.8189650E-01
        1   -1    0    0  501    0  0.00000000000E+00  0.00000000000E+00  0.12930927549E+04  0.12930927549E+04  0.50400001928E-02 0.  1.
       -1   -1    0    0    0  501  0.00000000000E+00  0.00000000000E+00 -0.19758530487E+04  0.19758530487E+04  0.50400001928E-02 0. -1.
    10030    2    1    2    0    0  0.00000000000E+00  0.00000000000E+00 -0.68276029377E+03  0.32689458036E+04  0.31968492376E+04 0.  0.
        3    1    3    3  502    0 -0.16728363383E+03  0.15824769945E+04 -0.18716785799E+03  0.16022637329E+04  0.10100000352E+00 0.  1.
       -3    1    3    3    0  502  0.16728363383E+03 -0.15824769945E+04 -0.49559243579E+03  0.16666820708E+04  0.10100000352E+00 0. -1.
</event>
<event>
 5   0  0.1120545E-06  0.3232947E+04  0.7818609E-02  0.8180170E-01
       -2   -1    0    0    0  501  0.00000000000E+00  0.00000000000E+00  0.15756573172E+04  0.15756573172E+04  0.25500000920E-02 0.  1.
        2   -1    0    0  501    0  0.00000000000E+00  0.00000000000E+00 -0.16583469388E+04  0.16583469388E+04  0.25500000920E-02 0. -1.
    10030    2    1    2    0    0  0.00000000000E+00  0.00000000000E+00 -0.82689621609E+02  0.32340042559E+04  0.32329469457E+04 0.  0.
        4    1    3    3  502    0  0.30994380511E+03  0.11069670805E+04  0.10954878562E+04  0.15879346761E+04  0.12699999809E+01 0.  1.
       -4    1    3    3    0  502 -0.30994380511E+03 -0.11069670805E+04 -0.11781774778E+04  0.16460695798E+04  0.12699999809E+01 0. -1.
</event>
<event>
 5   0  0.1116462E-06  0.3286708E+04  0.7818609E-02  0.8166286E-01
        2   -1    0    0  501    0  0.00000000000E+00  0.00000000000E+00  0.16142853058E+04  0.16142853058E+04  0.25500000920E-02 0.  1.
       -2   -1    0    0    0  501  0.00000000000E+00  0.00000000000E+00 -0.16729463018E+04  0.16729463018E+04  0.25500000920E-02 0. -1.
    10030    2    1    2    0    0  0.00000000000E+00  0.00000000000E+00 -0.58660995965E+02  0.32872316076E+04  0.32867081600E+04 0.  0.
        1    1    3    3  502    0  0.10677509191E+03  0.85241722627E+03 -0.14304806570E+04  0.16686194767E+04  0.50400001928E-02 0. -1.
       -1    1    3    3    0  502 -0.10677509191E+03 -0.85241722627E+03  0.13718196610E+04  0.16186121309E+04  0.50400001928E-02 0.  1.
</event>
<event>
 5   0  0.3749685E-07  0.2903909E+04  0.7818609E-02  0.8271715E-01
        1   -1    0    0  501    0  0.00000000000E+00  0.00000000000E+00  0.25505778314E+04  0.25505778314E+04  0.50400001928E-02 0.  1.
       -1   -1    0    0    0  501  0.00000000000E+00  0.00000000000E+00 -0.82654686383E+03  0.82654686384E+03  0.50400001928E-02 0. -1.
    10030    2    1    2    0    0  0.00000000000E+00  0.00000000000E+00  0.17240309676E+04  0.33771246953E+04  0.29039091636E+04 0.  0.
        3    1    3    3  502    0 -0.90748429807E+03 -0.96893012669E+03  0.15459087717E+04  0.20376916553E+04  0.10100000352E+00 0. -1.
       -3    1    3    3    0  502  0.90748429807E+03  0.96893012669E+03  0.17812219593E+03  0.13394330400E+04  0.10100000352E+00 0.  1.
</event>
<event>
 5   0  0.3796529E-07  0.3287248E+04  0.7818609E-02  0.8166148E-01
        1   -1    0    0  501    0  0.00000000000E+00  0.00000000000E+00  0.22838561462E+04  0.22838561462E+04  0.50400001928E-02 0.  1.
       -1   -1    0    0    0  501  0.00000000000E+00  0.00000000000E+00 -0.11828676651E+04  0.11828676651E+04  0.50400001928E-02 0. -1.
    10030    2    1    2    0    0  0.00000000000E+00  0.00000000000E+00  0.11009884811E+04  0.34667238112E+04  0.32872478379E+04 0.  0.
        5    1    3    3  502    0 -0.11815948695E+03 -0.11426391037E+04 -0.68922631153E+03  0.13396420358E+04  0.46999998093E+01 0. -1.
       -5    1    3    3    0  502  0.11815948695E+03  0.11426391037E+04  0.17902147926E+04  0.21270817754E+04  0.46999998093E+01 0.  1.
</event>
<event>
 5   0  0.3749685E-07  0.3347584E+04  0.7818609E-02  0.8150892E-01
       -1   -1    0    0    0  501  0.00000000000E+00  0.00000000000E+00  0.10225854586E+04  0.10225854586E+04  0.50400001928E-02 0.  1.
        1   -1    0    0  501    0  0.00000000000E+00  0.00000000000E+00 -0.27397028597E+04  0.27397028597E+04  0.50400001928E-02 0. -1.
    10030    2    1    2    0    0  0.00000000000E+00  0.00000000000E+00 -0.17171174010E+04  0.37622883183E+04  0.33475843859E+04 0.  0.
        3    1    3    3  502    0  0.44464349505E+03  0.11514149163E+04 -0.21291494862E+04  0.24610448374E+04  0.10100000352E+00 0. -1.
       -3    1    3    3    0  502 -0.44464349505E+03 -0.11514149163E+04  0.41203208516E+03  0.13012434809E+04  0.10100000352E+00 0.  1.
</event>
<event>
 5   0  0.3573375E-07  0.3299650E+04  0.7818609E-02  0.8162984E-01
       -3   -1    0    0    0  501  0.00000000000E+00  0.00000000000E+00  0.93979533418E+03  0.93979533961E+03  0.10100000352E+00 0.  1.
        3   -1    0    0  501    0  0.00000000000E+00  0.00000000000E+00 -0.28962927213E+04  0.28962927231E+04  0.10100000352E+00 0. -1.
    10030    2    1    2    0    0  0.00000000000E+00  0.00000000000E+00 -0.19564973871E+04  0.38360880627E+04  0.32996499206E+04 0.  0.
        4    1    3    3  502    0 -0.95077856073E+02  0.67077724822E+03 -0.27271170276E+04  0.28100090410E+04  0.12699999809E+01 0. -1.
       -4    1    3    3    0  502  0.95077856073E+02 -0.67077724822E+03  0.77061964050E+03  0.10260790216E+04  0.12699999809E+01 0.  1.
</event>
<event>
 5   0  0.1126221E-06  0.3315798E+04  0.7818609E-02  0.8158887E-01
       -2   -1    0    0    0  501  0.00000000000E+00  0.00000000000E+00  0.13945299180E+04  0.13945299180E+04  0.25500000920E-02 0. -1.
        2   -1    0    0  501    0  0.00000000000E+00  0.00000000000E+00 -0.19710074178E+04  0.19710074178E+04  0.25500000920E-02 0.  1.
    10030    2    1    2    0    0  0.00000000000E+00  0.00000000000E+00 -0.57647749977E+03  0.33655373359E+04  0.33157978303E+04 0.  0.
        2    1    3    3  502    0 -0.14490881895E+04 -0.37227267892E+03 -0.10132259411E+04  0.18069505627E+04  0.25500000920E-02 0.  1.
       -2    1    3    3    0  502  0.14490881895E+04  0.37227267892E+03  0.43674844136E+03  0.15585867731E+04  0.25500000920E-02 0. -1.
</event>
<event>
 5   0  0.3749685E-07  0.3308418E+04  0.7818609E-02  0.8160757E-01
       -1   -1    0    0    0  501  0.00000000000E+00  0.00000000000E+00  0.95534723393E+03  0.95534723394E+03  0.50400001928E-02 0.  1.
        1   -1    0    0  501    0  0.00000000000E+00  0.00000000000E+00 -0.28643069404E+04  0.28643069404E+04  0.50400001928E-02 0. -1.
    10030    2    1    2    0    0  0.00000000000E+00  0.00000000000E+00 -0.19089597065E+04  0.38196541743E+04  0.33084181795E+04 0.  0.
        3    1    3    3  502    0 -0.56303473270E+03 -0.82541036869E+03 -0.24765711060E+04  0.26705270717E+04  0.10100000352E+00 0. -1.
       -3    1    3    3    0  502  0.56303473270E+03  0.82541036869E+03  0.56761139959E+03  0.11491271027E+04  0.10100000352E+00 0.  1.
</event>
<event>
 5   0  0.1116462E-06  0.3312893E+04  0.7818609E-02  0.8159622E-01
       -2   -1    0    0    0  501  0.00000000000E+00  0.00000000000E+00  0.97405444249E+03  0.97405444249E+03  0.25500000920E-02 0. -1.
        2   -1    0    0  501    0  0.00000000000E+00  0.00000000000E+00 -0.28169013770E+04  0.28169013770E+04  0.25500000920E-02 0.  1.
    10030    2    1    2    0    0  0.00000000000E+00  0.00000000000E+00 -0.18428469345E+04  0.37909558195E+04  0.33128931768E+04 0.  0.
        1    1    3    3  502    0  0.65624312894E+03 -0.98470895519E+03 -0.22477837378E+04  0.25402437881E+04  0.50400001928E-02 0.  1.
       -1    1    3    3    0  502 -0.65624312894E+03  0.98470895519E+03  0.40493680336E+03  0.12507120314E+04  0.50400001928E-02 0. -1.
</event>
<event>
 5   0  0.1120545E-06  0.3279104E+04  0.7818609E-02  0.8168233E-01
        2   -1    0    0  501    0  0.00000000000E+00  0.00000000000E+00  0.10065288183E+04  0.10065288183E+04  0.25500000920E-02 0. -1.
       -2   -1    0    0    0  501  0.00000000000E+00  0.00000000000E+00 -0.26706950623E+04  0.26706950623E+04  0.25500000920E-02 0.  1.
    10030    2    1    2    0    0  0.00000000000E+00  0.00000000000E+00 -0.16641662440E+04  0.36772238806E+04  0.32791044784E+04 0.  0.
        4    1    3    3  502    0 -0.40447464420E+03 -0.11252118006E+04  0.42591243451E+03  0.12692928538E+04  0.12699999809E+01 0. -1.
       -4    1    3    3    0  502  0.40447464420E+03  0.11252118006E+04 -0.20900786785E+04  0.24079310267E+04  0.12699999809E+01 0.  1.
</event>
<event>
 5   0  0.3796529E-07  0.3286636E+04  0.7818609E-02  0.8166304E-01
        1   -1    0    0  501    0  0.00000000000E+00  0.00000000000E+00  0.19362081613E+04  0.19362081613E+04  0.50400001928E-02 0. -1.
       -1   -1    0    0    0  501  0.00000000000E+00  0.00000000000E+00 -0.13947333535E+04  0.13947333535E+04  0.50400001928E-02 0.  1.
    10030    2    1    2    0    0  0.00000000000E+00  0.00000000000E+00  0.54147480775E+03  0.33309415148E+04  0.32866360321E+04 0.  0.
        5    1    3    3  502    0  0.92564280588E+02 -0.13786316445E+03  0.19276765434E+04  0.19348212693E+04  0.46999998093E+01 0. -1.
       -5    1    3    3    0  502 -0.92564280588E+02  0.13786316445E+03 -0.13862017356E+04  0.13961202455E+04  0.46999998093E+01 0.  1.
</event>
<event>
 5   0  0.1129434E-06  0.2993945E+04  0.7818609E-02  0.8245462E-01
       -2   -1    0    0    0  501  0.00000000000E+00  0.00000000000E+00  0.21944834613E+04  0.21944834613E+04  0.25500000920E-02 0. -1.
        2   -1    0    0  501    0  0.00000000000E+00  0.00000000000E+00 -0.10211638354E+04  0.10211638354E+04  0.25500000920E-02 0.  1.
    10030    2    1    2    0    0  0.00000000000E+00  0.00000000000E+00  0.11733196260E+04  0.32156472967E+04  0.29939453222E+04 0.  0.
        3    1    3    3  502    0  0.51895462964E+03 -0.12332473673E+04 -0.13440639784E+03  0.13447223009E+04  0.10100000352E+00 0.  1.
       -3    1    3    3    0  502 -0.51895462964E+03  0.12332473673E+04  0.13077260238E+04  0.18709249958E+04  0.10100000352E+00 0. -1.
</event>
<event>
 5   0  0.1129434E-06  0.3269089E+04  0.7818609E-02  0.8170806E-01
       -2   -1    0    0    0  501  0.00000000000E+00  0.00000000000E+00  0.16746615120E+04  0.16746615120E+04  0.25500000920E-02 0. -1.
        2   -1    0    0  501    0  0.00000000000E+00  0.00000000000E+00 -0.15953883937E+04  0.15953883937E+04  0.25500000920E-02 0.  1.
    10030    2    1    2    0    0  0.00000000000E+00  0.00000000000E+00  0.79273118236E+02  0.32700499057E+04  0.32690888882E+04 0.  0.
        3    1    3    3  502    0 -0.49656094746E+03 -0.12906110788E+04  0.91137757428E+03  0.16561578501E+04  0.10100000352E+00 0. -1.
       -3    1    3    3    0  502  0.49656094746E+03  0.12906110788E+04 -0.83210445605E+03  0.16138920556E+04  0.10100000352E+00 0.  1.
</event>
<event>
 5   0  0.3674967E-07  0.3140737E+04  0.7818609E-02  0.8204646E-01
        1   -1    0    0  501    0  0.00000000000E+00  0.00000000000E+00  0.25422757130E+04  0.25422757130E+04  0.50400001928E-02 0. -1.
       -1   -1    0    0    0  501  0.00000000000E+00  0.00000000000E+00 -0.97001961901E+03  0.97001961903E+03  0.50400001928E-02 0.  1.
    10030    2    1    2    0    0  0.00000000000E+00  0.00000000000E+00  0.15722560940E+04  0.35122953321E+04  0.31407370591E+04 0.  0.
        2    1    3    3  502    0  0.22886740291E+03 -0.15079980422E+04  0.12039888248E+04  0.19432003174E+04  0.25500000920E-02 0.  1.
       -2    1    3    3    0  502 -0.22886740291E+03  0.15079980422E+04  0.36826726925E+03  0.15690950147E+04  0.25500000920E-02 0. -1.
</event>
<event>
 5   0  0.3796529E-07  0.3333825E+04  0.7818609E-02  0.8154342E-01
       -1   -1    0    0    0  501  0.00000000000E+00  0.00000000000E+00  0.10778598439E+04  0.10778598439E+04  0.50400001928E-02 0.  1.
        1   -1    0    0  501    0  0.00000000000E+00  0.00000000000E+00 -0.25778834355E+04  0.25778834355E+04  0.50400001928E-02 0. -1.
    10030    2    1    2    0    0  0.00000000000E+00  0.00000000000E+00 -0.15000235916E+04  0.36557432793E+04  0.33338248528E+04 0.  0.
        5    1    3    3  502    0  0.18507136151E+03 -0.17116986847E+03 -0.25568521438E+04  0.25692538816E+04  0.46999998093E+01 0. -1.
       -5    1    3    3    0  502 -0.18507136151E+03  0.17116986847E+03  0.10568285522E+04  0.10864893978E+04  0.46999998093E+01 0.  1.
</event>
<event>
 5   0  0.3757406E-07  0.3282407E+04  0.7818609E-02  0.8167386E-01
        1   -1    0    0  501    0  0.00000000000E+00  0.00000000000E+00  0.22691365726E+04  0.22691365726E+04  0.50400001928E-02 0. -1.
       -1   -1    0    0    0  501  0.00000000000E+00  0.00000000000E+00 -0.11870370002E+04  0.11870370002E+04  0.50400001928E-02 0.  1.
    10030    2    1    2    0    0  0.00000000000E+00  0.00000000000E+00  0.10820995724E+04  0.34561735728E+04  0.32824070863E+04 0.  0.
        1    1    3    3  502    0  0.15316809769E+02 -0.14759676025E+04 -0.21445419395E+03  0.14915446925E+04  0.50400001928E-02 0.  1.
       -1    1    3    3    0  502 -0.15316809769E+02  0.14759676025E+04  0.12965537664E+04  0.19646288803E+04  0.50400001928E-02 0. -1.
</event>
<event>
 5   0  0.1146799E-06  0.3315584E+04  0.7818609E-02  0.8158941E-01
       -2   -1    0    0    0  501  0.00000000000E+00  0.00000000000E+00  0.11433399188E+04  0.11433399188E+04  0.25500000920E-02 0. -1.
        2   -1    0    0  501    0  0.00000000000E+00  0.00000000000E+00 -0.24037241890E+04  0.24037241890E+04  0.25500000920E-02 0.  1.
    10030    2    1    2    0    0  0.00000000000E+00  0.00000000000E+00 -0.12603842702E+04  0.35470641078E+04  0.33155837007E+04 0.  0.
        5    1    3    3  502    0  0.35412207702E+03  0.14384360700E+04  0.16590541294E+03  0.14906533698E+04  0.46999998093E+01 0.  1.
       -5    1    3    3    0  502 -0.35412207702E+03 -0.14384360700E+04 -0.14262896832E+04  0.20564107380E+04  0.46999998093E+01 0. -1.
</event>
<event>
 5   0  0.1129434E-06  0.3289199E+04  0.7818609E-02  0.8165649E-01
        2   -1    0    0  501    0  0.00000000000E+00  0.00000000000E+00  0.21820892289E+04  0.21820892289E+04  0.25500000920E-02 0.  1.
       -2   -1    0    0    0  501  0.00000000000E+00  0.00000000000E+00 -0.12395033181E+04  0.12395033181E+04  0.25500000920E-02 0. -1.
    10030    2    1    2    0    0  0.00000000000E+00  0.00000000000E+00  0.94258591079E+03  0.34215925470E+04  0.32891985891E+04 0.  0.
        3    1    3    3  502    0  0.93426409018E+03  0.10190380193E+04 -0.45530104027E+03  0.14555366441E+04  0.10100000352E+00 0. -1.
       -3    1    3    3    0  502 -0.93426409018E+03 -0.10190380193E+04  0.13978869511E+04  0.19660559028E+04  0.10100000352E+00 0.  1.
</event>
<event>
 5   0  0.1120545E-06  0.3295003E+04  0.7818609E-02  0.8164168E-01
       -2   -1    0    0    0  501  0.00000000000E+00  0.00000000000E+00  0.11092299179E+04  0.11092299179E+04  0.25500000920E-02 0.  1.
        2   -1    0    0  501    0  0.00000000000E+00  0.00000000000E+00 -0.24469772907E+04  0.24469772907E+04  0.25500000920E-02 0. -1.
    10030    2    1    2    0    0  0.00000000000E+00  0.00000000000E+00 -0.13377473728E+04  0.35562072087E+04  0.32950025308E+04 0.  0.
        4    1    3    3  502    0  0.14435470116E+04  0.54277723840E+03 -0.12943155938E+04  0.20133776532E+04  0.12699999809E+01 0. -1.
       -4    1    3    3    0  502 -0.14435470116E+04 -0.54277723840E+03 -0.43431779048E+02  0.15428295555E+04  0.12699999809E+01 0.  1.
</event>
<event>
 5   0  0.1129434E-06  0.3191279E+04  0.7818609E-02  0.8191124E-01
       -2   -1    0    0    0  501  0.00000000000E+00  0.00000000000E+00  0.32096472416E+04  0.32096472416E+04  0.25500000920E-02 0. -1.
        2   -1    0    0  501    0  0.00000000000E+00  0.00000000000E+00 -0.79325398422E+03  0.79325398423E+03  0.25500000920E-02 0.  1.
    10030    2    1    2    0    0  0.00000000000E+00  0.00000000000E+00  0.24163932573E+04  0.40029012258E+04  0.31912790303E+04 0.  0.
        3    1    3    3  502    0 -0.12519743580E+04 -0.62082696354E+03  0.24212239718E+03  0.14182697829E+04  0.10100000352E+00 0.  1.
       -3    1    3    3    0  502  0.12519743580E+04  0.62082696354E+03  0.21742708602E+04  0.25846314429E+04  0.10100000352E+00 0. -1.
</event>
<event>
 5   0  0.3796529E-07  0.3014281E+04  0.7818609E-02  0.8239665E-01
        1   -1    0    0  501    0  0.00000000000E+00  0.00000000000E+00  0.20567886676E+04  0.20567886676E+04  0.50400001928E-02 0.  1.
       -1   -1    0    0    0  501  0.00000000000E+00  0.00000000000E+00 -0.11043779354E+04  0.11043779354E+04  0.50400001928E-02 0. -1.
    10030    2    1    2    0    0  0.00000000000E+00  0.00000000000E+00  0.95241073225E+03  0.31611666030E+04  0.30142806918E+04 0.  0.
        5    1    3    3  502    0 -0.55744047531E+03 -0.13060448160E+04 -0.53332660653E+02  0.14210416629E+04  0.46999998093E+01 0. -1.
       -5    1    3    3    0  502  0.55744047531E+03  0.13060448160E+04  0.10057433929E+04  0.17401249401E+04  0.46999998093E+01 0.  1.
</event>
<event>
 5   0  0.3709747E-07  0.3340276E+04  0.7818609E-02  0.8152722E-01
        1   -1    0    0  501    0  0.00000000000E+00  0.00000000000E+00  0.26387507472E+04  0.26387507472E+04  0.50400001928E-02 0. -1.
       -1   -1    0    0    0  501  0.00000000000E+00  0.00000000000E+00 -0.10570760930E+04  0.10570760931E+04  0.50400001928E-02 0.  1.
    10030    2    1    2    0    0  0.00000000000E+00  0.00000000000E+00  0.15816746542E+04  0.36958268402E+04  0.33402756356E+04 0.  0.
        4    1    3    3  502    0  0.10821189475E+04  0.30458482241E+03 -0.57579099286E+03  0.12630479844E+04  0.12699999809E+01 0.  1.
       -4    1    3    3    0  502 -0.10821189475E+04 -0.30458482241E+03  0.21574656470E+04  0.24327788559E+04  0.12699999809E+01 0. -1.
</event>
<event>
 5   0  0.3796529E-07  0.3294811E+04  0.7818609E-02  0.8164217E-01
       -1   -1    0    0    0  501  0.00000000000E+00  0.00000000000E+00  0.15349110573E+04  0.15349110573E+04  0.50400001928E-02 0. -1.
        1   -1    0    0  501    0  0.00000000000E+00  0.00000000000E+00 -0.17681452065E+04  0.17681452065E+04  0.50400001928E-02 0.  1.
    10030    2    1    2    0    0  0.00000000000E+00  0.00000000000E+00 -0.23323414920E+03  0.33030562638E+04  0.32948114534E+04 0.  0.
        5    1    3    3  502    0 -0.34159257094E+03 -0.14261387147E+04 -0.86907268210E+03  0.17046602403E+04  0.46999998093E+01 0.  1.
       -5    1    3    3    0  502  0.34159257094E+03  0.14261387147E+04  0.63583853290E+03  0.15983960235E+04  0.46999998093E+01 0. -1.
</event>
<event>
 5   0  0.3709747E-07  0.3280901E+04  0.7818609E-02  0.8167772E-01
       -1   -1    0    0    0  501  0.00000000000E+00  0.00000000000E+00  0.11352068844E+04  0.11352068844E+04  0.50400001928E-02 0. -1.
        1   -1    0    0  501    0  0.00000000000E+00  0.00000000000E+00 -0.23705615088E+04  0.23705615088E+04  0.50400001928E-02 0.  1.
    10030    2    1    2    0    0  0.00000000000E+00  0.00000000000E+00 -0.12353546244E+04  0.35057683931E+04  0.32809009400E+04 0.  0.
        4    1    3    3  502    0  0.16917364494E+03  0.13465590840E+04 -0.16023775812E+04  0.20998706185E+04  0.12699999809E+01 0.  1.
       -4    1    3    3    0  502 -0.16917364494E+03 -0.13465590840E+04  0.36702295682E+03  0.14058977746E+04  0.12699999809E+01 0. -1.
</event>
<event>
 5   0  0.1129434E-06  0.3298920E+04  0.7818609E-02  0.8163170E-01
        2   -1    0    0  501    0  0.00000000000E+00  0.00000000000E+00  0.12640789937E+04  0.12640789937E+04  0.25500000920E-02 0. -1.
       -2   -1    0    0    0  501  0.00000000000E+00  0.00000000000E+00 -0.21523318877E+04  0.21523318877E+04  0.25500000920E-02 0.  1.
    10030    2    1    2    0    0  0.00000000000E+00  0.00000000000E+00 -0.88825289406E+03  0.34164108814E+04  0.32989195363E+04 0.  0.
        3    1    3    3  502    0  0.46775334760E+03  0.14269326451E+04 -0.11509195632E+04  0.18919687680E+04  0.10100000352E+00 0.  1.
       -3    1    3    3    0  502 -0.46775334760E+03 -0.14269326451E+04  0.26266666916E+03  0.15244421134E+04  0.10100000352E+00 0. -1.
</event>
<event>
 5   0  0.3749685E-07  0.3232038E+04  0.7818609E-02  0.8180407E-01
        1   -1    0    0  501    0  0.00000000000E+00  0.00000000000E+00  0.23114780954E+04  0.23114780955E+04  0.50400001928E-02 0.  1.
       -1   -1    0    0    0  501  0.00000000000E+00  0.00000000000E+00 -0.11298039213E+04  0.11298039213E+04  0.50400001928E-02 0. -1.
    10030    2    1    2    0    0  0.00000000000E+00  0.00000000000E+00  0.11816741742E+04  0.34412820167E+04  0.32320377573E+04 0.  0.
        3    1    3    3  502    0 -0.49421749063E+03 -0.11782718910E+04  0.16443071377E+04  0.20823836223E+04  0.10100000352E+00 0.  1.
       -3    1    3    3    0  502  0.49421749063E+03  0.11782718910E+04 -0.46263296357E+03  0.13588983944E+04  0.10100000352E+00 0. -1.
</event>
<event>
 5   0  0.3674967E-07  0.3132246E+04  0.7818609E-02  0.8206944E-01
       -1   -1    0    0    0  501  0.00000000000E+00  0.00000000000E+00  0.13449173551E+04  0.13449173551E+04  0.50400001928E-02 0.  1.
        1   -1    0    0  501    0  0.00000000000E+00  0.00000000000E+00 -0.18237111881E+04  0.18237111881E+04  0.50400001928E-02 0. -1.
    10030    2    1    2    0    0  0.00000000000E+00  0.00000000000E+00 -0.47879383297E+03  0.31686285433E+04  0.31322457296E+04 0.  0.
        2    1    3    3  502    0 -0.14530106443E+04 -0.30948837662E+03 -0.74085409030E+03  0.16600866757E+04  0.25500000920E-02 0. -1.
       -2    1    3    3    0  502  0.14530106443E+04  0.30948837662E+03  0.26206025733E+03  0.15085418676E+04  0.25500000920E-02 0.  1.
</event>
<event>
 5   0  0.1129434E-06  0.3305687E+04  0.7818609E-02  0.8161450E-01
        2   -1    0    0  501    0  0.00000000000E+00  0.00000000000E+00  0.23877945351E+04  0.23877945351E+04  0.25500000920E-02 0.  1.
       -2   -1    0    0    0  501  0.00000000000E+00  0.00000000000E+00 -0.11441069643E+04  0.11441069643E+04  0.25500000920E-02 0. -1.
    10030    2    1    2    0    0  0.00000000000E+00  0.00000000000E+00  0.12436875708E+04  0.35319014994E+04  0.33056874365E+04 0.  0.
        3    1    3    3  502    0  0.80565986499E+03 -0.84488550306E+03  0.18719423016E+04  0.22061476202E+04  0.10100000352E+00 0.  1.
       -3    1    3    3    0  502 -0.80565986499E+03  0.84488550306E+03 -0.62825473081E+03  0.13257538792E+04  0.10100000352E+00 0. -1.
</event>
<event>
 5   0  0.3749685E-07  0.3311675E+04  0.7818609E-02  0.8159931E-01
       -1   -1    0    0    0  501  0.00000000000E+00  0.00000000000E+00  0.10068513368E+04  0.10068513368E+04  0.50400001928E-02 0. -1.
        1   -1    0    0  501    0  0.00000000000E+00  0.00000000000E+00 -0.27231398529E+04  0.27231398529E+04  0.50400001928E-02 0.  1.
    10030    2    1    2    0    0  0.00000000000E+00  0.00000000000E+00 -0.17162885161E+04  0.37299911897E+04  0.33116745017E+04 0.  0.
        3    1    3    3  502    0  0.16506631670E+04 -0.12913922455E+03 -0.88153154552E+03  0.18757568355E+04  0.10100000352E+00 0. -1.
       -3    1    3    3    0  502 -0.16506631670E+04  0.12913922455E+03 -0.83475697062E+03  0.18542343542E+04  0.10100000352E+00 0.  1.
</event>
<event>
 5   0  0.1120545E-06  0.3295358E+04  0.7818609E-02  0.8164077E-01
       -2   -1    0    0    0  501  0.00000000000E+00  0.00000000000E+00  0.13999230900E+04  0.13999230900E+04  0.25500000920E-02 0.  1.
        2   -1    0    0  501    0  0.00000000000E+00  0.00000000000E+00 -0.19392825978E+04  0.19392825978E+04  0.25500000920E-02 0. -1.
    10030    2    1    2    0    0  0.00000000000E+00  0.00000000000E+00 -0.53935950777E+03  0.33392056878E+04  0.32953582426E+04 0.  0.
        4    1    3    3  502    0 -0.50724004217E+03  0.86760861147E+03 -0.15927357878E+04  0.18833072149E+04  0.12699999809E+01 0. -1.
       -4    1    3    3    0  502  0.50724004217E+03 -0.86760861147E+03  0.10533762801E+04  0.14558984729E+04  0.12699999809E+01 0.  1.
</event>
<event>
 5   0  0.3674967E-07  0.3287393E+04  0.7818609E-02  0.8166111E-01
       -1   -1    0    0    0  501  0.00000000000E+00  0.00000000000E+00  0.10653851687E+04  0.10653851687E+04  0.50400001928E-02 0. -1.
        1   -1    0    0  501    0  0.00000000000E+00  0.00000000000E+00 -0.25359263844E+04  0.25359263844E+04  0.50400001928E-02 0.  1.
    10030    2    1    2    0    0  0.00000000000E+00  0.00000000000E+00 -0.14705412157E+04  0.36013115531E+04  0.32873931063E+04 0.  0.
        2    1    3    3  502    0 -0.39852679530E+03 -0.54277607387E+03 -0.23778903668E+04  0.24713947619E+04  0.25500000920E-02 0. -1.
       -2    1    3    3    0  502  0.39852679530E+03  0.54277607387E+03  0.90734915106E+03  0.11299167911E+04  0.25500000920E-02 0.  1.
</event>
<event>
 5   0  0.3674967E-07  0.3179956E+04  0.7818609E-02  0.8194131E-01
       -1   -1    0    0    0  501  0.00000000000E+00  0.00000000000E+00  0.13919727194E+04  0.13919727194E+04  0.50400001928E-02 0.  1.
        1   -1    0    0  501    0  0.00000000000E+00  0.00000000000E+00 -0.18161495697E+04  0.18161495697E+04  0.50400001928E-02 0. -1.
    10030    2    1    2    0    0  0.00000000000E+00  0.00000000000E+00 -0.42417685022E+03  0.32081222891E+04  0.31799563868E+04 0.  0.
        2    1    3    3  502    0 -0.10773106587E+04  0.38950457484E+03 -0.13244507705E+04  0.17511373198E+04  0.25500000920E-02 0. -1.
       -2    1    3    3    0  502  0.10773106587E+04 -0.38950457484E+03  0.90027392029E+03  0.14569849693E+04  0.25500000920E-02 0.  1.
</event>
<event>
 5   0  0.3709747E-07  0.3307329E+04  0.7818609E-02  0.8161033E-01
        1   -1    0    0  501    0  0.00000000000E+00  0.00000000000E+00  0.19273419789E+04  0.19273419789E+04  0.50400001928E-02 0. -1.
       -1   -1    0    0    0  501  0.00000000000E+00  0.00000000000E+00 -0.14188483562E+04  0.14188483563E+04  0.50400001928E-02 0.  1.
    10030    2    1    2    0    0  0.00000000000E+00  0.00000000000E+00  0.50849362263E+03  0.33461903351E+04  0.33073288307E+04 0.  0.
        4    1    3    3  502    0 -0.93282259483E+03  0.81305540762E+03  0.13641266824E+04  0.18417546818E+04  0.12699999809E+01 0. -1.
       -4    1    3    3    0  502  0.93282259483E+03 -0.81305540762E+03 -0.85563305976E+03  0.15044356534E+04  0.12699999809E+01 0.  1.
</event>
<event>
 5   0  0.3749685E-07  0.3333105E+04  0.7818609E-02  0.8154523E-01
        1   -1    0    0  501    0  0.00000000000E+00  0.00000000000E+00  0.11978793233E+04  0.11978793233E+04  0.50400001928E-02 0.  1.
       -1   -1    0    0    0  501  0.00000000000E+00  0.00000000000E+00 -0.23185953086E+04  0.23185953086E+04  0.50400001928E-02 0. -1.
    10030    2    1    2    0    0  0.00000000000E+00  0.00000000000E+00 -0.11207159853E+04  0.35164746318E+04  0.33331050863E+04 0.  0.
        3    1    3    3  502    0  0.40681889713E+03 -0.12713363785E+04  0.49233281797E+03  0.14227401085E+04  0.10100000352E+00 0. -1.
       -3    1    3    3    0  502 -0.40681889713E+03  0.12713363785E+04 -0.16130488033E+04  0.20937345234E+04  0.10100000352E+00 0.  1.
</event>
<event>
 5   0  0.3796529E-07  0.3312741E+04  0.7818609E-02  0.8159661E-01
        1   -1    0    0  501    0  0.00000000000E+00  0.00000000000E+00  0.23007632608E+04  0.23007632608E+04  0.50400001928E-02 0.  1.
       -1   -1    0    0    0  501  0.00000000000E+00  0.00000000000E+00 -0.11924575887E+04  0.11924575887E+04  0.50400001928E-02 0. -1.
    10030    2    1    2    0    0  0.00000000000E+00  0.00000000000E+00  0.11083056722E+04  0.34932208495E+04  0.33127406237E+04 0.  0.
        5    1    3    3  502    0  0.14506011239E+02  0.15678660852E+04  0.11172159103E+04  0.19252552989E+04  0.46999998093E+01 0.  1.
       -5    1    3    3    0  502 -0.14506011239E+02 -0.15678660852E+04 -0.89102381665E+01  0.15679655506E+04  0.46999998093E+01 0. -1.
</event>
<event>
 5   0  0.1129434E-06  0.3319356E+04  0.7818609E-02  0.8157988E-01
       -2   -1    0    0    0  501  0.00000000000E+00  0.00000000000E+00  0.18306156363E+04  0.18306156363E+04  0.25500000920E-02 0. -1.
        2   -1    0    0  501    0  0.00000000000E+00  0.00000000000E+00 -0.15047022302E+04  0.15047022302E+04  0.25500000920E-02 0.  1.
    10030    2    1    2    0    0  0.00000000000E+00  0.00000000000E+00  0.32591340614E+03  0.33353178665E+04  0.33193562211E+04 0.  0.
        3    1    3    3  502    0 -0.60846187409E+03 -0.46452009530E+03 -0.13167162993E+04  0.15230714344E+04  0.10100000352E+00 0.  1.
       -3    1    3    3    0  502  0.60846187409E+03  0.46452009530E+03  0.16426297055E+04  0.18122464321E+04  0.10100000352E+00 0. -1.
</event>
<event>
 5   0  0.3757406E-07  0.3301800E+04  0.7818609E-02  0.8162438E-01
        1   -1    0    0  501    0  0.00000000000E+00  0.00000000000E+00  0.99124405049E+03  0.99124405050E+03  0.50400001928E-02 0. -1.
       -1   -1    0    0    0  501  0.00000000000E+00  0.00000000000E+00 -0.27495451482E+04  0.27495451482E+04  0.50400001928E-02 0.  1.
    10030    2    1    2    0    0  0.00000000000E+00  0.00000000000E+00 -0.17583010977E+04  0.37407891987E+04  0.33017996727E+04 0.  0.
        1    1    3    3  502    0 -0.15310213533E+03  0.16323931732E+04 -0.10980265150E+04  0.19732739200E+04  0.50400001928E-02 0. -1.
       -1    1    3    3    0  502  0.15310213533E+03 -0.16323931732E+04 -0.66027458274E+03  0.17675152787E+04  0.50400001928E-02 0.  1.
</event>
<event>
 5   0  0.1116462E-06  0.3298753E+04  0.7818609E-02  0.8163213E-01
        2   -1    0    0  501    0  0.00000000000E+00  0.00000000000E+00  0.15271203600E+04  0.15271203600E+04  0.25500000920E-02 0.  1.
       -2   -1    0    0    0  501  0.00000000000E+00  0.00000000000E+00 -0.17814196610E+04  0.17814196610E+04  0.25500000920E-02 0. -1.
    10030    2    1    2    0    0  0.00000000000E+00  0.00000000000E+00 -0.25429930104E+03  0.33085400210E+04  0.32987526334E+04 0.  0.
        1    1    3    3  502    0  0.25453482576E+03 -0.16696211130E+03 -0.17530015067E+04  0.17792353995E+04  0.50400001928E-02 0. -1.
       -1    1    3    3    0  502 -0.25453482576E+03  0.16696211130E+03  0.14987022057E+04  0.15293046215E+04  0.50400001928E-02 0.  1.
</event>
<event>
 5   0  0.3749685E-07  0.3227953E+04  0.7818609E-02  0.8181474E-01
       -1   -1    0    0    0  501  0.00000000000E+00  0.00000000000E+00  0.13501654141E+04  0.13501654141E+04  0.50400001928E-02 0. -1.
        1   -1    0    0  501    0  0.00000000000E+00  0.00000000000E+00 -0.19293345797E+04  0.19293345797E+04  0.50400001928E-02 0.  1.
    10030    2    1    2    0    0  0.00000000000E+00  0.00000000000E+00 -0.57916916561E+03  0.32794999938E+04  0.32279534208E+04 0.  0.
        3    1    3    3  502    0 -0.14219578374E+04 -0.49676386816E+03 -0.87865586171E+03  0.17437816852E+04  0.10100000352E+00 0.  1.
       -3    1    3    3    0  502  0.14219578374E+04  0.49676386816E+03  0.29948669610E+03  0.15357183086E+04  0.10100000352E+00 0. -1.
</event>
<event>
 5   0  0.3674967E-07  0.3275457E+04  0.7818609E-02  0.8169169E-01
       -1   -1    0    0    0  501  0.00000000000E+00  0.00000000000E+00  0.20964728233E+04  0.20964728233E+04  0.50400001928E-02 0.  1.
        1   -1    0    0  501    0  0.00000000000E+00  0.00000000000E+00 -0.12793651081E+04  0.12793651081E+04  0.50400001928E-02 0. -1.
    10030    2    1    2    0    0  0.00000000000E+00  0.00000000000E+00  0.81710771519E+03  0.33758379313E+04  0.32754567194E+04 0.  0.
        2    1    3    3  502    0 -0.12452148483E+04  0.18117562752E+03 -0.67179254935E+03  0.14264255521E+04  0.25500000920E-02 0. -1.
       -2    1    3    3    0  502  0.12452148483E+04 -0.18117562752E+03  0.14889002645E+04  0.19494123792E+04  0.25500000920E-02 0.  1.
</event>
<event>
 5   0  0.3796529E-07  0.3298785E+04  0.7818609E-02  0.8163205E-01
        1   -1    0    0  501    0  0.00000000000E+00  0.00000000000E+00  0.20548613581E+04  0.20548613581E+04  0.50400001928E-02 0. -1.
       -1   -1    0    0    0  501  0.00000000000E+00  0.00000000000E+00 -0.13239317399E+04  0.13239317399E+04  0.50400001928E-02 0.  1.
    10030    2    1    2    0    0  0.00000000000E+00  0.00000000000E+00  0.73092961818E+03  0.33787930980E+04  0.32987853359E+04 0.  0.
        5    1    3    3  502    0 -0.13310490018E+04  0.82150302750E+03 -0.17059812471E+03  0.15734307991E+04  0.46999998093E+01 0. -1.
       -5    1    3    3    0  502  0.13310490018E+04 -0.82150302750E+03  0.90152774289E+03  0.18053622990E+04  0.46999998093E+01 0.  1.
</event>
<event>
 5   0  0.1146799E-06  0.3312662E+04  0.7818609E-02  0.8159681E-01
        2   -1    0    0  501    0  0.00000000000E+00  0.00000000000E+00  0.19055209419E+04  0.19055209419E+04  0.25500000920E-02 0.  1.
       -2   -1    0    0    0  501  0.00000000000E+00  0.00000000000E+00 -0.14397282691E+04  0.14397282691E+04  0.25500000920E-02 0. -1.
    10030    2    1    2    0    0  0.00000000000E+00  0.00000000000E+00  0.46579267288E+03  0.33452492110E+04  0.33126619914E+04 0.  0.
        5    1    3    3  502    0  0.15793603111E+04 -0.25447878234E+03  0.66638808174E+03  0.17329840185E+04  0.46999998093E+01 0.  1.
       -5    1    3    3    0  502 -0.15793603111E+04  0.25447878234E+03 -0.20059540886E+03  0.16122651925E+04  0.46999998093E+01 0. -1.
</event>
<event>
 5   0  0.1146799E-06  0.3289381E+04  0.7818609E-02  0.8165603E-01
        2   -1    0    0  501    0  0.00000000000E+00  0.00000000000E+00  0.14450121244E+04  0.14450121244E+04  0.25500000920E-02 0.  1.
       -2   -1    0    0    0  501  0.00000000000E+00  0.00000000000E+00 -0.18719612188E+04  0.18719612188E+04  0.25500000920E-02 0. -1.
    10030    2    1    2    0    0  0.00000000000E+00  0.00000000000E+00 -0.42694909435E+03  0.33169733432E+04  0.32893808886E+04 0.  0.
        5    1    3    3  502    0 -0.12053077967E+04  0.11027606392E+04 -0.40516557879E+03  0.16831604642E+04  0.46999998093E+01 0.  1.
       -5    1    3    3    0  502  0.12053077967E+04 -0.11027606392E+04 -0.21783515567E+02  0.16338128790E+04  0.46999998093E+01 0. -1.
</event>
<event>
 5   0  0.1146799E-06  0.3302261E+04  0.7818609E-02  0.8162320E-01
        2   -1    0    0  501    0  0.00000000000E+00  0.00000000000E+00  0.15497161201E+04  0.15497161201E+04  0.25500000920E-02 0. -1.
       -2   -1    0    0    0  501  0.00000000000E+00  0.00000000000E+00 -0.17591817595E+04  0.17591817595E+04  0.25500000920E-02 0.  1.
    10030    2    1    2    0    0  0.00000000000E+00  0.00000000000E+00 -0.20946563944E+03  0.33088978796E+04  0.33022612440E+04 0.  0.
        5    1    3    3  502    0 -0.12154223058E+04  0.31233435431E+03  0.97045961862E+03  0.15863852280E+04  0.46999998093E+01 0. -1.
       -5    1    3    3    0  502  0.12154223058E+04 -0.31233435431E+03 -0.11799252581E+04  0.17225126516E+04  0.46999998093E+01 0.  1.
</event>
<event>
 5   0  0.3709747E-07  0.3311887E+04  0.7818609E-02  0.8159877E-01
        1   -1    0    0  501    0  0.00000000000E+00  0.00000000000E+00  0.22511869115E+04  0.22511869115E+04  0.50400001928E-02 0. -1.
       -1   -1    0    0    0  501  0.00000000000E+00  0.00000000000E+00 -0.12180905566E+04  0.12180905566E+04  0.50400001928E-02 0.  1.
    10030    2    1    2    0    0  0.00000000000E+00  0.00000000000E+00  0.10330963549E+04  0.34692774681E+04  0.33118873882E+04 0.  0.
        4    1    3    3  502    0 -0.87659381227E+03 -0.13557606660E+04  0.90234984852E+03  0.18495244138E+04  0.12699999809E+01 0. -1.
       -4    1    3    3    0  502  0.87659381227E+03  0.13557606660E+04  0.13074650642E+03  0.16197530543E+04  0.12699999809E+01 0.  1.
</event>
<event>
 5   0  0.1126221E-06  0.3294852E+04  0.7818609E-02  0.8164206E-01
       -2   -1    0    0    0  501  0.00000000000E+00  0.00000000000E+00  0.27376063800E+04  0.27376063800E+04  0.25500000920E-02 0. -1.
        2   -1    0    0  501    0  0.00000000000E+00  0.00000000000E+00 -0.99138160648E+03  0.99138160649E+03  0.25500000920E-02 0.  1.
    10030    2    1    2    0    0  0.00000000000E+00  0.00000000000E+00  0.17462247735E+04  0.37289879865E+04  0.32948521126E+04 0.  0.
        2    1    3    3  502    0 -0.38800783808E+03  0.15126768007E+04  0.14669061387E+04  0.21425580052E+04  0.25500000920E-02 0. -1.
       -2    1    3    3    0  502  0.38800783808E+03 -0.15126768007E+04  0.27931863485E+03  0.15864299813E+04  0.25500000920E-02 0.  1.
</event>
<event>
 5   0  0.1129434E-06  0.3290263E+04  0.7818609E-02  0.8165378E-01
       -2   -1    0    0    0  501  0.00000000000E+00  0.00000000000E+00  0.17328136740E+04  0.17328136740E+04  0.25500000920E-02 0.  1.
        2   -1    0    0  501    0  0.00000000000E+00  0.00000000000E+00 -0.15618856970E+04  0.15618856970E+04  0.25500000920E-02 0. -1.
    10030    2    1    2    0    0  0.00000000000E+00  0.00000000000E+00  0.17092797698E+03  0.32946993711E+04  0.32902625385E+04 0.  0.
        3    1    3    3  502    0  0.12568570012E+04  0.53162395860E+03  0.10054756587E+04  0.16950796044E+04  0.10100000352E+00 0.  1.
       -3    1    3    3    0  502 -0.12568570012E+04 -0.53162395860E+03 -0.83454768171E+03  0.15996197667E+04  0.10100000352E+00 0. -1.
</event>
<event>
 5   0  0.3749685E-07  0.3304924E+04  0.7818609E-02  0.8161644E-01
        1   -1    0    0  501    0  0.00000000000E+00  0.00000000000E+00  0.19688733504E+04  0.19688733504E+04  0.50400001928E-02 0.  1.
       -1   -1    0    0    0  501  0.00000000000E+00  0.00000000000E+00 -0.13869000183E+04  0.13869000183E+04  0.50400001928E-02 0. -1.
    10030    2    1    2    0    0  0.00000000000E+00  0.00000000000E+00  0.58197333207E+03  0.33557733687E+04  0.33049238936E+04 0.  0.
        3    1    3    3  502    0 -0.10587081121E+04  0.10783859208E+04  0.96974117676E+03  0.17955993487E+04  0.10100000352E+00 0.  1.
       -3    1    3    3    0  502  0.10587081121E+04 -0.10783859208E+04 -0.38776784469E+03  0.15601740200E+04  0.10100000352E+00 0. -1.
</event>
<event>
 5   0  0.1129434E-06  0.3309941E+04  0.7818609E-02  0.8160371E-01
        2   -1    0    0  501    0  0.00000000000E+00  0.00000000000E+00  0.26293876893E+04  0.26293876893E+04  0.25500000920E-02 0.  1.
       -2   -1    0    0    0  501  0.00000000000E+00  0.00000000000E+00 -0.10416597034E+04  0.10416597034E+04  0.25500000920E-02 0. -1.
    10030    2    1    2    0    0  0.00000000000E+00  0.00000000000E+00  0.15877279859E+04  0.36710473926E+04  0.33099409061E+04 0.  0.
        3    1    3    3  502    0 -0.58211274207E+03  0.13897682755E+04  0.34625274745E+02  0.15071529530E+04  0.10100000352E+00 0. -1.
       -3    1    3    3    0  502  0.58211274207E+03 -0.13897682755E+04  0.15531027111E+04  0.21638944396E+04  0.10100000352E+00 0.  1.
</event>
<event>
 5   0  0.3757406E-07  0.3290795E+04  0.7818609E-02  0.8165242E-01
        1   -1    0    0  501    0  0.00000000000E+00  0.00000000000E+00  0.24345154305E+04  0.24345154305E+04  0.50400001928E-02 0.  1.
       -1   -1    0    0    0  501  0.00000000000E+00  0.00000000000E+00 -0.11120620388E+04  0.11120620388E+04  0.50400001928E-02 0. -1.
    10030    2    1    2    0    0  0.00000000000E+00  0.00000000000E+00  0.13224533918E+04  0.35465774693E+04  0.32907945503E+04 0.  0.
        1    1    3    3  502    0  0.13965548486E+04  0.52059525020E+03  0.14125092136E+04  0.20534281430E+04  0.50400001928E-02 0. -1.
       -1    1    3    3    0  502 -0.13965548486E+04 -0.52059525020E+03 -0.90055821851E+02  0.14931493263E+04  0.50400001928E-02 0.  1.
</event>
<event>
 5   0  0.1146799E-06  0.3296385E+04  0.7818609E-02  0.8163816E-01
        2   -1    0    0  501    0  0.00000000000E+00  0.00000000000E+00  0.22267217841E+04  0.22267217841E+04  0.25500000920E-02 0.  1.
       -2   -1    0    0    0  501  0.00000000000E+00  0.00000000000E+00 -0.12199721952E+04  0.12199721952E+04  0.25500000920E-02 0. -1.
    10030    2    1    2    0    0  0.00000000000E+00  0.00000000000E+00  0.10067495889E+04  0.34466939793E+04  0.32963850886E+04 0.  0.
        5    1    3    3  502    0 -0.66797197454E+03  0.13991913958E+04  0.10879692917E+04  0.18941020011E+04  0.46999998093E+01 0.  1.
       -5    1    3    3    0  502  0.66797197454E+03 -0.13991913958E+04 -0.81219702743E+02  0.15525919783E+04  0.46999998093E+01 0. -1.
</event>
<event>
 5   0  0.3749685E-07  0.3286405E+04  0.7818609E-02  0.8166363E-01
        1   -1    0    0  501    0  0.00000000000E+00  0.00000000000E+00  0.18670532293E+04  0.18670532293E+04  0.50400001928E-02 0. -1.
       -1   -1    0    0    0  501  0.00000000000E+00  0.00000000000E+00 -0.14461902498E+04  0.14461902498E+04  0.50400001928E-02 0.  1.
    10030    2    1    2    0    0  0.00000000000E+00  0.00000000000E+00  0.42086297952E+03  0.33132434791E+04  0.32864048296E+04 0.  0.
        3    1    3    3  502    0  0.12604385809E+04 -0.10372020936E+04  0.20156063752E+02  0.16324521054E+04  0.10100000352E+00 0.  1.
       -3    1    3    3    0  502 -0.12604385809E+04  0.10372020936E+04  0.40070691577E+03  0.16807913737E+04  0.10100000352E+00 0. -1.
</event>
<event>
 5   0  0.1126221E-06  0.3295923E+04  0.7818609E-02  0.8163934E-01
       -2   -1    0    0    0  501  0.00000000000E+00  0.00000000000E+00  0.12069672471E+04  0.12069672471E+04  0.25500000920E-02 0.  1.
        2   -1    0    0  501    0  0.00000000000E+00  0.00000000000E+00 -0.22500837690E+04  0.22500837690E+04  0.25500000920E-02 0. -1.
    10030    2    1    2    0    0  0.00000000000E+00  0.00000000000E+00 -0.10431165220E+04  0.34570510161E+04  0.32959231862E+04 0.  0.
        2    1    3    3  502    0  0.87197472367E+03  0.82093382746E+03 -0.17089359492E+04  0.20868000254E+04  0.25500000920E-02 0. -1.
       -2    1    3    3    0  502 -0.87197472367E+03 -0.82093382746E+03  0.66581942719E+03  0.13702509907E+04  0.25500000920E-02 0.  1.
</event>
<event>
 5   0  0.3796529E-07  0.3328850E+04  0.7818609E-02  0.8155593E-01
       -1   -1    0    0    0  501  0.00000000000E+00  0.00000000000E+00  0.10908818770E+04  0.10908818770E+04  0.50400001928E-02 0. -1.
        1   -1    0    0  501    0  0.00000000000E+00  0.00000000000E+00 -0.25395152332E+04  0.25395152332E+04  0.50400001928E-02 0.  1.
    10030    2    1    2    0    0  0.00000000000E+00  0.00000000000E+00 -0.14486333561E+04  0.36303971102E+04  0.33288503387E+04 0.  0.
        5    1    3    3  502    0 -0.56084153778E+03 -0.97745664901E+03 -0.20601505077E+04  0.23482348553E+04  0.46999998093E+01 0.  1.
       -5    1    3    3    0  502  0.56084153778E+03  0.97745664901E+03  0.61151715160E+03  0.12821622549E+04  0.46999998093E+01 0. -1.
</event>
<event>
 5   0  0.3674967E-07  0.3283544E+04  0.7818609E-02  0.8167095E-01
       -1   -1    0    0    0  501  0.00000000000E+00  0.00000000000E+00  0.17892241517E+04  0.17892241517E+04  0.50400001928E-02 0. -1.
        1   -1    0    0  501    0  0.00000000000E+00  0.00000000000E+00 -0.15064718736E+04  0.15064718736E+04  0.50400001928E-02 0.  1.
    10030    2    1    2    0    0  0.00000000000E+00  0.00000000000E+00  0.28275227807E+03  0.32956960253E+04  0.32835443411E+04 0.  0.
        2    1    3    3  502    0  0.10379466986E+04 -0.12678338987E+04  0.37650978471E+02  0.16389489742E+04  0.25500000920E-02 0.  1.
       -2    1    3    3    0  502 -0.10379466986E+04  0.12678338987E+04  0.24510129960E+03  0.16567470510E+04  0.25500000920E-02 0. -1.
</event>
<event>
 5   0  0.3573375E-07  0.3288202E+04  0.7818609E-02  0.8165904E-01
       -3   -1    0    0    0  501  0.00000000000E+00  0.00000000000E+00  0.13998418535E+04  0.13998418571E+04  0.10100000352E+00 0.  1.
        3   -1    0    0  501    0  0.00000000000E+00  0.00000000000E+00 -0.19309808628E+04  0.19309808654E+04  0.10100000352E+00 0. -1.
    10030    2    1    2    0    0  0.00000000000E+00  0.00000000000E+00 -0.53113900930E+03  0.33308227225E+04  0.32882018432E+04 0.  0.
        2    1    3    3  502    0  0.59848585083E+03  0.72131267600E+03  0.11027129588E+04  0.14472225675E+04  0.25500000920E-02 0.  1.
       -2    1    3    3    0  502 -0.59848585083E+03 -0.72131267600E+03 -0.16338519681E+04  0.18836001550E+04  0.25500000920E-02 0. -1.
</event>
<event>
 5   0  0.1146799E-06  0.3287108E+04  0.7818609E-02  0.8166183E-01
        2   -1    0    0  501    0  0.00000000000E+00  0.00000000000E+00  0.16254678768E+04  0.16254678768E+04  0.25500000920E-02 0.  1.
       -2   -1    0    0    0  501  0.00000000000E+00  0.00000000000E+00 -0.16618415290E+04  0.16618415290E+04  0.25500000920E-02 0. -1.
    10030    2    1    2    0    0  0.00000000000E+00  0.00000000000E+00 -0.36373652271E+02  0.32873094058E+04  0.32871081648E+04 0.  0.
        5    1    3    3  502    0 -0.10051526880E+04 -0.25095951313E+03 -0.12941706281E+04  0.16577732982E+04  0.46999998093E+01 0. -1.
       -5    1    3    3    0  502  0.10051526880E+04  0.25095951313E+03  0.12577969759E+04  0.16295361076E+04  0.46999998093E+01 0.  1.
</event>
<event>
 5   0  0.3796529E-07  0.3280611E+04  0.7818609E-02  0.8167847E-01
        1   -1    0    0  501    0  0.00000000000E+00  0.00000000000E+00  0.13561417320E+04  0.13561417320E+04  0.50400001928E-02 0. -1.
       -1   -1    0    0    0  501  0.00000000000E+00  0.00000000000E+00 -0.19840120605E+04  0.19840120605E+04  0.50400001928E-02 0.  1.
    10030    2    1    2    0    0  0.00000000000E+00  0.00000000000E+00 -0.62787032856E+03  0.33401537925E+04  0.32806106456E+04 0.  0.
        5    1    3    3  502    0 -0.77412217862E+03  0.64693991515E+03  0.10029005143E+04  0.14225427701E+04  0.46999998093E+01 0. -1.
       -5    1    3    3    0  502  0.77412217862E+03 -0.64693991515E+03 -0.16307708429E+04  0.19176110224E+04  0.46999998093E+01 0.  1.
</event>
<event>
 5   0  0.1116462E-06  0.3314448E+04  0.7818609E-02  0.8159229E-01
        2   -1    0    0  501    0  0.00000000000E+00  0.00000000000E+00  0.24227183248E+04  0.24227183248E+04  0.25500000920E-02 0.  1.
       -2   -1    0    0    0  501  0.00000000000E+00  0.00000000000E+00 -0.11335988856E+04  0.11335988856E+04  0.25500000920E-02 0. -1.
    10030    2    1    2    0    0  0.00000000000E+00  0.00000000000E+00  0.12891194393E+04  0.35563172104E+04  0.33144476421E+04 0.  0.
        1    1    3    3  502    0 -0.12695417018E+03  0.15915937120E+04  0.16819913232E+03  0.16054839936E+04  0.50400001928E-02 0. -1.
       -1    1    3    3    0  502  0.12695417018E+03 -0.15915937120E+04  0.11209203069E+04  0.19508332169E+04  0.50400001928E-02 0.  1.
</event>
<event>
 5   0  0.1146799E-06  0.3274110E+04  0.7818609E-02  0.8169514E-01
       -2   -1    0    0    0  501  0.00000000000E+00  0.00000000000E+00  0.11649044234E+04  0.11649044234E+04  0.25500000920E-02 0. -1.
        2   -1    0    0  501    0  0.00000000000E+00  0.00000000000E+00 -0.23005747243E+04  0.23005747243E+04  0.25500000920E-02 0.  1.
    10030    2    1    2    0    0  0.00000000000E+00  0.00000000000E+00 -0.11356703009E+04  0.34654791477E+04  0.32741103663E+04 0.  0.
        5    1    3    3  502    0  0.76417061134E+03 -0.67629835708E+03  0.78705881849E+03  0.12887280026E+04  0.46999998093E+01 0. -1.
       -5    1    3    3    0  502 -0.76417061134E+03  0.67629835708E+03 -0.19227291194E+04  0.21767511451E+04  0.46999998093E+01 0.  1.
</event>
<event>
 5   0  0.1146799E-06  0.3359110E+04  0.7818609E-02  0.8148016E-01
       -2   -1    0    0    0  501  0.00000000000E+00  0.00000000000E+00  0.13235601665E+04  0.13235601665E+04  0.25500000920E-02 0.  1.
        2   -1    0    0  501    0  0.00000000000E+00  0.00000000000E+00 -0.21313010652E+04  0.21313010652E+04  0.25500000920E-02 0. -1.
    10030    2    1    2    0    0  0.00000000000E+00  0.00000000000E+00 -0.80774089872E+03  0.34548612316E+04  0.33591101158E+04 0.  0.
        5    1    3    3  502    0  0.68999578274E+03 -0.15309392766E+04 -0.43661914672E+03  0.17350872076E+04  0.46999998093E+01 0. -1.
       -5    1    3    3    0  502 -0.68999578274E+03  0.15309392766E+04 -0.37112175199E+03  0.17197740240E+04  0.46999998093E+01 0.  1.
</event>
<event>
 5   0  0.3796529E-07  0.3295732E+04  0.7818609E-02  0.8163982E-01
       -1   -1    0    0    0  501  0.00000000000E+00  0.00000000000E+00  0.14324579697E+04  0.14324579697E+04  0.50400001928E-02 0. -1.
        1   -1    0    0  501    0  0.00000000000E+00  0.00000000000E+00 -0.18956664470E+04  0.18956664470E+04  0.50400001928E-02 0.  1.
    10030    2    1    2    0    0  0.00000000000E+00  0.00000000000E+00 -0.46320847732E+03  0.33281244167E+04  0.32957320947E+04 0.  0.
        5    1    3    3  502    0  0.15207187275E+04  0.63384486213E+03 -0.26503036594E+03  0.16687144580E+04  0.46999998093E+01 0. -1.
       -5    1    3    3    0  502 -0.15207187275E+04 -0.63384486213E+03 -0.19817811138E+03  0.16594099588E+04  0.46999998093E+01 0.  1.
</event>
<event>
 5   0  0.3796529E-07  0.3424574E+04  0.7818609E-02  0.8131901E-01
        1   -1    0    0  501    0  0.00000000000E+00  0.00000000000E+00  0.27537378712E+04  0.27537378712E+04  0.50400001928E-02 0. -1.
       -1   -1    0    0    0  501  0.00000000000E+00  0.00000000000E+00 -0.10647081004E+04  0.10647081004E+04  0.50400001928E-02 0.  1.
    10030    2    1    2    0    0  0.00000000000E+00  0.00000000000E+00  0.16890297708E+04  0.38184459716E+04  0.34245741445E+04 0.  0.
        5    1    3    3  502    0 -0.11755089427E+04 -0.10578098736E+04  0.11239849233E+03  0.15853827658E+04  0.46999998093E+01 0.  1.
       -5    1    3    3    0  502  0.11755089427E+04  0.10578098736E+04  0.15766312785E+04  0.22330632058E+04  0.46999998093E+01 0. -1.
</event>
<event>
 5   0  0.1146799E-06  0.3311323E+04  0.7818609E-02  0.8160020E-01
        2   -1    0    0  501    0  0.00000000000E+00  0.00000000000E+00  0.22550992896E+04  0.22550992896E+04  0.25500000920E-02 0. -1.
       -2   -1    0    0    0  501  0.00000000000E+00  0.00000000000E+00 -0.12155629010E+04  0.12155629010E+04  0.25500000920E-02 0.  1.
    10030    2    1    2    0    0  0.00000000000E+00  0.00000000000E+00  0.10395363886E+04  0.34706621907E+04  0.33113230193E+04 0.  0.
        5    1    3    3  502    0 -0.18783521895E+03  0.16420636277E+04  0.41740647324E+03  0.17046716050E+04  0.46999998093E+01 0.  1.
       -5    1    3    3    0  502  0.18783521895E+03 -0.16420636277E+04  0.62212991539E+03  0.17659905857E+04  0.46999998093E+01 0. -1.
</event>
<event>
 5   0  0.3709747E-07  0.3296218E+04  0.7818609E-02  0.8163858E-01
       -1   -1    0    0    0  501  0.00000000000E+00  0.00000000000E+00  0.18009738914E+04  0.18009738914E+04  0.50400001928E-02 0.  1.
        1   -1    0    0  501    0  0.00000000000E+00  0.00000000000E+00 -0.15082190983E+04  0.15082190983E+04  0.50400001928E-02 0. -1.
    10030    2    1    2    0    0  0.00000000000E+00  0.00000000000E+00  0.29275479307E+03  0.33091929897E+04  0.32962179652E+04 0.  0.
        4    1    3    3  502    0  0.39420895803E+03  0.15166897569E+02  0.17528734458E+04  0.17967185832E+04  0.12699999809E+01 0.  1.
       -4    1    3    3    0  502 -0.39420895803E+03 -0.15166897569E+02 -0.14601186527E+04  0.15124744065E+04  0.12699999809E+01 0. -1.
</event>
<event>
 5   0  0.1116462E-06  0.2963083E+04  0.7818609E-02  0.8254352E-01
       -2   -1    0    0    0  501  0.00000000000E+00  0.00000000000E+00  0.68851554483E+03  0.68851554483E+03  0.25500000920E-02 0.  1.
        2   -1    0    0  501    0  0.00000000000E+00  0.00000000000E+00 -0.31879685783E+04  0.31879685783E+04  0.25500000920E-02 0. -1.
    10030    2    1    2    0    0  0.00000000000E+00  0.00000000000E+00 -0.24994530335E+04  0.38764841232E+04  0.29630834768E+04 0.  0.
        1    1    3    3  502    0  0.43142640237E+03  0.42628605743E+03  0.51866061980E+03  0.79803344665E+03  0.50400001928E-02 0.  1.
       -1    1    3    3    0  502 -0.43142640237E+03 -0.42628605743E+03 -0.30181136533E+04  0.30784506765E+04  0.50400001928E-02 0. -1.
</event>
<event>
 5   0  0.3796529E-07  0.3248783E+04  0.7818609E-02  0.8176051E-01
        1   -1    0    0  501    0  0.00000000000E+00  0.00000000000E+00  0.11379646613E+04  0.11379646613E+04  0.50400001928E-02 0.  1.
       -1   -1    0    0    0  501  0.00000000000E+00  0.00000000000E+00 -0.23187425451E+04  0.23187425451E+04  0.50400001928E-02 0. -1.
    10030    2    1    2    0    0  0.00000000000E+00  0.00000000000E+00 -0.11807778838E+04  0.34567072064E+04  0.32487825874E+04 0.  0.
        5    1    3    3  502    0 -0.55328876745E+03 -0.47924428182E+03  0.95253012082E+03  0.12013073141E+04  0.46999998093E+01 0.  1.
       -5    1    3    3    0  502  0.55328876745E+03  0.47924428182E+03 -0.21333080046E+04  0.22553998923E+04  0.46999998093E+01 0. -1.
</event>
<event>
 5   0  0.3757406E-07  0.3306714E+04  0.7818609E-02  0.8161189E-01
       -1   -1    0    0    0  501  0.00000000000E+00  0.00000000000E+00  0.10242561132E+04  0.10242561132E+04  0.50400001928E-02 0.  1.
        1   -1    0    0  501    0  0.00000000000E+00  0.00000000000E+00 -0.26688531135E+04  0.26688531135E+04  0.50400001928E-02 0. -1.
    10030    2    1    2    0    0  0.00000000000E+00  0.00000000000E+00 -0.16445970003E+04  0.36931092267E+04  0.33067138471E+04 0.  0.
        1    1    3    3  502    0  0.37042433057E+03 -0.36731494732E+03 -0.25745299008E+04  0.26268495704E+04  0.50400001928E-02 0. -1.
       -1    1    3    3    0  502 -0.37042433057E+03  0.36731494732E+03  0.92993290050E+03  0.10662596563E+04  0.50400001928E-02 0.  1.
</event>
<event>
 5   0  0.3757406E-07  0.3301279E+04  0.7818609E-02  0.8162570E-01
       -1   -1    0    0    0  501  0.00000000000E+00  0.00000000000E+00  0.13731098730E+04  0.13731098730E+04  0.50400001928E-02 0. -1.
        1   -1    0    0  501    0  0.00000000000E+00  0.00000000000E+00 -0.19842630711E+04  0.19842630711E+04  0.50400001928E-02 0.  1.
    10030    2    1    2    0    0  0.00000000000E+00  0.00000000000E+00 -0.61115319812E+03  0.33573729441E+04  0.33012792754E+04 0.  0.
        1    1    3    3  502    0  0.26884596775E+03  0.27096754596E+03 -0.19387616057E+04  0.19759802957E+04  0.50400001928E-02 0.  1.
       -1    1    3    3    0  502 -0.26884596775E+03 -0.27096754596E+03  0.13276084075E+04  0.13813926484E+04  0.50400001928E-02 0. -1.
</event>
<event>
 5   0  0.3709747E-07  0.3317352E+04  0.7818609E-02  0.8158494E-01
       -1   -1    0    0    0  501  0.00000000000E+00  0.00000000000E+00  0.10778655724E+04  0.10778655724E+04  0.50400001928E-02 0. -1.
        1   -1    0    0  501    0  0.00000000000E+00  0.00000000000E+00 -0.25524580252E+04  0.25524580252E+04  0.50400001928E-02 0.  1.
    10030    2    1    2    0    0  0.00000000000E+00  0.00000000000E+00 -0.14745924528E+04  0.36303235976E+04  0.33173523360E+04 0.  0.
        4    1    3    3  502    0  0.12495217933E+04  0.51475449934E+03 -0.17897613852E+04  0.22426601025E+04  0.12699999809E+01 0.  1.
       -4    1    3    3    0  502 -0.12495217933E+04 -0.51475449934E+03  0.31516893245E+03  0.13876634950E+04  0.12699999809E+01 0. -1.
</event>
<event>
 5   0  0.1120545E-06  0.3287955E+04  0.7818609E-02  0.8165967E-01
        2   -1    0    0  501    0  0.00000000000E+00  0.00000000000E+00  0.19051852092E+04  0.19051852092E+04  0.25500000920E-02 0. -1.
       -2   -1    0    0    0  501  0.00000000000E+00  0.00000000000E+00 -0.14185821382E+04  0.14185821382E+04  0.25500000920E-02 0.  1.
    10030    2    1    2    0    0  0.00000000000E+00  0.00000000000E+00  0.48660307104E+03  0.33237673474E+04  0.32879548098E+04 0.  0.
        4    1    3    3  502    0 -0.30108001254E+03  0.58614243601E+03 -0.12792401361E+04  0.14389819554E+04  0.12699999809E+01 0.  1.
       -4    1    3    3    0  502  0.30108001254E+03 -0.58614243601E+03  0.17658432071E+04  0.18847853921E+04  0.12699999809E+01 0. -1.
</event>
<event>
 5   0  0.1129434E-06  0.3270814E+04  0.7818609E-02  0.8170362E-01
        2   -1    0    0  501    0  0.00000000000E+00  0.00000000000E+00  0.25896749139E+04  0.25896749139E+04  0.25500000920E-02 0.  1.
       -2   -1    0    0    0  501  0.00000000000E+00  0.00000000000E+00 -0.10327770472E+04  0.10327770472E+04  0.25500000920E-02 0. -1.
    10030    2    1    2    0    0  0.00000000000E+00  0.00000000000E+00  0.15568978667E+04  0.36224519610E+04  0.32708144617E+04 0.  0.
        3    1    3    3  502    0 -0.11216753516E+04  0.84449795961E+03 -0.15029008547E+03  0.14120621510E+04  0.10100000352E+00 0. -1.
       -3    1    3    3    0  502  0.11216753516E+04 -0.84449795961E+03  0.17071879521E+04  0.22103898101E+04  0.10100000352E+00 0.  1.
</event>
<event>
 5   0  0.3757406E-07  0.3285084E+04  0.7818609E-02  0.8166701E-01
        1   -1    0    0  501    0  0.00000000000E+00  0.00000000000E+00  0.21204239654E+04  0.21204239654E+04  0.50400001928E-02 0. -1.
       -1   -1    0    0    0  501  0.00000000000E+00  0.00000000000E+00 -0.12723609179E+04  0.12723609179E+04  0.50400001928E-02 0.  1.
    10030    2    1    2    0    0  0.00000000000E+00  0.00000000000E+00  0.84806304749E+03  0.33927848833E+04  0.32850842199E+04 0.  0.
        1    1    3    3  502    0 -0.74891614910E+03  0.43047881757E+03 -0.10188235412E+04  0.13357353102E+04  0.50400001928E-02 0.  1.
       -1    1    3    3    0  502  0.74891614910E+03 -0.43047881757E+03  0.18668865887E+04  0.20570495730E+04  0.50400001928E-02 0. -1.
</event>
<event>
 5   0  0.1146799E-06  0.3269561E+04  0.7818609E-02  0.8170684E-01
       -2   -1    0    0    0  501  0.00000000000E+00  0.00000000000E+00  0.10173895979E+04  0.10173895979E+04  0.25500000920E-02 0.  1.
        2   -1    0    0  501    0  0.00000000000E+00  0.00000000000E+00 -0.26268271715E+04  0.26268271715E+04  0.25500000920E-02 0. -1.
    10030    2    1    2    0    0  0.00000000000E+00  0.00000000000E+00 -0.16094375736E+04  0.36442167694E+04  0.32695606064E+04 0.  0.
        5    1    3    3  502    0 -0.15579639533E+04  0.62828306418E+02 -0.25722348253E+03  0.15803117052E+04  0.46999998093E+01 0.  1.
       -5    1    3    3    0  502  0.15579639533E+04 -0.62828306418E+02 -0.13522140911E+04  0.20639050642E+04  0.46999998093E+01 0. -1.
</event>
<event>
 5   0  0.1129434E-06  0.3281889E+04  0.7818609E-02  0.8167519E-01
       -2   -1    0    0    0  501  0.00000000000E+00  0.00000000000E+00  0.91831892257E+03  0.91831892257E+03  0.25500000920E-02 0. -1.
        2   -1    0    0  501    0  0.00000000000E+00  0.00000000000E+00 -0.29322041344E+04  0.29322041344E+04  0.25500000920E-02 0.  1.
    10030    2    1    2    0    0  0.00000000000E+00  0.00000000000E+00 -0.20138852118E+04  0.38505230570E+04  0.32818888107E+04 0.  0.
        3    1    3    3  502    0  0.87133508797E+03  0.13629654040E+04 -0.13299612668E+04  0.20942054602E+04  0.10100000352E+00 0. -1.
       -3    1    3    3    0  502 -0.87133508797E+03 -0.13629654040E+04 -0.68392394499E+03  0.17563175968E+04  0.10100000352E+00 0.  1.
</event>
<event>
 5   0  0.1120545E-06  0.3268799E+04  0.7818609E-02  0.8170880E-01
       -2   -1    0    0    0  501  0.00000000000E+00  0.00000000000E+00  0.19041133830E+04  0.19041133830E+04  0.25500000920E-02 0.  1.
        2   -1    0    0  501    0  0.00000000000E+00  0.00000000000E+00 -0.14028903754E+04  0.14028903754E+04  0.25500000920E-02 0. -1.
    10030    2    1    2    0    0  0.00000000000E+00  0.00000000000E+00  0.50122300764E+03  0.33070037584E+04  0.32687993751E+04 0.  0.
        4    1    3    3  502    0  0.78607808806E+03  0.60157078032E+03  0.15663712330E+04  0.18529238022E+04  0.12699999809E+01 0.  1.
       -4    1    3    3    0  502 -0.78607808806E+03 -0.60157078032E+03 -0.10651482253E+04  0.14540799562E+04  0.12699999809E+01 0. -1.
</event>
<event>
 5   0  0.1126221E-06  0.3319222E+04  0.7818609E-02  0.8158022E-01
        2   -1    0    0  501    0  0.00000000000E+00  0.00000000000E+00  0.21345083664E+04  0.21345083664E+04  0.25500000920E-02 0. -1.
       -2   -1    0    0    0  501  0.00000000000E+00  0.00000000000E+00 -0.12903712105E+04  0.12903712105E+04  0.25500000920E-02 0.  1.
    10030    2    1    2    0    0  0.00000000000E+00  0.00000000000E+00  0.84413715596E+03  0.34248795769E+04  0.33192216826E+04 0.  0.
        2    1    3    3  502    0 -0.13749248658E+04  0.88447412848E+03  0.12732690128E+03  0.16397941975E+04  0.25500000920E-02 0.  1.
       -2    1    3    3    0  502  0.13749248658E+04 -0.88447412848E+03  0.71681025468E+03  0.17850853794E+04  0.25500000920E-02 0. -1.
</event>
<event>
 5   0  0.1126221E-06  0.3278044E+04  0.7818609E-02  0.8168505E-01
        2   -1    0    0  501    0  0.00000000000E+00  0.00000000000E+00  0.17466520793E+04  0.17466520793E+04  0.25500000920E-02 0.  1.
       -2   -1    0    0    0  501  0.00000000000E+00  0.00000000000E+00 -0.15380238886E+04  0.15380238886E+04  0.25500000920E-02 0. -1.
    10030    2    1    2    0    0  0.00000000000E+00  0.00000000000E+00  0.20862819069E+03  0.32846759679E+04  0.32780436990E+04 0.  0.
        2    1    3    3  502    0  0.40332573743E+02  0.13946831976E+04  0.96606846225E+03  0.16970728364E+04  0.25500000920E-02 0.  1.
       -2    1    3    3    0  502 -0.40332573743E+02 -0.13946831976E+04 -0.75744027155E+03  0.15876031315E+04  0.25500000920E-02 0. -1.
</event>
<event>
 5   0  0.1126221E-06  0.3295728E+04  0.7818609E-02  0.8163983E-01
       -2   -1    0    0    0  501  0.00000000000E+00  0.00000000000E+00  0.92379561096E+03  0.92379561096E+03  0.25500000920E-02 0. -1.
        2   -1    0    0  501    0  0.00000000000E+00  0.00000000000E+00 -0.29394559675E+04  0.29394559675E+04  0.25500000920E-02 0.  1.
    10030    2    1    2    0    0  0.00000000000E+00  0.00000000000E+00 -0.20156603565E+04  0.38632515784E+04  0.32957284605E+04 0.  0.
        2    1    3    3  502    0  0.10230934172E+04  0.71948722214E+03 -0.22654613355E+04  0.25877977250E+04  0.25500000920E-02 0.  1.
       -2    1    3    3    0  502 -0.10230934172E+04 -0.71948722214E+03  0.24980097896E+03  0.12754538534E+04  0.25500000920E-02 0. -1.
</event>
<event>
 5   0  0.1129434E-06  0.3303086E+04  0.7818609E-02  0.8162111E-01
       -2   -1    0    0    0  501  0.00000000000E+00  0.00000000000E+00  0.12370236041E+04  0.12370236041E+04  0.25500000920E-02 0.  1.
        2   -1    0    0  501    0  0.00000000000E+00  0.00000000000E+00 -0.22049655606E+04  0.22049655606E+04  0.25500000920E-02 0. -1.
    10030    2    1    2    0    0  0.00000000000E+00  0.00000000000E+00 -0.96794195643E+03  0.34419891647E+04  0.33030860993E+04 0.  0.
        3    1    3    3  502    0  0.11362548514E+04 -0.10484968731E+04 -0.10890560258E+04  0.18911540967E+04  0.10100000352E+00 0.  1.
       -3    1    3    3    0  502 -0.11362548514E+04  0.10484968731E+04  0.12111406936E+03  0.15508350680E+04  0.10100000352E+00 0. -1.
</event>
<event>
 5   0  0.1120545E-06  0.3301312E+04  0.7818609E-02  0.8162562E-01
       -2   -1    0    0    0  501  0.00000000000E+00  0.00000000000E+00  0.16329130758E+04  0.16329130758E+04  0.25500000920E-02 0. -1.
        2   -1    0    0  501    0  0.00000000000E+00  0.00000000000E+00 -0.16685913098E+04  0.16685913098E+04  0.25500000920E-02 0.  1.
    10030    2    1    2    0    0  0.00000000000E+00  0.00000000000E+00 -0.35678234077E+02  0.33015043856E+04  0.33013115987E+04 0.  0.
        4    1    3    3  502    0 -0.53325160825E+03 -0.40181648122E+03  0.14918348069E+04  0.16344376606E+04  0.12699999809E+01 0. -1.
       -4    1    3    3    0  502  0.53325160825E+03  0.40181648122E+03 -0.15275130410E+04  0.16670667250E+04  0.12699999809E+01 0.  1.
</event>
<event>
 5   0  0.1116462E-06  0.3293092E+04  0.7818609E-02  0.8164655E-01
       -2   -1    0    0    0  501  0.00000000000E+00  0.00000000000E+00  0.18970929185E+04  0.18970929185E+04  0.25500000920E-02 0.  1.
        2   -1    0    0  501    0  0.00000000000E+00  0.00000000000E+00 -0.14290889528E+04  0.14290889528E+04  0.25500000920E-02 0. -1.
    10030    2    1    2    0    0  0.00000000000E+00  0.00000000000E+00  0.46800396567E+03  0.33261818712E+04  0.32930924871E+04 0.  0.
        1    1    3    3  502    0  0.58889881515E+03  0.15352355955E+04  0.32068026067E+03  0.16752868345E+04  0.50400001928E-02 0.  1.
       -1    1    3    3    0  502 -0.58889881515E+03 -0.15352355955E+04  0.14732370500E+03  0.16508950367E+04  0.50400001928E-02 0. -1.
</event>
<event>
 5   0  0.3757406E-07  0.3302463E+04  0.7818609E-02  0.8162269E-01
        1   -1    0    0  501    0  0.00000000000E+00  0.00000000000E+00  0.22421327899E+04  0.22421327899E+04  0.50400001928E-02 0.  1.
       -1   -1    0    0    0  501  0.00000000000E+00  0.00000000000E+00 -0.12160591270E+04  0.12160591270E+04  0.50400001928E-02 0. -1.
    10030    2    1    2    0    0  0.00000000000E+00  0.00000000000E+00  0.10260736629E+04  0.34581919168E+04  0.33024633491E+04 0.  0.
        1    1    3    3  502    0  0.14798720321E+04 -0.53281638982E+03  0.10393836847E+04  0.18852673499E+04  0.50400001928E-02 0. -1.
       -1    1    3    3    0  502 -0.14798720321E+04  0.53281638982E+03 -0.13310021821E+02  0.15729245669E+04  0.50400001928E-02 0.  1.
</event>
<event>
 5   0  0.3749685E-07  0.3167180E+04  0.7818609E-02  0.8197539E-01
       -1   -1    0    0    0  501  0.00000000000E+00  0.00000000000E+00  0.13385978963E+04  0.13385978963E+04  0.50400001928E-02 0.  1.
        1   -1    0    0  501    0  0.00000000000E+00  0.00000000000E+00 -0.18734209968E+04  0.18734209968E+04  0.50400001928E-02 0. -1.
    10030    2    1    2    0    0  0.00000000000E+00  0.00000000000E+00 -0.53482310056E+03  0.32120188931E+04  0.31671800739E+04 0.  0.
        3    1    3    3  502    0 -0.13617003472E+02  0.71576513096E+03 -0.16999432442E+04  0.18445357653E+04  0.10100000352E+00 0. -1.
       -3    1    3    3    0  502  0.13617003472E+02 -0.71576513096E+03  0.11651201437E+04  0.13674831278E+04  0.10100000352E+00 0.  1.
</event>
<event>
 5   0  0.3757406E-07  0.3285465E+04  0.7818609E-02  0.8166604E-01
       -1   -1    0    0    0  501  0.00000000000E+00  0.00000000000E+00  0.15896084176E+04  0.15896084176E+04  0.50400001928E-02 0. -1.
        1   -1    0    0  501    0  0.00000000000E+00  0.00000000000E+00 -0.16976324639E+04  0.16976324639E+04  0.50400001928E-02 0.  1.
    10030    2    1    2    0    0  0.00000000000E+00  0.00000000000E+00 -0.10802404634E+03  0.32872408815E+04  0.32854654797E+04 0.  0.
        1    1    3    3  502    0 -0.11788404806E+04 -0.10360340631E+04 -0.53959829435E+03  0.16595775902E+04  0.50400001928E-02 0.  1.
       -1    1    3    3    0  502  0.11788404806E+04  0.10360340631E+04  0.43157424801E+03  0.16276632914E+04  0.50400001928E-02 0. -1.
</event>
<event>
 5   0  0.1120545E-06  0.3274621E+04  0.7818609E-02  0.8169383E-01
       -2   -1    0    0    0  501  0.00000000000E+00  0.00000000000E+00  0.10077667956E+04  0.10077667957E+04  0.25500000920E-02 0. -1.
        2   -1    0    0  501    0  0.00000000000E+00  0.00000000000E+00 -0.26601250961E+04  0.26601250961E+04  0.25500000920E-02 0.  1.
    10030    2    1    2    0    0  0.00000000000E+00  0.00000000000E+00 -0.16523583005E+04  0.36678918918E+04  0.32746210432E+04 0.  0.
        4    1    3    3  502    0  0.11830552664E+04 -0.48850804907E+03 -0.19698434435E+04  0.23491582923E+04  0.12699999809E+01 0.  1.
       -4    1    3    3    0  502 -0.11830552664E+04  0.48850804907E+03  0.31748514303E+03  0.13187335995E+04  0.12699999809E+01 0. -1.
</event>
<event>
 5   0  0.1126221E-06  0.3303195E+04  0.7818609E-02  0.8162083E-01
        2   -1    0    0  501    0  0.00000000000E+00  0.00000000000E+00  0.22203399392E+04  0.22203399392E+04  0.25500000920E-02 0. -1.
       -2   -1    0    0    0  501  0.00000000000E+00  0.00000000000E+00 -0.12285387898E+04  0.12285387898E+04  0.25500000920E-02 0.  1.
    10030    2    1    2    0    0  0.00000000000E+00  0.00000000000E+00  0.99180114944E+03  0.34488787290E+04  0.33031946608E+04 0.  0.
        2    1    3    3  502    0 -0.15818144546E+04  0.42932023300E+03  0.28365986077E+03  0.16634048658E+04  0.25500000920E-02 0.  1.
       -2    1    3    3    0  502  0.15818144546E+04 -0.42932023300E+03  0.70814128867E+03  0.17854738631E+04  0.25500000920E-02 0. -1.
</event>
<event>
 5   0  0.1126221E-06  0.3302848E+04  0.7818609E-02  0.8162171E-01
       -2   -1    0    0    0  501  0.00000000000E+00  0.00000000000E+00  0.15007070210E+04  0.15007070210E+04  0.25500000920E-02 0. -1.
        2   -1    0    0  501    0  0.00000000000E+00  0.00000000000E+00 -0.18172773645E+04  0.18172773645E+04  0.25500000920E-02 0.  1.
    10030    2    1    2    0    0  0.00000000000E+00  0.00000000000E+00 -0.31657034351E+03  0.33179843855E+04  0.33028478016E+04 0.  0.
        2    1    3    3  502    0  0.40972271943E+02  0.13692331422E+03  0.14944824220E+04  0.15013009127E+04  0.25500000920E-02 0. -1.
       -2    1    3    3    0  502 -0.40972271943E+02 -0.13692331422E+03 -0.18110527655E+04  0.18166834728E+04  0.25500000920E-02 0.  1.
</event>
<event>
 5   0  0.1116462E-06  0.3301933E+04  0.7818609E-02  0.8162404E-01
        2   -1    0    0  501    0  0.00000000000E+00  0.00000000000E+00  0.32397186003E+04  0.32397186003E+04  0.25500000920E-02 0.  1.
       -2   -1    0    0    0  501  0.00000000000E+00  0.00000000000E+00 -0.84133534793E+03  0.84133534794E+03  0.25500000920E-02 0. -1.
    10030    2    1    2    0    0  0.00000000000E+00  0.00000000000E+00  0.23983832523E+04  0.40810539482E+04  0.33019326315E+04 0.  0.
        1    1    3    3  502    0 -0.71604764878E+02 -0.11657403452E+03 -0.83431734105E+03  0.84545974090E+03  0.50400001928E-02 0. -1.
       -1    1    3    3    0  502  0.71604764878E+02  0.11657403452E+03  0.32327005934E+04  0.32355942073E+04  0.50400001928E-02 0.  1.
</event>
<event>
 5   0  0.1146799E-06  0.3290789E+04  0.7818609E-02  0.8165243E-01
        2   -1    0    0  501    0  0.00000000000E+00  0.00000000000E+00  0.34678849936E+04  0.34678849936E+04  0.25500000920E-02 0.  1.
       -2   -1    0    0    0  501  0.00000000000E+00  0.00000000000E+00 -0.78068427548E+03  0.78068427548E+03  0.25500000920E-02 0. -1.
    10030    2    1    2    0    0  0.00000000000E+00  0.00000000000E+00  0.26872007181E+04  0.42485692691E+04  0.32907891355E+04 0.  0.
        5    1    3    3  502    0  0.91839880253E+03  0.37705090928E+03 -0.35041968067E+03  0.10528246726E+04  0.46999998093E+01 0. -1.
       -5    1    3    3    0  502 -0.91839880253E+03 -0.37705090928E+03  0.30376203988E+04  0.31957445964E+04  0.46999998093E+01 0.  1.
</event>
<event>
 5   0  0.3674967E-07  0.3298838E+04  0.7818609E-02  0.8163191E-01
        1   -1    0    0  501    0  0.00000000000E+00  0.00000000000E+00  0.16675944043E+04  0.16675944043E+04  0.50400001928E-02 0. -1.
       -1   -1    0    0    0  501  0.00000000000E+00  0.00000000000E+00 -0.16314416022E+04  0.16314416023E+04  0.50400001928E-02 0.  1.
    10030    2    1    2    0    0  0.00000000000E+00  0.00000000000E+00  0.36152802026E+02  0.32990360065E+04  0.32988379086E+04 0.  0.
        2    1    3    3  502    0 -0.36613916415E+03 -0.13620381399E+04 -0.83718083921E+03  0.16401455849E+04  0.25500000920E-02 0.  1.
       -2    1    3    3    0  502  0.36613916415E+03  0.13620381399E+04  0.87333364123E+03  0.16588904216E+04  0.25500000920E-02 0. -1.
</event>
<event>
 5   0  0.3749685E-07  0.3259764E+04  0.7818609E-02  0.8173210E-01
        1   -1    0    0  501    0  0.00000000000E+00  0.00000000000E+00  0.21404412533E+04  0.21404412533E+04  0.50400001928E-02 0. -1.
       -1   -1    0    0    0  501  0.00000000000E+00  0.00000000000E+00 -0.12411063528E+04  0.12411063528E+04  0.50400001928E-02 0.  1.
    10030    2    1    2    0    0  0.00000000000E+00  0.00000000000E+00  0.89933490047E+03  0.33815476061E+04  0.32597639407E+04 0.  0.
        3    1    3    3  502    0  0.15009950622E+04 -0.16741450841E+03  0.10853424826E+04  0.18598338929E+04  0.10100000352E+00 0.  1.
       -3    1    3    3    0  502 -0.15009950622E+04  0.16741450841E+03 -0.18600758209E+03  0.15217137133E+04  0.10100000352E+00 0. -1.
</event>
<event>
 5   0  0.3757406E-07  0.2908244E+04  0.7818609E-02  0.8270429E-01
        1   -1    0    0  501    0  0.00000000000E+00  0.00000000000E+00  0.19675575142E+04  0.19675575142E+04  0.50400001928E-02 0.  1.
       -1   -1    0    0    0  501  0.00000000000E+00  0.00000000000E+00 -0.10746675161E+04  0.10746675161E+04  0.50400001928E-02 0. -1.
    10030    2    1    2    0    0  0.00000000000E+00  0.00000000000E+00  0.89288999815E+03  0.30422250303E+04  0.29082435569E+04 0.  0.
        1    1    3    3  502    0  0.13299789888E+04 -0.57321588720E+03  0.30985546151E+03  0.14810236227E+04  0.50400001928E-02 0. -1.
       -1    1    3    3    0  502 -0.13299789888E+04  0.57321588720E+03  0.58303453664E+03  0.15612014076E+04  0.50400001928E-02 0.  1.
</event>
<event>
 5   0  0.3674967E-07  0.3283697E+04  0.7818609E-02  0.8167056E-01
        1   -1    0    0  501    0  0.00000000000E+00  0.00000000000E+00  0.19126318440E+04  0.19126318440E+04  0.50400001928E-02 0. -1.
       -1   -1    0    0    0  501  0.00000000000E+00  0.00000000000E+00 -0.14094017885E+04  0.14094017885E+04  0.50400001928E-02 0.  1.
    10030    2    1    2    0    0  0.00000000000E+00  0.00000000000E+00  0.50323005553E+03  0.33220336325E+04  0.32836971490E+04 0.  0.
        2    1    3    3  502    0  0.16111256141E+04 -0.30940589011E+03  0.18598085882E+03  0.16510743863E+04  0.25500000920E-02 0. -1.
       -2    1    3    3    0  502 -0.16111256141E+04  0.30940589011E+03  0.31724919671E+03  0.16709592461E+04  0.25500000920E-02 0.  1.
</event>
<event>
 5   0  0.1129434E-06  0.3295662E+04  0.7818609E-02  0.8164000E-01
        2   -1    0    0  501    0  0.00000000000E+00  0.00000000000E+00  0.23166813548E+04  0.23166813548E+04  0.25500000920E-02 0.  1.
       -2   -1    0    0    0  501  0.00000000000E+00  0.00000000000E+00 -0.11720844950E+04  0.11720844950E+04  0.25500000920E-02 0. -1.
    10030    2    1    2    0    0  0.00000000000E+00  0.00000000000E+00  0.11445968598E+04  0.34887658499E+04  0.32956615700E+04 0.  0.
        3    1    3    3  502    0 -0.10080035596E+04  0.61653392826E+03  0.17881431704E+04  0.21432781595E+04  0.10100000352E+00 0.  1.
       -3    1    3    3    0  502  0.10080035596E+04 -0.61653392826E+03 -0.64354631057E+03  0.13454876904E+04  0.10100000352E+00 0. -1.
</event>
<event>
 5   0  0.3674967E-07  0.3307893E+04  0.7818609E-02  0.8160890E-01
       -1   -1    0    0    0  501  0.00000000000E+00  0.00000000000E+00  0.11920888685E+04  0.11920888685E+04  0.50400001928E-02 0.  1.
        1   -1    0    0  501    0  0.00000000000E+00  0.00000000000E+00 -0.22947441575E+04  0.22947441575E+04  0.50400001928E-02 0. -1.
    10030    2    1    2    0    0  0.00000000000E+00  0.00000000000E+00 -0.11026552891E+04  0.34868330260E+04  0.33078929645E+04 0.  0.
        2    1    3    3  502    0 -0.89605911784E+03 -0.15448989533E+03 -0.20076389319E+04  0.22039517126E+04  0.25500000920E-02 0. -1.
       -2    1    3    3    0  502  0.89605911784E+03  0.15448989533E+03  0.90498364288E+03  0.12828813134E+04  0.25500000920E-02 0.  1.
</event>
<event>
 5   0  0.1146799E-06  0.3278499E+04  0.7818609E-02  0.8168388E-01
       -2   -1    0    0    0  501  0.00000000000E+00  0.00000000000E+00  0.16902501089E+04  0.16902501089E+04  0.25500000920E-02 0.  1.
        2   -1    0    0  501    0  0.00000000000E+00  0.00000000000E+00 -0.15897882317E+04  0.15897882317E+04  0.25500000920E-02 0. -1.
    10030    2    1    2    0    0  0.00000000000E+00  0.00000000000E+00  0.10046187715E+03  0.32800383406E+04  0.32784994933E+04 0.  0.
        5    1    3    3  502    0 -0.12499109147E+03  0.23315590889E+03  0.16687458764E+04  0.16895914716E+04  0.46999998093E+01 0.  1.
       -5    1    3    3    0  502  0.12499109147E+03 -0.23315590889E+03 -0.15682839993E+04  0.15904468690E+04  0.46999998093E+01 0. -1.
</event>
<event>
 5   0  0.1116462E-06  0.3335529E+04  0.7818609E-02  0.8153913E-01
        2   -1    0    0  501    0  0.00000000000E+00  0.00000000000E+00  0.18794173629E+04  0.18794173629E+04  0.25500000920E-02 0.  1.
       -2   -1    0    0    0  501  0.00000000000E+00  0.00000000000E+00 -0.14799474590E+04  0.14799474590E+04  0.25500000920E-02 0. -1.
    10030    2    1    2    0    0  0.00000000000E+00  0.00000000000E+00  0.39946990387E+03  0.33593648219E+04  0.33355293137E+04 0.  0.
        1    1    3    3  502    0 -0.11984978311E+04  0.10281624852E+04  0.74015467897E+03  0.17439449808E+04  0.50400001928E-02 0.  1.
       -1    1    3    3    0  502  0.11984978311E+04 -0.10281624852E+04 -0.34068477511E+03  0.16154198411E+04  0.50400001928E-02 0. -1.
</event>
<event>
 5   0  0.3796529E-07  0.3289034E+04  0.7818609E-02  0.8165691E-01
        1   -1    0    0  501    0  0.00000000000E+00  0.00000000000E+00  0.10117727611E+04  0.10117727611E+04  0.50400001928E-02 0. -1.
       -1   -1    0    0    0  501  0.00000000000E+00  0.00000000000E+00 -0.26729683202E+04  0.26729683202E+04  0.50400001928E-02 0.  1.
    10030    2    1    2    0    0  0.00000000000E+00  0.00000000000E+00 -0.16611955592E+04  0.36847410813E+04  0.32890342277E+04 0.  0.
        5    1    3    3  502    0  0.12000015444E+04 -0.83508369192E+03 -0.16742194302E+04  0.22227013451E+04  0.46999998093E+01 0.  1.
       -5    1    3    3    0  502 -0.12000015444E+04  0.83508369192E+03  0.13023871027E+02  0.14620397362E+04  0.46999998093E+01 0. -1.
</event>
<event>
 5   0  0.3749685E-07  0.3328863E+04  0.7818609E-02  0.8155590E-01
       -1   -1    0    0    0  501  0.00000000000E+00  0.00000000000E+00  0.20238505676E+04  0.20238505676E+04  0.50400001928E-02 0.  1.
        1   -1    0    0  501    0  0.00000000000E+00  0.00000000000E+00 -0.13688419218E+04  0.13688419218E+04  0.50400001928E-02 0. -1.
    10030    2    1    2    0    0  0.00000000000E+00  0.00000000000E+00  0.65500864573E+03  0.33926924894E+04  0.33288625688E+04 0.  0.
        3    1    3    3  502    0 -0.17476922098E+03  0.77841135353E+03  0.18162890178E+04  0.19837777906E+04  0.10100000352E+00 0.  1.
       -3    1    3    3    0  502  0.17476922098E+03 -0.77841135353E+03 -0.11612803721E+04  0.14089146989E+04  0.10100000352E+00 0. -1.
</event>
<event>
 5   0  0.3757406E-07  0.3299034E+04  0.7818609E-02  0.8163141E-01
       -1   -1    0    0    0  501  0.00000000000E+00  0.00000000000E+00  0.17569017371E+04  0.17569017371E+04  0.50400001928E-02 0.  1.
        1   -1    0    0  501    0  0.00000000000E+00  0.00000000000E+00 -0.15486957951E+04  0.15486957951E+04  0.50400001928E-02 0. -1.
    10030    2    1    2    0    0  0.00000000000E+00  0.00000000000E+00  0.20820594205E+03  0.33055975322E+04  0.32990339996E+04 0.  0.
        1    1    3    3  502    0  0.14382755007E+04 -0.36336552761E+03 -0.61860548961E+03  0.16072783437E+04  0.50400001928E-02 0. -1.
       -1    1    3    3    0  502 -0.14382755007E+04  0.36336552761E+03  0.82681143166E+03  0.16983191885E+04  0.50400001928E-02 0.  1.
</event>
<event>
 5   0  0.3796529E-07  0.3292911E+04  0.7818609E-02  0.8164701E-01
       -1   -1    0    0    0  501  0.00000000000E+00  0.00000000000E+00  0.13909163068E+04  0.13909163068E+04  0.50400001928E-02 0. -1.
        1   -1    0    0  501    0  0.00000000000E+00  0.00000000000E+00 -0.19489428753E+04  0.19489428753E+04  0.50400001928E-02 0.  1.
    10030    2    1    2    0    0  0.00000000000E+00  0.00000000000E+00 -0.55802656844E+03  0.33398591821E+04  0.32929114329E+04 0.  0.
        5    1    3    3  502    0 -0.54423404872E+03 -0.13060537574E+04 -0.11329354743E+04  0.18126036511E+04  0.46999998093E+01 0.  1.
       -5    1    3    3    0  502  0.54423404872E+03  0.13060537574E+04  0.57490890584E+03  0.15272555310E+04  0.46999998093E+01 0. -1.
</event>
<event>
 5   0  0.1126221E-06  0.3300167E+04  0.7818609E-02  0.8162853E-01
        2   -1    0    0  501    0  0.00000000000E+00  0.00000000000E+00  0.16108912410E+04  0.16108912410E+04  0.25500000920E-02 0.  1.
       -2   -1    0    0    0  501  0.00000000000E+00  0.00000000000E+00 -0.16902297392E+04  0.16902297392E+04  0.25500000920E-02 0. -1.
    10030    2    1    2    0    0  0.00000000000E+00  0.00000000000E+00 -0.79338498172E+02  0.33011209802E+04  0.33001674395E+04 0.  0.
        2    1    3    3  502    0 -0.16006513398E+04 -0.37936378816E+03 -0.16922380050E+03  0.16536741789E+04  0.25500000920E-02 0.  1.
       -2    1    3    3    0  502  0.16006513398E+04  0.37936378816E+03  0.89885302325E+02  0.16474468013E+04  0.25500000920E-02 0. -1.
</event>
<event>
 5   0  0.3674967E-07  0.3311862E+04  0.7818609E-02  0.8159884E-01
       -1   -1    0    0    0  501  0.00000000000E+00  0.00000000000E+00  0.15254454509E+04  0.15254454510E+04  0.50400001928E-02 0. -1.
        1   -1    0    0  501    0  0.00000000000E+00  0.00000000000E+00 -0.17975783222E+04  0.17975783222E+04  0.50400001928E-02 0.  1.
    10030    2    1    2    0    0  0.00000000000E+00  0.00000000000E+00 -0.27213287127E+03  0.33230237732E+04  0.33118621193E+04 0.  0.
        2    1    3    3  502    0 -0.11368254829E+03  0.13008435895E+04  0.88569254944E+03  0.15778368288E+04  0.25500000920E-02 0. -1.
       -2    1    3    3    0  502  0.11368254829E+03 -0.13008435895E+04 -0.11578254207E+04  0.17451869444E+04  0.25500000920E-02 0.  1.
</event>
<event>
 5   0  0.1146799E-06  0.3280147E+04  0.7818609E-02  0.8167965E-01
       -2   -1    0    0    0  501  0.00000000000E+00  0.00000000000E+00  0.15543806552E+04  0.15543806552E+04  0.25500000920E-02 0.  1.
        2   -1    0    0  501    0  0.00000000000E+00  0.00000000000E+00 -0.17304908024E+04  0.17304908024E+04  0.25500000920E-02 0. -1.
    10030    2    1    2    0    0  0.00000000000E+00  0.00000000000E+00 -0.17611014720E+03  0.32848714576E+04  0.32801472084E+04 0.  0.
        5    1    3    3  502    0  0.10604534693E+04 -0.50291088045E+03 -0.12352783953E+04  0.17039412308E+04  0.46999998093E+01 0. -1.
       -5    1    3    3    0  502 -0.10604534693E+04  0.50291088045E+03  0.10591682481E+04  0.15809302268E+04  0.46999998093E+01 0.  1.
</event>
<event>
 5   0  0.3757406E-07  0.3289778E+04  0.7818609E-02  0.8165501E-01
        1   -1    0    0  501    0  0.00000000000E+00  0.00000000000E+00  0.21720981605E+04  0.21720981606E+04  0.50400001928E-02 0.  1.
       -1   -1    0    0    0  501  0.00000000000E+00  0.00000000000E+00 -0.12456432606E+04  0.12456432606E+04  0.50400001928E-02 0. -1.
    10030    2    1    2    0    0  0.00000000000E+00  0.00000000000E+00  0.92645489994E+03  0.34177414212E+04  0.32897777646E+04 0.  0.
        1    1    3    3  502    0 -0.77109362735E+03  0.62690656557E+03 -0.89850593109E+03  0.13397425620E+04  0.50400001928E-02 0. -1.
       -1    1    3    3    0  502  0.77109362735E+03 -0.62690656557E+03  0.18249608310E+04  0.20779988592E+04  0.50400001928E-02 0.  1.
</event>
<event>
 5   0  0.1129434E-06  0.2967855E+04  0.7818609E-02  0.8252970E-01
        2   -1    0    0  501    0  0.00000000000E+00  0.00000000000E+00  0.15991111007E+04  0.15991111007E+04  0.25500000920E-02 0. -1.
       -2   -1    0    0    0  501  0.00000000000E+00  0.00000000000E+00 -0.13770407065E+04  0.13770407065E+04  0.25500000920E-02 0.  1.
    10030    2    1    2    0    0  0.00000000000E+00  0.00000000000E+00  0.22207039413E+03  0.29761518072E+04  0.29678551716E+04 0.  0.
        3    1    3    3  502    0  0.12494527345E+04  0.30867334805E+03  0.85176765656E+03  0.15433468575E+04  0.10100000352E+00 0. -1.
       -3    1    3    3    0  502 -0.12494527345E+04 -0.30867334805E+03 -0.62969726243E+03  0.14328049497E+04  0.10100000352E+00 0.  1.
</event>
<event>
 5   0  0.1146799E-06  0.3301083E+04  0.7818609E-02  0.8162620E-01
        2   -1    0    0  501    0  0.00000000000E+00  0.00000000000E+00  0.15643662537E+04  0.15643662537E+04  0.25500000920E-02 0.  1.
       -2   -1    0    0    0  501  0.00000000000E+00  0.00000000000E+00 -0.17414633946E+04  0.17414633946E+04  0.25500000920E-02 0. -1.
    10030    2    1    2    0    0  0.00000000000E+00  0.00000000000E+00 -0.17709714085E+03  0.33058296483E+04  0.33010825900E+04 0.  0.
        5    1    3    3  502    0  0.10885006063E+04 -0.10785634317E+04 -0.70272638397E+03  0.16858170443E+04  0.46999998093E+01 0. -1.
       -5    1    3    3    0  502 -0.10885006063E+04  0.10785634317E+04  0.52562924312E+03  0.16200126040E+04  0.46999998093E+01 0.  1.
</event>
<event>
 5   0  0.1146799E-06  0.3140288E+04  0.7818609E-02  0.8204767E-01
        2   -1    0    0  501    0  0.00000000000E+00  0.00000000000E+00  0.19427370382E+04  0.19427370382E+04  0.25500000920E-02 0.  1.
       -2   -1    0    0    0  501  0.00000000000E+00  0.00000000000E+00 -0.12690095731E+04  0.12690095731E+04  0.25500000920E-02 0. -1.
    10030    2    1    2    0    0  0.00000000000E+00  0.00000000000E+00  0.67372746508E+03  0.32117466113E+04  0.31402878209E+04 0.  0.
        5    1    3    3  502    0 -0.54152200870E+03 -0.63006463802E+03  0.16995111896E+04  0.18917155990E+04  0.46999998093E+01 0.  1.
       -5    1    3    3    0  502  0.54152200870E+03  0.63006463802E+03 -0.10257837245E+04  0.13200310123E+04  0.46999998093E+01 0. -1.
</event>
<event>
 5   0  0.1129434E-06  0.3492560E+04  0.7818609E-02  0.8115555E-01
        2   -1    0    0  501    0  0.00000000000E+00  0.00000000000E+00  0.13877498192E+04  0.13877498192E+04  0.25500000920E-02 0.  1.
       -2   -1    0    0    0  501  0.00000000000E+00  0.00000000000E+00 -0.21974371973E+04  0.21974371973E+04  0.25500000920E-02 0. -1.
    10030    2    1    2    0    0  0.00000000000E+00  0.00000000000E+00 -0.80968737805E+03  0.35851870165E+04  0.34925595619E+04 0.  0.
        3    1    3    3  502    0 -0.52019298322E+03 -0.10828890656E+04  0.89614553144E+03  0.14987749303E+04  0.10100000352E+00 0.  1.
       -3    1    3    3    0  502  0.52019298322E+03  0.10828890656E+04 -0.17058329095E+04  0.20864120862E+04  0.10100000352E+00 0. -1.
</event>
<event>
 5   0  0.3757406E-07  0.3318990E+04  0.7818609E-02  0.8158080E-01
       -1   -1    0    0    0  501  0.00000000000E+00  0.00000000000E+00  0.17636848398E+04  0.17636848398E+04  0.50400001928E-02 0.  1.
        1   -1    0    0  501    0  0.00000000000E+00  0.00000000000E+00 -0.15614602642E+04  0.15614602642E+04  0.50400001928E-02 0. -1.
    10030    2    1    2    0    0  0.00000000000E+00  0.00000000000E+00  0.20222457564E+03  0.33251451040E+04  0.33189900849E+04 0.  0.
        1    1    3    3  502    0  0.59171272301E+03 -0.38744436814E+03  0.16051246948E+04  0.17540417244E+04  0.50400001928E-02 0.  1.
       -1    1    3    3    0  502 -0.59171272301E+03  0.38744436814E+03 -0.14029001192E+04  0.15711033796E+04  0.50400001928E-02 0. -1.
</event>
<event>
 5   0  0.3709747E-07  0.3296819E+04  0.7818609E-02  0.8163705E-01
        1   -1    0    0  501    0  0.00000000000E+00  0.00000000000E+00  0.21296611962E+04  0.21296611962E+04  0.50400001928E-02 0. -1.
       -1   -1    0    0    0  501  0.00000000000E+00  0.00000000000E+00 -0.12759087688E+04  0.12759087688E+04  0.50400001928E-02 0.  1.
    10030    2    1    2    0    0  0.00000000000E+00  0.00000000000E+00  0.85375242736E+03  0.34055699650E+04  0.32968187058E+04 0.  0.
        4    1    3    3  502    0 -0.12165418676E+04 -0.65055515110E+03 -0.50513640387E+03  0.14691359773E+04  0.12699999809E+01 0.  1.
       -4    1    3    3    0  502  0.12165418676E+04  0.65055515110E+03  0.13588888312E+04  0.19364339877E+04  0.12699999809E+01 0. -1.
</event>
<event>
 5   0  0.3796529E-07  0.3287808E+04  0.7818609E-02  0.8166005E-01
        1   -1    0    0  501    0  0.00000000000E+00  0.00000000000E+00  0.21849296582E+04  0.21849296582E+04  0.50400001928E-02 0.  1.
       -1   -1    0    0    0  501  0.00000000000E+00  0.00000000000E+00 -0.12368452421E+04  0.12368452421E+04  0.50400001928E-02 0. -1.
    10030    2    1    2    0    0  0.00000000000E+00  0.00000000000E+00  0.94808441609E+03  0.34217749004E+04  0.32878076904E+04 0.  0.
        5    1    3    3  502    0 -0.29995219382E+03 -0.12579480976E+04 -0.58219672534E+03  0.14182312406E+04  0.46999998093E+01 0.  1.
       -5    1    3    3    0  502  0.29995219382E+03  0.12579480976E+04  0.15302811414E+04  0.20035436598E+04  0.46999998093E+01 0. -1.
</event>
<event>
 5   0  0.1126221E-06  0.3282161E+04  0.7818609E-02  0.8167449E-01
        2   -1    0    0  501    0  0.00000000000E+00  0.00000000000E+00  0.28165849107E+04  0.28165849107E+04  0.25500000920E-02 0. -1.
       -2   -1    0    0    0  501  0.00000000000E+00  0.00000000000E+00 -0.95617413641E+03  0.95617413641E+03  0.25500000920E-02 0.  1.
    10030    2    1    2    0    0  0.00000000000E+00  0.00000000000E+00  0.18604107743E+04  0.37727590471E+04  0.32821612664E+04 0.  0.
        2    1    3    3  502    0 -0.38369143969E+03 -0.11879403808E+04 -0.29425378027E+03  0.12825781678E+04  0.25500000920E-02 0.  1.
       -2    1    3    3    0  502  0.38369143969E+03  0.11879403808E+04  0.21546645545E+04  0.24901808793E+04  0.25500000920E-02 0. -1.
</event>
<event>
 5   0  0.3749685E-07  0.3297654E+04  0.7818609E-02  0.8163493E-01
       -1   -1    0    0    0  501  0.00000000000E+00  0.00000000000E+00  0.10509054009E+04  0.10509054009E+04  0.50400001928E-02 0. -1.
        1   -1    0    0  501    0  0.00000000000E+00  0.00000000000E+00 -0.25869414999E+04  0.25869414999E+04  0.50400001928E-02 0.  1.
    10030    2    1    2    0    0  0.00000000000E+00  0.00000000000E+00 -0.15360360990E+04  0.36378469008E+04  0.32976541930E+04 0.  0.
        3    1    3    3  502    0 -0.77431299751E+03  0.12461535448E+04 -0.15980853611E+04  0.21694091608E+04  0.10100000352E+00 0. -1.
       -3    1    3    3    0  502  0.77431299751E+03 -0.12461535448E+04  0.62049262068E+02  0.14684377401E+04  0.10100000352E+00 0.  1.
</event>
<event>
 5   0  0.3709747E-07  0.3297731E+04  0.7818609E-02  0.8163473E-01
       -1   -1    0    0    0  501  0.00000000000E+00  0.00000000000E+00  0.14247632755E+04  0.14247632755E+04  0.50400001928E-02 0. -1.
        1   -1    0    0  501    0  0.00000000000E+00  0.00000000000E+00 -0.19082167586E+04  0.19082167586E+04  0.50400001928E-02 0.  1.
    10030    2    1    2    0    0  0.00000000000E+00  0.00000000000E+00 -0.48345348303E+03  0.33329800341E+04  0.32977308316E+04 0.  0.
        4    1    3    3  502    0 -0.72877432183E+03 -0.11560350852E+03 -0.17320318130E+04  0.18826608822E+04  0.12699999809E+01 0.  1.
       -4    1    3    3    0  502  0.72877432183E+03  0.11560350852E+03  0.12485783300E+04  0.14503191519E+04  0.12699999809E+01 0. -1.
</event>
<event>
 5   0  0.1120545E-06  0.3297581E+04  0.7818609E-02  0.8163511E-01
        2   -1    0    0  501    0  0.00000000000E+00  0.00000000000E+00  0.17203514806E+04  0.17203514806E+04  0.25500000920E-02 0.  1.
       -2   -1    0    0    0  501  0.00000000000E+00  0.00000000000E+00 -0.15802066591E+04  0.15802066591E+04  0.25500000920E-02 0. -1.
    10030    2    1    2    0    0  0.00000000000E+00  0.00000000000E+00  0.14014482157E+03  0.33005581397E+04  0.32975814566E+04 0.  0.
        4    1    3    3  502    0 -0.99100503089E+02  0.95989941771E+03 -0.12680268449E+04  0.15934621094E+04  0.12699999809E+01 0. -1.
       -4    1    3    3    0  502  0.99100503089E+02 -0.95989941771E+03  0.14081716664E+04  0.17070960304E+04  0.12699999809E+01 0.  1.
</event>
<event>
 5   0  0.3709747E-07  0.3256673E+04  0.7818609E-02  0.8174008E-01
        1   -1    0    0  501    0  0.00000000000E+00  0.00000000000E+00  0.32726103691E+04  0.32726103691E+04  0.50400001928E-02 0. -1.
       -1   -1    0    0    0  501  0.00000000000E+00  0.00000000000E+00 -0.81020333966E+03  0.81020333968E+03  0.50400001928E-02 0.  1.
    10030    2    1    2    0    0  0.00000000000E+00  0.00000000000E+00  0.24624070294E+04  0.40828137088E+04  0.32566730573E+04 0.  0.
        4    1    3    3  502    0 -0.10016760643E+04 -0.69822431974E+03 -0.11939985013E+03  0.12268374283E+04  0.12699999809E+01 0.  1.
       -4    1    3    3    0  502  0.10016760643E+04  0.69822431974E+03  0.25818068796E+04  0.28559762805E+04  0.12699999809E+01 0. -1.
</event>
<event>
 5   0  0.3709747E-07  0.3284724E+04  0.7818609E-02  0.8166793E-01
       -1   -1    0    0    0  501  0.00000000000E+00  0.00000000000E+00  0.11992266375E+04  0.11992266375E+04  0.50400001928E-02 0.  1.
        1   -1    0    0  501    0  0.00000000000E+00  0.00000000000E+00 -0.22492433492E+04  0.22492433492E+04  0.50400001928E-02 0. -1.
    10030    2    1    2    0    0  0.00000000000E+00  0.00000000000E+00 -0.10500167117E+04  0.34484699868E+04  0.32847237562E+04 0.  0.
        4    1    3    3  502    0  0.29946751287E+03  0.52388868450E+03  0.10786231730E+04  0.12359489096E+04  0.12699999809E+01 0.  1.
       -4    1    3    3    0  502 -0.29946751287E+03 -0.52388868450E+03 -0.21286398847E+04  0.22125210771E+04  0.12699999809E+01 0. -1.
</event>
<event>
 5   0  0.3757406E-07  0.3318415E+04  0.7818609E-02  0.8158225E-01
       -1   -1    0    0    0  501  0.00000000000E+00  0.00000000000E+00  0.14353870604E+04  0.14353870604E+04  0.50400001928E-02 0. -1.
        1   -1    0    0  501    0  0.00000000000E+00  0.00000000000E+00 -0.19179282479E+04  0.19179282479E+04  0.50400001928E-02 0.  1.
    10030    2    1    2    0    0  0.00000000000E+00  0.00000000000E+00 -0.48254118751E+03  0.33533153084E+04  0.33184149167E+04 0.  0.
        1    1    3    3  502    0 -0.11323012637E+04 -0.99949129738E+03 -0.93543072560E+03  0.17765471139E+04  0.50400001928E-02 0.  1.
       -1    1    3    3    0  502  0.11323012637E+04  0.99949129738E+03  0.45288953809E+03  0.15767681945E+04  0.50400001928E-02 0. -1.
</event>
<event>
 5   0  0.1116462E-06  0.3280822E+04  0.7818609E-02  0.8167792E-01
       -2   -1    0    0    0  501  0.00000000000E+00  0.00000000000E+00  0.13127091665E+04  0.13127091665E+04  0.25500000920E-02 0.  1.
        2   -1    0    0  501    0  0.00000000000E+00  0.00000000000E+00 -0.20499196035E+04  0.20499196035E+04  0.25500000920E-02 0. -1.
    10030    2    1    2    0    0  0.00000000000E+00  0.00000000000E+00 -0.73721043698E+03  0.33626287700E+04  0.32808220031E+04 0.  0.
        1    1    3    3  502    0  0.91718825058E+03  0.29291039724E+03  0.99263692364E+03  0.13828806348E+04  0.50400001928E-02 0.  1.
       -1    1    3    3    0  502 -0.91718825058E+03 -0.29291039724E+03 -0.17298473606E+04  0.19797481352E+04  0.50400001928E-02 0. -1.
</event>
<event>
 5   0  0.3749685E-07  0.3297409E+04  0.7818609E-02  0.8163555E-01
       -1   -1    0    0    0  501  0.00000000000E+00  0.00000000000E+00  0.13641651445E+04  0.13641651445E+04  0.50400001928E-02 0.  1.
        1   -1    0    0  501    0  0.00000000000E+00  0.00000000000E+00 -0.19925929235E+04  0.19925929235E+04  0.50400001928E-02 0. -1.
    10030    2    1    2    0    0  0.00000000000E+00  0.00000000000E+00 -0.62842777900E+03  0.33567580681E+04  0.32974085665E+04 0.  0.
        3    1    3    3  502    0 -0.15857623687E+04 -0.39620118137E+03 -0.94438958418E+02  0.16372343733E+04  0.10100000352E+00 0. -1.
       -3    1    3    3    0  502  0.15857623687E+04  0.39620118137E+03 -0.53398882058E+03  0.17195236948E+04  0.10100000352E+00 0.  1.
</event>
<event>
 5   0  0.1126221E-06  0.3271310E+04  0.7818609E-02  0.8170234E-01
        2   -1    0    0  501    0  0.00000000000E+00  0.00000000000E+00  0.18187838936E+04  0.18187838936E+04  0.25500000920E-02 0. -1.
       -2   -1    0    0    0  501  0.00000000000E+00  0.00000000000E+00 -0.14709651889E+04  0.14709651889E+04  0.25500000920E-02 0.  1.
    10030    2    1    2    0    0  0.00000000000E+00  0.00000000000E+00  0.34781870468E+03  0.32897490826E+04  0.32713103147E+04 0.  0.
        2    1    3    3  502    0 -0.14405516921E+04 -0.51940360781E+03  0.75195225142E+03  0.17059898809E+04  0.25500000920E-02 0.  1.
       -2    1    3    3    0  502  0.14405516921E+04  0.51940360781E+03 -0.40413354674E+03  0.15837592017E+04  0.25500000920E-02 0. -1.
</event>
<event>
 5   0  0.1129434E-06  0.3291664E+04  0.7818609E-02  0.8165020E-01
       -2   -1    0    0    0  501  0.00000000000E+00  0.00000000000E+00  0.12398664531E+04  0.12398664531E+04  0.25500000920E-02 0. -1.
        2   -1    0    0  501    0  0.00000000000E+00  0.00000000000E+00 -0.21847210815E+04  0.21847210815E+04  0.25500000920E-02 0.  1.
    10030    2    1    2    0    0  0.00000000000E+00  0.00000000000E+00 -0.94485462832E+03  0.34245875346E+04  0.32916636392E+04 0.  0.
        3    1    3    3  502    0 -0.19517874516E+03 -0.13262177373E+04  0.52102261361E+03  0.14381977622E+04  0.10100000352E+00 0. -1.
       -3    1    3    3    0  502  0.19517874516E+03  0.13262177373E+04 -0.14658772419E+04  0.19863897724E+04  0.10100000352E+00 0.  1.
</event>
<event>
 5   0  0.3796529E-07  0.3239770E+04  0.7818609E-02  0.8178392E-01
       -1   -1    0    0    0  501  0.00000000000E+00  0.00000000000E+00  0.20023256439E+04  0.20023256439E+04  0.50400001928E-02 0. -1.
        1   -1    0    0  501    0  0.00000000000E+00  0.00000000000E+00 -0.13104901906E+04  0.13104901907E+04  0.50400001928E-02 0.  1.
    10030    2    1    2    0    0  0.00000000000E+00  0.00000000000E+00  0.69183545330E+03  0.33128158346E+04  0.32397704332E+04 0.  0.
        5    1    3    3  502    0  0.34392375087E+03  0.14814461461E+04 -0.22436607240E+03  0.15373120876E+04  0.46999998093E+01 0.  1.
       -5    1    3    3    0  502 -0.34392375087E+03 -0.14814461461E+04  0.91620152570E+03  0.17755037471E+04  0.46999998093E+01 0. -1.
</event>
<event>
 5   0  0.1120545E-06  0.3255180E+04  0.7818609E-02  0.8174394E-01
       -2   -1    0    0    0  501  0.00000000000E+00  0.00000000000E+00  0.11151831374E+04  0.11151831374E+04  0.25500000920E-02 0.  1.
        2   -1    0    0  501    0  0.00000000000E+00  0.00000000000E+00 -0.23754391965E+04  0.23754391965E+04  0.25500000920E-02 0. -1.
    10030    2    1    2    0    0  0.00000000000E+00  0.00000000000E+00 -0.12602560591E+04  0.34906223340E+04  0.32551803243E+04 0.  0.
        4    1    3    3  502    0  0.17727666126E+03  0.14191800504E+04 -0.14632030493E+04  0.20460849949E+04  0.12699999809E+01 0. -1.
       -4    1    3    3    0  502 -0.17727666126E+03 -0.14191800504E+04  0.20294699025E+03  0.14445373390E+04  0.12699999809E+01 0.  1.
</event>
<event>
 5   0  0.1120545E-06  0.3353276E+04  0.7818609E-02  0.8149470E-01
        2   -1    0    0  501    0  0.00000000000E+00  0.00000000000E+00  0.30176792303E+04  0.30176792303E+04  0.25500000920E-02 0. -1.
       -2   -1    0    0    0  501  0.00000000000E+00  0.00000000000E+00 -0.93154841993E+03  0.93154841993E+03  0.25500000920E-02 0.  1.
    10030    2    1    2    0    0  0.00000000000E+00  0.00000000000E+00  0.20861308104E+04  0.39492276503E+04  0.33532756039E+04 0.  0.
        4    1    3    3  502    0  0.48057453988E+03 -0.16052489771E+04  0.97503688471E+03  0.19386785980E+04  0.12699999809E+01 0. -1.
       -4    1    3    3    0  502 -0.48057453988E+03  0.16052489771E+04  0.11110939257E+04  0.20105490523E+04  0.12699999809E+01 0.  1.
</event>
<event>
 5   0  0.1126221E-06  0.3338544E+04  0.7818609E-02  0.8153156E-01
       -2   -1    0    0    0  501  0.00000000000E+00  0.00000000000E+00  0.14481894268E+04  0.14481894268E+04  0.25500000920E-02 0.  1.
        2   -1    0    0  501    0  0.00000000000E+00  0.00000000000E+00 -0.19241058562E+04  0.19241058562E+04  0.25500000920E-02 0. -1.
    10030    2    1    2    0    0  0.00000000000E+00  0.00000000000E+00 -0.47591642942E+03  0.33722952830E+04  0.33385444475E+04 0.  0.
        2    1    3    3  502    0  0.50308566171E+03  0.15573156662E+04  0.94216533691E+02  0.16392693563E+04  0.25500000920E-02 0.  1.
       -2    1    3    3    0  502 -0.50308566171E+03 -0.15573156662E+04 -0.57013296311E+03  0.17330259268E+04  0.25500000920E-02 0. -1.
</event>
<event>
 5   0  0.3796529E-07  0.3293897E+04  0.7818609E-02  0.8164450E-01
       -1   -1    0    0    0  501  0.00000000000E+00  0.00000000000E+00  0.11204467655E+04  0.11204467655E+04  0.50400001928E-02 0.  1.
        1   -1    0    0  501    0  0.00000000000E+00  0.00000000000E+00 -0.24208554110E+04  0.24208554110E+04  0.50400001928E-02 0. -1.
    10030    2    1    2    0    0  0.00000000000E+00  0.00000000000E+00 -0.13004086455E+04  0.35413021765E+04  0.32938971538E+04 0.  0.
        5    1    3    3  502    0 -0.13797162789E+04 -0.63545155133E+03 -0.13344017707E+04  0.20218965997E+04  0.46999998093E+01 0. -1.
       -5    1    3    3    0  502  0.13797162789E+04  0.63545155133E+03  0.33993125140E+02  0.15194055768E+04  0.46999998093E+01 0.  1.
</event>
<event>
 5   0  0.1129434E-06  0.3300163E+04  0.7818609E-02  0.8162854E-01
        2   -1    0    0  501    0  0.00000000000E+00  0.00000000000E+00  0.17633226076E+04  0.17633226076E+04  0.25500000920E-02 0. -1.
       -2   -1    0    0    0  501  0.00000000000E+00  0.00000000000E+00 -0.15441124020E+04  0.15441124020E+04  0.25500000920E-02 0.  1.
    10030    2    1    2    0    0  0.00000000000E+00  0.00000000000E+00  0.21921020558E+03  0.33074350097E+04  0.33001626064E+04 0.  0.
        3    1    3    3  502    0  0.24016047405E+03  0.16319406402E+04  0.15283936762E+03  0.16565829858E+04  0.10100000352E+00 0.  1.
       -3    1    3    3    0  502 -0.24016047405E+03 -0.16319406402E+04  0.66370837954E+02  0.16508520239E+04  0.10100000352E+00 0. -1.
</event>
<event>
 5   0  0.3749685E-07  0.3301745E+04  0.7818609E-02  0.8162451E-01
       -1   -1    0    0    0  501  0.00000000000E+00  0.00000000000E+00  0.11244744543E+04  0.11244744543E+04  0.50400001928E-02 0.  1.
        1   -1    0    0  501    0  0.00000000000E+00  0.00000000000E+00 -0.24236925373E+04  0.24236925373E+04  0.50400001928E-02 0. -1.
    10030    2    1    2    0    0  0.00000000000E+00  0.00000000000E+00 -0.12992180830E+04  0.35481669916E+04  0.33017452011E+04 0.  0.
        3    1    3    3  502    0  0.12884054627E+04 -0.10621038601E+03 -0.17529346012E+04  0.21780837929E+04  0.10100000352E+00 0. -1.
       -3    1    3    3    0  502 -0.12884054627E+04  0.10621038601E+03  0.45371651821E+03  0.13700831987E+04  0.10100000352E+00 0.  1.
</event>
<event>
 5   0  0.1120545E-06  0.3264317E+04  0.7818609E-02  0.8172035E-01
       -2   -1    0    0    0  501  0.00000000000E+00  0.00000000000E+00  0.10920392122E+04  0.10920392122E+04  0.25500000920E-02 0.  1.
        2   -1    0    0  501    0  0.00000000000E+00  0.00000000000E+00 -0.24394186888E+04  0.24394186888E+04  0.25500000920E-02 0. -1.
    10030    2    1    2    0    0  0.00000000000E+00  0.00000000000E+00 -0.13473794766E+04  0.35314579010E+04  0.32643166900E+04 0.  0.
        4    1    3    3  502    0 -0.89524095929E+02 -0.43587197574E+03 -0.23725318876E+04  0.24138989443E+04  0.12699999809E+01 0. -1.
       -4    1    3    3    0  502  0.89524095929E+02  0.43587197574E+03  0.10251524109E+04  0.11175589566E+04  0.12699999809E+01 0.  1.
</event>
<event>
 5   0  0.3709747E-07  0.3323689E+04  0.7818609E-02  0.8156894E-01
        1   -1    0    0  501    0  0.00000000000E+00  0.00000000000E+00  0.34251579510E+04  0.34251579510E+04  0.50400001928E-02 0. -1.
       -1   -1    0    0    0  501  0.00000000000E+00  0.00000000000E+00 -0.80630645256E+03  0.80630645258E+03  0.50400001928E-02 0.  1.
    10030    2    1    2    0    0  0.00000000000E+00  0.00000000000E+00  0.26188514985E+04  0.42314644036E+04  0.33236888886E+04 0.  0.
        4    1    3    3  502    0 -0.89016409207E+03  0.42249572868E+03  0.30131432282E+04  0.31701622164E+04  0.12699999809E+01 0. -1.
       -4    1    3    3    0  502  0.89016409207E+03 -0.42249572868E+03 -0.39429172975E+03  0.10613021872E+04  0.12699999809E+01 0.  1.
</event>
<event>
 5   0  0.3749685E-07  0.3369305E+04  0.7818609E-02  0.8145481E-01
        1   -1    0    0  501    0  0.00000000000E+00  0.00000000000E+00  0.11388614907E+04  0.11388614907E+04  0.50400001928E-02 0. -1.
       -1   -1    0    0    0  501  0.00000000000E+00  0.00000000000E+00 -0.24920093074E+04  0.24920093074E+04  0.50400001928E-02 0.  1.
    10030    2    1    2    0    0  0.00000000000E+00  0.00000000000E+00 -0.13531478168E+04  0.36308707981E+04  0.33693046373E+04 0.  0.
        3    1    3    3  502    0 -0.83207714310E+03 -0.13678212839E+04 -0.12414484493E+04  0.20259520476E+04  0.10100000352E+00 0. -1.
       -3    1    3    3    0  502  0.83207714310E+03  0.13678212839E+04 -0.11169936750E+03  0.16049187505E+04  0.10100000352E+00 0.  1.
</event>
<event>
 5   0  0.1126221E-06  0.3301841E+04  0.7818609E-02  0.8162427E-01
        2   -1    0    0  501    0  0.00000000000E+00  0.00000000000E+00  0.18666986901E+04  0.18666986901E+04  0.25500000920E-02 0.  1.
       -2   -1    0    0    0  501  0.00000000000E+00  0.00000000000E+00 -0.14600850754E+04  0.14600850754E+04  0.25500000920E-02 0. -1.
    10030    2    1    2    0    0  0.00000000000E+00  0.00000000000E+00  0.40661361471E+03  0.33267837654E+04  0.33018412425E+04 0.  0.
        2    1    3    3  502    0  0.11300197241E+04  0.11270918744E+04  0.62870258747E+03  0.17153855583E+04  0.25500000920E-02 0.  1.
       -2    1    3    3    0  502 -0.11300197241E+04 -0.11270918744E+04 -0.22208897275E+03  0.16113982071E+04  0.25500000920E-02 0. -1.
</event>
<event>
 5   0  0.3749685E-07  0.3324770E+04  0.7818609E-02  0.8156621E-01
       -1   -1    0    0    0  501  0.00000000000E+00  0.00000000000E+00  0.18002562124E+04  0.18002562124E+04  0.50400001928E-02 0. -1.
        1   -1    0    0  501    0  0.00000000000E+00  0.00000000000E+00 -0.15350728571E+04  0.15350728571E+04  0.50400001928E-02 0.  1.
    10030    2    1    2    0    0  0.00000000000E+00  0.00000000000E+00  0.26518335530E+03  0.33353290696E+04  0.33247703365E+04 0.  0.
        3    1    3    3  502    0 -0.65445052117E+02  0.62629476201E+03  0.16759821779E+04  0.17903755066E+04  0.10100000352E+00 0. -1.
       -3    1    3    3    0  502  0.65445052117E+02 -0.62629476201E+03 -0.14107988226E+04  0.15449535630E+04  0.10100000352E+00 0.  1.
</event>
<event>
 5   0  0.1120545E-06  0.3207200E+04  0.7818609E-02  0.8186918E-01
        2   -1    0    0  501    0  0.00000000000E+00  0.00000000000E+00  0.16218182607E+04  0.16218182607E+04  0.25500000920E-02 0.  1.
       -2   -1    0    0    0  501  0.00000000000E+00  0.00000000000E+00 -0.15855868673E+04  0.15855868673E+04  0.25500000920E-02 0. -1.
    10030    2    1    2    0    0  0.00000000000E+00  0.00000000000E+00  0.36231393374E+02  0.32074051281E+04  0.32072004835E+04 0.  0.
        4    1    3    3  502    0 -0.10774054109E+04  0.51606170268E+03  0.10879549703E+04  0.16157876503E+04  0.12699999809E+01 0.  1.
       -4    1    3    3    0  502  0.10774054109E+04 -0.51606170268E+03 -0.10517235769E+04  0.15916174778E+04  0.12699999809E+01 0. -1.
</event>
<event>
 5   0  0.1116462E-06  0.3283412E+04  0.7818609E-02  0.8167129E-01
        2   -1    0    0  501    0  0.00000000000E+00  0.00000000000E+00  0.20321579995E+04  0.20321579995E+04  0.25500000920E-02 0. -1.
       -2   -1    0    0    0  501  0.00000000000E+00  0.00000000000E+00 -0.13262741184E+04  0.13262741184E+04  0.25500000920E-02 0.  1.
    10030    2    1    2    0    0  0.00000000000E+00  0.00000000000E+00  0.70588388108E+03  0.33584321179E+04  0.32834119810E+04 0.  0.
        1    1    3    3  502    0  0.90116506652E+03  0.11214367856E+04  0.11618846720E+04  0.18492417182E+04  0.50400001928E-02 0. -1.
       -1    1    3    3    0  502 -0.90116506652E+03 -0.11214367856E+04 -0.45600079094E+03  0.15091903997E+04  0.50400001928E-02 0.  1.
</event>
<event>
 5   0  0.1129434E-06  0.3293880E+04  0.7818609E-02  0.8164454E-01
        2   -1    0    0  501    0  0.00000000000E+00  0.00000000000E+00  0.12863125053E+04  0.12863125053E+04  0.25500000920E-02 0. -1.
       -2   -1    0    0    0  501  0.00000000000E+00  0.00000000000E+00 -0.21086725945E+04  0.21086725945E+04  0.25500000920E-02 0.  1.
    10030    2    1    2    0    0  0.00000000000E+00  0.00000000000E+00 -0.82236008926E+03  0.33949850998E+04  0.32938803426E+04 0.  0.
        3    1    3    3  502    0 -0.32690485270E+03  0.15005963093E+04  0.20185015573E+03  0.15489995358E+04  0.10100000352E+00 0. -1.
       -3    1    3    3    0  502  0.32690485270E+03 -0.15005963093E+04 -0.10242102450E+04  0.18459855640E+04  0.10100000352E+00 0.  1.
</event>
<event>
 5   0  0.1129434E-06  0.3274258E+04  0.7818609E-02  0.8169477E-01
        2   -1    0    0  501    0  0.00000000000E+00  0.00000000000E+00  0.25082090543E+04  0.25082090543E+04  0.25500000920E-02 0. -1.
       -2   -1    0    0    0  501  0.00000000000E+00  0.00000000000E+00 -0.10685675014E+04  0.10685675015E+04  0.25500000920E-02 0.  1.
    10030    2    1    2    0    0  0.00000000000E+00  0.00000000000E+00  0.14396415528E+04  0.35767765557E+04  0.32742575844E+04 0.  0.
        3    1    3    3  502    0  0.15982985828E+04 -0.35247147109E+03  0.76063850032E+03  0.18048172861E+04  0.10100000352E+00 0. -1.
       -3    1    3    3    0  502 -0.15982985828E+04  0.35247147109E+03  0.67900305248E+03  0.17719592696E+04  0.10100000352E+00 0.  1.
</event>
<event>
 5   0  0.1146799E-06  0.3291045E+04  0.7818609E-02  0.8165178E-01
       -2   -1    0    0    0  501  0.00000000000E+00  0.00000000000E+00  0.13255862078E+04  0.13255862078E+04  0.25500000920E-02 0. -1.
        2   -1    0    0  501    0  0.00000000000E+00  0.00000000000E+00 -0.20426767965E+04  0.20426767965E+04  0.25500000920E-02 0.  1.
    10030    2    1    2    0    0  0.00000000000E+00  0.00000000000E+00 -0.71709058868E+03  0.33682630043E+04  0.32910449334E+04 0.  0.
        5    1    3    3  502    0  0.15570337784E+04  0.48850281911E+03 -0.14208126200E+03  0.16380471197E+04  0.46999998093E+01 0. -1.
       -5    1    3    3    0  502 -0.15570337784E+04 -0.48850281911E+03 -0.57500932668E+03  0.17302158846E+04  0.46999998093E+01 0.  1.
</event>
<event>
 5   0  0.3749685E-07  0.3303900E+04  0.7818609E-02  0.8161904E-01
        1   -1    0    0  501    0  0.00000000000E+00  0.00000000000E+00  0.20067891006E+04  0.20067891006E+04  0.50400001928E-02 0. -1.
       -1   -1    0    0    0  501  0.00000000000E+00  0.00000000000E+00 -0.13598534810E+04  0.13598534810E+04  0.50400001928E-02 0.  1.
    10030    2    1    2    0    0  0.00000000000E+00  0.00000000000E+00  0.64693561956E+03  0.33666425816E+04  0.33039002068E+04 0.  0.
        3    1    3    3  502    0  0.12566771048E+04 -0.81085220468E+03 -0.39143982549E+03  0.15459443039E+04  0.10100000352E+00 0. -1.
       -3    1    3    3    0  502 -0.12566771048E+04  0.81085220468E+03  0.10383754451E+04  0.18206982777E+04  0.10100000352E+00 0.  1.
</event>
<event>
 5   0  0.3709747E-07  0.3260231E+04  0.7818609E-02  0.8173089E-01
       -1   -1    0    0    0  501  0.00000000000E+00  0.00000000000E+00  0.12651639373E+04  0.12651639373E+04  0.50400001928E-02 0. -1.
        1   -1    0    0  501    0  0.00000000000E+00  0.00000000000E+00 -0.21003410496E+04  0.21003410496E+04  0.50400001928E-02 0.  1.
    10030    2    1    2    0    0  0.00000000000E+00  0.00000000000E+00 -0.83517711226E+03  0.33655049869E+04  0.32602305145E+04 0.  0.
        4    1    3    3  502    0 -0.88334652324E+03  0.68250521690E+03 -0.16438695898E+04  0.19870639880E+04  0.12699999809E+01 0.  1.
       -4    1    3    3    0  502  0.88334652324E+03 -0.68250521690E+03  0.80869247757E+03  0.13784409989E+04  0.12699999809E+01 0. -1.
</event>
<event>
 5   0  0.1120545E-06  0.3281747E+04  0.7818609E-02  0.8167556E-01
       -2   -1    0    0    0  501  0.00000000000E+00  0.00000000000E+00  0.13623365095E+04  0.13623365095E+04  0.25500000920E-02 0. -1.
        2   -1    0    0  501    0  0.00000000000E+00  0.00000000000E+00 -0.19763584861E+04  0.19763584861E+04  0.25500000920E-02 0.  1.
    10030    2    1    2    0    0  0.00000000000E+00  0.00000000000E+00 -0.61402197663E+03  0.33386949956E+04  0.32817466821E+04 0.  0.
        4    1    3    3  502    0  0.25855448334E+03  0.11765428543E+04  0.82648659830E+03  0.14608850807E+04  0.12699999809E+01 0. -1.
       -4    1    3    3    0  502 -0.25855448334E+03 -0.11765428543E+04 -0.14405085749E+04  0.18778099148E+04  0.12699999809E+01 0.  1.
</event>
<event>
 5   0  0.3749685E-07  0.3294313E+04  0.7818609E-02  0.8164344E-01
        1   -1    0    0  501    0  0.00000000000E+00  0.00000000000E+00  0.17872209207E+04  0.17872209207E+04  0.50400001928E-02 0. -1.
       -1   -1    0    0    0  501  0.00000000000E+00  0.00000000000E+00 -0.15180691288E+04  0.15180691288E+04  0.50400001928E-02 0.  1.
    10030    2    1    2    0    0  0.00000000000E+00  0.00000000000E+00  0.26915179187E+03  0.33052900495E+04  0.32943132250E+04 0.  0.
        3    1    3    3  502    0 -0.87986910130E+03  0.10389120324E+04  0.10648205797E+04  0.17283954188E+04  0.10100000352E+00 0. -1.
       -3    1    3    3    0  502  0.87986910130E+03 -0.10389120324E+04 -0.79566878780E+03  0.15768946308E+04  0.10100000352E+00 0.  1.
</event>
<event>
 5   0  0.3709747E-07  0.3302319E+04  0.7818609E-02  0.8162306E-01
        1   -1    0    0  501    0  0.00000000000E+00  0.00000000000E+00  0.25317590408E+04  0.25317590408E+04  0.50400001928E-02 0. -1.
       -1   -1    0    0    0  501  0.00000000000E+00  0.00000000000E+00 -0.10768513289E+04  0.10768513289E+04  0.50400001928E-02 0.  1.
    10030    2    1    2    0    0  0.00000000000E+00  0.00000000000E+00  0.14549077119E+04  0.36086103698E+04  0.33023192381E+04 0.  0.
        4    1    3    3  502    0  0.35531053478E+03  0.59442565874E+03 -0.91048337082E+03  0.11439270175E+04  0.12699999809E+01 0.  1.
       -4    1    3    3    0  502 -0.35531053478E+03 -0.59442565874E+03  0.23653910827E+04  0.24646833523E+04  0.12699999809E+01 0. -1.
</event>
<event>
 5   0  0.3796529E-07  0.3285071E+04  0.7818609E-02  0.8166705E-01
       -1   -1    0    0    0  501  0.00000000000E+00  0.00000000000E+00  0.19939391002E+04  0.19939391002E+04  0.50400001928E-02 0. -1.
        1   -1    0    0  501    0  0.00000000000E+00  0.00000000000E+00 -0.13530615971E+04  0.13530615971E+04  0.50400001928E-02 0.  1.
    10030    2    1    2    0    0  0.00000000000E+00  0.00000000000E+00  0.64087750315E+03  0.33470006973E+04  0.32850707288E+04 0.  0.
        5    1    3    3  502    0 -0.13253368181E+04  0.16383561895E+03  0.12947833001E+04  0.18600660407E+04  0.46999998093E+01 0. -1.
       -5    1    3    3    0  502  0.13253368181E+04 -0.16383561895E+03 -0.65390579697E+03  0.14869346566E+04  0.46999998093E+01 0.  1.
</event>
<event>
 5   0  0.3749685E-07  0.3302513E+04  0.7818609E-02  0.8162256E-01
        1   -1    0    0  501    0  0.00000000000E+00  0.00000000000E+00  0.15587286832E+04  0.15587286833E+04  0.50400001928E-02 0.  1.
       -1   -1    0    0    0  501  0.00000000000E+00  0.00000000000E+00 -0.17492772241E+04  0.17492772242E+04  0.50400001928E-02 0. -1.
    10030    2    1    2    0    0  0.00000000000E+00  0.00000000000E+00 -0.19054854090E+03  0.33080059074E+04  0.33025133364E+04 0.  0.
        3    1    3    3  502    0 -0.18469041286E+03 -0.15632689153E+03  0.15408743178E+04  0.15597571347E+04  0.10100000352E+00 0.  1.
       -3    1    3    3    0  502  0.18469041286E+03  0.15632689153E+03 -0.17314228587E+04  0.17482487728E+04  0.10100000352E+00 0. -1.
</event>
<event>
 5   0  0.3796529E-07  0.3291835E+04  0.7818609E-02  0.8164976E-01
        1   -1    0    0  501    0  0.00000000000E+00  0.00000000000E+00  0.14563148840E+04  0.14563148840E+04  0.50400001928E-02 0.  1.
       -1   -1    0    0    0  501  0.00000000000E+00  0.00000000000E+00 -0.18602050835E+04  0.18602050835E+04  0.50400001928E-02 0. -1.
    10030    2    1    2    0    0  0.00000000000E+00  0.00000000000E+00 -0.40389019953E+03  0.33165199675E+04  0.32918349596E+04 0.  0.
        5    1    3    3  502    0 -0.10115819972E+04  0.11332258041E+04  0.43646535920E+03  0.15805135115E+04  0.46999998093E+01 0.  1.
       -5    1    3    3    0  502  0.10115819972E+04 -0.11332258041E+04 -0.84035555873E+03  0.17360064560E+04  0.46999998093E+01 0. -1.
</event>
<event>
 5   0  0.3674967E-07  0.3276844E+04  0.7818609E-02  0.8168813E-01
        1   -1    0    0  501    0  0.00000000000E+00  0.00000000000E+00  0.20455258345E+04  0.20455258345E+04  0.50400001928E-02 0.  1.
       -1   -1    0    0    0  501  0.00000000000E+00  0.00000000000E+00 -0.13123405503E+04  0.13123405503E+04  0.50400001928E-02 0. -1.
    10030    2    1    2    0    0  0.00000000000E+00  0.00000000000E+00  0.73318528419E+03  0.33578663849E+04  0.32768439080E+04 0.  0.
        2    1    3    3  502    0 -0.25177505811E+03  0.28403924506E+03  0.19998517097E+04  0.20355529552E+04  0.25500000920E-02 0.  1.
       -2    1    3    3    0  502  0.25177505811E+03 -0.28403924506E+03 -0.12666664255E+04  0.13223134296E+04  0.25500000920E-02 0. -1.
</event>
<event>
 5   0  0.3674967E-07  0.3319500E+04  0.7818609E-02  0.8157951E-01
       -1   -1    0    0    0  501  0.00000000000E+00  0.00000000000E+00  0.17789554371E+04  0.17789554371E+04  0.50400001928E-02 0. -1.
        1   -1    0    0  501    0  0.00000000000E+00  0.00000000000E+00 -0.15485326889E+04  0.15485326889E+04  0.50400001928E-02 0.  1.
    10030    2    1    2    0    0  0.00000000000E+00  0.00000000000E+00  0.23042274821E+03  0.33274881260E+04  0.33195003518E+04 0.  0.
        2    1    3    3  502    0 -0.33805105094E+03  0.14938138759E+04 -0.52586820977E+03  0.16193504201E+04  0.25500000920E-02 0.  1.
       -2    1    3    3    0  502  0.33805105094E+03 -0.14938138759E+04  0.75629095799E+03  0.17081377059E+04  0.25500000920E-02 0. -1.
</event>
<event>
 5   0  0.1146799E-06  0.3313100E+04  0.7818609E-02  0.8159570E-01
        2   -1    0    0  501    0  0.00000000000E+00  0.00000000000E+00  0.18031094846E+04  0.18031094846E+04  0.25500000920E-02 0. -1.
       -2   -1    0    0    0  501  0.00000000000E+00  0.00000000000E+00 -0.15219033066E+04  0.15219033066E+04  0.25500000920E-02 0.  1.
    10030    2    1    2    0    0  0.00000000000E+00  0.00000000000E+00  0.28120617795E+03  0.33250127912E+04  0.33131002320E+04 0.  0.
        5    1    3    3  502    0  0.14355817163E+03  0.13184005808E+04 -0.85561260545E+03  0.15782534843E+04  0.46999998093E+01 0.  1.
       -5    1    3    3    0  502 -0.14355817163E+03 -0.13184005808E+04  0.11368187834E+04  0.17467593069E+04  0.46999998093E+01 0. -1.
</event>
<event>
 5   0  0.3749685E-07  0.3299937E+04  0.7818609E-02  0.8162911E-01
       -1   -1    0    0    0  501  0.00000000000E+00  0.00000000000E+00  0.19606945306E+04  0.19606945306E+04  0.50400001928E-02 0.  1.
        1   -1    0    0  501    0  0.00000000000E+00  0.00000000000E+00 -0.13884856100E+04  0.13884856100E+04  0.50400001928E-02 0. -1.
    10030    2    1    2    0    0  0.00000000000E+00  0.00000000000E+00  0.57220892062E+03  0.33491801407E+04  0.32999370548E+04 0.  0.
        3    1    3    3  502    0 -0.13303107178E+03 -0.30571493074E+03  0.19261504151E+04  0.19547926531E+04  0.10100000352E+00 0.  1.
       -3    1    3    3    0  502  0.13303107178E+03  0.30571493074E+03 -0.13539414944E+04  0.13943874876E+04  0.10100000352E+00 0. -1.
</event>
<event>
 5   0  0.1146799E-06  0.3303914E+04  0.7818609E-02  0.8161900E-01
       -2   -1    0    0    0  501  0.00000000000E+00  0.00000000000E+00  0.12506424458E+04  0.12506424458E+04  0.25500000920E-02 0. -1.
        2   -1    0    0  501    0  0.00000000000E+00  0.00000000000E+00 -0.21820486299E+04  0.21820486299E+04  0.25500000920E-02 0.  1.
    10030    2    1    2    0    0  0.00000000000E+00  0.00000000000E+00 -0.93140618417E+03  0.34326910757E+04  0.33039144271E+04 0.  0.
        5    1    3    3  502    0 -0.89107002628E+03 -0.42036018405E+03 -0.18433693736E+04  0.20901533947E+04  0.46999998093E+01 0.  1.
       -5    1    3    3    0  502  0.89107002628E+03  0.42036018405E+03  0.91196318940E+03  0.13425376810E+04  0.46999998093E+01 0. -1.
</event>
<event>
 5   0  0.3749685E-07  0.3308229E+04  0.7818609E-02  0.8160805E-01
       -1   -1    0    0    0  501  0.00000000000E+00  0.00000000000E+00  0.12521915976E+04  0.12521915976E+04  0.50400001928E-02 0. -1.
        1   -1    0    0  501    0  0.00000000000E+00  0.00000000000E+00 -0.21850442937E+04  0.21850442937E+04  0.50400001928E-02 0.  1.
    10030    2    1    2    0    0  0.00000000000E+00  0.00000000000E+00 -0.93285269617E+03  0.34372358913E+04  0.33082285924E+04 0.  0.
        3    1    3    3  502    0 -0.15151920570E+04  0.52697848512E+03 -0.47489600090E+02  0.16049201119E+04  0.10100000352E+00 0.  1.
       -3    1    3    3    0  502  0.15151920570E+04 -0.52697848512E+03 -0.88536309608E+03  0.18323157794E+04  0.10100000352E+00 0. -1.
</event>
<event>
 5   0  0.1120545E-06  0.3313899E+04  0.7818609E-02  0.8159368E-01
       -2   -1    0    0    0  501  0.00000000000E+00  0.00000000000E+00  0.12351589207E+04  0.12351589207E+04  0.25500000920E-02 0.  1.
        2   -1    0    0  501    0  0.00000000000E+00  0.00000000000E+00 -0.22227760836E+04  0.22227760836E+04  0.25500000920E-02 0. -1.
    10030    2    1    2    0    0  0.00000000000E+00  0.00000000000E+00 -0.98761716295E+03  0.34579350043E+04  0.33138990379E+04 0.  0.
        4    1    3    3  502    0 -0.50070749915E+03 -0.14973117596E+03  0.11469049640E+04  0.12603650400E+04  0.12699999809E+01 0.  1.
       -4    1    3    3    0  502  0.50070749915E+03  0.14973117596E+03 -0.21345221269E+04  0.21975699643E+04  0.12699999809E+01 0. -1.
</event>
<event>
 5   0  0.3709747E-07  0.3397218E+04  0.7818609E-02  0.8138589E-01
       -1   -1    0    0    0  501  0.00000000000E+00  0.00000000000E+00  0.14470813297E+04  0.14470813297E+04  0.50400001928E-02 0.  1.
        1   -1    0    0  501    0  0.00000000000E+00  0.00000000000E+00 -0.19938567429E+04  0.19938567429E+04  0.50400001928E-02 0. -1.
    10030    2    1    2    0    0  0.00000000000E+00  0.00000000000E+00 -0.54677541319E+03  0.34409380726E+04  0.33972181954E+04 0.  0.
        4    1    3    3  502    0  0.36112744346E+03  0.40059455482E+03  0.13580496227E+04  0.14612287358E+04  0.12699999809E+01 0.  1.
       -4    1    3    3    0  502 -0.36112744346E+03 -0.40059455482E+03 -0.19048250359E+04  0.19797093368E+04  0.12699999809E+01 0. -1.
</event>
<event>
 5   0  0.1120545E-06  0.3298504E+04  0.7818609E-02  0.8163276E-01
       -2   -1    0    0    0  501  0.00000000000E+00  0.00000000000E+00  0.12956246389E+04  0.12956246389E+04  0.25500000920E-02 0. -1.
        2   -1    0    0  501    0  0.00000000000E+00  0.00000000000E+00 -0.20993982978E+04  0.20993982978E+04  0.25500000920E-02 0.  1.
    10030    2    1    2    0    0  0.00000000000E+00  0.00000000000E+00 -0.80377365887E+03  0.33950229367E+04  0.32985040012E+04 0.  0.
        4    1    3    3  502    0 -0.46174386818E+03  0.78410959925E+03  0.10138604065E+04  0.13623324852E+04  0.12699999809E+01 0. -1.
       -4    1    3    3    0  502  0.46174386818E+03 -0.78410959925E+03 -0.18176340653E+04  0.20326904516E+04  0.12699999809E+01 0.  1.
</event>
<event>
 5   0  0.1126221E-06  0.3284601E+04  0.7818609E-02  0.8166825E-01
        2   -1    0    0  501    0  0.00000000000E+00  0.00000000000E+00  0.16952018009E+04  0.16952018009E+04  0.25500000920E-02 0. -1.
       -2   -1    0    0    0  501  0.00000000000E+00  0.00000000000E+00 -0.15910498859E+04  0.15910498859E+04  0.25500000920E-02 0.  1.
    10030    2    1    2    0    0  0.00000000000E+00  0.00000000000E+00  0.10415191499E+03  0.32862516868E+04  0.32846008171E+04 0.  0.
        2    1    3    3  502    0  0.14754712012E+04 -0.47412339454E+03 -0.49165130059E+03  0.16258933729E+04  0.25500000920E-02 0.  1.
       -2    1    3    3    0  502 -0.14754712012E+04  0.47412339454E+03  0.59580321558E+03  0.16603583139E+04  0.25500000920E-02 0. -1.
</event>
<event>
 5   0  0.3757406E-07  0.3308541E+04  0.7818609E-02  0.8160726E-01
        1   -1    0    0  501    0  0.00000000000E+00  0.00000000000E+00  0.22479425266E+04  0.22479425266E+04  0.50400001928E-02 0. -1.
       -1   -1    0    0    0  501  0.00000000000E+00  0.00000000000E+00 -0.12173844379E+04  0.12173844379E+04  0.50400001928E-02 0.  1.
    10030    2    1    2    0    0  0.00000000000E+00  0.00000000000E+00  0.10305580887E+04  0.34653269645E+04  0.33085406144E+04 0.  0.
        1    1    3    3  502    0  0.15889033309E+04 -0.13385939367E+03  0.53859450472E+02  0.15954413097E+04  0.50400001928E-02 0.  1.
       -1    1    3    3    0  502 -0.15889033309E+04  0.13385939367E+03  0.97669863827E+03  0.18698856549E+04  0.50400001928E-02 0. -1.
</event>
<event>
 5   0  0.3757406E-07  0.3381100E+04  0.7818609E-02  0.8142561E-01
        1   -1    0    0  501    0  0.00000000000E+00  0.00000000000E+00  0.11526229119E+04  0.11526229119E+04  0.50400001928E-02 0. -1.
       -1   -1    0    0    0  501  0.00000000000E+00  0.00000000000E+00 -0.24795268582E+04  0.24795268582E+04  0.50400001928E-02 0.  1.
    10030    2    1    2    0    0  0.00000000000E+00  0.00000000000E+00 -0.13269039463E+04  0.36321497701E+04  0.33811000976E+04 0.  0.
        1    1    3    3  502    0 -0.13050101498E+04 -0.81269340104E+03 -0.14188248426E+04  0.20920291559E+04  0.50400001928E-02 0.  1.
       -1    1    3    3    0  502  0.13050101498E+04  0.81269340104E+03  0.91920896290E+02  0.15401206142E+04  0.50400001928E-02 0. -1.
</event>
<event>
 5   0  0.1146799E-06  0.3304978E+04  0.7818609E-02  0.8161630E-01
        2   -1    0    0  501    0  0.00000000000E+00  0.00000000000E+00  0.16423801077E+04  0.16423801077E+04  0.25500000920E-02 0.  1.
       -2   -1    0    0    0  501  0.00000000000E+00  0.00000000000E+00 -0.16626599638E+04  0.16626599638E+04  0.25500000920E-02 0. -1.
    10030    2    1    2    0    0  0.00000000000E+00  0.00000000000E+00 -0.20279856102E+02  0.33050400716E+04  0.33049778520E+04 0.  0.
        5    1    3    3  502    0 -0.64214519789E+03 -0.14830071401E+04  0.33488385341E+03  0.16504029563E+04  0.46999998093E+01 0. -1.
       -5    1    3    3    0  502  0.64214519789E+03  0.14830071401E+04 -0.35516370951E+03  0.16546371153E+04  0.46999998093E+01 0.  1.
</event>
<event>
 5   0  0.1129434E-06  0.3288987E+04  0.7818609E-02  0.8165703E-01
       -2   -1    0    0    0  501  0.00000000000E+00  0.00000000000E+00  0.11228714080E+04  0.11228714080E+04  0.25500000920E-02 0.  1.
        2   -1    0    0  501    0  0.00000000000E+00  0.00000000000E+00 -0.24084313865E+04  0.24084313865E+04  0.25500000920E-02 0. -1.
    10030    2    1    2    0    0  0.00000000000E+00  0.00000000000E+00 -0.12855599785E+04  0.35313027945E+04  0.32889869212E+04 0.  0.
        3    1    3    3  502    0  0.10089203816E+04  0.43937095487E+03  0.66929802337E+03  0.12879934110E+04  0.10100000352E+00 0.  1.
       -3    1    3    3    0  502 -0.10089203816E+04 -0.43937095487E+03 -0.19548580019E+04  0.22433093835E+04  0.10100000352E+00 0. -1.
</event>
<event>
 5   0  0.1146799E-06  0.3185047E+04  0.7818609E-02  0.8192777E-01
        2   -1    0    0  501    0  0.00000000000E+00  0.00000000000E+00  0.12872395468E+04  0.12872395468E+04  0.25500000920E-02 0. -1.
       -2   -1    0    0    0  501  0.00000000000E+00  0.00000000000E+00 -0.19702096274E+04  0.19702096274E+04  0.25500000920E-02 0.  1.
    10030    2    1    2    0    0  0.00000000000E+00  0.00000000000E+00 -0.68297008059E+03  0.32574491742E+04  0.31850474080E+04 0.  0.
        5    1    3    3  502    0 -0.15082541606E+02 -0.12615470410E+04  0.65239832620E+03  0.14203429465E+04  0.46999998093E+01 0. -1.
       -5    1    3    3    0  502  0.15082541606E+02  0.12615470410E+04 -0.13353684068E+04  0.18371062276E+04  0.46999998093E+01 0.  1.
</event>
<event>
 5   0  0.3674967E-07  0.3296489E+04  0.7818609E-02  0.8163789E-01
       -1   -1    0    0    0  501  0.00000000000E+00  0.00000000000E+00  0.24295050488E+04  0.24295050488E+04  0.50400001928E-02 0. -1.
        1   -1    0    0  501    0  0.00000000000E+00  0.00000000000E+00 -0.11182155937E+04  0.11182155937E+04  0.50400001928E-02 0.  1.
    10030    2    1    2    0    0  0.00000000000E+00  0.00000000000E+00  0.13112894551E+04  0.35477206425E+04  0.32964893026E+04 0.  0.
        2    1    3    3  502    0  0.30080506000E+03  0.54034348525E+03  0.22999102667E+04  0.23816049212E+04  0.25500000920E-02 0. -1.
       -2    1    3    3    0  502 -0.30080506000E+03 -0.54034348525E+03 -0.98862081162E+03  0.11661157212E+04  0.25500000920E-02 0.  1.
</event>
<event>
 5   0  0.1120545E-06  0.3437489E+04  0.7818609E-02  0.8128766E-01
       -2   -1    0    0    0  501  0.00000000000E+00  0.00000000000E+00  0.21358678570E+04  0.21358678570E+04  0.25500000920E-02 0.  1.
        2   -1    0    0  501    0  0.00000000000E+00  0.00000000000E+00 -0.13830831427E+04  0.13830831427E+04  0.25500000920E-02 0. -1.
    10030    2    1    2    0    0  0.00000000000E+00  0.00000000000E+00  0.75278471434E+03  0.35189509997E+04  0.34374890999E+04 0.  0.
        4    1    3    3  502    0 -0.12229804300E+04  0.10885857160E+04  0.91164180722E+03  0.18739776922E+04  0.12699999809E+01 0. -1.
       -4    1    3    3    0  502  0.12229804300E+04 -0.10885857160E+04 -0.15885709288E+03  0.16449733075E+04  0.12699999809E+01 0.  1.
</event>
<event>
 5   0  0.3749685E-07  0.3310679E+04  0.7818609E-02  0.8160184E-01
        1   -1    0    0  501    0  0.00000000000E+00  0.00000000000E+00  0.19586795660E+04  0.19586795660E+04  0.50400001928E-02 0. -1.
       -1   -1    0    0    0  501  0.00000000000E+00  0.00000000000E+00 -0.13989772510E+04  0.13989772510E+04  0.50400001928E-02 0.  1.
    10030    2    1    2    0    0  0.00000000000E+00  0.00000000000E+00  0.55970231499E+03  0.33576568170E+04  0.33106785739E+04 0.  0.
        3    1    3    3  502    0  0.12677803627E+04  0.10549026787E+04  0.13620292529E+03  0.16548830643E+04  0.10100000352E+00 0. -1.
       -3    1    3    3    0  502 -0.12677803627E+04 -0.10549026787E+04  0.42349938970E+03  0.17027737527E+04  0.10100000352E+00 0.  1.
</event>
<event>
 5   0  0.1129434E-06  0.3293842E+04  0.7818609E-02  0.8164464E-01
       -2   -1    0    0    0  501  0.00000000000E+00  0.00000000000E+00  0.16538181501E+04  0.16538181501E+04  0.25500000920E-02 0.  1.
        2   -1    0    0  501    0  0.00000000000E+00  0.00000000000E+00 -0.16400523560E+04  0.16400523560E+04  0.25500000920E-02 0. -1.
    10030    2    1    2    0    0  0.00000000000E+00  0.00000000000E+00  0.13765794131E+02  0.32938705061E+04  0.32938417408E+04 0.  0.
        3    1    3    3  502    0  0.88295447259E+03  0.60589621264E+03 -0.12443792128E+04  0.16417059592E+04  0.10100000352E+00 0. -1.
       -3    1    3    3    0  502 -0.88295447259E+03 -0.60589621264E+03  0.12581450069E+04  0.16521645468E+04  0.10100000352E+00 0.  1.
</event>
<event>
 5   0  0.3757406E-07  0.3304508E+04  0.7818609E-02  0.8161749E-01
       -1   -1    0    0    0  501  0.00000000000E+00  0.00000000000E+00  0.18073220719E+04  0.18073220719E+04  0.50400001928E-02 0. -1.
        1   -1    0    0  501    0  0.00000000000E+00  0.00000000000E+00 -0.15104907292E+04  0.15104907292E+04  0.50400001928E-02 0.  1.
    10030    2    1    2    0    0  0.00000000000E+00  0.00000000000E+00  0.29683134263E+03  0.33178128011E+04  0.33045079720E+04 0.  0.
        1    1    3    3  502    0  0.20784237462E+03  0.18100567720E+03  0.17840794583E+04  0.18052426489E+04  0.50400001928E-02 0. -1.
       -1    1    3    3    0  502 -0.20784237462E+03 -0.18100567720E+03 -0.14872481157E+04  0.15125701522E+04  0.50400001928E-02 0.  1.
</event>
<event>
 5   0  0.1146799E-06  0.3258274E+04  0.7818609E-02  0.8173594E-01
        2   -1    0    0  501    0  0.00000000000E+00  0.00000000000E+00  0.18577138669E+04  0.18577138669E+04  0.25500000920E-02 0.  1.
       -2   -1    0    0    0  501  0.00000000000E+00  0.00000000000E+00 -0.14286847492E+04  0.14286847492E+04  0.25500000920E-02 0. -1.
    10030    2    1    2    0    0  0.00000000000E+00  0.00000000000E+00  0.42902911767E+03  0.32863986162E+04  0.32582740647E+04 0.  0.
        5    1    3    3  502    0 -0.80060185354E+03  0.98156505305E+03 -0.81884432920E+03  0.15082975193E+04  0.46999998093E+01 0. -1.
       -5    1    3    3    0  502  0.80060185354E+03 -0.98156505305E+03  0.12478734469E+04  0.17781010969E+04  0.46999998093E+01 0.  1.
</event>
<event>
 5   0  0.3709747E-07  0.3314813E+04  0.7818609E-02  0.8159136E-01
        1   -1    0    0  501    0  0.00000000000E+00  0.00000000000E+00  0.17539547894E+04  0.17539547894E+04  0.50400001928E-02 0. -1.
       -1   -1    0    0    0  501  0.00000000000E+00  0.00000000000E+00 -0.15661732676E+04  0.15661732676E+04  0.50400001928E-02 0.  1.
    10030    2    1    2    0    0  0.00000000000E+00  0.00000000000E+00  0.18778152183E+03  0.33201280570E+04  0.33148134812E+04 0.  0.
        4    1    3    3  502    0  0.11614071309E+03  0.13478703394E+04 -0.86511620085E+03  0.16058240162E+04  0.12699999809E+01 0.  1.
       -4    1    3    3    0  502 -0.11614071309E+03 -0.13478703394E+04  0.10528977227E+04  0.17143040408E+04  0.12699999809E+01 0. -1.
</event>
<event>
 5   0  0.1126221E-06  0.3301939E+04  0.7818609E-02  0.8162402E-01
        2   -1    0    0  501    0  0.00000000000E+00  0.00000000000E+00  0.18303990355E+04  0.18303990355E+04  0.25500000920E-02 0.  1.
       -2   -1    0    0    0  501  0.00000000000E+00  0.00000000000E+00 -0.14891287201E+04  0.14891287201E+04  0.25500000920E-02 0. -1.
    10030    2    1    2    0    0  0.00000000000E+00  0.00000000000E+00  0.34127031540E+03  0.33195277556E+04  0.33019386869E+04 0.  0.
        2    1    3    3  502    0 -0.74673817131E+03  0.95583603486E+03 -0.95535759746E+03  0.15440040677E+04  0.25500000920E-02 0. -1.
       -2    1    3    3    0  502  0.74673817131E+03 -0.95583603486E+03  0.12966279129E+04  0.17755236879E+04  0.25500000920E-02 0.  1.
</event>
<event>
 5   0  0.1129434E-06  0.3352766E+04  0.7818609E-02  0.8149597E-01
       -2   -1    0    0    0  501  0.00000000000E+00  0.00000000000E+00  0.84366304092E+03  0.84366304092E+03  0.25500000920E-02 0. -1.
        2   -1    0    0  501    0  0.00000000000E+00  0.00000000000E+00 -0.33310218205E+04  0.33310218205E+04  0.25500000920E-02 0.  1.
    10030    2    1    2    0    0  0.00000000000E+00  0.00000000000E+00 -0.24873587796E+04  0.41746848614E+04  0.33527660213E+04 0.  0.
        3    1    3    3  502    0  0.15194941032E+03  0.11162179462E+04  0.30212315219E+03  0.11663230839E+04  0.10100000352E+00 0. -1.
       -3    1    3    3    0  502 -0.15194941032E+03 -0.11162179462E+04 -0.27894819317E+04  0.30083617775E+04  0.10100000352E+00 0.  1.
</event>
<event>
 5   0  0.3796529E-07  0.3265664E+04  0.7818609E-02  0.8171688E-01
       -1   -1    0    0    0  501  0.00000000000E+00  0.00000000000E+00  0.14768926252E+04  0.14768926252E+04  0.50400001928E-02 0.  1.
        1   -1    0    0  501    0  0.00000000000E+00  0.00000000000E+00 -0.18052361993E+04  0.18052361994E+04  0.50400001928E-02 0. -1.
    10030    2    1    2    0    0  0.00000000000E+00  0.00000000000E+00 -0.32834357412E+03  0.32821288246E+04  0.32656638098E+04 0.  0.
        5    1    3    3  502    0  0.16018740065E+04 -0.13898578218E+03 -0.44985934920E+03  0.16696445443E+04  0.46999998093E+01 0. -1.
       -5    1    3    3    0  502 -0.16018740065E+04  0.13898578218E+03  0.12151577508E+03  0.16124842802E+04  0.46999998093E+01 0.  1.
</event>
<event>
 5   0  0.3674967E-07  0.3261450E+04  0.7818609E-02  0.8172774E-01
       -1   -1    0    0    0  501  0.00000000000E+00  0.00000000000E+00  0.23071042374E+04  0.23071042374E+04  0.50400001928E-02 0. -1.
        1   -1    0    0  501    0  0.00000000000E+00  0.00000000000E+00 -0.11526412020E+04  0.11526412020E+04  0.50400001928E-02 0.  1.
    10030    2    1    2    0    0  0.00000000000E+00  0.00000000000E+00  0.11544630353E+04  0.34597454394E+04  0.32614496172E+04 0.  0.
        2    1    3    3  502    0  0.12745398080E+04 -0.73448356253E+03 -0.16936784652E+03  0.14807441687E+04  0.25500000920E-02 0.  1.
       -2    1    3    3    0  502 -0.12745398080E+04  0.73448356253E+03  0.13238308819E+04  0.19790012707E+04  0.25500000920E-02 0. -1.
</event>
<event>
 5   0  0.1116462E-06  0.3267412E+04  0.7818609E-02  0.8171237E-01
        2   -1    0    0  501    0  0.00000000000E+00  0.00000000000E+00  0.17538058077E+04  0.17538058077E+04  0.25500000920E-02 0.  1.
       -2   -1    0    0    0  501  0.00000000000E+00  0.00000000000E+00 -0.15218305756E+04  0.15218305756E+04  0.25500000920E-02 0. -1.
    10030    2    1    2    0    0  0.00000000000E+00  0.00000000000E+00  0.23197523208E+03  0.32756363833E+04  0.32674120045E+04 0.  0.
        1    1    3    3  502    0 -0.11089061863E+04 -0.80018720667E+03  0.10121183528E+04  0.17012807105E+04  0.50400001928E-02 0.  1.
       -1    1    3    3    0  502  0.11089061863E+04  0.80018720667E+03 -0.78014312070E+03  0.15743556728E+04  0.50400001928E-02 0. -1.
</event>
<event>
 5   0  0.1126221E-06  0.3242258E+04  0.7818609E-02  0.8177745E-01
        2   -1    0    0  501    0  0.00000000000E+00  0.00000000000E+00  0.13910506395E+04  0.13910506395E+04  0.25500000920E-02 0.  1.
       -2   -1    0    0    0  501  0.00000000000E+00  0.00000000000E+00 -0.18892616569E+04  0.18892616569E+04  0.25500000920E-02 0. -1.
    10030    2    1    2    0    0  0.00000000000E+00  0.00000000000E+00 -0.49821101741E+03  0.32803122964E+04  0.32422576307E+04 0.  0.
        2    1    3    3  502    0  0.19439834064E+03  0.81406701420E+03  0.11555568383E+04  0.14268172360E+04  0.25500000920E-02 0.  1.
       -2    1    3    3    0  502 -0.19439834064E+03 -0.81406701420E+03 -0.16537678557E+04  0.18534950604E+04  0.25500000920E-02 0. -1.
</event>
<event>
 5   0  0.3674967E-07  0.3297626E+04  0.7818609E-02  0.8163500E-01
       -1   -1    0    0    0  501  0.00000000000E+00  0.00000000000E+00  0.22096700546E+04  0.22096700546E+04  0.50400001928E-02 0. -1.
        1   -1    0    0  501    0  0.00000000000E+00  0.00000000000E+00 -0.12303126009E+04  0.12303126009E+04  0.50400001928E-02 0.  1.
    10030    2    1    2    0    0  0.00000000000E+00  0.00000000000E+00  0.97935745378E+03  0.34399826555E+04  0.32976263657E+04 0.  0.
        2    1    3    3  502    0 -0.10318454675E+03  0.23556413432E+03  0.21886193319E+04  0.22036769482E+04  0.25500000920E-02 0. -1.
       -2    1    3    3    0  502  0.10318454675E+03 -0.23556413432E+03 -0.12092618781E+04  0.12363057073E+04  0.25500000920E-02 0.  1.
</event>
<event>
 5   0  0.1120545E-06  0.3266949E+04  0.7818609E-02  0.8171357E-01
       -2   -1    0    0    0  501  0.00000000000E+00  0.00000000000E+00  0.18164428536E+04  0.18164428536E+04  0.25500000920E-02 0. -1.
        2   -1    0    0  501    0  0.00000000000E+00  0.00000000000E+00 -0.14689361009E+04  0.14689361009E+04  0.25500000920E-02 0.  1.
    10030    2    1    2    0    0  0.00000000000E+00  0.00000000000E+00  0.34750675262E+03  0.32853789545E+04  0.32669487188E+04 0.  0.
        4    1    3    3  502    0  0.28882694035E+03  0.10605308385E+03  0.17870381278E+04  0.18133326063E+04  0.12699999809E+01 0. -1.
       -4    1    3    3    0  502 -0.28882694035E+03 -0.10605308385E+03 -0.14395313752E+04  0.14720463482E+04  0.12699999809E+01 0.  1.
</event>
<event>
 5   0  0.1146799E-06  0.3298565E+04  0.7818609E-02  0.8163261E-01
       -2   -1    0    0    0  501  0.00000000000E+00  0.00000000000E+00  0.18663682791E+04  0.18663682791E+04  0.25500000920E-02 0.  1.
        2   -1    0    0  501    0  0.00000000000E+00  0.00000000000E+00 -0.14574470631E+04  0.14574470631E+04  0.25500000920E-02 0. -1.
    10030    2    1    2    0    0  0.00000000000E+00  0.00000000000E+00  0.40892121600E+03  0.33238153421E+04  0.32985651225E+04 0.  0.
        5    1    3    3  502    0 -0.89278096435E+03  0.11244195974E+04  0.10222975654E+04  0.17625242363E+04  0.46999998093E+01 0.  1.
       -5    1    3    3    0  502  0.89278096435E+03 -0.11244195974E+04 -0.61337634935E+03  0.15612911059E+04  0.46999998093E+01 0. -1.
</event>
<event>
 5   0  0.1120545E-06  0.3310062E+04  0.7818609E-02  0.8160340E-01
       -2   -1    0    0    0  501  0.00000000000E+00  0.00000000000E+00  0.13800487461E+04  0.13800487461E+04  0.25500000920E-02 0. -1.
        2   -1    0    0  501    0  0.00000000000E+00  0.00000000000E+00 -0.19848047049E+04  0.19848047049E+04  0.25500000920E-02 0.  1.
    10030    2    1    2    0    0  0.00000000000E+00  0.00000000000E+00 -0.60475595884E+03  0.33648534510E+04  0.33100617784E+04 0.  0.
        4    1    3    3  502    0  0.13282926100E+04  0.78925147600E+03 -0.90536319052E+03  0.17907996175E+04  0.12699999809E+01 0.  1.
       -4    1    3    3    0  502 -0.13282926100E+04 -0.78925147600E+03  0.30060723168E+03  0.15740538335E+04  0.12699999809E+01 0. -1.
</event>
<event>
 5   0  0.1126221E-06  0.3351130E+04  0.7818609E-02  0.8150006E-01
       -2   -1    0    0    0  501  0.00000000000E+00  0.00000000000E+00  0.12648964021E+04  0.12648964021E+04  0.25500000920E-02 0.  1.
        2   -1    0    0  501    0  0.00000000000E+00  0.00000000000E+00 -0.22195637850E+04  0.22195637850E+04  0.25500000920E-02 0. -1.
    10030    2    1    2    0    0  0.00000000000E+00  0.00000000000E+00 -0.95466738287E+03  0.34844601871E+04  0.33511301054E+04 0.  0.
        2    1    3    3  502    0  0.12701034099E+04  0.10905901377E+04 -0.55062740383E+03  0.17623109993E+04  0.25500000920E-02 0. -1.
       -2    1    3    3    0  502 -0.12701034099E+04 -0.10905901377E+04 -0.40403997904E+03  0.17221491878E+04  0.25500000920E-02 0.  1.
</event>
<event>
 5   0  0.3573375E-07  0.3265986E+04  0.7818609E-02  0.8171605E-01
       -4   -1    0    0    0  501  0.00000000000E+00  0.00000000000E+00  0.20596378295E+04  0.20596382210E+04  0.12699999809E+01 0. -1.
        4   -1    0    0  501    0  0.00000000000E+00  0.00000000000E+00 -0.12947245916E+04  0.12947252145E+04  0.12699999809E+01 0.  1.
    10030    2    1    2    0    0  0.00000000000E+00  0.00000000000E+00  0.76491323785E+03  0.33543634355E+04  0.32659855780E+04 0.  0.
        5    1    3    3  502    0  0.16101257540E+04 -0.22372175134E+03  0.54185618965E+03  0.17135304450E+04  0.46999998093E+01 0. -1.
       -5    1    3    3    0  502 -0.16101257540E+04  0.22372175134E+03  0.22305704820E+03  0.16408329905E+04  0.46999998093E+01 0.  1.
</event>
<event>
 5   0  0.3757406E-07  0.3248960E+04  0.7818609E-02  0.8176005E-01
       -1   -1    0    0    0  501  0.00000000000E+00  0.00000000000E+00  0.16465781397E+04  0.16465781397E+04  0.50400001928E-02 0.  1.
        1   -1    0    0  501    0  0.00000000000E+00  0.00000000000E+00 -0.16026780639E+04  0.16026780639E+04  0.50400001928E-02 0. -1.
    10030    2    1    2    0    0  0.00000000000E+00  0.00000000000E+00  0.43900075827E+02  0.32492562037E+04  0.32489596274E+04 0.  0.
        1    1    3    3  502    0  0.30905565285E+03  0.41360759684E+03 -0.15184334067E+04  0.16038162773E+04  0.50400001928E-02 0. -1.
       -1    1    3    3    0  502 -0.30905565285E+03 -0.41360759684E+03  0.15623334825E+04  0.16454399264E+04  0.50400001928E-02 0.  1.
</event>
<event>
 5   0  0.1129434E-06  0.3295164E+04  0.7818609E-02  0.8164127E-01
        2   -1    0    0  501    0  0.00000000000E+00  0.00000000000E+00  0.21940761194E+04  0.21940761194E+04  0.25500000920E-02 0. -1.
       -2   -1    0    0    0  501  0.00000000000E+00  0.00000000000E+00 -0.12372071057E+04  0.12372071057E+04  0.25500000920E-02 0.  1.
    10030    2    1    2    0    0  0.00000000000E+00  0.00000000000E+00  0.95686901373E+03  0.34312832252E+04  0.32951640721E+04 0.  0.
        3    1    3    3  502    0 -0.12503379217E+04  0.78778650045E+03  0.12369291757E+04  0.19271601606E+04  0.10100000352E+00 0. -1.
       -3    1    3    3    0  502  0.12503379217E+04 -0.78778650045E+03 -0.28006016196E+03  0.15041230645E+04  0.10100000352E+00 0.  1.
</event>
<event>
 5   0  0.3757406E-07  0.3283673E+04  0.7818609E-02  0.8167062E-01
        1   -1    0    0  501    0  0.00000000000E+00  0.00000000000E+00  0.24133184903E+04  0.24133184903E+04  0.50400001928E-02 0. -1.
       -1   -1    0    0    0  501  0.00000000000E+00  0.00000000000E+00 -0.11169795224E+04  0.11169795224E+04  0.50400001928E-02 0.  1.
    10030    2    1    2    0    0  0.00000000000E+00  0.00000000000E+00  0.12963389678E+04  0.35302980127E+04  0.32836731474E+04 0.  0.
        1    1    3    3  502    0  0.61168804047E+03  0.27172273402E+03  0.22599801812E+04  0.23570120752E+04  0.50400001928E-02 0. -1.
       -1    1    3    3    0  502 -0.61168804047E+03 -0.27172273402E+03 -0.96364121339E+03  0.11732859375E+04  0.50400001928E-02 0.  1.
</event>
<event>
 5   0  0.1126221E-06  0.3292074E+04  0.7818609E-02  0.8164915E-01
       -2   -1    0    0    0  501  0.00000000000E+00  0.00000000000E+00  0.17639698351E+04  0.17639698351E+04  0.25500000920E-02 0.  1.
        2   -1    0    0  501    0  0.00000000000E+00  0.00000000000E+00 -0.15359884870E+04  0.15359884870E+04  0.25500000920E-02 0. -1.
    10030    2    1    2    0    0  0.00000000000E+00  0.00000000000E+00  0.22798134808E+03  0.32999583221E+04  0.32920737283E+04 0.  0.
        2    1    3    3  502    0  0.10620374619E+04 -0.38696935226E+02  0.13739881940E+04  0.17370275129E+04  0.25500000920E-02 0. -1.
       -2    1    3    3    0  502 -0.10620374619E+04  0.38696935226E+02 -0.11460068460E+04  0.15629308092E+04  0.25500000920E-02 0.  1.
</event>
<event>
 5   0  0.1146799E-06  0.3322998E+04  0.7818609E-02  0.8157068E-01
       -2   -1    0    0    0  501  0.00000000000E+00  0.00000000000E+00  0.93904576397E+03  0.93904576397E+03  0.25500000920E-02 0.  1.
        2   -1    0    0  501    0  0.00000000000E+00  0.00000000000E+00 -0.29397712606E+04  0.29397712606E+04  0.25500000920E-02 0. -1.
    10030    2    1    2    0    0  0.00000000000E+00  0.00000000000E+00 -0.20007254966E+04  0.38788170246E+04  0.33229984949E+04 0.  0.
        5    1    3    3  502    0 -0.77710135913E+03 -0.13564594435E+04 -0.16572420533E+04  0.22782322220E+04  0.46999998093E+01 0. -1.
       -5    1    3    3    0  502  0.77710135913E+03  0.13564594435E+04 -0.34348344336E+03  0.16005848026E+04  0.46999998093E+01 0.  1.
</event>
<event>
 5   0  0.3749685E-07  0.3292008E+04  0.7818609E-02  0.8164932E-01
       -1   -1    0    0    0  501  0.00000000000E+00  0.00000000000E+00  0.11691271322E+04  0.11691271323E+04  0.50400001928E-02 0.  1.
        1   -1    0    0  501    0  0.00000000000E+00  0.00000000000E+00 -0.23173954787E+04  0.23173954787E+04  0.50400001928E-02 0. -1.
    10030    2    1    2    0    0  0.00000000000E+00  0.00000000000E+00 -0.11482683464E+04  0.34865226110E+04  0.32920084631E+04 0.  0.
        3    1    3    3  502    0 -0.18338302064E+03  0.14620329501E+04  0.20280558755E+03  0.14873801787E+04  0.10100000352E+00 0. -1.
       -3    1    3    3    0  502  0.18338302064E+03 -0.14620329501E+04 -0.13510739340E+04  0.19991424323E+04  0.10100000352E+00 0.  1.
</event>
<event>
 5   0  0.3757406E-07  0.3290909E+04  0.7818609E-02  0.8165212E-01
        1   -1    0    0  501    0  0.00000000000E+00  0.00000000000E+00  0.17543464867E+04  0.17543464867E+04  0.50400001928E-02 0. -1.
       -1   -1    0    0    0  501  0.00000000000E+00  0.00000000000E+00 -0.15433218710E+04  0.15433218710E+04  0.50400001928E-02 0.  1.
    10030    2    1    2    0    0  0.00000000000E+00  0.00000000000E+00  0.21102461578E+03  0.32976683577E+04  0.32909094805E+04 0.  0.
        1    1    3    3  502    0  0.14347977052E+04 -0.78238137255E+03 -0.86600602866E+02  0.16365404765E+04  0.50400001928E-02 0. -1.
       -1    1    3    3    0  502 -0.14347977052E+04  0.78238137255E+03  0.29762521865E+03  0.16611278812E+04  0.50400001928E-02 0.  1.
</event>
<event>
 5   0  0.3796529E-07  0.3300742E+04  0.7818609E-02  0.8162707E-01
       -1   -1    0    0    0  501  0.00000000000E+00  0.00000000000E+00  0.13684051432E+04  0.13684051432E+04  0.50400001928E-02 0. -1.
        1   -1    0    0  501    0  0.00000000000E+00  0.00000000000E+00 -0.19904371885E+04  0.19904371885E+04  0.50400001928E-02 0.  1.
    10030    2    1    2    0    0  0.00000000000E+00  0.00000000000E+00 -0.62203204529E+03  0.33588423318E+04  0.33007420294E+04 0.  0.
        5    1    3    3  502    0 -0.12828019366E+04  0.56022960055E+03 -0.12006264094E+04  0.18441702412E+04  0.46999998093E+01 0.  1.
       -5    1    3    3    0  502  0.12828019366E+04 -0.56022960055E+03  0.57859436407E+03  0.15146720906E+04  0.46999998093E+01 0. -1.
</event>
<event>
 5   0  0.3749685E-07  0.3282436E+04  0.7818609E-02  0.8167379E-01
       -1   -1    0    0    0  501  0.00000000000E+00  0.00000000000E+00  0.14295304313E+04  0.14295304313E+04  0.50400001928E-02 0. -1.
        1   -1    0    0  501    0  0.00000000000E+00  0.00000000000E+00 -0.18842530862E+04  0.18842530862E+04  0.50400001928E-02 0.  1.
    10030    2    1    2    0    0  0.00000000000E+00  0.00000000000E+00 -0.45472265492E+03  0.33137835175E+04  0.32824363677E+04 0.  0.
        3    1    3    3  502    0  0.12630793922E+03  0.88556833733E+03  0.11617926813E+04  0.14662698320E+04  0.10100000352E+00 0. -1.
       -3    1    3    3    0  502 -0.12630793922E+03 -0.88556833733E+03 -0.16165153363E+04  0.18475136855E+04  0.10100000352E+00 0.  1.
</event>
<event>
 5   0  0.1146799E-06  0.3291473E+04  0.7818609E-02  0.8165068E-01
       -2   -1    0    0    0  501  0.00000000000E+00  0.00000000000E+00  0.14052104857E+04  0.14052104857E+04  0.25500000920E-02 0.  1.
        2   -1    0    0  501    0  0.00000000000E+00  0.00000000000E+00 -0.19274328090E+04  0.19274328090E+04  0.25500000920E-02 0. -1.
    10030    2    1    2    0    0  0.00000000000E+00  0.00000000000E+00 -0.52222232327E+03  0.33326432946E+04  0.32914731010E+04 0.  0.
        5    1    3    3  502    0  0.19636974187E+02 -0.10989418656E+04  0.97910503637E+03  0.14719808412E+04  0.46999998093E+01 0.  1.
       -5    1    3    3    0  502 -0.19636974187E+02  0.10989418656E+04 -0.15013273596E+04  0.18606624534E+04  0.46999998093E+01 0. -1.
</event>
<event>
 5   0  0.1146799E-06  0.3311770E+04  0.7818609E-02  0.8159907E-01
       -2   -1    0    0    0  501  0.00000000000E+00  0.00000000000E+00  0.12318967136E+04  0.12318967136E+04  0.25500000920E-02 0. -1.
        2   -1    0    0  501    0  0.00000000000E+00  0.00000000000E+00 -0.22258001259E+04  0.22258001259E+04  0.25500000920E-02 0.  1.
    10030    2    1    2    0    0  0.00000000000E+00  0.00000000000E+00 -0.99390341231E+03  0.34576968396E+04  0.33117704391E+04 0.  0.
        5    1    3    3  502    0 -0.12939881888E+04 -0.67479143323E+03 -0.13138499827E+04  0.19636631020E+04  0.46999998093E+01 0.  1.
       -5    1    3    3    0  502  0.12939881888E+04  0.67479143323E+03  0.31994657036E+03  0.14940337376E+04  0.46999998093E+01 0. -1.
</event>
<event>
 5   0  0.3757406E-07  0.3290418E+04  0.7818609E-02  0.8165338E-01
       -1   -1    0    0    0  501  0.00000000000E+00  0.00000000000E+00  0.12899306093E+04  0.12899306093E+04  0.50400001928E-02 0. -1.
        1   -1    0    0  501    0  0.00000000000E+00  0.00000000000E+00 -0.20983399876E+04  0.20983399876E+04  0.50400001928E-02 0.  1.
    10030    2    1    2    0    0  0.00000000000E+00  0.00000000000E+00 -0.80840937826E+03  0.33882705969E+04  0.32904181975E+04 0.  0.
        1    1    3    3  502    0  0.85272474182E+03  0.13727648990E+04 -0.72174178631E+03  0.17698966522E+04  0.50400001928E-02 0. -1.
       -1    1    3    3    0  502 -0.85272474182E+03 -0.13727648990E+04 -0.86667591944E+02  0.16183739447E+04  0.50400001928E-02 0.  1.
</event>
<event>
 5   0  0.3796529E-07  0.3308580E+04  0.7818609E-02  0.8160716E-01
       -1   -1    0    0    0  501  0.00000000000E+00  0.00000000000E+00  0.10051001105E+04  0.10051001105E+04  0.50400001928E-02 0.  1.
        1   -1    0    0  501    0  0.00000000000E+00  0.00000000000E+00 -0.27227884580E+04  0.27227884580E+04  0.50400001928E-02 0. -1.
    10030    2    1    2    0    0  0.00000000000E+00  0.00000000000E+00 -0.17176883475E+04  0.37278885685E+04  0.33085797437E+04 0.  0.
        5    1    3    3  502    0 -0.45779724488E+03  0.62279692888E+03  0.78911657840E+03  0.11046182129E+04  0.46999998093E+01 0.  1.
       -5    1    3    3    0  502  0.45779724488E+03 -0.62279692888E+03 -0.25068049259E+04  0.26232703556E+04  0.46999998093E+01 0. -1.
</event>
<event>
 5   0  0.1129434E-06  0.3348684E+04  0.7818609E-02  0.8150617E-01
       -2   -1    0    0    0  501  0.00000000000E+00  0.00000000000E+00  0.15155325617E+04  0.15155325617E+04  0.25500000920E-02 0.  1.
        2   -1    0    0  501    0  0.00000000000E+00  0.00000000000E+00 -0.18497930332E+04  0.18497930332E+04  0.25500000920E-02 0. -1.
    10030    2    1    2    0    0  0.00000000000E+00  0.00000000000E+00 -0.33426047143E+03  0.33653255949E+04  0.33486842635E+04 0.  0.
        3    1    3    3  502    0  0.88554348255E+03  0.98316104574E+03  0.86394530126E+03  0.15802513709E+04  0.10100000352E+00 0.  1.
       -3    1    3    3    0  502 -0.88554348255E+03 -0.98316104574E+03 -0.11982057727E+04  0.17850742240E+04  0.10100000352E+00 0. -1.
</event>
<event>
 5   0  0.1146799E-06  0.3288548E+04  0.7818609E-02  0.8165816E-01
        2   -1    0    0  501    0  0.00000000000E+00  0.00000000000E+00  0.21588170080E+04  0.21588170080E+04  0.25500000920E-02 0. -1.
       -2   -1    0    0    0  501  0.00000000000E+00  0.00000000000E+00 -0.12523693386E+04  0.12523693386E+04  0.25500000920E-02 0.  1.
    10030    2    1    2    0    0  0.00000000000E+00  0.00000000000E+00  0.90644766937E+03  0.34111863466E+04  0.32885475387E+04 0.  0.
        5    1    3    3  502    0 -0.11833733154E+04  0.25540084168E+03 -0.70093019701E+03  0.13989021498E+04  0.46999998093E+01 0.  1.
       -5    1    3    3    0  502  0.11833733154E+04 -0.25540084168E+03  0.16073778664E+04  0.20122841969E+04  0.46999998093E+01 0. -1.
</event>
<event>
 5   0  0.1120545E-06  0.3270843E+04  0.7818609E-02  0.8170354E-01
       -2   -1    0    0    0  501  0.00000000000E+00  0.00000000000E+00  0.14238299947E+04  0.14238299947E+04  0.25500000920E-02 0. -1.
        2   -1    0    0  501    0  0.00000000000E+00  0.00000000000E+00 -0.18784567496E+04  0.18784567496E+04  0.25500000920E-02 0.  1.
    10030    2    1    2    0    0  0.00000000000E+00  0.00000000000E+00 -0.45462675486E+03  0.33022867444E+04  0.32708427440E+04 0.  0.
        4    1    3    3  502    0  0.16247388989E+04  0.14408827696E+03 -0.10758356892E+03  0.16346601354E+04  0.12699999809E+01 0.  1.
       -4    1    3    3    0  502 -0.16247388989E+04 -0.14408827696E+03 -0.34704318594E+03  0.16676266089E+04  0.12699999809E+01 0. -1.
</event>
<event>
 5   0  0.3749685E-07  0.3320641E+04  0.7818609E-02  0.8157663E-01
       -1   -1    0    0    0  501  0.00000000000E+00  0.00000000000E+00  0.12051977921E+04  0.12051977921E+04  0.50400001928E-02 0.  1.
        1   -1    0    0  501    0  0.00000000000E+00  0.00000000000E+00 -0.22873127197E+04  0.22873127197E+04  0.50400001928E-02 0. -1.
    10030    2    1    2    0    0  0.00000000000E+00  0.00000000000E+00 -0.10821149276E+04  0.34925105118E+04  0.33206410463E+04 0.  0.
        3    1    3    3  502    0 -0.69579586967E+03 -0.64251923290E+03  0.89323394093E+03  0.13018562672E+04  0.10100000352E+00 0.  1.
       -3    1    3    3    0  502  0.69579586967E+03  0.64251923290E+03 -0.19753488686E+04  0.21906542446E+04  0.10100000352E+00 0. -1.
</event>
<event>
 5   0  0.3709747E-07  0.3293581E+04  0.7818609E-02  0.8164530E-01
        1   -1    0    0  501    0  0.00000000000E+00  0.00000000000E+00  0.23121039069E+04  0.23121039069E+04  0.50400001928E-02 0.  1.
       -1   -1    0    0    0  501  0.00000000000E+00  0.00000000000E+00 -0.11729229521E+04  0.11729229521E+04  0.50400001928E-02 0. -1.
    10030    2    1    2    0    0  0.00000000000E+00  0.00000000000E+00  0.11391809548E+04  0.34850268590E+04  0.32935814792E+04 0.  0.
        4    1    3    3  502    0  0.97560681731E+03  0.23654258815E+03  0.19509048413E+04  0.21940356357E+04  0.12699999809E+01 0.  1.
       -4    1    3    3    0  502 -0.97560681731E+03 -0.23654258815E+03 -0.81172388646E+03  0.12909912233E+04  0.12699999809E+01 0. -1.
</event>
<event>
 5   0  0.3709747E-07  0.3274571E+04  0.7818609E-02  0.8169396E-01
       -1   -1    0    0    0  501  0.00000000000E+00  0.00000000000E+00  0.19661327311E+04  0.19661327311E+04  0.50400001928E-02 0.  1.
        1   -1    0    0  501    0  0.00000000000E+00  0.00000000000E+00 -0.13634401168E+04  0.13634401168E+04  0.50400001928E-02 0. -1.
    10030    2    1    2    0    0  0.00000000000E+00  0.00000000000E+00  0.60269261436E+03  0.33295728479E+04  0.32745712639E+04 0.  0.
        4    1    3    3  502    0 -0.13493564437E+04  0.88284342132E+03  0.58988606849E+03  0.17170155810E+04  0.12699999809E+01 0. -1.
       -4    1    3    3    0  502  0.13493564437E+04 -0.88284342132E+03  0.12806545870E+02  0.16125572669E+04  0.12699999809E+01 0.  1.
</event>
<event>
 5   0  0.3709747E-07  0.3321014E+04  0.7818609E-02  0.8157569E-01
       -1   -1    0    0    0  501  0.00000000000E+00  0.00000000000E+00  0.99301690775E+03  0.99301690777E+03  0.50400001928E-02 0.  1.
        1   -1    0    0  501    0  0.00000000000E+00  0.00000000000E+00 -0.27766728498E+04  0.27766728498E+04  0.50400001928E-02 0. -1.
    10030    2    1    2    0    0  0.00000000000E+00  0.00000000000E+00 -0.17836559420E+04  0.37696897575E+04  0.33210137531E+04 0.  0.
        4    1    3    3  502    0 -0.65890352834E+02 -0.13773110569E+04  0.15834345171E+03  0.13879486834E+04  0.12699999809E+01 0.  1.
       -4    1    3    3    0  502  0.65890352834E+02  0.13773110569E+04 -0.19419993937E+04  0.23817410741E+04  0.12699999809E+01 0. -1.
</event>
<event>
 5   0  0.3757406E-07  0.3310122E+04  0.7818609E-02  0.8160325E-01
       -1   -1    0    0    0  501  0.00000000000E+00  0.00000000000E+00  0.16347125313E+04  0.16347125313E+04  0.50400001928E-02 0.  1.
        1   -1    0    0  501    0  0.00000000000E+00  0.00000000000E+00 -0.16756629839E+04  0.16756629839E+04  0.50400001928E-02 0. -1.
    10030    2    1    2    0    0  0.00000000000E+00  0.00000000000E+00 -0.40950452604E+02  0.33103755152E+04  0.33101222202E+04 0.  0.
        1    1    3    3  502    0 -0.21232878094E+03  0.12720161762E+04 -0.10579159777E+04  0.16680212468E+04  0.50400001928E-02 0. -1.
       -1    1    3    3    0  502  0.21232878094E+03 -0.12720161762E+04  0.10169655251E+04  0.16423542685E+04  0.50400001928E-02 0.  1.
</event>
<event>
 5   0  0.3796529E-07  0.3317222E+04  0.7818609E-02  0.8158527E-01
        1   -1    0    0  501    0  0.00000000000E+00  0.00000000000E+00  0.19812049740E+04  0.19812049740E+04  0.50400001928E-02 0.  1.
       -1   -1    0    0    0  501  0.00000000000E+00  0.00000000000E+00 -0.13885440108E+04  0.13885440108E+04  0.50400001928E-02 0. -1.
    10030    2    1    2    0    0  0.00000000000E+00  0.00000000000E+00  0.59266096323E+03  0.33697489848E+04  0.33172219104E+04 0.  0.
        5    1    3    3  502    0 -0.54240236410E+03  0.94279216414E+03  0.15683205039E+04  0.19085881385E+04  0.46999998093E+01 0.  1.
       -5    1    3    3    0  502  0.54240236410E+03 -0.94279216414E+03 -0.97565954071E+03  0.14611608463E+04  0.46999998093E+01 0. -1.
</event>
<event>
 5   0  0.1120545E-06  0.3293901E+04  0.7818609E-02  0.8164449E-01
        2   -1    0    0  501    0  0.00000000000E+00  0.00000000000E+00  0.10239487389E+04  0.10239487389E+04  0.25500000920E-02 0. -1.
       -2   -1    0    0    0  501  0.00000000000E+00  0.00000000000E+00 -0.26490053274E+04  0.26490053274E+04  0.25500000920E-02 0.  1.
    10030    2    1    2    0    0  0.00000000000E+00  0.00000000000E+00 -0.16250565885E+04  0.36729540663E+04  0.32939008269E+04 0.  0.
        4    1    3    3  502    0  0.26430375141E+03 -0.84110419357E+03 -0.23637011567E+04  0.25227757547E+04  0.12699999809E+01 0.  1.
       -4    1    3    3    0  502 -0.26430375141E+03  0.84110419357E+03  0.73864456821E+03  0.11501783116E+04  0.12699999809E+01 0. -1.
</event>
<event>
 5   0  0.3796529E-07  0.3305411E+04  0.7818609E-02  0.8161520E-01
        1   -1    0    0  501    0  0.00000000000E+00  0.00000000000E+00  0.15971079369E+04  0.15971079369E+04  0.50400001928E-02 0. -1.
       -1   -1    0    0    0  501  0.00000000000E+00  0.00000000000E+00 -0.17102386059E+04  0.17102386059E+04  0.50400001928E-02 0.  1.
    10030    2    1    2    0    0  0.00000000000E+00  0.00000000000E+00 -0.11313066899E+03  0.33073465429E+04  0.33054111100E+04 0.  0.
        5    1    3    3  502    0  0.29403977198E+03 -0.99350007626E+03 -0.13449184967E+04  0.16977425134E+04  0.46999998093E+01 0.  1.
       -5    1    3    3    0  502 -0.29403977198E+03  0.99350007626E+03  0.12317878277E+04  0.16096040294E+04  0.46999998093E+01 0. -1.
</event>
<event>
 5   0  0.1120545E-06  0.3308337E+04  0.7818609E-02  0.8160777E-01
        2   -1    0    0  501    0  0.00000000000E+00  0.00000000000E+00  0.15685355166E+04  0.15685355166E+04  0.25500000920E-02 0.  1.
       -2   -1    0    0    0  501  0.00000000000E+00  0.00000000000E+00 -0.17444765455E+04  0.17444765455E+04  0.25500000920E-02 0. -1.
    10030    2    1    2    0    0  0.00000000000E+00  0.00000000000E+00 -0.17594102885E+03  0.33130120621E+04  0.33083369959E+04 0.  0.
        4    1    3    3  502    0  0.15712818734E+04  0.44925259957E+03 -0.34429546531E+03  0.16701184402E+04  0.12699999809E+01 0. -1.
       -4    1    3    3    0  502 -0.15712818734E+04 -0.44925259957E+03  0.16835443646E+03  0.16428936220E+04  0.12699999809E+01 0.  1.
</event>
<event>
 5   0  0.3757406E-07  0.3308640E+04  0.7818609E-02  0.8160701E-01
       -1   -1    0    0    0  501  0.00000000000E+00  0.00000000000E+00  0.13890581797E+04  0.13890581797E+04  0.50400001928E-02 0. -1.
        1   -1    0    0  501    0  0.00000000000E+00  0.00000000000E+00 -0.19702372077E+04  0.19702372077E+04  0.50400001928E-02 0.  1.
    10030    2    1    2    0    0  0.00000000000E+00  0.00000000000E+00 -0.58117902806E+03  0.33592953874E+04  0.33086396656E+04 0.  0.
        1    1    3    3  502    0  0.32681135115E+03  0.40381091365E+03  0.13040956414E+04  0.14037572280E+04  0.50400001928E-02 0. -1.
       -1    1    3    3    0  502 -0.32681135115E+03 -0.40381091365E+03 -0.18852746695E+04  0.19555381594E+04  0.50400001928E-02 0.  1.
</event>
<event>
 5   0  0.1116462E-06  0.3335391E+04  0.7818609E-02  0.8153948E-01
        2   -1    0    0  501    0  0.00000000000E+00  0.00000000000E+00  0.22615995265E+04  0.22615995265E+04  0.25500000920E-02 0. -1.
       -2   -1    0    0    0  501  0.00000000000E+00  0.00000000000E+00 -0.12297527969E+04  0.12297527969E+04  0.25500000920E-02 0.  1.
    10030    2    1    2    0    0  0.00000000000E+00  0.00000000000E+00  0.10318467297E+04  0.34913523234E+04  0.33353910374E+04 0.  0.
        1    1    3    3  502    0  0.11873618077E+04 -0.10817029940E+04  0.98556612844E+03  0.18844760607E+04  0.50400001928E-02 0. -1.
       -1    1    3    3    0  502 -0.11873618077E+04  0.10817029940E+04  0.46280601231E+02  0.16068762627E+04  0.50400001928E-02 0.  1.
</event>
<event>
 5   0  0.3749685E-07  0.3287700E+04  0.7818609E-02  0.8166032E-01
       -1   -1    0    0    0  501  0.00000000000E+00  0.00000000000E+00  0.11855025135E+04  0.11855025135E+04  0.50400001928E-02 0. -1.
        1   -1    0    0  501    0  0.00000000000E+00  0.00000000000E+00 -0.22794074754E+04  0.22794074754E+04  0.50400001928E-02 0.  1.
    10030    2    1    2    0    0  0.00000000000E+00  0.00000000000E+00 -0.10939049619E+04  0.34649099889E+04  0.32877002852E+04 0.  0.
        3    1    3    3  502    0  0.49447652685E+03  0.11208327100E+04  0.60824505590E+03  0.13677481704E+04  0.10100000352E+00 0. -1.
       -3    1    3    3    0  502 -0.49447652685E+03 -0.11208327100E+04 -0.17021500178E+04  0.20971618185E+04  0.10100000352E+00 0.  1.
</event>
<event>
 5   0  0.1126221E-06  0.3319040E+04  0.7818609E-02  0.8158068E-01
       -2   -1    0    0    0  501  0.00000000000E+00  0.00000000000E+00  0.12383944305E+04  0.12383944305E+04  0.25500000920E-02 0.  1.
        2   -1    0    0  501    0  0.00000000000E+00  0.00000000000E+00 -0.22238520744E+04  0.22238520744E+04  0.25500000920E-02 0. -1.
    10030    2    1    2    0    0  0.00000000000E+00  0.00000000000E+00 -0.98545764388E+03  0.34622465049E+04  0.33190396341E+04 0.  0.
        2    1    3    3  502    0 -0.15831027449E+04  0.33670060488E+03 -0.87518760663E+03  0.18399823219E+04  0.25500000920E-02 0.  1.
       -2    1    3    3    0  502  0.15831027449E+04 -0.33670060488E+03 -0.11027003725E+03  0.16222641830E+04  0.25500000920E-02 0. -1.
</event>
<event>
 5   0  0.3757406E-07  0.3291279E+04  0.7818609E-02  0.8165118E-01
        1   -1    0    0  501    0  0.00000000000E+00  0.00000000000E+00  0.18152844685E+04  0.18152844685E+04  0.50400001928E-02 0.  1.
       -1   -1    0    0    0  501  0.00000000000E+00  0.00000000000E+00 -0.14918485473E+04  0.14918485474E+04  0.50400001928E-02 0. -1.
    10030    2    1    2    0    0  0.00000000000E+00  0.00000000000E+00  0.32343592118E+03  0.33071330159E+04  0.32912790811E+04 0.  0.
        1    1    3    3  502    0  0.11203894436E+04  0.11837555804E+04 -0.66487711896E+02  0.16312481096E+04  0.50400001928E-02 0. -1.
       -1    1    3    3    0  502 -0.11203894436E+04 -0.11837555804E+04  0.38992363308E+03  0.16758849063E+04  0.50400001928E-02 0.  1.
</event>
<event>
 5   0  0.3749685E-07  0.3295050E+04  0.7818609E-02  0.8164156E-01
        1   -1    0    0  501    0  0.00000000000E+00  0.00000000000E+00  0.15477174944E+04  0.15477174944E+04  0.50400001928E-02 0.  1.
       -1   -1    0    0    0  501  0.00000000000E+00  0.00000000000E+00 -0.17537682947E+04  0.17537682947E+04  0.50400001928E-02 0. -1.
    10030    2    1    2    0    0  0.00000000000E+00  0.00000000000E+00 -0.20605080027E+03  0.33014857891E+04  0.32950495418E+04 0.  0.
        3    1    3    3  502    0  0.12071401007E+04 -0.50329405827E+03 -0.11069034799E+04  0.17133964678E+04  0.10100000352E+00 0. -1.
       -3    1    3    3    0  502 -0.12071401007E+04  0.50329405827E+03  0.90085267962E+03  0.15880893213E+04  0.10100000352E+00 0.  1.
</event>
<event>
 5   0  0.3757406E-07  0.3294791E+04  0.7818609E-02  0.8164222E-01
       -1   -1    0    0    0  501  0.00000000000E+00  0.00000000000E+00  0.14138806614E+04  0.14138806614E+04  0.50400001928E-02 0.  1.
        1   -1    0    0  501    0  0.00000000000E+00  0.00000000000E+00 -0.19194777821E+04  0.19194777821E+04  0.50400001928E-02 0. -1.
    10030    2    1    2    0    0  0.00000000000E+00  0.00000000000E+00 -0.50559712075E+03  0.33333584435E+04  0.32947913537E+04 0.  0.
        1    1    3    3  502    0  0.32419131499E+03  0.59392973661E+03 -0.17723990318E+04  0.18971691724E+04  0.50400001928E-02 0. -1.
       -1    1    3    3    0  502 -0.32419131499E+03 -0.59392973661E+03  0.12668019110E+04  0.14361892711E+04  0.50400001928E-02 0.  1.
</event>
<event>
 5   0  0.1146799E-06  0.3300868E+04  0.7818609E-02  0.8162675E-01
       -2   -1    0    0    0  501  0.00000000000E+00  0.00000000000E+00  0.12411389738E+04  0.12411389738E+04  0.25500000920E-02 0. -1.
        2   -1    0    0  501    0  0.00000000000E+00  0.00000000000E+00 -0.21947031750E+04  0.21947031750E+04  0.25500000920E-02 0.  1.
    10030    2    1    2    0    0  0.00000000000E+00  0.00000000000E+00 -0.95356420124E+03  0.34358421488E+04  0.33008675504E+04 0.  0.
        5    1    3    3  502    0  0.94138132855E+02 -0.13762088213E+04 -0.14199788543E+04  0.19796905679E+04  0.46999998093E+01 0.  1.
       -5    1    3    3    0  502 -0.94138132855E+02  0.13762088213E+04  0.46641465307E+03  0.14561515809E+04  0.46999998093E+01 0. -1.
</event>
<event>
 5   0  0.1129434E-06  0.3303957E+04  0.7818609E-02  0.8161889E-01
       -2   -1    0    0    0  501  0.00000000000E+00  0.00000000000E+00  0.14447581660E+04  0.14447581660E+04  0.25500000920E-02 0.  1.
        2   -1    0    0  501    0  0.00000000000E+00  0.00000000000E+00 -0.18889201330E+04  0.18889201330E+04  0.25500000920E-02 0. -1.
    10030    2    1    2    0    0  0.00000000000E+00  0.00000000000E+00 -0.44416196699E+03  0.33336782991E+04  0.33039568927E+04 0.  0.
        3    1    3    3  502    0 -0.75093439442E+03  0.64116424359E+03  0.11142342039E+04  0.14887954606E+04  0.10100000352E+00 0.  1.
       -3    1    3    3    0  502  0.75093439442E+03 -0.64116424359E+03 -0.15583961709E+04  0.18448828385E+04  0.10100000352E+00 0. -1.
</event>
<event>
 5   0  0.1116462E-06  0.3350971E+04  0.7818609E-02  0.8150045E-01
       -2   -1    0    0    0  501  0.00000000000E+00  0.00000000000E+00  0.14582743817E+04  0.14582743817E+04  0.25500000920E-02 0.  1.
        2   -1    0    0  501    0  0.00000000000E+00  0.00000000000E+00 -0.19250509095E+04  0.19250509095E+04  0.25500000920E-02 0. -1.
    10030    2    1    2    0    0  0.00000000000E+00  0.00000000000E+00 -0.46677652785E+03  0.33833252912E+04  0.33509714560E+04 0.  0.
        1    1    3    3  502    0 -0.90736984780E+03  0.10328511601E+04  0.73353813339E+03  0.15582617729E+04  0.50400001928E-02 0.  1.
       -1    1    3    3    0  502  0.90736984780E+03 -0.10328511601E+04 -0.12003146612E+04  0.18250635183E+04  0.50400001928E-02 0. -1.
</event>
<event>
 5   0  0.3674967E-07  0.3300539E+04  0.7818609E-02  0.8162758E-01
       -1   -1    0    0    0  501  0.00000000000E+00  0.00000000000E+00  0.14808222806E+04  0.14808222806E+04  0.50400001928E-02 0. -1.
        1   -1    0    0  501    0  0.00000000000E+00  0.00000000000E+00 -0.18391063855E+04  0.18391063855E+04  0.50400001928E-02 0.  1.
    10030    2    1    2    0    0  0.00000000000E+00  0.00000000000E+00 -0.35828410491E+03  0.33199286661E+04  0.33005391754E+04 0.  0.
        2    1    3    3  502    0 -0.11759725199E+04  0.88608973302E+02  0.98203416141E+03  0.15346511043E+04  0.25500000920E-02 0. -1.
       -2    1    3    3    0  502  0.11759725199E+04 -0.88608973302E+02 -0.13403182663E+04  0.17852775618E+04  0.25500000920E-02 0.  1.
</event>
<event>
 5   0  0.3757406E-07  0.3306519E+04  0.7818609E-02  0.8161239E-01
       -1   -1    0    0    0  501  0.00000000000E+00  0.00000000000E+00  0.19183367199E+04  0.19183367199E+04  0.50400001928E-02 0.  1.
        1   -1    0    0  501    0  0.00000000000E+00  0.00000000000E+00 -0.14248105110E+04  0.14248105110E+04  0.50400001928E-02 0. -1.
    10030    2    1    2    0    0  0.00000000000E+00  0.00000000000E+00  0.49352620891E+03  0.33431472309E+04  0.33065186055E+04 0.  0.
        1    1    3    3  502    0  0.74782572728E+03 -0.11702064871E+04  0.11537171503E+04  0.18054611056E+04  0.50400001928E-02 0.  1.
       -1    1    3    3    0  502 -0.74782572728E+03  0.11702064871E+04 -0.66019094136E+03  0.15376861253E+04  0.50400001928E-02 0. -1.
</event>
<event>
 5   0  0.1146799E-06  0.3338442E+04  0.7818609E-02  0.8153182E-01
       -2   -1    0    0    0  501  0.00000000000E+00  0.00000000000E+00  0.12990901612E+04  0.12990901612E+04  0.25500000920E-02 0.  1.
        2   -1    0    0  501    0  0.00000000000E+00  0.00000000000E+00 -0.21448080914E+04  0.21448080915E+04  0.25500000920E-02 0. -1.
    10030    2    1    2    0    0  0.00000000000E+00  0.00000000000E+00 -0.84571793024E+03  0.34438982527E+04  0.33384422052E+04 0.  0.
        5    1    3    3  502    0  0.52809832382E+03 -0.30924747334E+03 -0.20248978683E+04  0.21153617437E+04  0.46999998093E+01 0. -1.
       -5    1    3    3    0  502 -0.52809832382E+03  0.30924747334E+03  0.11791799381E+04  0.13285365090E+04  0.46999998093E+01 0.  1.
</event>
<event>
 5   0  0.3796529E-07  0.3282491E+04  0.7818609E-02  0.8167365E-01
       -1   -1    0    0    0  501  0.00000000000E+00  0.00000000000E+00  0.16849508580E+04  0.16849508580E+04  0.50400001928E-02 0.  1.
        1   -1    0    0  501    0  0.00000000000E+00  0.00000000000E+00 -0.15986740013E+04  0.15986740013E+04  0.50400001928E-02 0. -1.
    10030    2    1    2    0    0  0.00000000000E+00  0.00000000000E+00  0.86276856730E+02  0.32836248593E+04  0.32824912065E+04 0.  0.
        5    1    3    3  502    0  0.28453168454E+03  0.82969706037E+03  0.14308123638E+04  0.16782733990E+04  0.46999998093E+01 0.  1.
       -5    1    3    3    0  502 -0.28453168454E+03 -0.82969706037E+03 -0.13445355070E+04  0.16053514603E+04  0.46999998093E+01 0. -1.
</event>
<event>
 5   0  0.3709747E-07  0.3298071E+04  0.7818609E-02  0.8163386E-01
        1   -1    0    0  501    0  0.00000000000E+00  0.00000000000E+00  0.12266434513E+04  0.12266434513E+04  0.50400001928E-02 0.  1.
       -1   -1    0    0    0  501  0.00000000000E+00  0.00000000000E+00 -0.22168771564E+04  0.22168771565E+04  0.50400001928E-02 0. -1.
    10030    2    1    2    0    0  0.00000000000E+00  0.00000000000E+00 -0.99023370512E+03  0.34435206078E+04  0.32980708582E+04 0.  0.
        4    1    3    3  502    0 -0.87925272542E+03  0.60430391322E+02  0.96011453778E+03  0.13032876605E+04  0.12699999809E+01 0.  1.
       -4    1    3    3    0  502  0.87925272542E+03 -0.60430391322E+02 -0.19503482429E+04  0.21402329473E+04  0.12699999809E+01 0. -1.
</event>
<event>
 5   0  0.1146799E-06  0.3288044E+04  0.7818609E-02  0.8165944E-01
       -2   -1    0    0    0  501  0.00000000000E+00  0.00000000000E+00  0.13405936963E+04  0.13405936963E+04  0.25500000920E-02 0. -1.
        2   -1    0    0  501    0  0.00000000000E+00  0.00000000000E+00 -0.20161280022E+04  0.20161280022E+04  0.25500000920E-02 0.  1.
    10030    2    1    2    0    0  0.00000000000E+00  0.00000000000E+00 -0.67553430587E+03  0.33567216985E+04  0.32880440938E+04 0.  0.
        5    1    3    3  502    0 -0.13592908545E+04 -0.59876236166E+03 -0.10571836034E+04  0.18231421377E+04  0.46999998093E+01 0.  1.
       -5    1    3    3    0  502  0.13592908545E+04  0.59876236166E+03  0.38164929758E+03  0.15335795608E+04  0.46999998093E+01 0. -1.
</event>
<event>
 5   0  0.3573375E-07  0.3364656E+04  0.7818609E-02  0.8146636E-01
        3   -1    0    0  501    0  0.00000000000E+00  0.00000000000E+00  0.18169914376E+04  0.18169914404E+04  0.10100000352E+00 0. -1.
       -3   -1    0    0    0  501  0.00000000000E+00  0.00000000000E+00 -0.15576446256E+04  0.15576446289E+04  0.10100000352E+00 0.  1.
    10030    2    1    2    0    0  0.00000000000E+00  0.00000000000E+00  0.25934681201E+03  0.33746360693E+04  0.33646556779E+04 0.  0.
        3    1    3    3  502    0 -0.30813811482E+03  0.67781216564E+03 -0.13833930130E+04  0.15710361767E+04  0.10100000352E+00 0.  1.
       -3    1    3    3    0  502  0.30813811482E+03 -0.67781216564E+03  0.16427398250E+04  0.18035998926E+04  0.10100000352E+00 0. -1.
</event>
<event>
 5   0  0.1146799E-06  0.3278223E+04  0.7818609E-02  0.8168459E-01
       -2   -1    0    0    0  501  0.00000000000E+00  0.00000000000E+00  0.17616077480E+04  0.17616077480E+04  0.25500000920E-02 0. -1.
        2   -1    0    0  501    0  0.00000000000E+00  0.00000000000E+00 -0.15251333992E+04  0.15251333992E+04  0.25500000920E-02 0.  1.
    10030    2    1    2    0    0  0.00000000000E+00  0.00000000000E+00  0.23647434879E+03  0.32867411472E+04  0.32782231851E+04 0.  0.
        5    1    3    3  502    0  0.80703393964E+02  0.10064058090E+03  0.17565034774E+04  0.17612405061E+04  0.46999998093E+01 0. -1.
       -5    1    3    3    0  502 -0.80703393964E+02 -0.10064058090E+03 -0.15200291286E+04  0.15255006411E+04  0.46999998093E+01 0.  1.
</event>
<event>
 5   0  0.1120545E-06  0.3299008E+04  0.7818609E-02  0.8163148E-01
       -2   -1    0    0    0  501  0.00000000000E+00  0.00000000000E+00  0.91058411762E+03  0.91058411762E+03  0.25500000920E-02 0. -1.
        2   -1    0    0  501    0  0.00000000000E+00  0.00000000000E+00 -0.29880418005E+04  0.29880418005E+04  0.25500000920E-02 0.  1.
    10030    2    1    2    0    0  0.00000000000E+00  0.00000000000E+00 -0.20774576829E+04  0.38986259181E+04  0.32990079759E+04 0.  0.
        4    1    3    3  502    0 -0.86636944939E+03  0.56905270954E+03  0.47762929336E+03  0.11412924094E+04  0.12699999809E+01 0. -1.
       -4    1    3    3    0  502  0.86636944939E+03 -0.56905270954E+03 -0.25550869762E+04  0.27573335087E+04  0.12699999809E+01 0.  1.
</event>
<event>
 5   0  0.1116462E-06  0.3313410E+04  0.7818609E-02  0.8159491E-01
        2   -1    0    0  501    0  0.00000000000E+00  0.00000000000E+00  0.17327038922E+04  0.17327038922E+04  0.25500000920E-02 0.  1.
       -2   -1    0    0    0  501  0.00000000000E+00  0.00000000000E+00 -0.15840398742E+04  0.15840398742E+04  0.25500000920E-02 0. -1.
    10030    2    1    2    0    0  0.00000000000E+00  0.00000000000E+00  0.14866401801E+03  0.33167437665E+04  0.33134103613E+04 0.  0.
        1    1    3    3  502    0  0.40958943163E+03  0.10787265449E+04 -0.11156690820E+04  0.16050333211E+04  0.50400001928E-02 0. -1.
       -1    1    3    3    0  502 -0.40958943163E+03 -0.10787265449E+04  0.12643331000E+04  0.17117104454E+04  0.50400001928E-02 0.  1.
</event>
<event>
 5   0  0.1116462E-06  0.3294517E+04  0.7818609E-02  0.8164292E-01
       -2   -1    0    0    0  501  0.00000000000E+00  0.00000000000E+00  0.17236995141E+04  0.17236995141E+04  0.25500000920E-02 0. -1.
        2   -1    0    0  501    0  0.00000000000E+00  0.00000000000E+00 -0.15742078510E+04  0.15742078510E+04  0.25500000920E-02 0.  1.
    10030    2    1    2    0    0  0.00000000000E+00  0.00000000000E+00  0.14949166307E+03  0.32979073650E+04  0.32945174504E+04 0.  0.
        1    1    3    3  502    0  0.11947602215E+04 -0.75202689647E+03  0.92442123102E+03  0.16874688300E+04  0.50400001928E-02 0. -1.
       -1    1    3    3    0  502 -0.11947602215E+04  0.75202689647E+03 -0.77492956795E+03  0.16104385350E+04  0.50400001928E-02 0.  1.
</event>
<event>
 5   0  0.3674967E-07  0.3268471E+04  0.7818609E-02  0.8170965E-01
       -1   -1    0    0    0  501  0.00000000000E+00  0.00000000000E+00  0.16022334418E+04  0.16022334418E+04  0.50400001928E-02 0.  1.
        1   -1    0    0  501    0  0.00000000000E+00  0.00000000000E+00 -0.16668762414E+04  0.16668762414E+04  0.50400001928E-02 0. -1.
    10030    2    1    2    0    0  0.00000000000E+00  0.00000000000E+00 -0.64642799589E+02  0.32691096833E+04  0.32684705031E+04 0.  0.
        2    1    3    3  502    0 -0.24271922233E+02  0.15933157988E+04  0.33035190490E+03  0.16273834035E+04  0.25500000920E-02 0. -1.
       -2    1    3    3    0  502  0.24271922233E+02 -0.15933157988E+04 -0.39499470449E+03  0.16417262797E+04  0.25500000920E-02 0.  1.
</event>
<event>
 5   0  0.1116462E-06  0.3372791E+04  0.7818609E-02  0.8144617E-01
       -2   -1    0    0    0  501  0.00000000000E+00  0.00000000000E+00  0.19782652787E+04  0.19782652787E+04  0.25500000920E-02 0. -1.
        2   -1    0    0  501    0  0.00000000000E+00  0.00000000000E+00 -0.14375876073E+04  0.14375876073E+04  0.25500000920E-02 0.  1.
    10030    2    1    2    0    0  0.00000000000E+00  0.00000000000E+00  0.54067767139E+03  0.34158528860E+04  0.33727909206E+04 0.  0.
        1    1    3    3  502    0  0.75780148024E+03  0.15037663817E+04  0.36290176114E+03  0.17225777493E+04  0.50400001928E-02 0.  1.
       -1    1    3    3    0  502 -0.75780148024E+03 -0.15037663817E+04  0.17777591024E+03  0.16932751367E+04  0.50400001928E-02 0. -1.
</event>
<event>
 5   0  0.3796529E-07  0.3299432E+04  0.7818609E-02  0.8163040E-01
       -1   -1    0    0    0  501  0.00000000000E+00  0.00000000000E+00  0.12237598311E+04  0.12237598311E+04  0.50400001928E-02 0. -1.
        1   -1    0    0  501    0  0.00000000000E+00  0.00000000000E+00 -0.22239348496E+04  0.22239348496E+04  0.50400001928E-02 0.  1.
    10030    2    1    2    0    0  0.00000000000E+00  0.00000000000E+00 -0.10001750185E+04  0.34476946807E+04  0.32994315485E+04 0.  0.
        5    1    3    3  502    0 -0.32370042462E+03 -0.14328307939E+04 -0.12846625591E+04  0.19514522873E+04  0.46999998093E+01 0.  1.
       -5    1    3    3    0  502  0.32370042462E+03  0.14328307939E+04  0.28448754066E+03  0.14962423933E+04  0.46999998093E+01 0. -1.
</event>
<event>
 5   0  0.3749685E-07  0.3312025E+04  0.7818609E-02  0.8159842E-01
       -1   -1    0    0    0  501  0.00000000000E+00  0.00000000000E+00  0.13914208811E+04  0.13914208811E+04  0.50400001928E-02 0. -1.
        1   -1    0    0  501    0  0.00000000000E+00  0.00000000000E+00 -0.19709185769E+04  0.19709185769E+04  0.50400001928E-02 0.  1.
    10030    2    1    2    0    0  0.00000000000E+00  0.00000000000E+00 -0.57949769581E+03  0.33623394581E+04  0.33120249172E+04 0.  0.
        3    1    3    3  502    0  0.76873494453E+03  0.14621087201E+04 -0.17108895095E+03  0.16607187491E+04  0.10100000352E+00 0.  1.
       -3    1    3    3    0  502 -0.76873494453E+03 -0.14621087201E+04 -0.40840874486E+03  0.17016207090E+04  0.10100000352E+00 0. -1.
</event>
<event>
 5   0  0.1120545E-06  0.3308560E+04  0.7818609E-02  0.8160721E-01
        2   -1    0    0  501    0  0.00000000000E+00  0.00000000000E+00  0.10005938783E+04  0.10005938783E+04  0.25500000920E-02 0.  1.
       -2   -1    0    0    0  501  0.00000000000E+00  0.00000000000E+00 -0.27350179938E+04  0.27350179938E+04  0.25500000920E-02 0. -1.
    10030    2    1    2    0    0  0.00000000000E+00  0.00000000000E+00 -0.17344241155E+04  0.37356118721E+04  0.33085599657E+04 0.  0.
        4    1    3    3  502    0  0.12710076258E+04  0.10003790394E+04 -0.12590222500E+04  0.20497212606E+04  0.12699999809E+01 0. -1.
       -4    1    3    3    0  502 -0.12710076258E+04 -0.10003790394E+04 -0.47540186549E+03  0.16858906115E+04  0.12699999809E+01 0.  1.
</event>
<event>
 5   0  0.3757406E-07  0.3259543E+04  0.7818609E-02  0.8173267E-01
       -1   -1    0    0    0  501  0.00000000000E+00  0.00000000000E+00  0.16095897197E+04  0.16095897197E+04  0.50400001928E-02 0.  1.
        1   -1    0    0  501    0  0.00000000000E+00  0.00000000000E+00 -0.16502066002E+04  0.16502066002E+04  0.50400001928E-02 0. -1.
    10030    2    1    2    0    0  0.00000000000E+00  0.00000000000E+00 -0.40616880524E+02  0.32597963199E+04  0.32595432680E+04 0.  0.
        1    1    3    3  502    0 -0.95588664200E+03 -0.10875588848E+04 -0.76846542801E+03  0.16392201543E+04  0.50400001928E-02 0. -1.
       -1    1    3    3    0  502  0.95588664200E+03  0.10875588848E+04  0.72784854748E+03  0.16205761656E+04  0.50400001928E-02 0.  1.
</event>
<event>
 5   0  0.1129434E-06  0.3338095E+04  0.7818609E-02  0.8153269E-01
        2   -1    0    0  501    0  0.00000000000E+00  0.00000000000E+00  0.24934902122E+04  0.24934902122E+04  0.25500000920E-02 0. -1.
       -2   -1    0    0    0  501  0.00000000000E+00  0.00000000000E+00 -0.11171968379E+04  0.11171968379E+04  0.25500000920E-02 0.  1.
    10030    2    1    2    0    0  0.00000000000E+00  0.00000000000E+00  0.13762933743E+04  0.36106870501E+04  0.33380948940E+04 0.  0.
        3    1    3    3  502    0 -0.22219384080E+03 -0.79511754289E+02  0.24753528477E+04  0.24865767538E+04  0.10100000352E+00 0. -1.
       -3    1    3    3    0  502  0.22219384080E+03  0.79511754289E+02 -0.10990594734E+04  0.11241102963E+04  0.10100000352E+00 0.  1.
</event>
<event>
 5   0  0.1129434E-06  0.3199676E+04  0.7818609E-02  0.8188903E-01
        2   -1    0    0  501    0  0.00000000000E+00  0.00000000000E+00  0.23333120123E+04  0.23333120123E+04  0.25500000920E-02 0.  1.
       -2   -1    0    0    0  501  0.00000000000E+00  0.00000000000E+00 -0.10969309366E+04  0.10969309366E+04  0.25500000920E-02 0. -1.
    10030    2    1    2    0    0  0.00000000000E+00  0.00000000000E+00  0.12363810757E+04  0.34302429489E+04  0.31996763155E+04 0.  0.
        3    1    3    3  502    0  0.12564503317E+04  0.34428739640E+03 -0.37731392238E+03  0.13563064011E+04  0.10100000352E+00 0. -1.
       -3    1    3    3    0  502 -0.12564503317E+04 -0.34428739640E+03  0.16136949981E+04  0.20739365478E+04  0.10100000352E+00 0.  1.
</event>
<event>
 5   0  0.1129434E-06  0.3309256E+04  0.7818609E-02  0.8160544E-01
        2   -1    0    0  501    0  0.00000000000E+00  0.00000000000E+00  0.16212256747E+04  0.16212256747E+04  0.25500000920E-02 0. -1.
       -2   -1    0    0    0  501  0.00000000000E+00  0.00000000000E+00 -0.16887187253E+04  0.16887187253E+04  0.25500000920E-02 0.  1.
    10030    2    1    2    0    0  0.00000000000E+00  0.00000000000E+00 -0.67493050596E+02  0.33099444000E+04  0.33092562033E+04 0.  0.
        3    1    3    3  502    0  0.76739053300E+03  0.21631198511E+03 -0.14839152903E+04  0.16845425801E+04  0.10100000352E+00 0.  1.
       -3    1    3    3    0  502 -0.76739053300E+03 -0.21631198511E+03  0.14164222397E+04  0.16254018200E+04  0.10100000352E+00 0. -1.
</event>
<event>
 5   0  0.3674967E-07  0.3292582E+04  0.7818609E-02  0.8164786E-01
        1   -1    0    0  501    0  0.00000000000E+00  0.00000000000E+00  0.16584594585E+04  0.16584594585E+04  0.50400001928E-02 0. -1.
       -1   -1    0    0    0  501  0.00000000000E+00  0.00000000000E+00 -0.16342115040E+04  0.16342115040E+04  0.50400001928E-02 0.  1.
    10030    2    1    2    0    0  0.00000000000E+00  0.00000000000E+00  0.24247954468E+02  0.32926709626E+04  0.32925816777E+04 0.  0.
        2    1    3    3  502    0  0.78270080568E+03 -0.14208385511E+04  0.29297102489E+03  0.16484037008E+04  0.25500000920E-02 0. -1.
       -2    1    3    3    0  502 -0.78270080568E+03  0.14208385511E+04 -0.26872307042E+03  0.16442672617E+04  0.25500000920E-02 0.  1.
</event>
<event>
 5   0  0.1146799E-06  0.3303086E+04  0.7818609E-02  0.8162111E-01
        2   -1    0    0  501    0  0.00000000000E+00  0.00000000000E+00  0.18049057981E+04  0.18049057981E+04  0.25500000920E-02 0.  1.
       -2   -1    0    0    0  501  0.00000000000E+00  0.00000000000E+00 -0.15112117308E+04  0.15112117309E+04  0.25500000920E-02 0. -1.
    10030    2    1    2    0    0  0.00000000000E+00  0.00000000000E+00  0.29369406723E+03  0.33161175289E+04  0.33030863235E+04 0.  0.
        5    1    3    3  502    0 -0.23417708335E+03 -0.16068663651E+04  0.44922342190E+03  0.16848389224E+04  0.46999998093E+01 0.  1.
       -5    1    3    3    0  502  0.23417708335E+03  0.16068663651E+04 -0.15552935467E+03  0.16312786065E+04  0.46999998093E+01 0. -1.
</event>
<event>
 5   0  0.1146799E-06  0.2883587E+04  0.7818609E-02  0.8277778E-01
       -2   -1    0    0    0  501  0.00000000000E+00  0.00000000000E+00  0.14211517842E+04  0.14211517842E+04  0.25500000920E-02 0. -1.
        2   -1    0    0  501    0  0.00000000000E+00  0.00000000000E+00 -0.14627350577E+04  0.14627350577E+04  0.25500000920E-02 0.  1.
    10030    2    1    2    0    0  0.00000000000E+00  0.00000000000E+00 -0.41583273544E+02  0.28838868419E+04  0.28835870281E+04 0.  0.
        5    1    3    3  502    0 -0.14966942237E+03  0.13414893449E+04  0.48596791352E+03  0.14346363655E+04  0.46999998093E+01 0. -1.
       -5    1    3    3    0  502  0.14966942237E+03 -0.13414893449E+04 -0.52755118706E+03  0.14492504764E+04  0.46999998093E+01 0.  1.
</event>
<event>
 5   0  0.1120545E-06  0.3294254E+04  0.7818609E-02  0.8164359E-01
        2   -1    0    0  501    0  0.00000000000E+00  0.00000000000E+00  0.17137805414E+04  0.17137805414E+04  0.25500000920E-02 0.  1.
       -2   -1    0    0    0  501  0.00000000000E+00  0.00000000000E+00 -0.15830656295E+04  0.15830656295E+04  0.25500000920E-02 0. -1.
    10030    2    1    2    0    0  0.00000000000E+00  0.00000000000E+00  0.13071491188E+03  0.32968461708E+04  0.32942538284E+04 0.  0.
        4    1    3    3  502    0  0.41707692533E+03  0.15593304483E+04 -0.26286533740E+03  0.16354095533E+04  0.12699999809E+01 0.  1.
       -4    1    3    3    0  502 -0.41707692533E+03 -0.15593304483E+04  0.39358024928E+03  0.16614366175E+04  0.12699999809E+01 0. -1.
</event>
<event>
 5   0  0.1120545E-06  0.3301647E+04  0.7818609E-02  0.8162476E-01
        2   -1    0    0  501    0  0.00000000000E+00  0.00000000000E+00  0.11827171841E+04  0.11827171841E+04  0.25500000920E-02 0.  1.
       -2   -1    0    0    0  501  0.00000000000E+00  0.00000000000E+00 -0.23042013450E+04  0.23042013450E+04  0.25500000920E-02 0. -1.
    10030    2    1    2    0    0  0.00000000000E+00  0.00000000000E+00 -0.11214841608E+04  0.34869185291E+04  0.33016471807E+04 0.  0.
        4    1    3    3  502    0  0.50352817716E+02 -0.11450590560E+04  0.69400112053E+03  0.13399010472E+04  0.12699999809E+01 0.  1.
       -4    1    3    3    0  502 -0.50352817716E+02  0.11450590560E+04 -0.18154852814E+04  0.21470174819E+04  0.12699999809E+01 0. -1.
</event>
<event>
 5   0  0.3709747E-07  0.3309038E+04  0.7818609E-02  0.8160599E-01
        1   -1    0    0  501    0  0.00000000000E+00  0.00000000000E+00  0.15501745983E+04  0.15501745983E+04  0.50400001928E-02 0. -1.
       -1   -1    0    0    0  501  0.00000000000E+00  0.00000000000E+00 -0.17658869538E+04  0.17658869538E+04  0.50400001928E-02 0.  1.
    10030    2    1    2    0    0  0.00000000000E+00  0.00000000000E+00 -0.21571235549E+03  0.33160615522E+04  0.33090379867E+04 0.  0.
        4    1    3    3  502    0  0.15485738500E+04  0.31461089674E+03  0.38346039652E+03  0.16260702549E+04  0.12699999809E+01 0. -1.
       -4    1    3    3    0  502 -0.15485738500E+04 -0.31461089674E+03 -0.59917275201E+03  0.16899912973E+04  0.12699999809E+01 0.  1.
</event>
<event>
 5   0  0.1129434E-06  0.3245747E+04  0.7818609E-02  0.8176839E-01
       -2   -1    0    0    0  501  0.00000000000E+00  0.00000000000E+00  0.86083952348E+03  0.86083952348E+03  0.25500000920E-02 0.  1.
        2   -1    0    0  501    0  0.00000000000E+00  0.00000000000E+00 -0.30594758961E+04  0.30594758961E+04  0.25500000920E-02 0. -1.
    10030    2    1    2    0    0  0.00000000000E+00  0.00000000000E+00 -0.21986363727E+04  0.39203154196E+04  0.32457466152E+04 0.  0.
        3    1    3    3  502    0  0.48415852168E+03  0.21581196536E+03 -0.29519655577E+04  0.29991807119E+04  0.10100000352E+00 0. -1.
       -3    1    3    3    0  502 -0.48415852168E+03 -0.21581196536E+03  0.75332918506E+03  0.92113470772E+03  0.10100000352E+00 0.  1.
</event>
<event>
 5   0  0.3709747E-07  0.3256936E+04  0.7818609E-02  0.8173940E-01
       -1   -1    0    0    0  501  0.00000000000E+00  0.00000000000E+00  0.10942078999E+04  0.10942078999E+04  0.50400001928E-02 0. -1.
        1   -1    0    0  501    0  0.00000000000E+00  0.00000000000E+00 -0.24235864056E+04  0.24235864056E+04  0.50400001928E-02 0.  1.
    10030    2    1    2    0    0  0.00000000000E+00  0.00000000000E+00 -0.13293785057E+04  0.35177943055E+04  0.32569356095E+04 0.  0.
        4    1    3    3  502    0 -0.61806074470E+03  0.27106970095E+03  0.93604687168E+03  0.11539771340E+04  0.12699999809E+01 0. -1.
       -4    1    3    3    0  502  0.61806074470E+03 -0.27106970095E+03 -0.22654253774E+04  0.23638171715E+04  0.12699999809E+01 0.  1.
</event>
<event>
 5   0  0.1116462E-06  0.2970359E+04  0.7818609E-02  0.8252246E-01
        2   -1    0    0  501    0  0.00000000000E+00  0.00000000000E+00  0.19539409832E+04  0.19539409832E+04  0.25500000920E-02 0. -1.
       -2   -1    0    0    0  501  0.00000000000E+00  0.00000000000E+00 -0.11288769047E+04  0.11288769047E+04  0.25500000920E-02 0.  1.
    10030    2    1    2    0    0  0.00000000000E+00  0.00000000000E+00  0.82506407849E+03  0.30828178879E+04  0.29703594726E+04 0.  0.
        1    1    3    3  502    0 -0.13660386614E+04 -0.18720554514E+03 -0.16031725628E+03  0.13880955167E+04  0.50400001928E-02 0.  1.
       -1    1    3    3    0  502  0.13660386614E+04  0.18720554514E+03  0.98538133478E+03  0.16947223713E+04  0.50400001928E-02 0. -1.
</event>
<event>
 5   0  0.1126221E-06  0.3297783E+04  0.7818609E-02  0.8163460E-01
       -2   -1    0    0    0  501  0.00000000000E+00  0.00000000000E+00  0.15892775613E+04  0.15892775613E+04  0.25500000920E-02 0.  1.
        2   -1    0    0  501    0  0.00000000000E+00  0.00000000000E+00 -0.17107412863E+04  0.17107412863E+04  0.25500000920E-02 0. -1.
    10030    2    1    2    0    0  0.00000000000E+00  0.00000000000E+00 -0.12146372497E+03  0.33000188476E+04  0.32977827336E+04 0.  0.
        2    1    3    3  502    0  0.84223272481E+03 -0.11538465903E+04 -0.88477358548E+03  0.16803399103E+04  0.25500000920E-02 0. -1.
       -2    1    3    3    0  502 -0.84223272481E+03  0.11538465903E+04  0.76330986052E+03  0.16196789373E+04  0.25500000920E-02 0.  1.
</event>
<event>
 5   0  0.3757406E-07  0.3299774E+04  0.7818609E-02  0.8162953E-01
        1   -1    0    0  501    0  0.00000000000E+00  0.00000000000E+00  0.17880126299E+04  0.17880126299E+04  0.50400001928E-02 0. -1.
       -1   -1    0    0    0  501  0.00000000000E+00  0.00000000000E+00 -0.15224314869E+04  0.15224314869E+04  0.50400001928E-02 0.  1.
    10030    2    1    2    0    0  0.00000000000E+00  0.00000000000E+00  0.26558114308E+03  0.33104441168E+04  0.32997737660E+04 0.  0.
        1    1    3    3  502    0 -0.15615263579E+04  0.10538140400E+03  0.65664468412E+03  0.16972483754E+04  0.50400001928E-02 0. -1.
       -1    1    3    3    0  502  0.15615263579E+04 -0.10538140400E+03 -0.39106354103E+03  0.16131957413E+04  0.50400001928E-02 0.  1.
</event>
<event>
 5   0  0.3674967E-07  0.3256159E+04  0.7818609E-02  0.8174141E-01
       -1   -1    0    0    0  501  0.00000000000E+00  0.00000000000E+00  0.28141723161E+04  0.28141723161E+04  0.50400001928E-02 0. -1.
        1   -1    0    0  501    0  0.00000000000E+00  0.00000000000E+00 -0.94189097443E+03  0.94189097445E+03  0.50400001928E-02 0.  1.
    10030    2    1    2    0    0  0.00000000000E+00  0.00000000000E+00  0.18722813417E+04  0.37560632906E+04  0.32561593972E+04 0.  0.
        2    1    3    3  502    0  0.11323117361E+04 -0.11636194929E+04  0.10750594175E+04  0.19472783425E+04  0.25500000920E-02 0. -1.
       -2    1    3    3    0  502 -0.11323117361E+04  0.11636194929E+04  0.79722192414E+03  0.18087849481E+04  0.25500000920E-02 0.  1.
</event>
<event>
 5   0  0.1120545E-06  0.3291150E+04  0.7818609E-02  0.8165151E-01
        2   -1    0    0  501    0  0.00000000000E+00  0.00000000000E+00  0.19608512121E+04  0.19608512121E+04  0.25500000920E-02 0. -1.
       -2   -1    0    0    0  501  0.00000000000E+00  0.00000000000E+00 -0.13809905597E+04  0.13809905597E+04  0.25500000920E-02 0.  1.
    10030    2    1    2    0    0  0.00000000000E+00  0.00000000000E+00  0.57986065240E+03  0.33418417718E+04  0.32911499588E+04 0.  0.
        4    1    3    3  502    0 -0.54319443492E+03 -0.13658275351E+04  0.10411705729E+04  0.18012725570E+04  0.12699999809E+01 0.  1.
       -4    1    3    3    0  502  0.54319443492E+03  0.13658275351E+04 -0.46130992049E+03  0.15405692148E+04  0.12699999809E+01 0. -1.
</event>
<event>
 5   0  0.1120545E-06  0.3292518E+04  0.7818609E-02  0.8164802E-01
       -2   -1    0    0    0  501  0.00000000000E+00  0.00000000000E+00  0.30226065252E+04  0.30226065252E+04  0.25500000920E-02 0. -1.
        2   -1    0    0  501    0  0.00000000000E+00  0.00000000000E+00 -0.89663293717E+03  0.89663293717E+03  0.25500000920E-02 0.  1.
    10030    2    1    2    0    0  0.00000000000E+00  0.00000000000E+00  0.21259735881E+04  0.39192394624E+04  0.32925179220E+04 0.  0.
        4    1    3    3  502    0 -0.13714784089E+04 -0.85521109305E+03  0.69067649658E+03  0.17576617068E+04  0.12699999809E+01 0.  1.
       -4    1    3    3    0  502  0.13714784089E+04  0.85521109305E+03  0.14352970915E+04  0.21615777556E+04  0.12699999809E+01 0. -1.
</event>
<event>
 5   0  0.3709747E-07  0.3290068E+04  0.7818609E-02  0.8165427E-01
        1   -1    0    0  501    0  0.00000000000E+00  0.00000000000E+00  0.16606929018E+04  0.16606929018E+04  0.50400001928E-02 0. -1.
       -1   -1    0    0    0  501  0.00000000000E+00  0.00000000000E+00 -0.16295232191E+04  0.16295232191E+04  0.50400001928E-02 0.  1.
    10030    2    1    2    0    0  0.00000000000E+00  0.00000000000E+00  0.31169682751E+02  0.32902161209E+04  0.32900684754E+04 0.  0.
        4    1    3    3  502    0  0.63522905524E+03  0.16010683587E+03 -0.14934513570E+04  0.16308122884E+04  0.12699999809E+01 0.  1.
       -4    1    3    3    0  502 -0.63522905524E+03 -0.16010683587E+03  0.15246210397E+04  0.16594038325E+04  0.12699999809E+01 0. -1.
</event>
<event>
 5   0  0.3674967E-07  0.3315107E+04  0.7818609E-02  0.8159062E-01
       -1   -1    0    0    0  501  0.00000000000E+00  0.00000000000E+00  0.15316685808E+04  0.15316685808E+04  0.50400001928E-02 0. -1.
        1   -1    0    0  501    0  0.00000000000E+00  0.00000000000E+00 -0.17937850779E+04  0.17937850779E+04  0.50400001928E-02 0.  1.
    10030    2    1    2    0    0  0.00000000000E+00  0.00000000000E+00 -0.26211649715E+03  0.33254536587E+04  0.33151073856E+04 0.  0.
        2    1    3    3  502    0  0.83967881479E+03 -0.11400712930E+03  0.12979670609E+04  0.15500892325E+04  0.25500000920E-02 0. -1.
       -2    1    3    3    0  502 -0.83967881479E+03  0.11400712930E+03 -0.15600835581E+04  0.17753644262E+04  0.25500000920E-02 0.  1.
</event>
<event>
 5   0  0.1146799E-06  0.3288045E+04  0.7818609E-02  0.8165944E-01
       -2   -1    0    0    0  501  0.00000000000E+00  0.00000000000E+00  0.15919165833E+04  0.15919165833E+04  0.25500000920E-02 0. -1.
        2   -1    0    0  501    0  0.00000000000E+00  0.00000000000E+00 -0.16978339076E+04  0.16978339076E+04  0.25500000920E-02 0.  1.
    10030    2    1    2    0    0  0.00000000000E+00  0.00000000000E+00 -0.10591732426E+03  0.32897504909E+04  0.32880449833E+04 0.  0.
        5    1    3    3  502    0  0.82605663810E+03  0.12156458494E+04  0.68405322761E+03  0.16211462947E+04  0.46999998093E+01 0. -1.
       -5    1    3    3    0  502 -0.82605663810E+03 -0.12156458494E+04 -0.78997055187E+03  0.16686041962E+04  0.46999998093E+01 0.  1.
</event>
<event>
 5   0  0.3674967E-07  0.3279521E+04  0.7818609E-02  0.8168126E-01
        1   -1    0    0  501    0  0.00000000000E+00  0.00000000000E+00  0.24930166468E+04  0.24930166468E+04  0.50400001928E-02 0. -1.
       -1   -1    0    0    0  501  0.00000000000E+00  0.00000000000E+00 -0.10785384623E+04  0.10785384624E+04  0.50400001928E-02 0.  1.
    10030    2    1    2    0    0  0.00000000000E+00  0.00000000000E+00  0.14144781844E+04  0.35715551091E+04  0.32795209046E+04 0.  0.
        2    1    3    3  502    0  0.14179794085E+04  0.14640812882E+03 -0.17530190769E+03  0.14362561408E+04  0.25500000920E-02 0. -1.
       -2    1    3    3    0  502 -0.14179794085E+04 -0.14640812882E+03  0.15897800921E+04  0.21352989684E+04  0.25500000920E-02 0.  1.
</event>
<event>
 5   0  0.3796529E-07  0.3353319E+04  0.7818609E-02  0.8149459E-01
        1   -1    0    0  501    0  0.00000000000E+00  0.00000000000E+00  0.16527642103E+04  0.16527642103E+04  0.50400001928E-02 0.  1.
       -1   -1    0    0    0  501  0.00000000000E+00  0.00000000000E+00 -0.17008999846E+04  0.17008999846E+04  0.50400001928E-02 0. -1.
    10030    2    1    2    0    0  0.00000000000E+00  0.00000000000E+00 -0.48135774389E+02  0.33536641949E+04  0.33533187262E+04 0.  0.
        5    1    3    3  502    0 -0.22375432727E+03  0.78539485924E+03  0.14404099321E+04  0.16558121712E+04  0.46999998093E+01 0.  1.
       -5    1    3    3    0  502  0.22375432727E+03 -0.78539485924E+03 -0.14885457065E+04  0.16978520237E+04  0.46999998093E+01 0. -1.
</event>
<event>
 5   0  0.1126221E-06  0.3289709E+04  0.7818609E-02  0.8165519E-01
       -2   -1    0    0    0  501  0.00000000000E+00  0.00000000000E+00  0.16621639986E+04  0.16621639986E+04  0.25500000920E-02 0. -1.
        2   -1    0    0  501    0  0.00000000000E+00  0.00000000000E+00 -0.16277255099E+04  0.16277255099E+04  0.25500000920E-02 0.  1.
    10030    2    1    2    0    0  0.00000000000E+00  0.00000000000E+00  0.34438488766E+02  0.32898895085E+04  0.32897092529E+04 0.  0.
        2    1    3    3  502    0 -0.41509981763E+03 -0.16821623847E+03  0.16000068798E+04  0.16615133393E+04  0.25500000920E-02 0. -1.
       -2    1    3    3    0  502  0.41509981763E+03  0.16821623847E+03 -0.15655683910E+04  0.16283761692E+04  0.25500000920E-02 0.  1.
</event>
<event>
 5   0  0.3709747E-07  0.3258261E+04  0.7818609E-02  0.8173598E-01
       -1   -1    0    0    0  501  0.00000000000E+00  0.00000000000E+00  0.14798715338E+04  0.14798715338E+04  0.50400001928E-02 0.  1.
        1   -1    0    0  501    0  0.00000000000E+00  0.00000000000E+00 -0.17934434544E+04  0.17934434544E+04  0.50400001928E-02 0. -1.
    10030    2    1    2    0    0  0.00000000000E+00  0.00000000000E+00 -0.31357192059E+03  0.32733149882E+04  0.32582608340E+04 0.  0.
        4    1    3    3  502    0  0.10462132035E+04 -0.93116230523E+03  0.67918792401E+03  0.15565741726E+04  0.12699999809E+01 0. -1.
       -4    1    3    3    0  502 -0.10462132035E+04  0.93116230523E+03 -0.99275984461E+03  0.17167408156E+04  0.12699999809E+01 0.  1.
</event>
<event>
 5   0  0.1129434E-06  0.3191319E+04  0.7818609E-02  0.8191114E-01
        2   -1    0    0  501    0  0.00000000000E+00  0.00000000000E+00  0.14796079110E+04  0.14796079110E+04  0.25500000920E-02 0.  1.
       -2   -1    0    0    0  501  0.00000000000E+00  0.00000000000E+00 -0.17208137069E+04  0.17208137069E+04  0.25500000920E-02 0. -1.
    10030    2    1    2    0    0  0.00000000000E+00  0.00000000000E+00 -0.24120579586E+03  0.32004216179E+04  0.31913192094E+04 0.  0.
        3    1    3    3  502    0  0.13350058680E+04 -0.21787889534E+03  0.72822588445E+03  0.15362372309E+04  0.10100000352E+00 0.  1.
       -3    1    3    3    0  502 -0.13350058680E+04  0.21787889534E+03 -0.96943168032E+03  0.16641843869E+04  0.10100000352E+00 0. -1.
</event>
<event>
 5   0  0.3674967E-07  0.3336654E+04  0.7818609E-02  0.8153631E-01
        1   -1    0    0  501    0  0.00000000000E+00  0.00000000000E+00  0.10839224634E+04  0.10839224634E+04  0.50400001928E-02 0.  1.
       -1   -1    0    0    0  501  0.00000000000E+00  0.00000000000E+00 -0.25678176683E+04  0.25678176683E+04  0.50400001928E-02 0. -1.
    10030    2    1    2    0    0  0.00000000000E+00  0.00000000000E+00 -0.14838952050E+04  0.36517401317E+04  0.33366541640E+04 0.  0.
        2    1    3    3  502    0 -0.14111928309E+04 -0.81551137193E+03 -0.35224499755E+03  0.16675132809E+04  0.25500000920E-02 0. -1.
       -2    1    3    3    0  502  0.14111928309E+04  0.81551137193E+03 -0.11316502074E+04  0.19842268508E+04  0.25500000920E-02 0.  1.
</event>
<event>
 5   0  0.1126221E-06  0.3311559E+04  0.7818609E-02  0.8159960E-01
        2   -1    0    0  501    0  0.00000000000E+00  0.00000000000E+00  0.91840889987E+03  0.91840889988E+03  0.25500000920E-02 0. -1.
       -2   -1    0    0    0  501  0.00000000000E+00  0.00000000000E+00 -0.29851690540E+04  0.29851690540E+04  0.25500000920E-02 0.  1.
    10030    2    1    2    0    0  0.00000000000E+00  0.00000000000E+00 -0.20667601542E+04  0.39035779539E+04  0.33115590448E+04 0.  0.
        2    1    3    3  502    0  0.15394588611E+03 -0.12380161015E+04  0.24992620437E+03  0.12723389136E+04  0.25500000920E-02 0. -1.
       -2    1    3    3    0  502 -0.15394588611E+03  0.12380161015E+04 -0.23166863585E+04  0.26312390403E+04  0.25500000920E-02 0.  1.
</event>
<event>
 5   0  0.3749685E-07  0.3307285E+04  0.7818609E-02  0.8161044E-01
       -1   -1    0    0    0  501  0.00000000000E+00  0.00000000000E+00  0.14505023484E+04  0.14505023484E+04  0.50400001928E-02 0. -1.
        1   -1    0    0  501    0  0.00000000000E+00  0.00000000000E+00 -0.18852320784E+04  0.18852320784E+04  0.50400001928E-02 0.  1.
    10030    2    1    2    0    0  0.00000000000E+00  0.00000000000E+00 -0.43472972992E+03  0.33357344268E+04  0.33072850237E+04 0.  0.
        3    1    3    3  502    0  0.33540059380E+03 -0.15946078994E+04 -0.50132823171E+03  0.17048747512E+04  0.10100000352E+00 0.  1.
       -3    1    3    3    0  502 -0.33540059380E+03  0.15946078994E+04  0.66598501786E+02  0.16308596756E+04  0.10100000352E+00 0. -1.
</event>
<event>
 5   0  0.1126221E-06  0.3239492E+04  0.7818609E-02  0.8178465E-01
        2   -1    0    0  501    0  0.00000000000E+00  0.00000000000E+00  0.10741730381E+04  0.10741730381E+04  0.25500000920E-02 0. -1.
       -2   -1    0    0    0  501  0.00000000000E+00  0.00000000000E+00 -0.24424153244E+04  0.24424153244E+04  0.25500000920E-02 0.  1.
    10030    2    1    2    0    0  0.00000000000E+00  0.00000000000E+00 -0.13682422863E+04  0.35165883624E+04  0.32394917436E+04 0.  0.
        2    1    3    3  502    0  0.42942450411E+03 -0.96439363282E+03  0.64941870783E+03  0.12394374296E+04  0.25500000920E-02 0. -1.
       -2    1    3    3    0  502 -0.42942450411E+03  0.96439363282E+03 -0.20176609941E+04  0.22771509329E+04  0.25500000920E-02 0.  1.
</event>
<event>
 5   0  0.3796529E-07  0.3283419E+04  0.7818609E-02  0.8167127E-01
        1   -1    0    0  501    0  0.00000000000E+00  0.00000000000E+00  0.17567599075E+04  0.17567599075E+04  0.50400001928E-02 0.  1.
       -1   -1    0    0    0  501  0.00000000000E+00  0.00000000000E+00 -0.15341937185E+04  0.15341937186E+04  0.50400001928E-02 0. -1.
    10030    2    1    2    0    0  0.00000000000E+00  0.00000000000E+00  0.22256618893E+03  0.32909536260E+04  0.32834189590E+04 0.  0.
        5    1    3    3  502    0 -0.72308317822E+03 -0.76115469687E+03  0.13763133669E+04  0.17310304241E+04  0.46999998093E+01 0.  1.
       -5    1    3    3    0  502  0.72308317822E+03  0.76115469687E+03 -0.11537471780E+04  0.15599232019E+04  0.46999998093E+01 0. -1.
</event>
<event>
 5   0  0.3709747E-07  0.3291455E+04  0.7818609E-02  0.8165073E-01
        1   -1    0    0  501    0  0.00000000000E+00  0.00000000000E+00  0.21281324095E+04  0.21281324095E+04  0.50400001928E-02 0. -1.
       -1   -1    0    0    0  501  0.00000000000E+00  0.00000000000E+00 -0.12726744745E+04  0.12726744745E+04  0.50400001928E-02 0.  1.
    10030    2    1    2    0    0  0.00000000000E+00  0.00000000000E+00  0.85545793508E+03  0.34008068840E+04  0.32914554810E+04 0.  0.
        4    1    3    3  502    0 -0.16448246544E+04 -0.53977439995E+02  0.41996429697E+03  0.16984502735E+04  0.12699999809E+01 0. -1.
       -4    1    3    3    0  502  0.16448246544E+04  0.53977439995E+02  0.43549363811E+03  0.17023566106E+04  0.12699999809E+01 0.  1.
</event>
<event>
 5   0  0.1129434E-06  0.3261465E+04  0.7818609E-02  0.8172770E-01
       -2   -1    0    0    0  501  0.00000000000E+00  0.00000000000E+00  0.11711023321E+04  0.11711023321E+04  0.25500000920E-02 0. -1.
        2   -1    0    0  501    0  0.00000000000E+00  0.00000000000E+00 -0.22707571583E+04  0.22707571583E+04  0.25500000920E-02 0.  1.
    10030    2    1    2    0    0  0.00000000000E+00  0.00000000000E+00 -0.10996548262E+04  0.34418594904E+04  0.32614653171E+04 0.  0.
        3    1    3    3  502    0 -0.12798431528E+04  0.96905662575E+03 -0.85242708908E+03  0.18176086465E+04  0.10100000352E+00 0.  1.
       -3    1    3    3    0  502  0.12798431528E+04 -0.96905662575E+03 -0.24722773714E+03  0.16242508439E+04  0.10100000352E+00 0. -1.
</event>
<event>
 5   0  0.3749685E-07  0.3307234E+04  0.7818609E-02  0.8161057E-01
        1   -1    0    0  501    0  0.00000000000E+00  0.00000000000E+00  0.14842600335E+04  0.14842600335E+04  0.50400001928E-02 0.  1.
       -1   -1    0    0    0  501  0.00000000000E+00  0.00000000000E+00 -0.18422983636E+04  0.18422983636E+04  0.50400001928E-02 0. -1.
    10030    2    1    2    0    0  0.00000000000E+00  0.00000000000E+00 -0.35803833006E+03  0.33265583971E+04  0.33072343920E+04 0.  0.
        3    1    3    3  502    0 -0.62418242230E+03 -0.14779210079E+04 -0.58210452311E+03  0.17066633786E+04  0.10100000352E+00 0.  1.
       -3    1    3    3    0  502  0.62418242230E+03  0.14779210079E+04  0.22406619305E+03  0.16198950185E+04  0.10100000352E+00 0. -1.
</event>
<event>
 5   0  0.3674967E-07  0.3111686E+04  0.7818609E-02  0.8212538E-01
        1   -1    0    0  501    0  0.00000000000E+00  0.00000000000E+00  0.12787454062E+04  0.12787454062E+04  0.50400001928E-02 0. -1.
       -1   -1    0    0    0  501  0.00000000000E+00  0.00000000000E+00 -0.18929867330E+04  0.18929867330E+04  0.50400001928E-02 0.  1.
    10030    2    1    2    0    0  0.00000000000E+00  0.00000000000E+00 -0.61424132678E+03  0.31717321393E+04  0.31116864167E+04 0.  0.
        2    1    3    3  502    0  0.19426871851E+02 -0.11982656993E+04  0.70420982220E+03  0.13900106342E+04  0.25500000920E-02 0. -1.
       -2    1    3    3    0  502 -0.19426871851E+02  0.11982656993E+04 -0.13184511490E+04  0.17817215051E+04  0.25500000920E-02 0.  1.
</event>
<event>
 5   0  0.3674967E-07  0.3323533E+04  0.7818609E-02  0.8156933E-01
       -1   -1    0    0    0  501  0.00000000000E+00  0.00000000000E+00  0.12841548990E+04  0.12841548990E+04  0.50400001928E-02 0. -1.
        1   -1    0    0  501    0  0.00000000000E+00  0.00000000000E+00 -0.21504162242E+04  0.21504162242E+04  0.50400001928E-02 0.  1.
    10030    2    1    2    0    0  0.00000000000E+00  0.00000000000E+00 -0.86626132520E+03  0.34345711233E+04  0.33235327766E+04 0.  0.
        2    1    3    3  502    0  0.16730189735E+03  0.69485608303E+03  0.11172087332E+04  0.13262617594E+04  0.25500000920E-02 0. -1.
       -2    1    3    3    0  502 -0.16730189735E+03 -0.69485608303E+03 -0.19834700584E+04  0.21083093638E+04  0.25500000920E-02 0.  1.
</event>
<event>
 5   0  0.1120545E-06  0.3277969E+04  0.7818609E-02  0.8168524E-01
        2   -1    0    0  501    0  0.00000000000E+00  0.00000000000E+00  0.16051721521E+04  0.16051721521E+04  0.25500000920E-02 0.  1.
       -2   -1    0    0    0  501  0.00000000000E+00  0.00000000000E+00 -0.16735093873E+04  0.16735093873E+04  0.25500000920E-02 0. -1.
    10030    2    1    2    0    0  0.00000000000E+00  0.00000000000E+00 -0.68337235156E+02  0.32786815393E+04  0.32779692889E+04 0.  0.
        4    1    3    3  502    0  0.12915812967E+04 -0.10025944251E+04 -0.14773281663E+03  0.16417077770E+04  0.12699999809E+01 0.  1.
       -4    1    3    3    0  502 -0.12915812967E+04  0.10025944251E+04  0.79395581470E+02  0.16369737623E+04  0.12699999809E+01 0. -1.
</event>
<event>
 5   0  0.3757406E-07  0.3301492E+04  0.7818609E-02  0.8162516E-01
        1   -1    0    0  501    0  0.00000000000E+00  0.00000000000E+00  0.21908948364E+04  0.21908948364E+04  0.50400001928E-02 0.  1.
       -1   -1    0    0    0  501  0.00000000000E+00  0.00000000000E+00 -0.12437667134E+04  0.12437667134E+04  0.50400001928E-02 0. -1.
    10030    2    1    2    0    0  0.00000000000E+00  0.00000000000E+00  0.94712812303E+03  0.34346615498E+04  0.33014918265E+04 0.  0.
        1    1    3    3  502    0  0.37352877280E+03 -0.12256134561E+03 -0.11943570966E+04  0.12573917058E+04  0.50400001928E-02 0. -1.
       -1    1    3    3    0  502 -0.37352877280E+03  0.12256134561E+03  0.21414852197E+04  0.21772698440E+04  0.50400001928E-02 0.  1.
</event>
<event>
 5   0  0.3757406E-07  0.3280960E+04  0.7818609E-02  0.8167757E-01
       -1   -1    0    0    0  501  0.00000000000E+00  0.00000000000E+00  0.13946877105E+04  0.13946877105E+04  0.50400001928E-02 0.  1.
        1   -1    0    0  501    0  0.00000000000E+00  0.00000000000E+00 -0.19295894032E+04  0.19295894032E+04  0.50400001928E-02 0. -1.
    10030    2    1    2    0    0  0.00000000000E+00  0.00000000000E+00 -0.53490169265E+03  0.33242771137E+04  0.32809599979E+04 0.  0.
        1    1    3    3  502    0  0.57329519686E+03  0.63206684541E+03  0.11521174628E+04  0.14337191245E+04  0.50400001928E-02 0.  1.
       -1    1    3    3    0  502 -0.57329519686E+03 -0.63206684541E+03 -0.16870191554E+04  0.18905579892E+04  0.50400001928E-02 0. -1.
</event>
<event>
 5   0  0.1146799E-06  0.3202123E+04  0.7818609E-02  0.8188257E-01
        2   -1    0    0  501    0  0.00000000000E+00  0.00000000000E+00  0.19527620916E+04  0.19527620916E+04  0.25500000920E-02 0.  1.
       -2   -1    0    0    0  501  0.00000000000E+00  0.00000000000E+00 -0.13127034602E+04  0.13127034602E+04  0.25500000920E-02 0. -1.
    10030    2    1    2    0    0  0.00000000000E+00  0.00000000000E+00  0.64005863141E+03  0.32654655518E+04  0.32021227675E+04 0.  0.
        5    1    3    3  502    0  0.12967876921E+04  0.22099310287E+03 -0.61064587065E+03  0.14503126350E+04  0.46999998093E+01 0.  1.
       -5    1    3    3    0  502 -0.12967876921E+04 -0.22099310287E+03  0.12507045021E+04  0.18151529168E+04  0.46999998093E+01 0. -1.
</event>
<event>
 5   0  0.1116462E-06  0.3276348E+04  0.7818609E-02  0.8168940E-01
       -2   -1    0    0    0  501  0.00000000000E+00  0.00000000000E+00  0.13997378341E+04  0.13997378341E+04  0.25500000920E-02 0.  1.
        2   -1    0    0  501    0  0.00000000000E+00  0.00000000000E+00 -0.19172258437E+04  0.19172258437E+04  0.25500000920E-02 0. -1.
    10030    2    1    2    0    0  0.00000000000E+00  0.00000000000E+00 -0.51748800956E+03  0.33169636778E+04  0.32763476922E+04 0.  0.
        1    1    3    3  502    0 -0.46843487588E+03  0.11279463808E+04  0.84654068529E+03  0.14860435400E+04  0.50400001928E-02 0. -1.
       -1    1    3    3    0  502  0.46843487588E+03 -0.11279463808E+04 -0.13640286948E+04  0.18309201379E+04  0.50400001928E-02 0.  1.
</event>
<event>
 5   0  0.1116462E-06  0.3295631E+04  0.7818609E-02  0.8164008E-01
        2   -1    0    0  501    0  0.00000000000E+00  0.00000000000E+00  0.24136259828E+04  0.24136259828E+04  0.25500000920E-02 0. -1.
       -2   -1    0    0    0  501  0.00000000000E+00  0.00000000000E+00 -0.11249859193E+04  0.11249859193E+04  0.25500000920E-02 0.  1.
    10030    2    1    2    0    0  0.00000000000E+00  0.00000000000E+00  0.12886400635E+04  0.35386119021E+04  0.32956305892E+04 0.  0.
        1    1    3    3  502    0 -0.13483412726E+04  0.57726054312E+03 -0.16207876309E+03  0.14756434012E+04  0.50400001928E-02 0.  1.
       -1    1    3    3    0  502  0.13483412726E+04 -0.57726054312E+03  0.14507188266E+04  0.20629685009E+04  0.50400001928E-02 0. -1.
</event>
<event>
 5   0  0.3749685E-07  0.3299094E+04  0.7818609E-02  0.8163126E-01
       -1   -1    0    0    0  501  0.00000000000E+00  0.00000000000E+00  0.19596475783E+04  0.19596475783E+04  0.50400001928E-02 0. -1.
        1   -1    0    0  501    0  0.00000000000E+00  0.00000000000E+00 -0.13885180002E+04  0.13885180002E+04  0.50400001928E-02 0.  1.
    10030    2    1    2    0    0  0.00000000000E+00  0.00000000000E+00  0.57112957811E+03  0.33481655785E+04  0.32990943827E+04 0.  0.
        3    1    3    3  502    0 -0.15476181378E+04  0.52299562585E+03  0.53339050944E+02  0.16344697579E+04  0.10100000352E+00 0. -1.
       -3    1    3    3    0  502  0.15476181378E+04 -0.52299562585E+03  0.51779052717E+03  0.17136958205E+04  0.10100000352E+00 0.  1.
</event>
<event>
 5   0  0.1146799E-06  0.3302809E+04  0.7818609E-02  0.8162181E-01
       -2   -1    0    0    0  501  0.00000000000E+00  0.00000000000E+00  0.13060221112E+04  0.13060221112E+04  0.25500000920E-02 0. -1.
        2   -1    0    0  501    0  0.00000000000E+00  0.00000000000E+00 -0.20881248495E+04  0.20881248495E+04  0.25500000920E-02 0.  1.
    10030    2    1    2    0    0  0.00000000000E+00  0.00000000000E+00 -0.78210273834E+03  0.33941469607E+04  0.33028092433E+04 0.  0.
        5    1    3    3  502    0 -0.12967582111E+04 -0.80100446462E+03  0.26207555123E+03  0.15465754734E+04  0.46999998093E+01 0. -1.
       -5    1    3    3    0  502  0.12967582111E+04  0.80100446462E+03 -0.10441782896E+04  0.18475714873E+04  0.46999998093E+01 0.  1.
</event>
<event>
 5   0  0.1126221E-06  0.3294558E+04  0.7818609E-02  0.8164281E-01
       -2   -1    0    0    0  501  0.00000000000E+00  0.00000000000E+00  0.13788564161E+04  0.13788564161E+04  0.25500000920E-02 0.  1.
        2   -1    0    0  501    0  0.00000000000E+00  0.00000000000E+00 -0.19679556993E+04  0.19679556993E+04  0.25500000920E-02 0. -1.
    10030    2    1    2    0    0  0.00000000000E+00  0.00000000000E+00 -0.58909928329E+03  0.33468121154E+04  0.32945581449E+04 0.  0.
        2    1    3    3  502    0  0.84255405743E+03  0.47362323253E+01  0.11433897996E+04  0.14203027866E+04  0.25500000920E-02 0.  1.
       -2    1    3    3    0  502 -0.84255405743E+03 -0.47362323253E+01 -0.17324890829E+04  0.19265093288E+04  0.25500000920E-02 0. -1.
</event>
<event>
 5   0  0.3796529E-07  0.3301007E+04  0.7818609E-02  0.8162639E-01
        1   -1    0    0  501    0  0.00000000000E+00  0.00000000000E+00  0.19999648560E+04  0.19999648560E+04  0.50400001928E-02 0.  1.
       -1   -1    0    0    0  501  0.00000000000E+00  0.00000000000E+00 -0.13621046622E+04  0.13621046622E+04  0.50400001928E-02 0. -1.
    10030    2    1    2    0    0  0.00000000000E+00  0.00000000000E+00  0.63786019380E+03  0.33620695182E+04  0.33010067886E+04 0.  0.
        5    1    3    3  502    0  0.12859478915E+04 -0.10021543032E+04  0.56948008881E+02  0.16313308655E+04  0.46999998093E+01 0. -1.
       -5    1    3    3    0  502 -0.12859478915E+04  0.10021543032E+04  0.58091218492E+03  0.17307386526E+04  0.46999998093E+01 0.  1.
</event>
<event>
 5   0  0.1116462E-06  0.3306406E+04  0.7818609E-02  0.8161267E-01
        2   -1    0    0  501    0  0.00000000000E+00  0.00000000000E+00  0.26219499362E+04  0.26219499362E+04  0.25500000920E-02 0.  1.
       -2   -1    0    0    0  501  0.00000000000E+00  0.00000000000E+00 -0.10423847818E+04  0.10423847818E+04  0.25500000920E-02 0. -1.
    10030    2    1    2    0    0  0.00000000000E+00  0.00000000000E+00  0.15795651544E+04  0.36643347180E+04  0.33064063345E+04 0.  0.
        1    1    3    3  502    0 -0.94178847575E+03 -0.67192436245E+03  0.20985692238E+04  0.23963390138E+04  0.50400001928E-02 0.  1.
       -1    1    3    3    0  502  0.94178847575E+03  0.67192436245E+03 -0.51900406937E+03  0.12679957042E+04  0.50400001928E-02 0. -1.
</event>
<event>
 5   0  0.1120545E-06  0.3296666E+04  0.7818609E-02  0.8163744E-01
       -2   -1    0    0    0  501  0.00000000000E+00  0.00000000000E+00  0.12631547432E+04  0.12631547432E+04  0.25500000920E-02 0.  1.
        2   -1    0    0  501    0  0.00000000000E+00  0.00000000000E+00 -0.21509647259E+04  0.21509647259E+04  0.25500000920E-02 0. -1.
    10030    2    1    2    0    0  0.00000000000E+00  0.00000000000E+00 -0.88780998274E+03  0.34141194691E+04  0.32966657677E+04 0.  0.
        4    1    3    3  502    0 -0.39159626751E+03 -0.42397419184E+03 -0.20429018998E+04  0.21228639940E+04  0.12699999809E+01 0. -1.
       -4    1    3    3    0  502  0.39159626751E+03  0.42397419184E+03  0.11550919171E+04  0.12912554750E+04  0.12699999809E+01 0.  1.
</event>
<event>
 5   0  0.1116462E-06  0.3308323E+04  0.7818609E-02  0.8160781E-01
        2   -1    0    0  501    0  0.00000000000E+00  0.00000000000E+00  0.12675084736E+04  0.12675084736E+04  0.25500000920E-02 0. -1.
       -2   -1    0    0    0  501  0.00000000000E+00  0.00000000000E+00 -0.21587634914E+04  0.21587634914E+04  0.25500000920E-02 0.  1.
    10030    2    1    2    0    0  0.00000000000E+00  0.00000000000E+00 -0.89125501782E+03  0.34262719649E+04  0.33083234532E+04 0.  0.
        1    1    3    3  502    0  0.16071258976E+04  0.28775419085E+03 -0.17045787245E+03  0.16415578002E+04  0.50400001928E-02 0.  1.
       -1    1    3    3    0  502 -0.16071258976E+04 -0.28775419085E+03 -0.72079714537E+03  0.17847141647E+04  0.50400001928E-02 0. -1.
</event>
<event>
 5   0  0.1126221E-06  0.3357636E+04  0.7818609E-02  0.8148383E-01
       -2   -1    0    0    0  501  0.00000000000E+00  0.00000000000E+00  0.18064762913E+04  0.18064762913E+04  0.25500000920E-02 0. -1.
        2   -1    0    0  501    0  0.00000000000E+00  0.00000000000E+00 -0.15601805935E+04  0.15601805935E+04  0.25500000920E-02 0.  1.
    10030    2    1    2    0    0  0.00000000000E+00  0.00000000000E+00  0.24629569777E+03  0.33666568848E+04  0.33576356278E+04 0.  0.
        2    1    3    3  502    0  0.94225280567E+03 -0.10228816816E+04  0.10660477462E+04  0.17523085007E+04  0.25500000920E-02 0. -1.
       -2    1    3    3    0  502 -0.94225280567E+03  0.10228816816E+04 -0.81975204841E+03  0.16143483841E+04  0.25500000920E-02 0.  1.
</event>
<event>
 5   0  0.3674967E-07  0.3308260E+04  0.7818609E-02  0.8160797E-01
       -1   -1    0    0    0  501  0.00000000000E+00  0.00000000000E+00  0.20119933077E+04  0.20119933077E+04  0.50400001928E-02 0.  1.
        1   -1    0    0  501    0  0.00000000000E+00  0.00000000000E+00 -0.13599181896E+04  0.13599181897E+04  0.50400001928E-02 0. -1.
    10030    2    1    2    0    0  0.00000000000E+00  0.00000000000E+00  0.65207511810E+03  0.33719114974E+04  0.33082601449E+04 0.  0.
        2    1    3    3  502    0 -0.28419110949E+03 -0.14187570901E+04  0.11430270494E+04  0.18439487799E+04  0.25500000920E-02 0.  1.
       -2    1    3    3    0  502  0.28419110949E+03  0.14187570901E+04 -0.49095193125E+03  0.15279627175E+04  0.25500000920E-02 0. -1.
</event>
<event>
 5   0  0.3674967E-07  0.3290642E+04  0.7818609E-02  0.8165281E-01
        1   -1    0    0  501    0  0.00000000000E+00  0.00000000000E+00  0.23596562403E+04  0.23596562403E+04  0.50400001928E-02 0. -1.
       -1   -1    0    0    0  501  0.00000000000E+00  0.00000000000E+00 -0.11472354391E+04  0.11472354392E+04  0.50400001928E-02 0.  1.
    10030    2    1    2    0    0  0.00000000000E+00  0.00000000000E+00  0.12124208011E+04  0.35068916794E+04  0.32906420426E+04 0.  0.
        2    1    3    3  502    0  0.10150468015E+04 -0.91929622151E+03 -0.36567150513E+03  0.14174417807E+04  0.25500000920E-02 0.  1.
       -2    1    3    3    0  502 -0.10150468015E+04  0.91929622151E+03  0.15780923062E+04  0.20894498987E+04  0.25500000920E-02 0. -1.
</event>
<event>
 5   0  0.1116462E-06  0.3298014E+04  0.7818609E-02  0.8163401E-01
        2   -1    0    0  501    0  0.00000000000E+00  0.00000000000E+00  0.17224918135E+04  0.17224918135E+04  0.25500000920E-02 0.  1.
       -2   -1    0    0    0  501  0.00000000000E+00  0.00000000000E+00 -0.15786571564E+04  0.15786571564E+04  0.25500000920E-02 0. -1.
    10030    2    1    2    0    0  0.00000000000E+00  0.00000000000E+00  0.14383465713E+03  0.33011489699E+04  0.32980139649E+04 0.  0.
        1    1    3    3  502    0  0.75457179084E+02 -0.15845238925E+03  0.17131170726E+04  0.17220833458E+04  0.50400001928E-02 0.  1.
       -1    1    3    3    0  502 -0.75457179084E+02  0.15845238925E+03 -0.15692824155E+04  0.15790656241E+04  0.50400001928E-02 0. -1.
</event>
<event>
 5   0  0.3749685E-07  0.3311311E+04  0.7818609E-02  0.8160023E-01
       -1   -1    0    0    0  501  0.00000000000E+00  0.00000000000E+00  0.13399531949E+04  0.13399531949E+04  0.50400001928E-02 0.  1.
        1   -1    0    0  501    0  0.00000000000E+00  0.00000000000E+00 -0.20457393892E+04  0.20457393892E+04  0.50400001928E-02 0. -1.
    10030    2    1    2    0    0  0.00000000000E+00  0.00000000000E+00 -0.70578619429E+03  0.33856925841E+04  0.33113109370E+04 0.  0.
        3    1    3    3  502    0  0.12356552476E+04  0.88636483781E+03 -0.10223592239E+04  0.18324041338E+04  0.10100000352E+00 0. -1.
       -3    1    3    3    0  502 -0.12356552476E+04 -0.88636483781E+03  0.31657302961E+03  0.15532884503E+04  0.10100000352E+00 0.  1.
</event>
<event>
 5   0  0.3796529E-07  0.3296080E+04  0.7818609E-02  0.8163893E-01
       -1   -1    0    0    0  501  0.00000000000E+00  0.00000000000E+00  0.14514303388E+04  0.14514303388E+04  0.50400001928E-02 0. -1.
        1   -1    0    0  501    0  0.00000000000E+00  0.00000000000E+00 -0.18712827440E+04  0.18712827440E+04  0.50400001928E-02 0.  1.
    10030    2    1    2    0    0  0.00000000000E+00  0.00000000000E+00 -0.41985240516E+03  0.33227130828E+04  0.32960804281E+04 0.  0.
        5    1    3    3  502    0  0.16288809370E+04 -0.70183069700E+02 -0.45235990300E+03  0.16919900537E+04  0.46999998093E+01 0.  1.
       -5    1    3    3    0  502 -0.16288809370E+04  0.70183069700E+02  0.32507497843E+02  0.16307230291E+04  0.46999998093E+01 0. -1.
</event>
<event>
 5   0  0.1129434E-06  0.3315948E+04  0.7818609E-02  0.8158849E-01
       -2   -1    0    0    0  501  0.00000000000E+00  0.00000000000E+00  0.12421889990E+04  0.12421889990E+04  0.25500000920E-02 0.  1.
        2   -1    0    0  501    0  0.00000000000E+00  0.00000000000E+00 -0.22129306025E+04  0.22129306025E+04  0.25500000920E-02 0. -1.
    10030    2    1    2    0    0  0.00000000000E+00  0.00000000000E+00 -0.97074160355E+03  0.34551196015E+04  0.33159481600E+04 0.  0.
        3    1    3    3  502    0 -0.82699246636E+02 -0.28016058398E+03 -0.21859062601E+04  0.22053379121E+04  0.10100000352E+00 0. -1.
       -3    1    3    3    0  502  0.82699246636E+02  0.28016058398E+03  0.12151646566E+04  0.12497816894E+04  0.10100000352E+00 0.  1.
</event>
<event>
 5   0  0.3709747E-07  0.3269346E+04  0.7818609E-02  0.8170739E-01
        1   -1    0    0  501    0  0.00000000000E+00  0.00000000000E+00  0.25391057975E+04  0.25391057975E+04  0.50400001928E-02 0.  1.
       -1   -1    0    0    0  501  0.00000000000E+00  0.00000000000E+00 -0.10524004941E+04  0.10524004941E+04  0.50400001928E-02 0. -1.
    10030    2    1    2    0    0  0.00000000000E+00  0.00000000000E+00  0.14867053033E+04  0.35915062916E+04  0.32693462319E+04 0.  0.
        4    1    3    3  502    0 -0.65842474910E+03 -0.54062641223E+03  0.22759451277E+04  0.24301703449E+04  0.12699999809E+01 0.  1.
       -4    1    3    3    0  502  0.65842474910E+03  0.54062641223E+03 -0.78923982441E+03  0.11613359467E+04  0.12699999809E+01 0. -1.
</event>
<event>
 5   0  0.1126221E-06  0.3291748E+04  0.7818609E-02  0.8164998E-01
       -2   -1    0    0    0  501  0.00000000000E+00  0.00000000000E+00  0.13676864307E+04  0.13676864307E+04  0.25500000920E-02 0.  1.
        2   -1    0    0  501    0  0.00000000000E+00  0.00000000000E+00 -0.19806450765E+04  0.19806450765E+04  0.25500000920E-02 0. -1.
    10030    2    1    2    0    0  0.00000000000E+00  0.00000000000E+00 -0.61295864577E+03  0.33483315072E+04  0.32917481041E+04 0.  0.
        2    1    3    3  502    0  0.36196313828E+03 -0.15929988781E+04 -0.51052321020E+03  0.17115188247E+04  0.25500000920E-02 0.  1.
       -2    1    3    3    0  502 -0.36196313828E+03  0.15929988781E+04 -0.10243543557E+03  0.16368126825E+04  0.25500000920E-02 0. -1.
</event>
<event>
 5   0  0.3757406E-07  0.3302320E+04  0.7818609E-02  0.8162305E-01
       -1   -1    0    0    0  501  0.00000000000E+00  0.00000000000E+00  0.12023724831E+04  0.12023724831E+04  0.50400001928E-02 0.  1.
        1   -1    0    0  501    0  0.00000000000E+00  0.00000000000E+00 -0.22674586031E+04  0.22674586031E+04  0.50400001928E-02 0. -1.
    10030    2    1    2    0    0  0.00000000000E+00  0.00000000000E+00 -0.10650861200E+04  0.34698310862E+04  0.33023202940E+04 0.  0.
        1    1    3    3  502    0 -0.58685440421E+03  0.41394816596E+03 -0.20947628181E+04  0.22144485634E+04  0.50400001928E-02 0. -1.
       -1    1    3    3    0  502  0.58685440421E+03 -0.41394816596E+03  0.10296766981E+04  0.12553825228E+04  0.50400001928E-02 0.  1.
</event>
<event>
 5   0  0.3757406E-07  0.2993308E+04  0.7818609E-02  0.8245644E-01
       -1   -1    0    0    0  501  0.00000000000E+00  0.00000000000E+00  0.11729024737E+04  0.11729024737E+04  0.50400001928E-02 0. -1.
        1   -1    0    0  501    0  0.00000000000E+00  0.00000000000E+00 -0.19097698022E+04  0.19097698022E+04  0.50400001928E-02 0.  1.
    10030    2    1    2    0    0  0.00000000000E+00  0.00000000000E+00 -0.73686732849E+03  0.30826722760E+04  0.29933083539E+04 0.  0.
        1    1    3    3  502    0 -0.75195819499E+03 -0.79288379197E+03 -0.14216420633E+04  0.17930900677E+04  0.50400001928E-02 0.  1.
       -1    1    3    3    0  502  0.75195819499E+03  0.79288379197E+03  0.68477473480E+03  0.12895822083E+04  0.50400001928E-02 0. -1.
</event>
<event>
 5   0  0.1146799E-06  0.3314629E+04  0.7818609E-02  0.8159183E-01
        2   -1    0    0  501    0  0.00000000000E+00  0.00000000000E+00  0.33237301100E+04  0.33237301100E+04  0.25500000920E-02 0. -1.
       -2   -1    0    0    0  501  0.00000000000E+00  0.00000000000E+00 -0.82638837446E+03  0.82638837447E+03  0.25500000920E-02 0.  1.
    10030    2    1    2    0    0  0.00000000000E+00  0.00000000000E+00  0.24973417355E+04  0.41501184844E+04  0.33146293444E+04 0.  0.
        5    1    3    3  502    0  0.28105895447E+03 -0.14217371864E+04  0.22552680942E+04  0.26807810485E+04  0.46999998093E+01 0. -1.
       -5    1    3    3    0  502 -0.28105895447E+03  0.14217371864E+04  0.24207364129E+03  0.14693374360E+04  0.46999998093E+01 0.  1.
</event>
<event>
 5   0  0.3749685E-07  0.3303134E+04  0.7818609E-02  0.8162098E-01
       -1   -1    0    0    0  501  0.00000000000E+00  0.00000000000E+00  0.13034864271E+04  0.13034864272E+04  0.50400001928E-02 0.  1.
        1   -1    0    0  501    0  0.00000000000E+00  0.00000000000E+00 -0.20925987104E+04  0.20925987104E+04  0.50400001928E-02 0. -1.
    10030    2    1    2    0    0  0.00000000000E+00  0.00000000000E+00 -0.78911228329E+03  0.33960851376E+04  0.33031342792E+04 0.  0.
        3    1    3    3  502    0  0.51231194302E+03 -0.62863135399E+03 -0.18738041225E+04  0.20417597327E+04  0.10100000352E+00 0. -1.
       -3    1    3    3    0  502 -0.51231194302E+03  0.62863135399E+03  0.10846918392E+04  0.13543254049E+04  0.10100000352E+00 0.  1.
</event>
<event>
 5   0  0.3796529E-07  0.3280078E+04  0.7818609E-02  0.8167983E-01
       -1   -1    0    0    0  501  0.00000000000E+00  0.00000000000E+00  0.10884471448E+04  0.10884471448E+04  0.50400001928E-02 0.  1.
        1   -1    0    0  501    0  0.00000000000E+00  0.00000000000E+00 -0.24711602927E+04  0.24711602927E+04  0.50400001928E-02 0. -1.
    10030    2    1    2    0    0  0.00000000000E+00  0.00000000000E+00 -0.13827131480E+04  0.35596074375E+04  0.32800776606E+04 0.  0.
        5    1    3    3  502    0  0.61610669401E+03 -0.15118551048E+04 -0.52179818088E+03  0.17139395403E+04  0.46999998093E+01 0. -1.
       -5    1    3    3    0  502 -0.61610669401E+03  0.15118551048E+04 -0.86091496710E+03  0.18456678972E+04  0.46999998093E+01 0.  1.
</event>
<event>
 5   0  0.1126221E-06  0.3198556E+04  0.7818609E-02  0.8189199E-01
       -2   -1    0    0    0  501  0.00000000000E+00  0.00000000000E+00  0.10710161565E+04  0.10710161565E+04  0.25500000920E-02 0. -1.
        2   -1    0    0  501    0  0.00000000000E+00  0.00000000000E+00 -0.23880974065E+04  0.23880974065E+04  0.25500000920E-02 0.  1.
    10030    2    1    2    0    0  0.00000000000E+00  0.00000000000E+00 -0.13170812500E+04  0.34591135630E+04  0.31985564905E+04 0.  0.
        2    1    3    3  502    0  0.70030991839E+03 -0.69622882351E+03  0.70191919852E+03  0.12115523586E+04  0.25500000920E-02 0. -1.
       -2    1    3    3    0  502 -0.70030991839E+03  0.69622882351E+03 -0.20190004485E+04  0.22475612044E+04  0.25500000920E-02 0.  1.
</event>
<event>
 5   0  0.1120545E-06  0.3215691E+04  0.7818609E-02  0.8184685E-01
       -2   -1    0    0    0  501  0.00000000000E+00  0.00000000000E+00  0.10654915528E+04  0.10654915528E+04  0.25500000920E-02 0. -1.
        2   -1    0    0  501    0  0.00000000000E+00  0.00000000000E+00 -0.24262675299E+04  0.24262675299E+04  0.25500000920E-02 0.  1.
    10030    2    1    2    0    0  0.00000000000E+00  0.00000000000E+00 -0.13607759771E+04  0.34917590826E+04  0.32156912525E+04 0.  0.
        4    1    3    3  502    0  0.13755788203E+04  0.22117229975E+03  0.19102401620E+03  0.14062809338E+04  0.12699999809E+01 0. -1.
       -4    1    3    3    0  502 -0.13755788203E+04 -0.22117229975E+03 -0.15517999933E+04  0.20854781488E+04  0.12699999809E+01 0.  1.
</event>
<event>
 5   0  0.3749685E-07  0.3296518E+04  0.7818609E-02  0.8163782E-01
       -1   -1    0    0    0  501  0.00000000000E+00  0.00000000000E+00  0.28421873724E+04  0.28421873724E+04  0.50400001928E-02 0.  1.
        1   -1    0    0  501    0  0.00000000000E+00  0.00000000000E+00 -0.95586890513E+03  0.95586890515E+03  0.50400001928E-02 0. -1.
    10030    2    1    2    0    0  0.00000000000E+00  0.00000000000E+00  0.18863184672E+04  0.37980562775E+04  0.32965184858E+04 0.  0.
        3    1    3    3  502    0  0.75256034767E+03 -0.11014046048E+04 -0.17228964042E+03  0.13450363976E+04  0.10100000352E+00 0. -1.
       -3    1    3    3    0  502 -0.75256034767E+03  0.11014046048E+04  0.20586081076E+04  0.24530198799E+04  0.10100000352E+00 0.  1.
</event>
<event>
 5   0  0.1126221E-06  0.3295820E+04  0.7818609E-02  0.8163960E-01
       -2   -1    0    0    0  501  0.00000000000E+00  0.00000000000E+00  0.11919024059E+04  0.11919024059E+04  0.25500000920E-02 0.  1.
        2   -1    0    0  501    0  0.00000000000E+00  0.00000000000E+00 -0.22783804422E+04  0.22783804422E+04  0.25500000920E-02 0. -1.
    10030    2    1    2    0    0  0.00000000000E+00  0.00000000000E+00 -0.10864780363E+04  0.34702828482E+04  0.32958198560E+04 0.  0.
        2    1    3    3  502    0  0.71621006478E+03  0.12783628203E+04 -0.13370978025E+04  0.19836831629E+04  0.25500000920E-02 0. -1.
       -2    1    3    3    0  502 -0.71621006478E+03 -0.12783628203E+04  0.25061976624E+03  0.14865996853E+04  0.25500000920E-02 0.  1.
</event>
<event>
 5   0  0.1120545E-06  0.3297271E+04  0.7818609E-02  0.8163590E-01
        2   -1    0    0  501    0  0.00000000000E+00  0.00000000000E+00  0.17551719777E+04  0.17551719777E+04  0.25500000920E-02 0.  1.
       -2   -1    0    0    0  501  0.00000000000E+00  0.00000000000E+00 -0.15485657991E+04  0.15485657992E+04  0.25500000920E-02 0. -1.
    10030    2    1    2    0    0  0.00000000000E+00  0.00000000000E+00  0.20660617859E+03  0.33037377769E+04  0.32972711726E+04 0.  0.
        4    1    3    3  502    0 -0.55449582253E+03 -0.85413558102E+03 -0.11957675133E+04  0.15706287807E+04  0.12699999809E+01 0. -1.
       -4    1    3    3    0  502  0.55449582253E+03  0.85413558102E+03  0.14023736919E+04  0.17331089962E+04  0.12699999809E+01 0.  1.
</event>
<event>
 5   0  0.1129434E-06  0.3352581E+04  0.7818609E-02  0.8149644E-01
       -2   -1    0    0    0  501  0.00000000000E+00  0.00000000000E+00  0.16336246463E+04  0.16336246463E+04  0.25500000920E-02 0.  1.
        2   -1    0    0  501    0  0.00000000000E+00  0.00000000000E+00 -0.17200707393E+04  0.17200707393E+04  0.25500000920E-02 0. -1.
    10030    2    1    2    0    0  0.00000000000E+00  0.00000000000E+00 -0.86446092964E+02  0.33536953856E+04  0.33525810672E+04 0.  0.
        3    1    3    3  502    0 -0.38590785378E+03 -0.16305966040E+04  0.34806538231E+01  0.16756438409E+04  0.10100000352E+00 0.  1.
       -3    1    3    3    0  502  0.38590785378E+03  0.16305966040E+04 -0.89926746787E+02  0.16780515446E+04  0.10100000352E+00 0. -1.
</event>
<event>
 5   0  0.3796529E-07  0.3233222E+04  0.7818609E-02  0.8180098E-01
       -1   -1    0    0    0  501  0.00000000000E+00  0.00000000000E+00  0.31790000383E+04  0.31790000383E+04  0.50400001928E-02 0.  1.
        1   -1    0    0  501    0  0.00000000000E+00  0.00000000000E+00 -0.82209228585E+03  0.82209228586E+03  0.50400001928E-02 0. -1.
    10030    2    1    2    0    0  0.00000000000E+00  0.00000000000E+00  0.23569077525E+04  0.40010923242E+04  0.32332221750E+04 0.  0.
        5    1    3    3  502    0  0.15992285385E+03 -0.60470747801E+03 -0.66626829245E+03  0.91388291409E+03  0.46999998093E+01 0. -1.
       -5    1    3    3    0  502 -0.15992285385E+03  0.60470747801E+03  0.30231760449E+04  0.30872094101E+04  0.46999998093E+01 0.  1.
</event>
<event>
 5   0  0.1126221E-06  0.3308429E+04  0.7818609E-02  0.8160754E-01
       -2   -1    0    0    0  501  0.00000000000E+00  0.00000000000E+00  0.20285464149E+04  0.20285464149E+04  0.25500000920E-02 0.  1.
        2   -1    0    0  501    0  0.00000000000E+00  0.00000000000E+00 -0.13489591615E+04  0.13489591615E+04  0.25500000920E-02 0. -1.
    10030    2    1    2    0    0  0.00000000000E+00  0.00000000000E+00  0.67958725341E+03  0.33775055763E+04  0.33084293982E+04 0.  0.
        2    1    3    3  502    0  0.35619189890E+02  0.88697306986E+03  0.17648016560E+04  0.19754783822E+04  0.25500000920E-02 0.  1.
       -2    1    3    3    0  502 -0.35619189890E+02 -0.88697306986E+03 -0.10852144026E+04  0.14020271941E+04  0.25500000920E-02 0. -1.
</event>
<event>
 5   0  0.3573375E-07  0.3284456E+04  0.7818609E-02  0.8166862E-01
       -3   -1    0    0    0  501  0.00000000000E+00  0.00000000000E+00  0.16322976666E+04  0.16322976697E+04  0.10100000352E+00 0. -1.
        3   -1    0    0  501    0  0.00000000000E+00  0.00000000000E+00 -0.16522190126E+04  0.16522190156E+04  0.10100000352E+00 0.  1.
    10030    2    1    2    0    0  0.00000000000E+00  0.00000000000E+00 -0.19921345939E+02  0.32845166854E+04  0.32844562711E+04 0.  0.
        5    1    3    3  502    0 -0.12563887795E+04 -0.10268685046E+04 -0.26278832096E+03  0.16437918003E+04  0.46999998093E+01 0.  1.
       -5    1    3    3    0  502  0.12563887795E+04  0.10268685046E+04  0.24286697503E+03  0.16407248851E+04  0.46999998093E+01 0. -1.
</event>
<event>
 5   0  0.3709747E-07  0.3244432E+04  0.7818609E-02  0.8177180E-01
       -1   -1    0    0    0  501  0.00000000000E+00  0.00000000000E+00  0.22928028313E+04  0.22928028313E+04  0.50400001928E-02 0. -1.
        1   -1    0    0  501    0  0.00000000000E+00  0.00000000000E+00 -0.11477587239E+04  0.11477587240E+04  0.50400001928E-02 0.  1.
    10030    2    1    2    0    0  0.00000000000E+00  0.00000000000E+00  0.11450441073E+04  0.34405615552E+04  0.32444318158E+04 0.  0.
        4    1    3    3  502    0 -0.67251249856E+03 -0.85482722130E+03  0.18488490432E+04  0.21450517561E+04  0.12699999809E+01 0. -1.
       -4    1    3    3    0  502  0.67251249856E+03  0.85482722130E+03 -0.70380493586E+03  0.12955097991E+04  0.12699999809E+01 0.  1.
</event>
<event>
 5   0  0.1126221E-06  0.2913262E+04  0.7818609E-02  0.8268942E-01
       -2   -1    0    0    0  501  0.00000000000E+00  0.00000000000E+00  0.17827121174E+04  0.17827121174E+04  0.25500000920E-02 0. -1.
        2   -1    0    0  501    0  0.00000000000E+00  0.00000000000E+00 -0.11901946021E+04  0.11901946021E+04  0.25500000920E-02 0.  1.
    10030    2    1    2    0    0  0.00000000000E+00  0.00000000000E+00  0.59251751523E+03  0.29729067195E+04  0.29132623220E+04 0.  0.
        2    1    3    3  502    0  0.63095936508E+02  0.12089251518E+04 -0.53044640397E+03  0.13216862364E+04  0.25500000920E-02 0.  1.
       -2    1    3    3    0  502 -0.63095936508E+02 -0.12089251518E+04  0.11229639192E+04  0.16512204831E+04  0.25500000920E-02 0. -1.
</event>
<event>
 5   0  0.3796529E-07  0.3332187E+04  0.7818609E-02  0.8154753E-01
       -1   -1    0    0    0  501  0.00000000000E+00  0.00000000000E+00  0.17991913183E+04  0.17991913183E+04  0.50400001928E-02 0.  1.
        1   -1    0    0  501    0  0.00000000000E+00  0.00000000000E+00 -0.15428420849E+04  0.15428420849E+04  0.50400001928E-02 0. -1.
    10030    2    1    2    0    0  0.00000000000E+00  0.00000000000E+00  0.25634923341E+03  0.33420334032E+04  0.33321873204E+04 0.  0.
        5    1    3    3  502    0  0.91128704389E+03 -0.74593689858E+03 -0.10538577934E+04  0.15803494144E+04  0.46999998093E+01 0. -1.
       -5    1    3    3    0  502 -0.91128704389E+03  0.74593689858E+03  0.13102070268E+04  0.17616839887E+04  0.46999998093E+01 0.  1.
</event>
<event>
 5   0  0.3796529E-07  0.3274151E+04  0.7818609E-02  0.8169504E-01
        1   -1    0    0  501    0  0.00000000000E+00  0.00000000000E+00  0.19795635648E+04  0.19795635648E+04  0.50400001928E-02 0. -1.
       -1   -1    0    0    0  501  0.00000000000E+00  0.00000000000E+00 -0.13538419590E+04  0.13538419590E+04  0.50400001928E-02 0.  1.
    10030    2    1    2    0    0  0.00000000000E+00  0.00000000000E+00  0.62572160579E+03  0.33334055238E+04  0.32741510133E+04 0.  0.
        5    1    3    3  502    0  0.79215531619E+03 -0.97579052491E+03  0.13808044637E+04  0.18671690471E+04  0.46999998093E+01 0. -1.
       -5    1    3    3    0  502 -0.79215531619E+03  0.97579052491E+03 -0.75508285787E+03  0.14662364767E+04  0.46999998093E+01 0.  1.
</event>
<event>
 5   0  0.3749685E-07  0.3252770E+04  0.7818609E-02  0.8175018E-01
       -1   -1    0    0    0  501  0.00000000000E+00  0.00000000000E+00  0.12779160512E+04  0.12779160512E+04  0.50400001928E-02 0.  1.
        1   -1    0    0  501    0  0.00000000000E+00  0.00000000000E+00 -0.20698761828E+04  0.20698761828E+04  0.50400001928E-02 0. -1.
    10030    2    1    2    0    0  0.00000000000E+00  0.00000000000E+00 -0.79196013154E+03  0.33477922340E+04  0.32527698953E+04 0.  0.
        3    1    3    3  502    0 -0.89730528857E+03  0.52064931853E+03  0.89316610679E+03  0.13689332337E+04  0.10100000352E+00 0.  1.
       -3    1    3    3    0  502  0.89730528857E+03 -0.52064931853E+03 -0.16851262383E+04  0.19788590003E+04  0.10100000352E+00 0. -1.
</event>
<event>
 5   0  0.3674967E-07  0.3160860E+04  0.7818609E-02  0.8199231E-01
       -1   -1    0    0    0  501  0.00000000000E+00  0.00000000000E+00  0.11803212158E+04  0.11803212158E+04  0.50400001928E-02 0. -1.
        1   -1    0    0  501    0  0.00000000000E+00  0.00000000000E+00 -0.21161688309E+04  0.21161688309E+04  0.50400001928E-02 0.  1.
    10030    2    1    2    0    0  0.00000000000E+00  0.00000000000E+00 -0.93584761513E+03  0.32964900467E+04  0.31608599889E+04 0.  0.
        2    1    3    3  502    0 -0.13646975639E+04 -0.59262299739E+03  0.88013831523E+02  0.14904186971E+04  0.25500000920E-02 0.  1.
       -2    1    3    3    0  502  0.13646975639E+04  0.59262299739E+03 -0.10238614467E+04  0.18060713496E+04  0.25500000920E-02 0. -1.
</event>
<event>
 5   0  0.1146799E-06  0.3327876E+04  0.7818609E-02  0.8155838E-01
       -2   -1    0    0    0  501  0.00000000000E+00  0.00000000000E+00  0.32371894880E+04  0.32371894880E+04  0.25500000920E-02 0. -1.
        2   -1    0    0  501    0  0.00000000000E+00  0.00000000000E+00 -0.85527594560E+03  0.85527594560E+03  0.25500000920E-02 0.  1.
    10030    2    1    2    0    0  0.00000000000E+00  0.00000000000E+00  0.23819135424E+04  0.40924654336E+04  0.33278763802E+04 0.  0.
        5    1    3    3  502    0 -0.16198931946E+04 -0.37990593419E+03  0.11701695915E+04  0.20341340771E+04  0.46999998093E+01 0.  1.
       -5    1    3    3    0  502  0.16198931946E+04  0.37990593419E+03  0.12117439508E+04  0.20583313565E+04  0.46999998093E+01 0. -1.
</event>
<event>
 5   0  0.3709747E-07  0.3333172E+04  0.7818609E-02  0.8154506E-01
        1   -1    0    0  501    0  0.00000000000E+00  0.00000000000E+00  0.23747001731E+04  0.23747001731E+04  0.50400001928E-02 0. -1.
       -1   -1    0    0    0  501  0.00000000000E+00  0.00000000000E+00 -0.11696249499E+04  0.11696249499E+04  0.50400001928E-02 0.  1.
    10030    2    1    2    0    0  0.00000000000E+00  0.00000000000E+00  0.12050752232E+04  0.35443251230E+04  0.33331718054E+04 0.  0.
        4    1    3    3  502    0 -0.71067835341E+03 -0.52338862071E+03 -0.90070387973E+03  0.12610584690E+04  0.12699999809E+01 0.  1.
       -4    1    3    3    0  502  0.71067835341E+03  0.52338862071E+03  0.21057791030E+04  0.22832666541E+04  0.12699999809E+01 0. -1.
</event>
<event>
 5   0  0.3796529E-07  0.3336085E+04  0.7818609E-02  0.8153774E-01
       -1   -1    0    0    0  501  0.00000000000E+00  0.00000000000E+00  0.10800143752E+04  0.10800143752E+04  0.50400001928E-02 0. -1.
        1   -1    0    0  501    0  0.00000000000E+00  0.00000000000E+00 -0.25762310761E+04  0.25762310761E+04  0.50400001928E-02 0.  1.
    10030    2    1    2    0    0  0.00000000000E+00  0.00000000000E+00 -0.14962167009E+04  0.36562454513E+04  0.33360854882E+04 0.  0.
        5    1    3    3  502    0 -0.12640532490E+04 -0.82869937350E+03 -0.15213461415E+04  0.21445487732E+04  0.46999998093E+01 0.  1.
       -5    1    3    3    0  502  0.12640532490E+04  0.82869937350E+03  0.25129440638E+02  0.15116966782E+04  0.46999998093E+01 0. -1.
</event>
<event>
 5   0  0.1126221E-06  0.3256076E+04  0.7818609E-02  0.8174163E-01
        2   -1    0    0  501    0  0.00000000000E+00  0.00000000000E+00  0.28175445418E+04  0.28175445418E+04  0.25500000920E-02 0. -1.
       -2   -1    0    0    0  501  0.00000000000E+00  0.00000000000E+00 -0.94071558735E+03  0.94071558735E+03  0.25500000920E-02 0.  1.
    10030    2    1    2    0    0  0.00000000000E+00  0.00000000000E+00  0.18768289545E+04  0.37582601292E+04  0.32560762083E+04 0.  0.
        2    1    3    3  502    0 -0.12112463779E+04 -0.10283263420E+03  0.21884062851E+04  0.25033606227E+04  0.25500000920E-02 0. -1.
       -2    1    3    3    0  502  0.12112463779E+04  0.10283263420E+03 -0.31157733058E+03  0.12548995065E+04  0.25500000920E-02 0.  1.
</event>
<event>
 5   0  0.3674967E-07  0.3293425E+04  0.7818609E-02  0.8164570E-01
       -1   -1    0    0    0  501  0.00000000000E+00  0.00000000000E+00  0.87600934277E+03  0.87600934278E+03  0.50400001928E-02 0. -1.
        1   -1    0    0  501    0  0.00000000000E+00  0.00000000000E+00 -0.30954718051E+04  0.30954718051E+04  0.50400001928E-02 0.  1.
    10030    2    1    2    0    0  0.00000000000E+00  0.00000000000E+00 -0.22194624624E+04  0.39714811479E+04  0.32934250996E+04 0.  0.
        2    1    3    3  502    0  0.56995908519E+03 -0.11651208193E+04  0.11369051080E+03  0.13020312648E+04  0.25500000920E-02 0. -1.
       -2    1    3    3    0  502 -0.56995908519E+03  0.11651208193E+04 -0.23331529732E+04  0.26694498831E+04  0.25500000920E-02 0.  1.
</event>
<event>
 5   0  0.1146799E-06  0.3297017E+04  0.7818609E-02  0.8163655E-01
       -2   -1    0    0    0  501  0.00000000000E+00  0.00000000000E+00  0.10001050006E+04  0.10001050006E+04  0.25500000920E-02 0. -1.
        2   -1    0    0  501    0  0.00000000000E+00  0.00000000000E+00 -0.27172945568E+04  0.27172945568E+04  0.25500000920E-02 0.  1.
    10030    2    1    2    0    0  0.00000000000E+00  0.00000000000E+00 -0.17171895562E+04  0.37173995574E+04  0.32970167572E+04 0.  0.
        5    1    3    3  502    0  0.12611166275E+03 -0.12322709463E+03 -0.27066246298E+04  0.27123657654E+04  0.46999998093E+01 0.  1.
       -5    1    3    3    0  502 -0.12611166275E+03  0.12322709463E+03  0.98943507360E+03  0.10050337921E+04  0.46999998093E+01 0. -1.
</event>
<event>
 5   0  0.3757406E-07  0.3278884E+04  0.7818609E-02  0.8168289E-01
        1   -1    0    0  501    0  0.00000000000E+00  0.00000000000E+00  0.25747217785E+04  0.25747217785E+04  0.50400001928E-02 0.  1.
       -1   -1    0    0    0  501  0.00000000000E+00  0.00000000000E+00 -0.10439068623E+04  0.10439068623E+04  0.50400001928E-02 0. -1.
    10030    2    1    2    0    0  0.00000000000E+00  0.00000000000E+00  0.15308149162E+04  0.36186286408E+04  0.32788837937E+04 0.  0.
        1    1    3    3  502    0  0.15378291802E+04 -0.55882669105E+03  0.65197701732E+03  0.17613290122E+04  0.50400001928E-02 0.  1.
       -1    1    3    3    0  502 -0.15378291802E+04  0.55882669105E+03  0.87883789886E+03  0.18572996286E+04  0.50400001928E-02 0. -1.
</event>
<event>
 5   0  0.1129434E-06  0.3298918E+04  0.7818609E-02  0.8163171E-01
        2   -1    0    0  501    0  0.00000000000E+00  0.00000000000E+00  0.27191636496E+04  0.27191636496E+04  0.25500000920E-02 0. -1.
       -2   -1    0    0    0  501  0.00000000000E+00  0.00000000000E+00 -0.10005705384E+04  0.10005705384E+04  0.25500000920E-02 0.  1.
    10030    2    1    2    0    0  0.00000000000E+00  0.00000000000E+00  0.17185931112E+04  0.37197341881E+04  0.32989180269E+04 0.  0.
        3    1    3    3  502    0 -0.55796381795E+03  0.15295464493E+04  0.11573635733E+04  0.19975801395E+04  0.10100000352E+00 0.  1.
       -3    1    3    3    0  502  0.55796381795E+03 -0.15295464493E+04  0.56122953788E+03  0.17221540486E+04  0.10100000352E+00 0. -1.
</event>
<event>
 5   0  0.1146799E-06  0.3320108E+04  0.7818609E-02  0.8157798E-01
        2   -1    0    0  501    0  0.00000000000E+00  0.00000000000E+00  0.15578656479E+04  0.15578656479E+04  0.25500000920E-02 0.  1.
       -2   -1    0    0    0  501  0.00000000000E+00  0.00000000000E+00 -0.17689456458E+04  0.17689456458E+04  0.25500000920E-02 0. -1.
    10030    2    1    2    0    0  0.00000000000E+00  0.00000000000E+00 -0.21107999786E+03  0.33268112937E+04  0.33201082239E+04 0.  0.
        5    1    3    3  502    0 -0.45991971318E+03 -0.14190717569E+04 -0.83534194799E+03  0.17097102251E+04  0.46999998093E+01 0. -1.
       -5    1    3    3    0  502  0.45991971318E+03  0.14190717569E+04  0.62426195013E+03  0.16171010686E+04  0.46999998093E+01 0.  1.
</event>
<event>
 5   0  0.3757406E-07  0.3300442E+04  0.7818609E-02  0.8162783E-01
       -1   -1    0    0    0  501  0.00000000000E+00  0.00000000000E+00  0.11649546676E+04  0.11649546676E+04  0.50400001928E-02 0. -1.
        1   -1    0    0  501    0  0.00000000000E+00  0.00000000000E+00 -0.23376265914E+04  0.23376265914E+04  0.50400001928E-02 0.  1.
    10030    2    1    2    0    0  0.00000000000E+00  0.00000000000E+00 -0.11726719238E+04  0.35025812590E+04  0.33004417939E+04 0.  0.
        1    1    3    3  502    0 -0.42348327570E+03 -0.12709630955E+04  0.43629119893E+03  0.14089128026E+04  0.50400001928E-02 0. -1.
       -1    1    3    3    0  502  0.42348327570E+03  0.12709630955E+04 -0.16089631227E+04  0.20936684564E+04  0.50400001928E-02 0.  1.
</event>
<event>
 5   0  0.1126221E-06  0.3304019E+04  0.7818609E-02  0.8161874E-01
        2   -1    0    0  501    0  0.00000000000E+00  0.00000000000E+00  0.18734049367E+04  0.18734049367E+04  0.25500000920E-02 0. -1.
       -2   -1    0    0    0  501  0.00000000000E+00  0.00000000000E+00 -0.14567777806E+04  0.14567777806E+04  0.25500000920E-02 0.  1.
    10030    2    1    2    0    0  0.00000000000E+00  0.00000000000E+00  0.41662715611E+03  0.33301827173E+04  0.33040185749E+04 0.  0.
        2    1    3    3  502    0  0.54776448054E+03 -0.94701436101E+03  0.14559578015E+04  0.18211796303E+04  0.25500000920E-02 0. -1.
       -2    1    3    3    0  502 -0.54776448054E+03  0.94701436101E+03 -0.10393306454E+04  0.15090030870E+04  0.25500000920E-02 0.  1.
</event>
<event>
 5   0  0.1146799E-06  0.3278018E+04  0.7818609E-02  0.8168511E-01
       -2   -1    0    0    0  501  0.00000000000E+00  0.00000000000E+00  0.12459388939E+04  0.12459388939E+04  0.25500000920E-02 0.  1.
        2   -1    0    0  501    0  0.00000000000E+00  0.00000000000E+00 -0.21560854610E+04  0.21560854610E+04  0.25500000920E-02 0. -1.
    10030    2    1    2    0    0  0.00000000000E+00  0.00000000000E+00 -0.91014656711E+03  0.34020243549E+04  0.32780181418E+04 0.  0.
        5    1    3    3  502    0  0.11559199087E+03 -0.68352997835E+03 -0.19964350921E+04  0.21133740574E+04  0.46999998093E+01 0. -1.
       -5    1    3    3    0  502 -0.11559199087E+03  0.68352997835E+03  0.10862885250E+04  0.12886502975E+04  0.46999998093E+01 0.  1.
</event>
<event>
 5   0  0.3709747E-07  0.3302354E+04  0.7818609E-02  0.8162297E-01
       -1   -1    0    0    0  501  0.00000000000E+00  0.00000000000E+00  0.12215028049E+04  0.12215028049E+04  0.50400001928E-02 0.  1.
        1   -1    0    0  501    0  0.00000000000E+00  0.00000000000E+00 -0.22319932143E+04  0.22319932144E+04  0.50400001928E-02 0. -1.
    10030    2    1    2    0    0  0.00000000000E+00  0.00000000000E+00 -0.10104904095E+04  0.34534960192E+04  0.33023542946E+04 0.  0.
        4    1    3    3  502    0  0.16872906548E+03  0.16425324410E+04 -0.50673947388E+03  0.17271852317E+04  0.12699999809E+01 0.  1.
       -4    1    3    3    0  502 -0.16872906548E+03 -0.16425324410E+04 -0.50375093562E+03  0.17263107876E+04  0.12699999809E+01 0. -1.
</event>
<event>
 5   0  0.1146799E-06  0.3300617E+04  0.7818609E-02  0.8162738E-01
        2   -1    0    0  501    0  0.00000000000E+00  0.00000000000E+00  0.13149824696E+04  0.13149824696E+04  0.25500000920E-02 0.  1.
       -2   -1    0    0    0  501  0.00000000000E+00  0.00000000000E+00 -0.20711446518E+04  0.20711446518E+04  0.25500000920E-02 0. -1.
    10030    2    1    2    0    0  0.00000000000E+00  0.00000000000E+00 -0.75616218223E+03  0.33861271215E+04  0.33006174630E+04 0.  0.
        5    1    3    3  502    0  0.79012916837E+03 -0.12050445048E+04  0.44715933675E+03  0.15087776257E+04  0.46999998093E+01 0.  1.
       -5    1    3    3    0  502 -0.79012916837E+03  0.12050445048E+04 -0.12033215190E+04  0.18773494958E+04  0.46999998093E+01 0. -1.
</event>
<event>
 5   0  0.3709747E-07  0.3308709E+04  0.7818609E-02  0.8160683E-01
       -1   -1    0    0    0  501  0.00000000000E+00  0.00000000000E+00  0.17511713201E+04  0.17511713201E+04  0.50400001928E-02 0. -1.
        1   -1    0    0  501    0  0.00000000000E+00  0.00000000000E+00 -0.15628908522E+04  0.15628908522E+04  0.50400001928E-02 0.  1.
    10030    2    1    2    0    0  0.00000000000E+00  0.00000000000E+00  0.18828046786E+03  0.33140621724E+04  0.33087094988E+04 0.  0.
        4    1    3    3  502    0  0.13140965380E+04  0.25300423504E+03  0.10683530042E+04  0.17123786405E+04  0.12699999809E+01 0. -1.
       -4    1    3    3    0  502 -0.13140965380E+04 -0.25300423504E+03 -0.88007253630E+03  0.16016835318E+04  0.12699999809E+01 0.  1.
</event>
<event>
 5   0  0.3796529E-07  0.3319157E+04  0.7818609E-02  0.8158038E-01
        1   -1    0    0  501    0  0.00000000000E+00  0.00000000000E+00  0.20268048181E+04  0.20268048181E+04  0.50400001928E-02 0.  1.
       -1   -1    0    0    0  501  0.00000000000E+00  0.00000000000E+00 -0.13588884094E+04  0.13588884094E+04  0.50400001928E-02 0. -1.
    10030    2    1    2    0    0  0.00000000000E+00  0.00000000000E+00  0.66791640869E+03  0.33856932275E+04  0.33191574687E+04 0.  0.
        5    1    3    3  502    0  0.39931052762E+03 -0.30778607941E+03  0.19467919664E+04  0.20110201935E+04  0.46999998093E+01 0.  1.
       -5    1    3    3    0  502 -0.39931052762E+03  0.30778607941E+03 -0.12788755578E+04  0.13746730340E+04  0.46999998093E+01 0. -1.
</event>
<event>
 5   0  0.3796529E-07  0.3317443E+04  0.7818609E-02  0.8158471E-01
        1   -1    0    0  501    0  0.00000000000E+00  0.00000000000E+00  0.29681741053E+04  0.29681741053E+04  0.50400001928E-02 0. -1.
       -1   -1    0    0    0  501  0.00000000000E+00  0.00000000000E+00 -0.92695271397E+03  0.92695271399E+03  0.50400001928E-02 0.  1.
    10030    2    1    2    0    0  0.00000000000E+00  0.00000000000E+00  0.20412213914E+04  0.38951268193E+04  0.33174430169E+04 0.  0.
        5    1    3    3  502    0  0.10047369491E+04  0.87511571983E+03 -0.13935596522E+03  0.13396887829E+04  0.46999998093E+01 0.  1.
       -5    1    3    3    0  502 -0.10047369491E+04 -0.87511571983E+03  0.21805773566E+04  0.25554380364E+04  0.46999998093E+01 0. -1.
</event>
<event>
 5   0  0.1129434E-06  0.3271042E+04  0.7818609E-02  0.8170303E-01
       -2   -1    0    0    0  501  0.00000000000E+00  0.00000000000E+00  0.12721391315E+04  0.12721391315E+04  0.25500000920E-02 0. -1.
        2   -1    0    0  501    0  0.00000000000E+00  0.00000000000E+00 -0.21027017638E+04  0.21027017638E+04  0.25500000920E-02 0.  1.
    10030    2    1    2    0    0  0.00000000000E+00  0.00000000000E+00 -0.83056263223E+03  0.33748408953E+04  0.32710421554E+04 0.  0.
        3    1    3    3  502    0 -0.24879255707E+03  0.10507592402E+04 -0.16826490302E+04  0.19993250077E+04  0.10100000352E+00 0.  1.
       -3    1    3    3    0  502  0.24879255707E+03 -0.10507592402E+04  0.85208639795E+03  0.13755158876E+04  0.10100000352E+00 0. -1.
</event>
<event>
 5   0  0.3796529E-07  0.3334855E+04  0.7818609E-02  0.8154083E-01
       -1   -1    0    0    0  501  0.00000000000E+00  0.00000000000E+00  0.31470653764E+04  0.31470653764E+04  0.50400001928E-02 0. -1.
        1   -1    0    0  501    0  0.00000000000E+00  0.00000000000E+00 -0.88346254549E+03  0.88346254550E+03  0.50400001928E-02 0.  1.
    10030    2    1    2    0    0  0.00000000000E+00  0.00000000000E+00  0.22636028309E+04  0.40305279219E+04  0.33348549524E+04 0.  0.
        5    1    3    3  502    0  0.62113755661E+03  0.43663656275E+03 -0.66241128424E+03  0.10076081340E+04  0.46999998093E+01 0.  1.
       -5    1    3    3    0  502 -0.62113755661E+03 -0.43663656275E+03  0.29260141152E+04  0.30229197880E+04  0.46999998093E+01 0. -1.
</event>
<event>
 5   0  0.3796529E-07  0.3297514E+04  0.7818609E-02  0.8163528E-01
        1   -1    0    0  501    0  0.00000000000E+00  0.00000000000E+00  0.30583411316E+04  0.30583411316E+04  0.50400001928E-02 0.  1.
       -1   -1    0    0    0  501  0.00000000000E+00  0.00000000000E+00 -0.88884799582E+03  0.88884799583E+03  0.50400001928E-02 0. -1.
    10030    2    1    2    0    0  0.00000000000E+00  0.00000000000E+00  0.21694931358E+04  0.39471891274E+04  0.32975144490E+04 0.  0.
        5    1    3    3  502    0  0.12807679492E+03  0.15984192372E+04  0.62575463545E+03  0.17213188772E+04  0.46999998093E+01 0. -1.
       -5    1    3    3    0  502 -0.12807679492E+03 -0.15984192372E+04  0.15437385003E+04  0.22258702502E+04  0.46999998093E+01 0.  1.
</event>
<event>
 5   0  0.1129434E-06  0.3320605E+04  0.7818609E-02  0.8157672E-01
       -2   -1    0    0    0  501  0.00000000000E+00  0.00000000000E+00  0.10917185058E+04  0.10917185058E+04  0.25500000920E-02 0.  1.
        2   -1    0    0  501    0  0.00000000000E+00  0.00000000000E+00 -0.25250144448E+04  0.25250144448E+04  0.25500000920E-02 0. -1.
    10030    2    1    2    0    0  0.00000000000E+00  0.00000000000E+00 -0.14332959390E+04  0.36167329505E+04  0.33206053645E+04 0.  0.
        3    1    3    3  502    0  0.13046350137E+04 -0.76561055257E+03 -0.14620577383E+04  0.21037692073E+04  0.10100000352E+00 0. -1.
       -3    1    3    3    0  502 -0.13046350137E+04  0.76561055257E+03  0.28761799307E+02  0.15129637433E+04  0.10100000352E+00 0.  1.
</event>
<event>
 5   0  0.1116462E-06  0.3312529E+04  0.7818609E-02  0.8159715E-01
       -2   -1    0    0    0  501  0.00000000000E+00  0.00000000000E+00  0.10285002854E+04  0.10285002855E+04  0.25500000920E-02 0. -1.
        2   -1    0    0  501    0  0.00000000000E+00  0.00000000000E+00 -0.26671964458E+04  0.26671964458E+04  0.25500000920E-02 0.  1.
    10030    2    1    2    0    0  0.00000000000E+00  0.00000000000E+00 -0.16386961604E+04  0.36956967313E+04  0.33125291279E+04 0.  0.
        1    1    3    3  502    0  0.87582547332E+03 -0.12852568747E+04 -0.14546514726E+04  0.21295460550E+04  0.50400001928E-02 0.  1.
       -1    1    3    3    0  502 -0.87582547332E+03  0.12852568747E+04 -0.18404468776E+03  0.15661506763E+04  0.50400001928E-02 0. -1.
</event>
<event>
 5   0  0.1120545E-06  0.3293321E+04  0.7818609E-02  0.8164597E-01
        2   -1    0    0  501    0  0.00000000000E+00  0.00000000000E+00  0.16703039304E+04  0.16703039304E+04  0.25500000920E-02 0. -1.
       -2   -1    0    0    0  501  0.00000000000E+00  0.00000000000E+00 -0.16233519608E+04  0.16233519608E+04  0.25500000920E-02 0.  1.
    10030    2    1    2    0    0  0.00000000000E+00  0.00000000000E+00  0.46951969535E+02  0.32936558912E+04  0.32933212176E+04 0.  0.
        4    1    3    3  502    0 -0.23233722261E+02  0.73020184239E+03  0.14993478115E+04  0.16678669039E+04  0.12699999809E+01 0. -1.
       -4    1    3    3    0  502  0.23233722261E+02 -0.73020184239E+03 -0.14523958420E+04  0.16257889873E+04  0.12699999809E+01 0.  1.
</event>
<event>
 5   0  0.3674967E-07  0.3310452E+04  0.7818609E-02  0.8160241E-01
        1   -1    0    0  501    0  0.00000000000E+00  0.00000000000E+00  0.19150959636E+04  0.19150959636E+04  0.50400001928E-02 0.  1.
       -1   -1    0    0    0  501  0.00000000000E+00  0.00000000000E+00 -0.14306193719E+04  0.14306193719E+04  0.50400001928E-02 0. -1.
    10030    2    1    2    0    0  0.00000000000E+00  0.00000000000E+00  0.48447659167E+03  0.33457153355E+04  0.33104521652E+04 0.  0.
        2    1    3    3  502    0 -0.19113981090E+03  0.11518799281E+04 -0.94346446288E+03  0.15011618796E+04  0.25500000920E-02 0. -1.
       -2    1    3    3    0  502  0.19113981090E+03 -0.11518799281E+04  0.14279410546E+04  0.18445534558E+04  0.25500000920E-02 0.  1.
</event>
<event>
 5   0  0.1146799E-06  0.3303054E+04  0.7818609E-02  0.8162119E-01
        2   -1    0    0  501    0  0.00000000000E+00  0.00000000000E+00  0.28384267390E+04  0.28384267390E+04  0.25500000920E-02 0.  1.
       -2   -1    0    0    0  501  0.00000000000E+00  0.00000000000E+00 -0.96093449950E+03  0.96093449951E+03  0.25500000920E-02 0. -1.
    10030    2    1    2    0    0  0.00000000000E+00  0.00000000000E+00  0.18774922395E+04  0.37993612385E+04  0.33030544518E+04 0.  0.
        5    1    3    3  502    0  0.36058921453E+02  0.75003418172E+03 -0.75321439045E+03  0.10635814626E+04  0.46999998093E+01 0. -1.
       -5    1    3    3    0  502 -0.36058921453E+02 -0.75003418172E+03  0.26307066300E+04  0.27357797760E+04  0.46999998093E+01 0.  1.
</event>
<event>
 5   0  0.3709747E-07  0.3279450E+04  0.7818609E-02  0.8168144E-01
       -1   -1    0    0    0  501  0.00000000000E+00  0.00000000000E+00  0.13937311572E+04  0.13937311572E+04  0.50400001928E-02 0.  1.
        1   -1    0    0  501    0  0.00000000000E+00  0.00000000000E+00 -0.19291372359E+04  0.19291372359E+04  0.50400001928E-02 0. -1.
    10030    2    1    2    0    0  0.00000000000E+00  0.00000000000E+00 -0.53540607869E+03  0.33228683931E+04  0.32794503639E+04 0.  0.
        4    1    3    3  502    0 -0.14552272486E+04  0.41450682236E+03 -0.90788660508E+03  0.17645854900E+04  0.12699999809E+01 0. -1.
       -4    1    3    3    0  502  0.14552272486E+04 -0.41450682236E+03  0.37248052639E+03  0.15582829032E+04  0.12699999809E+01 0.  1.
</event>
<event>
 5   0  0.1116462E-06  0.3260591E+04  0.7818609E-02  0.8172996E-01
       -2   -1    0    0    0  501  0.00000000000E+00  0.00000000000E+00  0.12735462478E+04  0.12735462478E+04  0.25500000920E-02 0.  1.
        2   -1    0    0  501    0  0.00000000000E+00  0.00000000000E+00 -0.20869777559E+04  0.20869777559E+04  0.25500000920E-02 0. -1.
    10030    2    1    2    0    0  0.00000000000E+00  0.00000000000E+00 -0.81343150809E+03  0.33605240037E+04  0.32605905540E+04 0.  0.
        1    1    3    3  502    0  0.14153971454E+04 -0.72118159499E+03 -0.78457294060E+03  0.17717242086E+04  0.50400001928E-02 0. -1.
       -1    1    3    3    0  502 -0.14153971454E+04  0.72118159499E+03 -0.28858567489E+02  0.15887997951E+04  0.50400001928E-02 0.  1.
</event>
<event>
 5   0  0.3573375E-07  0.3320072E+04  0.7818609E-02  0.8157807E-01
       -4   -1    0    0    0  501  0.00000000000E+00  0.00000000000E+00  0.17264042519E+04  0.17264047190E+04  0.12699999809E+01 0.  1.
        4   -1    0    0  501    0  0.00000000000E+00  0.00000000000E+00 -0.15962183495E+04  0.15962188547E+04  0.12699999809E+01 0. -1.
    10030    2    1    2    0    0  0.00000000000E+00  0.00000000000E+00  0.13018590241E+03  0.33226235737E+04  0.33200721443E+04 0.  0.
        3    1    3    3  502    0  0.14334704130E+04 -0.53963642800E+03 -0.57545739970E+03  0.16362139617E+04  0.10100000352E+00 0. -1.
       -3    1    3    3    0  502 -0.14334704130E+04  0.53963642800E+03  0.70564330211E+03  0.16864096120E+04  0.10100000352E+00 0.  1.
</event>
<event>
 5   0  0.1126221E-06  0.3263321E+04  0.7818609E-02  0.8172291E-01
        2   -1    0    0  501    0  0.00000000000E+00  0.00000000000E+00  0.11589968123E+04  0.11589968123E+04  0.25500000920E-02 0.  1.
       -2   -1    0    0    0  501  0.00000000000E+00  0.00000000000E+00 -0.22970871426E+04  0.22970871426E+04  0.25500000920E-02 0. -1.
    10030    2    1    2    0    0  0.00000000000E+00  0.00000000000E+00 -0.11380903302E+04  0.34560839549E+04  0.32633214220E+04 0.  0.
        2    1    3    3  502    0 -0.13507825372E+04 -0.25807862641E+03 -0.14990375647E+04  0.20342889816E+04  0.25500000920E-02 0. -1.
       -2    1    3    3    0  502  0.13507825372E+04  0.25807862641E+03  0.36094723447E+03  0.14217949733E+04  0.25500000920E-02 0.  1.
</event>
<event>
 5   0  0.3757406E-07  0.3300607E+04  0.7818609E-02  0.8162741E-01
        1   -1    0    0  501    0  0.00000000000E+00  0.00000000000E+00  0.23342186177E+04  0.23342186177E+04  0.50400001928E-02 0.  1.
       -1   -1    0    0    0  501  0.00000000000E+00  0.00000000000E+00 -0.11667726409E+04  0.11667726409E+04  0.50400001928E-02 0. -1.
    10030    2    1    2    0    0  0.00000000000E+00  0.00000000000E+00  0.11674459768E+04  0.35009912586E+04  0.33006074720E+04 0.  0.
        1    1    3    3  502    0 -0.26857847927E+03  0.13323739847E+04 -0.40913190891E+03  0.14194166948E+04  0.50400001928E-02 0. -1.
       -1    1    3    3    0  502  0.26857847927E+03 -0.13323739847E+04  0.15765778857E+04  0.20815745638E+04  0.50400001928E-02 0.  1.
</event>
<event>
 5   0  0.3709747E-07  0.3314122E+04  0.7818609E-02  0.8159311E-01
       -1   -1    0    0    0  501  0.00000000000E+00  0.00000000000E+00  0.17298804203E+04  0.17298804203E+04  0.50400001928E-02 0. -1.
        1   -1    0    0  501    0  0.00000000000E+00  0.00000000000E+00 -0.15873064696E+04  0.15873064696E+04  0.50400001928E-02 0.  1.
    10030    2    1    2    0    0  0.00000000000E+00  0.00000000000E+00  0.14257395072E+03  0.33171868899E+04  0.33141215323E+04 0.  0.
        4    1    3    3  502    0  0.12125993889E+04 -0.32130898306E+03  0.11549758050E+04  0.17051708019E+04  0.12699999809E+01 0. -1.
       -4    1    3    3    0  502 -0.12125993889E+04  0.32130898306E+03 -0.10124018543E+04  0.16120160880E+04  0.12699999809E+01 0.  1.
</event>
<event>
 5   0  0.1126221E-06  0.3327373E+04  0.7818609E-02  0.8155965E-01
       -2   -1    0    0    0  501  0.00000000000E+00  0.00000000000E+00  0.11586473561E+04  0.11586473561E+04  0.25500000920E-02 0. -1.
        2   -1    0    0  501    0  0.00000000000E+00  0.00000000000E+00 -0.23888658064E+04  0.23888658064E+04  0.25500000920E-02 0.  1.
    10030    2    1    2    0    0  0.00000000000E+00  0.00000000000E+00 -0.12302184503E+04  0.35475131625E+04  0.33273731685E+04 0.  0.
        2    1    3    3  502    0  0.28613089209E+02 -0.85527655419E+03  0.90600538346E+03  0.12462593823E+04  0.25500000920E-02 0. -1.
       -2    1    3    3    0  502 -0.28613089209E+02  0.85527655419E+03 -0.21362238338E+04  0.23012537802E+04  0.25500000920E-02 0.  1.
</event>
<event>
 5   0  0.1146799E-06  0.2968829E+04  0.7818609E-02  0.8252688E-01
       -2   -1    0    0    0  501  0.00000000000E+00  0.00000000000E+00  0.16532565002E+04  0.16532565002E+04  0.25500000920E-02 0. -1.
        2   -1    0    0  501    0  0.00000000000E+00  0.00000000000E+00 -0.13328158028E+04  0.13328158028E+04  0.25500000920E-02 0.  1.
    10030    2    1    2    0    0  0.00000000000E+00  0.00000000000E+00  0.32044069740E+03  0.29860723031E+04  0.29688289878E+04 0.  0.
        5    1    3    3  502    0 -0.21121459500E+03  0.41857943023E+03  0.15768195710E+04  0.16450539182E+04  0.46999998093E+01 0. -1.
       -5    1    3    3    0  502  0.21121459500E+03 -0.41857943023E+03 -0.12563788735E+04  0.13410183848E+04  0.46999998093E+01 0.  1.
</event>
<event>
 5   0  0.3757406E-07  0.3249493E+04  0.7818609E-02  0.8175867E-01
       -1   -1    0    0    0  501  0.00000000000E+00  0.00000000000E+00  0.21244887134E+04  0.21244887134E+04  0.50400001928E-02 0. -1.
        1   -1    0    0  501    0  0.00000000000E+00  0.00000000000E+00 -0.12425580594E+04  0.12425580594E+04  0.50400001928E-02 0.  1.
    10030    2    1    2    0    0  0.00000000000E+00  0.00000000000E+00  0.88193065398E+03  0.33670467729E+04  0.32494926207E+04 0.  0.
        1    1    3    3  502    0 -0.99228416211E+03 -0.11318394965E+03  0.17688735267E+04  0.20313424177E+04  0.50400001928E-02 0. -1.
       -1    1    3    3    0  502  0.99228416211E+03  0.11318394965E+03 -0.88694287267E+03  0.13357043551E+04  0.50400001928E-02 0.  1.
</event>
<event>
 5   0  0.3674967E-07  0.3295265E+04  0.7818609E-02  0.8164101E-01
       -1   -1    0    0    0  501  0.00000000000E+00  0.00000000000E+00  0.12071823258E+04  0.12071823258E+04  0.50400001928E-02 0. -1.
        1   -1    0    0  501    0  0.00000000000E+00  0.00000000000E+00 -0.22487850807E+04  0.22487850807E+04  0.50400001928E-02 0.  1.
    10030    2    1    2    0    0  0.00000000000E+00  0.00000000000E+00 -0.10416027549E+04  0.34559674064E+04  0.32952654545E+04 0.  0.
        2    1    3    3  502    0 -0.87327522716E+03 -0.78686274112E+03  0.69002833074E+03  0.13630486759E+04  0.25500000920E-02 0. -1.
       -2    1    3    3    0  502  0.87327522716E+03  0.78686274112E+03 -0.17316310856E+04  0.20929187305E+04  0.25500000920E-02 0.  1.
</event>
<event>
 5   0  0.1120545E-06  0.3284766E+04  0.7818609E-02  0.8166782E-01
        2   -1    0    0  501    0  0.00000000000E+00  0.00000000000E+00  0.25429368131E+04  0.25429368131E+04  0.25500000920E-02 0. -1.
       -2   -1    0    0    0  501  0.00000000000E+00  0.00000000000E+00 -0.10607508939E+04  0.10607508939E+04  0.25500000920E-02 0.  1.
    10030    2    1    2    0    0  0.00000000000E+00  0.00000000000E+00  0.14821859191E+04  0.36036877070E+04  0.32847663525E+04 0.  0.
        4    1    3    3  502    0  0.14829302377E+04 -0.65710112228E+03  0.10241273713E+04  0.19182550561E+04  0.12699999809E+01 0. -1.
       -4    1    3    3    0  502 -0.14829302377E+04  0.65710112228E+03  0.45805854787E+03  0.16854326509E+04  0.12699999809E+01 0.  1.
</event>
<event>
 5   0  0.3573375E-07  0.3300325E+04  0.7818609E-02  0.8162813E-01
        3   -1    0    0  501    0  0.00000000000E+00  0.00000000000E+00  0.14473523830E+04  0.14473523866E+04  0.10100000352E+00 0.  1.
       -3   -1    0    0    0  501  0.00000000000E+00  0.00000000000E+00 -0.18813913909E+04  0.18813913936E+04  0.10100000352E+00 0. -1.
    10030    2    1    2    0    0  0.00000000000E+00  0.00000000000E+00 -0.43403900786E+03  0.33287437802E+04  0.33003250285E+04 0.  0.
        1    1    3    3  502    0  0.47089263408E+03  0.40294706897E+03  0.13255057303E+04  0.14632401219E+04  0.50400001928E-02 0.  1.
       -1    1    3    3    0  502 -0.47089263408E+03 -0.40294706897E+03 -0.17595447382E+04  0.18655036583E+04  0.50400001928E-02 0. -1.
</event>
<event>
 5   0  0.1120545E-06  0.3295643E+04  0.7818609E-02  0.8164005E-01
        2   -1    0    0  501    0  0.00000000000E+00  0.00000000000E+00  0.14089832030E+04  0.14089832030E+04  0.25500000920E-02 0.  1.
       -2   -1    0    0    0  501  0.00000000000E+00  0.00000000000E+00 -0.19271453551E+04  0.19271453551E+04  0.25500000920E-02 0. -1.
    10030    2    1    2    0    0  0.00000000000E+00  0.00000000000E+00 -0.51816215214E+03  0.33361285581E+04  0.32956428418E+04 0.  0.
        4    1    3    3  502    0 -0.72442265072E+03 -0.11215576661E+04  0.71851234670E+03  0.15162260321E+04  0.12699999809E+01 0.  1.
       -4    1    3    3    0  502  0.72442265072E+03  0.11215576661E+04 -0.12366744988E+04  0.18199025260E+04  0.12699999809E+01 0. -1.
</event>
<event>
 5   0  0.1120545E-06  0.3309887E+04  0.7818609E-02  0.8160384E-01
        2   -1    0    0  501    0  0.00000000000E+00  0.00000000000E+00  0.23984037940E+04  0.23984037940E+04  0.25500000920E-02 0. -1.
       -2   -1    0    0    0  501  0.00000000000E+00  0.00000000000E+00 -0.11419417428E+04  0.11419417428E+04  0.25500000920E-02 0.  1.
    10030    2    1    2    0    0  0.00000000000E+00  0.00000000000E+00  0.12564620512E+04  0.35403455368E+04  0.33098866497E+04 0.  0.
        4    1    3    3  502    0  0.44205262261E+03 -0.30308211612E+03  0.23029979278E+04  0.23645444294E+04  0.12699999809E+01 0. -1.
       -4    1    3    3    0  502 -0.44205262261E+03  0.30308211612E+03 -0.10465358766E+04  0.11758011074E+04  0.12699999809E+01 0.  1.
</event>
<event>
 5   0  0.1146799E-06  0.3304259E+04  0.7818609E-02  0.8161813E-01
        2   -1    0    0  501    0  0.00000000000E+00  0.00000000000E+00  0.20038595668E+04  0.20038595668E+04  0.25500000920E-02 0.  1.
       -2   -1    0    0    0  501  0.00000000000E+00  0.00000000000E+00 -0.13621372656E+04  0.13621372656E+04  0.25500000920E-02 0. -1.
    10030    2    1    2    0    0  0.00000000000E+00  0.00000000000E+00  0.64172230123E+03  0.33659968323E+04  0.33042589432E+04 0.  0.
        5    1    3    3  502    0 -0.10305061403E+04 -0.77392392061E+03  0.13739110558E+04  0.18837608180E+04  0.46999998093E+01 0.  1.
       -5    1    3    3    0  502  0.10305061403E+04  0.77392392061E+03 -0.73218875457E+03  0.14822360144E+04  0.46999998093E+01 0. -1.
</event>
<event>
 5   0  0.3674967E-07  0.3307065E+04  0.7818609E-02  0.8161100E-01
       -1   -1    0    0    0  501  0.00000000000E+00  0.00000000000E+00  0.14998938959E+04  0.14998938959E+04  0.50400001928E-02 0. -1.
        1   -1    0    0  501    0  0.00000000000E+00  0.00000000000E+00 -0.18229089241E+04  0.18229089241E+04  0.50400001928E-02 0.  1.
    10030    2    1    2    0    0  0.00000000000E+00  0.00000000000E+00 -0.32301502821E+03  0.33228028199E+04  0.33070651448E+04 0.  0.
        2    1    3    3  502    0  0.60409996971E+03 -0.92724441609E+03 -0.13959513297E+04  0.17814036868E+04  0.25500000920E-02 0.  1.
       -2    1    3    3    0  502 -0.60409996971E+03  0.92724441609E+03  0.10729363015E+04  0.15413991331E+04  0.25500000920E-02 0. -1.
</event>
<event>
 5   0  0.3757406E-07  0.3309783E+04  0.7818609E-02  0.8160411E-01
       -1   -1    0    0    0  501  0.00000000000E+00  0.00000000000E+00  0.15277930301E+04  0.15277930301E+04  0.50400001928E-02 0.  1.
        1   -1    0    0  501    0  0.00000000000E+00  0.00000000000E+00 -0.17925634978E+04  0.17925634978E+04  0.50400001928E-02 0. -1.
    10030    2    1    2    0    0  0.00000000000E+00  0.00000000000E+00 -0.26477046774E+03  0.33203565279E+04  0.33097830853E+04 0.  0.
        1    1    3    3  502    0  0.43506398313E+03  0.89013313541E+03  0.11973863348E+04  0.15541401812E+04  0.50400001928E-02 0.  1.
       -1    1    3    3    0  502 -0.43506398313E+03 -0.89013313541E+03 -0.14621568025E+04  0.17662163467E+04  0.50400001928E-02 0. -1.
</event>
<event>
 5   0  0.3573375E-07  0.3302241E+04  0.7818609E-02  0.8162325E-01
        3   -1    0    0  501    0  0.00000000000E+00  0.00000000000E+00  0.11993441350E+04  0.11993441393E+04  0.10100000352E+00 0. -1.
       -3   -1    0    0    0  501  0.00000000000E+00  0.00000000000E+00 -0.22730745547E+04  0.22730745570E+04  0.10100000352E+00 0.  1.
    10030    2    1    2    0    0  0.00000000000E+00  0.00000000000E+00 -0.10737304197E+04  0.34724186962E+04  0.33022408434E+04 0.  0.
        2    1    3    3  502    0 -0.16377211543E+04 -0.88662880122E+02 -0.33677797612E+03  0.16743390012E+04  0.25500000920E-02 0. -1.
       -2    1    3    3    0  502  0.16377211543E+04  0.88662880122E+02 -0.73695244359E+03  0.17980796951E+04  0.25500000920E-02 0.  1.
</event>
<event>
 5   0  0.1116462E-06  0.3317807E+04  0.7818609E-02  0.8158379E-01
        2   -1    0    0  501    0  0.00000000000E+00  0.00000000000E+00  0.15484269122E+04  0.15484269122E+04  0.25500000920E-02 0. -1.
       -2   -1    0    0    0  501  0.00000000000E+00  0.00000000000E+00 -0.17772620023E+04  0.17772620023E+04  0.25500000920E-02 0.  1.
    10030    2    1    2    0    0  0.00000000000E+00  0.00000000000E+00 -0.22883509007E+03  0.33256889145E+04  0.33178066938E+04 0.  0.
        1    1    3    3  502    0  0.61236319032E+02  0.13736177619E+04 -0.10447305958E+04  0.17268577418E+04  0.50400001928E-02 0.  1.
       -1    1    3    3    0  502 -0.61236319032E+02 -0.13736177619E+04  0.81589550570E+03  0.15988311727E+04  0.50400001928E-02 0. -1.
</event>
<event>
 5   0  0.3573375E-07  0.3323630E+04  0.7818609E-02  0.8156909E-01
       -4   -1    0    0    0  501  0.00000000000E+00  0.00000000000E+00  0.13040183718E+04  0.13040189902E+04  0.12699999809E+01 0. -1.
        4   -1    0    0  501    0  0.00000000000E+00  0.00000000000E+00 -0.21177823442E+04  0.21177827250E+04  0.12699999809E+01 0.  1.
    10030    2    1    2    0    0  0.00000000000E+00  0.00000000000E+00 -0.81376397241E+03  0.34218017152E+04  0.33236298192E+04 0.  0.
        2    1    3    3  502    0  0.15215257683E+04  0.56138359725E+03 -0.33631545294E+02  0.16221354098E+04  0.25500000920E-02 0.  1.
       -2    1    3    3    0  502 -0.15215257683E+04 -0.56138359725E+03 -0.78013242712E+03  0.17996663054E+04  0.25500000920E-02 0. -1.
</event>
<event>
 5   0  0.1120545E-06  0.3316595E+04  0.7818609E-02  0.8158686E-01
        2   -1    0    0  501    0  0.00000000000E+00  0.00000000000E+00  0.20573314930E+04  0.20573314930E+04  0.25500000920E-02 0.  1.
       -2   -1    0    0    0  501  0.00000000000E+00  0.00000000000E+00 -0.13366587614E+04  0.13366587614E+04  0.25500000920E-02 0. -1.
    10030    2    1    2    0    0  0.00000000000E+00  0.00000000000E+00  0.72067273163E+03  0.33939902544E+04  0.33165947387E+04 0.  0.
        4    1    3    3  502    0 -0.93086737431E+03  0.12504983856E+04 -0.21826777203E+03  0.15741355450E+04  0.12699999809E+01 0. -1.
       -4    1    3    3    0  502  0.93086737431E+03 -0.12504983856E+04  0.93894050366E+03  0.18198547094E+04  0.12699999809E+01 0.  1.
</event>
<event>
 5   0  0.3796529E-07  0.3304339E+04  0.7818609E-02  0.8161792E-01
       -1   -1    0    0    0  501  0.00000000000E+00  0.00000000000E+00  0.20155246362E+04  0.20155246362E+04  0.50400001928E-02 0. -1.
        1   -1    0    0  501    0  0.00000000000E+00  0.00000000000E+00 -0.13543197485E+04  0.13543197485E+04  0.50400001928E-02 0.  1.
    10030    2    1    2    0    0  0.00000000000E+00  0.00000000000E+00  0.66120488769E+03  0.33698443847E+04  0.33043394610E+04 0.  0.
        5    1    3    3  502    0 -0.13425336759E+04  0.72493532320E+03 -0.31577192119E+03  0.15580955972E+04  0.46999998093E+01 0.  1.
       -5    1    3    3    0  502  0.13425336759E+04 -0.72493532320E+03  0.97697680888E+03  0.18117487875E+04  0.46999998093E+01 0. -1.
</event>
<event>
 5   0  0.3749685E-07  0.3149723E+04  0.7818609E-02  0.8202223E-01
       -1   -1    0    0    0  501  0.00000000000E+00  0.00000000000E+00  0.17208467430E+04  0.17208467430E+04  0.50400001928E-02 0.  1.
        1   -1    0    0  501    0  0.00000000000E+00  0.00000000000E+00 -0.14412611321E+04  0.14412611321E+04  0.50400001928E-02 0. -1.
    10030    2    1    2    0    0  0.00000000000E+00  0.00000000000E+00  0.27958561093E+03  0.31621078751E+04  0.31497234958E+04 0.  0.
        3    1    3    3  502    0 -0.38953612093E+03  0.12392780262E+04 -0.75401171170E+03  0.15020259942E+04  0.10100000352E+00 0. -1.
       -3    1    3    3    0  502  0.38953612093E+03 -0.12392780262E+04  0.10335973226E+04  0.16600818809E+04  0.10100000352E+00 0.  1.
</event>
<event>
 5   0  0.3674967E-07  0.3308370E+04  0.7818609E-02  0.8160769E-01
       -1   -1    0    0    0  501  0.00000000000E+00  0.00000000000E+00  0.14625607395E+04  0.14625607395E+04  0.50400001928E-02 0.  1.
        1   -1    0    0  501    0  0.00000000000E+00  0.00000000000E+00 -0.18709154481E+04  0.18709154481E+04  0.50400001928E-02 0. -1.
    10030    2    1    2    0    0  0.00000000000E+00  0.00000000000E+00 -0.40835470862E+03  0.33334761876E+04  0.33083696779E+04 0.  0.
        2    1    3    3  502    0  0.59463539077E+03 -0.14156641225E+04  0.41582251271E+03  0.15907873893E+04  0.25500000920E-02 0. -1.
       -2    1    3    3    0  502 -0.59463539077E+03  0.14156641225E+04 -0.82417722133E+03  0.17426887984E+04  0.25500000920E-02 0.  1.
</event>
<event>
 5   0  0.3674967E-07  0.3282591E+04  0.7818609E-02  0.8167339E-01
        1   -1    0    0  501    0  0.00000000000E+00  0.00000000000E+00  0.28339197131E+04  0.28339197131E+04  0.50400001928E-02 0. -1.
       -1   -1    0    0    0  501  0.00000000000E+00  0.00000000000E+00 -0.95057403198E+03  0.95057403199E+03  0.50400001928E-02 0.  1.
    10030    2    1    2    0    0  0.00000000000E+00  0.00000000000E+00  0.18833456811E+04  0.37844937451E+04  0.32825907378E+04 0.  0.
        2    1    3    3  502    0  0.10998880937E+04 -0.34535321674E+03  0.22885561960E+04  0.25625206585E+04  0.25500000920E-02 0. -1.
       -2    1    3    3    0  502 -0.10998880937E+04  0.34535321674E+03 -0.40521051485E+03  0.12219730866E+04  0.25500000920E-02 0.  1.
</event>
<event>
 5   0  0.3796529E-07  0.2980968E+04  0.7818609E-02  0.8249187E-01
        1   -1    0    0  501    0  0.00000000000E+00  0.00000000000E+00  0.17062227777E+04  0.17062227777E+04  0.50400001928E-02 0.  1.
       -1   -1    0    0    0  501  0.00000000000E+00  0.00000000000E+00 -0.13020235888E+04  0.13020235888E+04  0.50400001928E-02 0. -1.
    10030    2    1    2    0    0  0.00000000000E+00  0.00000000000E+00  0.40419918895E+03  0.30082463665E+04  0.29809678323E+04 0.  0.
        5    1    3    3  502    0  0.17266598513E+03  0.10056931128E+04 -0.89425265864E+03  0.13568132101E+04  0.46999998093E+01 0. -1.
       -5    1    3    3    0  502 -0.17266598513E+03 -0.10056931128E+04  0.12984518476E+04  0.16514331564E+04  0.46999998093E+01 0.  1.
</event>
<event>
 5   0  0.1116462E-06  0.3271591E+04  0.7818609E-02  0.8170162E-01
       -2   -1    0    0    0  501  0.00000000000E+00  0.00000000000E+00  0.12355741215E+04  0.12355741215E+04  0.25500000920E-02 0. -1.
        2   -1    0    0  501    0  0.00000000000E+00  0.00000000000E+00 -0.21656542447E+04  0.21656542447E+04  0.25500000920E-02 0.  1.
    10030    2    1    2    0    0  0.00000000000E+00  0.00000000000E+00 -0.93008012318E+03  0.34012283662E+04  0.32715906473E+04 0.  0.
        1    1    3    3  502    0  0.11170288879E+04 -0.10040862421E+04 -0.11387009013E+04  0.18848295574E+04  0.50400001928E-02 0.  1.
       -1    1    3    3    0  502 -0.11170288879E+04  0.10040862421E+04  0.20862077811E+03  0.15163988087E+04  0.50400001928E-02 0. -1.
</event>
<event>
 5   0  0.3709747E-07  0.3270321E+04  0.7818609E-02  0.8170489E-01
        1   -1    0    0  501    0  0.00000000000E+00  0.00000000000E+00  0.14884638418E+04  0.14884638418E+04  0.50400001928E-02 0.  1.
       -1   -1    0    0    0  501  0.00000000000E+00  0.00000000000E+00 -0.17963146824E+04  0.17963146824E+04  0.50400001928E-02 0. -1.
    10030    2    1    2    0    0  0.00000000000E+00  0.00000000000E+00 -0.30785084059E+03  0.32847785241E+04  0.32703207507E+04 0.  0.
        4    1    3    3  502    0  0.51078452198E+02 -0.16176968900E+04  0.79903257296E+02  0.16204747389E+04  0.12699999809E+01 0. -1.
       -4    1    3    3    0  502 -0.51078452198E+02  0.16176968900E+04 -0.38775409788E+03  0.16643037852E+04  0.12699999809E+01 0.  1.
</event>
<event>
 5   0  0.3757406E-07  0.3296835E+04  0.7818609E-02  0.8163701E-01
       -1   -1    0    0    0  501  0.00000000000E+00  0.00000000000E+00  0.27476204710E+04  0.27476204710E+04  0.50400001928E-02 0. -1.
        1   -1    0    0  501    0  0.00000000000E+00  0.00000000000E+00 -0.98895738722E+03  0.98895738723E+03  0.50400001928E-02 0.  1.
    10030    2    1    2    0    0  0.00000000000E+00  0.00000000000E+00  0.17586630838E+04  0.37365778582E+04  0.32968345801E+04 0.  0.
        1    1    3    3  502    0 -0.16426845026E+01  0.79370544857E+03  0.25167896671E+04  0.26389773144E+04  0.50400001928E-02 0. -1.
       -1    1    3    3    0  502  0.16426845026E+01 -0.79370544857E+03 -0.75812658330E+03  0.10976005438E+04  0.50400001928E-02 0.  1.
</event>
<event>
 5   0  0.1120545E-06  0.3394269E+04  0.7818609E-02  0.8139314E-01
       -2   -1    0    0    0  501  0.00000000000E+00  0.00000000000E+00  0.11812693034E+04  0.11812693034E+04  0.25500000920E-02 0. -1.
        2   -1    0    0  501    0  0.00000000000E+00  0.00000000000E+00 -0.24382794547E+04  0.24382794547E+04  0.25500000920E-02 0.  1.
    10030    2    1    2    0    0  0.00000000000E+00  0.00000000000E+00 -0.12570101513E+04  0.36195487581E+04  0.33942685061E+04 0.  0.
        4    1    3    3  502    0  0.44150400528E+03  0.11280441977E+04  0.63902073626E+03  0.13695833720E+04  0.12699999809E+01 0. -1.
       -4    1    3    3    0  502 -0.44150400528E+03 -0.11280441977E+04 -0.18960308876E+04  0.22499653860E+04  0.12699999809E+01 0.  1.
</event>
<event>
 5   0  0.3796529E-07  0.3303731E+04  0.7818609E-02  0.8161947E-01
       -1   -1    0    0    0  501  0.00000000000E+00  0.00000000000E+00  0.24133867129E+04  0.24133867129E+04  0.50400001928E-02 0. -1.
        1   -1    0    0  501    0  0.00000000000E+00  0.00000000000E+00 -0.11306347322E+04  0.11306347323E+04  0.50400001928E-02 0.  1.
    10030    2    1    2    0    0  0.00000000000E+00  0.00000000000E+00  0.12827519807E+04  0.35440214452E+04  0.33037305217E+04 0.  0.
        5    1    3    3  502    0  0.86684108742E+02  0.11485816382E+04  0.19115042670E+04  0.22317312936E+04  0.46999998093E+01 0.  1.
       -5    1    3    3    0  502 -0.86684108742E+02 -0.11485816382E+04 -0.62875228628E+03  0.13122901516E+04  0.46999998093E+01 0. -1.
</event>
<event>
 5   0  0.3573375E-07  0.3330138E+04  0.7818609E-02  0.8155269E-01
       -3   -1    0    0    0  501  0.00000000000E+00  0.00000000000E+00  0.13791957248E+04  0.13791957285E+04  0.10100000352E+00 0. -1.
        3   -1    0    0  501    0  0.00000000000E+00  0.00000000000E+00 -0.20101966247E+04  0.20101966273E+04  0.10100000352E+00 0.  1.
    10030    2    1    2    0    0  0.00000000000E+00  0.00000000000E+00 -0.63100089987E+03  0.33893923558E+04  0.33301378959E+04 0.  0.
        2    1    3    3  502    0 -0.15412621607E+04 -0.62840100548E+03 -0.36189363152E+03  0.17033331654E+04  0.25500000920E-02 0.  1.
       -2    1    3    3    0  502  0.15412621607E+04  0.62840100548E+03 -0.26910726835E+03  0.16860591904E+04  0.25500000920E-02 0. -1.
</event>
<event>
 5   0  0.3709747E-07  0.3220462E+04  0.7818609E-02  0.8183434E-01
       -1   -1    0    0    0  501  0.00000000000E+00  0.00000000000E+00  0.10733187807E+04  0.10733187807E+04  0.50400001928E-02 0. -1.
        1   -1    0    0  501    0  0.00000000000E+00  0.00000000000E+00 -0.24157252588E+04  0.24157252588E+04  0.50400001928E-02 0.  1.
    10030    2    1    2    0    0  0.00000000000E+00  0.00000000000E+00 -0.13424064780E+04  0.34890440395E+04  0.32204616373E+04 0.  0.
        4    1    3    3  502    0  0.26671953964E+03  0.87099028566E+03  0.76734397229E+03  0.11910423062E+04  0.12699999809E+01 0. -1.
       -4    1    3    3    0  502 -0.26671953964E+03 -0.87099028566E+03 -0.21097504503E+04  0.22980017333E+04  0.12699999809E+01 0.  1.
</event>
<event>
 5   0  0.1116462E-06  0.3307856E+04  0.7818609E-02  0.8160899E-01
        2   -1    0    0  501    0  0.00000000000E+00  0.00000000000E+00  0.11369397789E+04  0.11369397789E+04  0.25500000920E-02 0.  1.
       -2   -1    0    0    0  501  0.00000000000E+00  0.00000000000E+00 -0.24060010097E+04  0.24060010098E+04  0.25500000920E-02 0. -1.
    10030    2    1    2    0    0  0.00000000000E+00  0.00000000000E+00 -0.12690612308E+04  0.35429407887E+04  0.33078562581E+04 0.  0.
        1    1    3    3  502    0 -0.31150888374E+03  0.11758793381E+04 -0.18347718874E+04  0.22013899885E+04  0.50400001928E-02 0. -1.
       -1    1    3    3    0  502  0.31150888374E+03 -0.11758793381E+04  0.56571065657E+03  0.13415508002E+04  0.50400001928E-02 0.  1.
</event>
<event>
 5   0  0.3709747E-07  0.3292144E+04  0.7818609E-02  0.8164897E-01
       -1   -1    0    0    0  501  0.00000000000E+00  0.00000000000E+00  0.13947470917E+04  0.13947470918E+04  0.50400001928E-02 0.  1.
        1   -1    0    0  501    0  0.00000000000E+00  0.00000000000E+00 -0.19426845898E+04  0.19426845898E+04  0.50400001928E-02 0. -1.
    10030    2    1    2    0    0  0.00000000000E+00  0.00000000000E+00 -0.54793749802E+03  0.33374316815E+04  0.32921443965E+04 0.  0.
        4    1    3    3  502    0  0.58058651720E+03  0.15390571652E+04 -0.21168741898E+03  0.16584905300E+04  0.12699999809E+01 0.  1.
       -4    1    3    3    0  502 -0.58058651720E+03 -0.15390571652E+04 -0.33625007904E+03  0.16789411515E+04  0.12699999809E+01 0. -1.
</event>
<event>
 5   0  0.1116462E-06  0.3281605E+04  0.7818609E-02  0.8167592E-01
       -2   -1    0    0    0  501  0.00000000000E+00  0.00000000000E+00  0.28540640284E+04  0.28540640284E+04  0.25500000920E-02 0.  1.
        2   -1    0    0  501    0  0.00000000000E+00  0.00000000000E+00 -0.94329814674E+03  0.94329814674E+03  0.25500000920E-02 0. -1.
    10030    2    1    2    0    0  0.00000000000E+00  0.00000000000E+00  0.19107658817E+04  0.37973621752E+04  0.32816052832E+04 0.  0.
        1    1    3    3  502    0  0.49035209938E+03  0.11819065011E+04 -0.23311454468E+03  0.13006500489E+04  0.50400001928E-02 0. -1.
       -1    1    3    3    0  502 -0.49035209938E+03 -0.11819065011E+04  0.21438804264E+04  0.24967121263E+04  0.50400001928E-02 0.  1.
</event>
<event>
 5   0  0.1129434E-06  0.3270657E+04  0.7818609E-02  0.8170402E-01
        2   -1    0    0  501    0  0.00000000000E+00  0.00000000000E+00  0.12282262316E+04  0.12282262316E+04  0.25500000920E-02 0. -1.
       -2   -1    0    0    0  501  0.00000000000E+00  0.00000000000E+00 -0.21773672765E+04  0.21773672765E+04  0.25500000920E-02 0.  1.
    10030    2    1    2    0    0  0.00000000000E+00  0.00000000000E+00 -0.94914104499E+03  0.34055935081E+04  0.32706571846E+04 0.  0.
        3    1    3    3  502    0 -0.73013220399E+03  0.67129981683E+02 -0.19966228069E+04  0.21269936796E+04  0.10100000352E+00 0.  1.
       -3    1    3    3    0  502  0.73013220399E+03 -0.67129981683E+02  0.10474817619E+04  0.12785998285E+04  0.10100000352E+00 0. -1.
</event>
<event>
 5   0  0.1129434E-06  0.3303678E+04  0.7818609E-02  0.8161960E-01
        2   -1    0    0  501    0  0.00000000000E+00  0.00000000000E+00  0.24192018821E+04  0.24192018821E+04  0.25500000920E-02 0. -1.
       -2   -1    0    0    0  501  0.00000000000E+00  0.00000000000E+00 -0.11278813032E+04  0.11278813032E+04  0.25500000920E-02 0.  1.
    10030    2    1    2    0    0  0.00000000000E+00  0.00000000000E+00  0.12913205789E+04  0.35470831853E+04  0.33036782964E+04 0.  0.
        3    1    3    3  502    0 -0.15307749822E+04  0.45413703369E+03  0.19132863327E+03  0.16081415198E+04  0.10100000352E+00 0. -1.
       -3    1    3    3    0  502  0.15307749822E+04 -0.45413703369E+03  0.10999919456E+04  0.19389416655E+04  0.10100000352E+00 0.  1.
</event>
<event>
 5   0  0.3757406E-07  0.3284647E+04  0.7818609E-02  0.8166813E-01
        1   -1    0    0  501    0  0.00000000000E+00  0.00000000000E+00  0.25533787292E+04  0.25533787293E+04  0.50400001928E-02 0. -1.
       -1   -1    0    0    0  501  0.00000000000E+00  0.00000000000E+00 -0.10563364717E+04  0.10563364717E+04  0.50400001928E-02 0.  1.
    10030    2    1    2    0    0  0.00000000000E+00  0.00000000000E+00  0.14970422575E+04  0.36097152010E+04  0.32846473649E+04 0.  0.
        1    1    3    3  502    0  0.15686284140E+04 -0.45620251465E+03  0.56295775633E+03  0.17278996704E+04  0.50400001928E-02 0.  1.
       -1    1    3    3    0  502 -0.15686284140E+04  0.45620251465E+03  0.93408450118E+03  0.18818155306E+04  0.50400001928E-02 0. -1.
</event>
<event>
 5   0  0.3796529E-07  0.3283952E+04  0.7818609E-02  0.8166991E-01
        1   -1    0    0  501    0  0.00000000000E+00  0.00000000000E+00  0.18752378269E+04  0.18752378269E+04  0.50400001928E-02 0. -1.
       -1   -1    0    0    0  501  0.00000000000E+00  0.00000000000E+00 -0.14377295069E+04  0.14377295069E+04  0.50400001928E-02 0.  1.
    10030    2    1    2    0    0  0.00000000000E+00  0.00000000000E+00  0.43750831998E+03  0.33129673339E+04  0.32839517392E+04 0.  0.
        5    1    3    3  502    0  0.49411051668E+03 -0.14207047670E+04  0.88299055336E+03  0.17442022947E+04  0.46999998093E+01 0. -1.
       -5    1    3    3    0  502 -0.49411051668E+03  0.14207047670E+04 -0.44548223338E+03  0.15687650391E+04  0.46999998093E+01 0.  1.
</event>
<event>
 5   0  0.1129434E-06  0.3293752E+04  0.7818609E-02  0.8164487E-01
        2   -1    0    0  501    0  0.00000000000E+00  0.00000000000E+00  0.15163201719E+04  0.15163201720E+04  0.25500000920E-02 0.  1.
       -2   -1    0    0    0  501  0.00000000000E+00  0.00000000000E+00 -0.17886727938E+04  0.17886727938E+04  0.25500000920E-02 0. -1.
    10030    2    1    2    0    0  0.00000000000E+00  0.00000000000E+00 -0.27235262186E+03  0.33049929658E+04  0.32937520479E+04 0.  0.
        3    1    3    3  502    0  0.14751015367E+04 -0.28459156283E+03 -0.81322624585E+03  0.17082897408E+04  0.10100000352E+00 0. -1.
       -3    1    3    3    0  502 -0.14751015367E+04  0.28459156283E+03  0.54087362399E+03  0.15967032250E+04  0.10100000352E+00 0.  1.
</event>
<event>
 5   0  0.3796529E-07  0.3287754E+04  0.7818609E-02  0.8166018E-01
       -1   -1    0    0    0  501  0.00000000000E+00  0.00000000000E+00  0.17409902944E+04  0.17409902944E+04  0.50400001928E-02 0.  1.
        1   -1    0    0  501    0  0.00000000000E+00  0.00000000000E+00 -0.15521807147E+04  0.15521807147E+04  0.50400001928E-02 0. -1.
    10030    2    1    2    0    0  0.00000000000E+00  0.00000000000E+00  0.18880957974E+03  0.32931710091E+04  0.32877539807E+04 0.  0.
        5    1    3    3  502    0 -0.10780073766E+04 -0.68107442142E+03 -0.94477612843E+03  0.15870054488E+04  0.46999998093E+01 0. -1.
       -5    1    3    3    0  502  0.10780073766E+04  0.68107442142E+03  0.11335857082E+04  0.17061655603E+04  0.46999998093E+01 0.  1.
</event>
<event>
 5   0  0.1126221E-06  0.3293865E+04  0.7818609E-02  0.8164458E-01
       -2   -1    0    0    0  501  0.00000000000E+00  0.00000000000E+00  0.14510828248E+04  0.14510828248E+04  0.25500000920E-02 0.  1.
        2   -1    0    0  501    0  0.00000000000E+00  0.00000000000E+00 -0.18692152843E+04  0.18692152843E+04  0.25500000920E-02 0. -1.
    10030    2    1    2    0    0  0.00000000000E+00  0.00000000000E+00 -0.41813245949E+03  0.33202981092E+04  0.32938647180E+04 0.  0.
        2    1    3    3  502    0 -0.66345600702E+03  0.14069769474E+04  0.33622611573E+03  0.15914791876E+04  0.25500000920E-02 0.  1.
       -2    1    3    3    0  502  0.66345600702E+03 -0.14069769474E+04 -0.75435857522E+03  0.17288189216E+04  0.25500000920E-02 0. -1.
</event>
<event>
 5   0  0.3749685E-07  0.3262521E+04  0.7818609E-02  0.8172498E-01
       -1   -1    0    0    0  501  0.00000000000E+00  0.00000000000E+00  0.13211021029E+04  0.13211021029E+04  0.50400001928E-02 0.  1.
        1   -1    0    0  501    0  0.00000000000E+00  0.00000000000E+00 -0.20142350026E+04  0.20142350026E+04  0.50400001928E-02 0. -1.
    10030    2    1    2    0    0  0.00000000000E+00  0.00000000000E+00 -0.69313289968E+03  0.33353371055E+04  0.32625205579E+04 0.  0.
        3    1    3    3  502    0 -0.38440226167E+03  0.10349015930E+04  0.88116332727E+03  0.14125279557E+04  0.10100000352E+00 0.  1.
       -3    1    3    3    0  502  0.38440226167E+03 -0.10349015930E+04 -0.15742962269E+04  0.19228091498E+04  0.10100000352E+00 0. -1.
</event>
<event>
 5   0  0.3749685E-07  0.3197163E+04  0.7818609E-02  0.8189567E-01
       -1   -1    0    0    0  501  0.00000000000E+00  0.00000000000E+00  0.14237620411E+04  0.14237620412E+04  0.50400001928E-02 0.  1.
        1   -1    0    0  501    0  0.00000000000E+00  0.00000000000E+00 -0.17948668412E+04  0.17948668412E+04  0.50400001928E-02 0. -1.
    10030    2    1    2    0    0  0.00000000000E+00  0.00000000000E+00 -0.37110480003E+03  0.32186288823E+04  0.31971632911E+04 0.  0.
        3    1    3    3  502    0  0.11731869128E+04  0.31304765304E+03 -0.12322913805E+04  0.17300024342E+04  0.10100000352E+00 0. -1.
       -3    1    3    3    0  502 -0.11731869128E+04 -0.31304765304E+03  0.86118658049E+03  0.14886264482E+04  0.10100000352E+00 0.  1.
</event>
<event>
 5   0  0.3709747E-07  0.3296868E+04  0.7818609E-02  0.8163693E-01
       -1   -1    0    0    0  501  0.00000000000E+00  0.00000000000E+00  0.12737781996E+04  0.12737781997E+04  0.50400001928E-02 0. -1.
        1   -1    0    0  501    0  0.00000000000E+00  0.00000000000E+00 -0.21332869150E+04  0.21332869150E+04  0.50400001928E-02 0.  1.
    10030    2    1    2    0    0  0.00000000000E+00  0.00000000000E+00 -0.85950871531E+03  0.34070651146E+04  0.32968678262E+04 0.  0.
        4    1    3    3  502    0  0.50430765518E+02  0.51877367953E+03  0.11863791550E+04  0.12958265721E+04  0.12699999809E+01 0. -1.
       -4    1    3    3    0  502 -0.50430765518E+02 -0.51877367953E+03 -0.20458878703E+04  0.21112385425E+04  0.12699999809E+01 0.  1.
</event>
<event>
 5   0  0.1120545E-06  0.3275729E+04  0.7818609E-02  0.8169099E-01
        2   -1    0    0  501    0  0.00000000000E+00  0.00000000000E+00  0.14830704681E+04  0.14830704681E+04  0.25500000920E-02 0. -1.
       -2   -1    0    0    0  501  0.00000000000E+00  0.00000000000E+00 -0.18088145236E+04  0.18088145236E+04  0.25500000920E-02 0.  1.
    10030    2    1    2    0    0  0.00000000000E+00  0.00000000000E+00 -0.32574405549E+03  0.32918849917E+04  0.32757285616E+04 0.  0.
        4    1    3    3  502    0  0.75288969883E+03 -0.13856826084E+04 -0.60736409971E+03  0.16899266115E+04  0.12699999809E+01 0.  1.
       -4    1    3    3    0  502 -0.75288969883E+03  0.13856826084E+04  0.28162004422E+03  0.16019583802E+04  0.12699999809E+01 0. -1.
</event>
<event>
 5   0  0.3749685E-07  0.3310667E+04  0.7818609E-02  0.8160186E-01
       -1   -1    0    0    0  501  0.00000000000E+00  0.00000000000E+00  0.11326696707E+04  0.11326696707E+04  0.50400001928E-02 0.  1.
        1   -1    0    0  501    0  0.00000000000E+00  0.00000000000E+00 -0.24191780758E+04  0.24191780758E+04  0.50400001928E-02 0. -1.
    10030    2    1    2    0    0  0.00000000000E+00  0.00000000000E+00 -0.12865084051E+04  0.35518477466E+04  0.33106673856E+04 0.  0.
        3    1    3    3  502    0  0.85043705077E+03  0.10747270515E+04  0.35273397418E+03  0.14151687812E+04  0.10100000352E+00 0.  1.
       -3    1    3    3    0  502 -0.85043705077E+03 -0.10747270515E+04 -0.16392423793E+04  0.21366789653E+04  0.10100000352E+00 0. -1.
</event>
<event>
 5   0  0.3796529E-07  0.3284559E+04  0.7818609E-02  0.8166835E-01
        1   -1    0    0  501    0  0.00000000000E+00  0.00000000000E+00  0.13229820154E+04  0.13229820154E+04  0.50400001928E-02 0.  1.
       -1   -1    0    0    0  501  0.00000000000E+00  0.00000000000E+00 -0.20386384445E+04  0.20386384445E+04  0.50400001928E-02 0. -1.
    10030    2    1    2    0    0  0.00000000000E+00  0.00000000000E+00 -0.71565642911E+03  0.33616204600E+04  0.32845590256E+04 0.  0.
        5    1    3    3  502    0  0.40783018500E+02  0.77514765559E+01  0.13224380551E+04  0.13230978193E+04  0.46999998093E+01 0.  1.
       -5    1    3    3    0  502 -0.40783018500E+02 -0.77514765559E+01 -0.20380944842E+04  0.20385226407E+04  0.46999998093E+01 0. -1.
</event>
<event>
 5   0  0.3709747E-07  0.3306264E+04  0.7818609E-02  0.8161303E-01
        1   -1    0    0  501    0  0.00000000000E+00  0.00000000000E+00  0.26587876071E+04  0.26587876071E+04  0.50400001928E-02 0. -1.
       -1   -1    0    0    0  501  0.00000000000E+00  0.00000000000E+00 -0.10278539717E+04  0.10278539717E+04  0.50400001928E-02 0.  1.
    10030    2    1    2    0    0  0.00000000000E+00  0.00000000000E+00  0.16309336354E+04  0.36866415788E+04  0.33062639954E+04 0.  0.
        4    1    3    3  502    0  0.13915720336E+04 -0.79679739157E+03  0.36738279606E+03  0.16450928665E+04  0.12699999809E+01 0.  1.
       -4    1    3    3    0  502 -0.13915720336E+04  0.79679739157E+03  0.12635508394E+04  0.20415487122E+04  0.12699999809E+01 0. -1.
</event>
<event>
 5   0  0.1126221E-06  0.3335315E+04  0.7818609E-02  0.8153967E-01
        2   -1    0    0  501    0  0.00000000000E+00  0.00000000000E+00  0.10332043832E+04  0.10332043832E+04  0.25500000920E-02 0. -1.
       -2   -1    0    0    0  501  0.00000000000E+00  0.00000000000E+00 -0.26917044520E+04  0.26917044520E+04  0.25500000920E-02 0.  1.
    10030    2    1    2    0    0  0.00000000000E+00  0.00000000000E+00 -0.16585000687E+04  0.37249088352E+04  0.33353145807E+04 0.  0.
        2    1    3    3  502    0 -0.41425267140E+03  0.48397994621E+02 -0.26325187813E+04  0.26653522798E+04  0.25500000920E-02 0.  1.
       -2    1    3    3    0  502  0.41425267140E+03 -0.48397994621E+02  0.97401871256E+03  0.10595565554E+04  0.25500000920E-02 0. -1.
</event>
<event>
 5   0  0.1120545E-06  0.3246115E+04  0.7818609E-02  0.8176744E-01
       -2   -1    0    0    0  501  0.00000000000E+00  0.00000000000E+00  0.10081630286E+04  0.10081630286E+04  0.25500000920E-02 0. -1.
        2   -1    0    0  501    0  0.00000000000E+00  0.00000000000E+00 -0.26129849879E+04  0.26129849879E+04  0.25500000920E-02 0.  1.
    10030    2    1    2    0    0  0.00000000000E+00  0.00000000000E+00 -0.16048219593E+04  0.36211480164E+04  0.32461145137E+04 0.  0.
        4    1    3    3  502    0  0.10758423681E+04 -0.65684508831E+03  0.33818049885E+03  0.13050861787E+04  0.12699999809E+01 0. -1.
       -4    1    3    3    0  502 -0.10758423681E+04  0.65684508831E+03 -0.19430024581E+04  0.23160618378E+04  0.12699999809E+01 0.  1.
</event>
<event>
 5   0  0.1120545E-06  0.3293730E+04  0.7818609E-02  0.8164493E-01
        2   -1    0    0  501    0  0.00000000000E+00  0.00000000000E+00  0.21621279986E+04  0.21621279986E+04  0.25500000920E-02 0.  1.
       -2   -1    0    0    0  501  0.00000000000E+00  0.00000000000E+00 -0.12543959677E+04  0.12543959677E+04  0.25500000920E-02 0. -1.
    10030    2    1    2    0    0  0.00000000000E+00  0.00000000000E+00  0.90773203093E+03  0.34165239663E+04  0.32937301912E+04 0.  0.
        4    1    3    3  502    0 -0.90709867493E+03  0.13599700756E+04  0.66084561513E+03  0.17632541372E+04  0.12699999809E+01 0. -1.
       -4    1    3    3    0  502  0.90709867493E+03 -0.13599700756E+04  0.24688641580E+03  0.16532698291E+04  0.12699999809E+01 0.  1.
</event>
<event>
 5   0  0.3709747E-07  0.3489915E+04  0.7818609E-02  0.8116184E-01
       -1   -1    0    0    0  501  0.00000000000E+00  0.00000000000E+00  0.13566512915E+04  0.13566512915E+04  0.50400001928E-02 0.  1.
        1   -1    0    0  501    0  0.00000000000E+00  0.00000000000E+00 -0.22444057471E+04  0.22444057471E+04  0.50400001928E-02 0. -1.
    10030    2    1    2    0    0  0.00000000000E+00  0.00000000000E+00 -0.88775445554E+03  0.36010570386E+04  0.34899145866E+04 0.  0.
        4    1    3    3  502    0 -0.12001090027E+04 -0.52443506749E+03 -0.16336733103E+04  0.20938442769E+04  0.12699999809E+01 0. -1.
       -4    1    3    3    0  502  0.12001090027E+04  0.52443506749E+03  0.74591885476E+03  0.15072127617E+04  0.12699999809E+01 0.  1.
</event>
<event>
 5   0  0.1126221E-06  0.3289077E+04  0.7818609E-02  0.8165680E-01
       -2   -1    0    0    0  501  0.00000000000E+00  0.00000000000E+00  0.17469830126E+04  0.17469830126E+04  0.25500000920E-02 0. -1.
        2   -1    0    0  501    0  0.00000000000E+00  0.00000000000E+00 -0.15481015529E+04  0.15481015529E+04  0.25500000920E-02 0.  1.
    10030    2    1    2    0    0  0.00000000000E+00  0.00000000000E+00  0.19888145977E+03  0.32950845655E+04  0.32890771439E+04 0.  0.
        2    1    3    3  502    0  0.15910806980E+04  0.40928120902E+03  0.17345543156E+03  0.16520095890E+04  0.25500000920E-02 0. -1.
       -2    1    3    3    0  502 -0.15910806980E+04 -0.40928120902E+03  0.25426028210E+02  0.16430749765E+04  0.25500000920E-02 0.  1.
</event>
<event>
 5   0  0.1120545E-06  0.3303290E+04  0.7818609E-02  0.8162059E-01
        2   -1    0    0  501    0  0.00000000000E+00  0.00000000000E+00  0.23720083514E+04  0.23720083514E+04  0.25500000920E-02 0. -1.
       -2   -1    0    0    0  501  0.00000000000E+00  0.00000000000E+00 -0.11500513690E+04  0.11500513690E+04  0.25500000920E-02 0.  1.
    10030    2    1    2    0    0  0.00000000000E+00  0.00000000000E+00  0.12219569824E+04  0.35220597205E+04  0.33032901489E+04 0.  0.
        4    1    3    3  502    0 -0.10974704022E+04  0.12300216932E+04  0.50153972991E+03  0.17230607543E+04  0.12699999809E+01 0. -1.
       -4    1    3    3    0  502  0.10974704022E+04 -0.12300216932E+04  0.72041725250E+03  0.17989989661E+04  0.12699999809E+01 0.  1.
</event>
<event>
 5   0  0.1146799E-06  0.3265617E+04  0.7818609E-02  0.8171700E-01
        2   -1    0    0  501    0  0.00000000000E+00  0.00000000000E+00  0.20606321943E+04  0.20606321943E+04  0.25500000920E-02 0.  1.
       -2   -1    0    0    0  501  0.00000000000E+00  0.00000000000E+00 -0.12938085175E+04  0.12938085175E+04  0.25500000920E-02 0. -1.
    10030    2    1    2    0    0  0.00000000000E+00  0.00000000000E+00  0.76682367672E+03  0.33544407118E+04  0.32656169307E+04 0.  0.
        5    1    3    3  502    0  0.12530793094E+04  0.10457712882E+04  0.33527515689E+03  0.16662163316E+04  0.46999998093E+01 0. -1.
       -5    1    3    3    0  502 -0.12530793094E+04 -0.10457712882E+04  0.43154851982E+03  0.16882243802E+04  0.46999998093E+01 0.  1.
</event>
<event>
 5   0  0.3674967E-07  0.3283346E+04  0.7818609E-02  0.8167146E-01
       -1   -1    0    0    0  501  0.00000000000E+00  0.00000000000E+00  0.17380898577E+04  0.17380898577E+04  0.50400001928E-02 0.  1.
        1   -1    0    0  501    0  0.00000000000E+00  0.00000000000E+00 -0.15506045122E+04  0.15506045122E+04  0.50400001928E-02 0. -1.
    10030    2    1    2    0    0  0.00000000000E+00  0.00000000000E+00  0.18748534548E+03  0.32886943700E+04  0.32833458399E+04 0.  0.
        2    1    3    3  502    0 -0.16165395638E+03 -0.12026614578E+04 -0.10137543783E+04  0.15812098290E+04  0.25500000920E-02 0. -1.
       -2    1    3    3    0  502  0.16165395638E+03  0.12026614578E+04  0.12012397238E+04  0.17074845410E+04  0.25500000920E-02 0.  1.
</event>
<event>
 5   0  0.1146799E-06  0.3287606E+04  0.7818609E-02  0.8166056E-01
       -2   -1    0    0    0  501  0.00000000000E+00  0.00000000000E+00  0.19971182276E+04  0.19971182276E+04  0.25500000920E-02 0. -1.
        2   -1    0    0  501    0  0.00000000000E+00  0.00000000000E+00 -0.13529936929E+04  0.13529936929E+04  0.25500000920E-02 0.  1.
    10030    2    1    2    0    0  0.00000000000E+00  0.00000000000E+00  0.64412453469E+03  0.33501119205E+04  0.32876060384E+04 0.  0.
        5    1    3    3  502    0  0.79642930809E+03 -0.13934376709E+04 -0.39792086064E+02  0.16054823841E+04  0.46999998093E+01 0.  1.
       -5    1    3    3    0  502 -0.79642930809E+03  0.13934376709E+04  0.68391662075E+03  0.17446295365E+04  0.46999998093E+01 0. -1.
</event>
<event>
 5   0  0.3573375E-07  0.3303353E+04  0.7818609E-02  0.8162043E-01
       -3   -1    0    0    0  501  0.00000000000E+00  0.00000000000E+00  0.17168220796E+04  0.17168220826E+04  0.10100000352E+00 0. -1.
        3   -1    0    0  501    0  0.00000000000E+00  0.00000000000E+00 -0.15890031036E+04  0.15890031068E+04  0.10100000352E+00 0.  1.
    10030    2    1    2    0    0  0.00000000000E+00  0.00000000000E+00  0.12781897605E+03  0.33058251894E+04  0.33033532194E+04 0.  0.
        4    1    3    3  502    0 -0.10051777262E+04 -0.45304640881E+03 -0.11668078114E+04  0.16053271914E+04  0.12699999809E+01 0.  1.
       -4    1    3    3    0  502  0.10051777262E+04  0.45304640881E+03  0.12946267874E+04  0.17004979980E+04  0.12699999809E+01 0. -1.
</event>
<event>
 5   0  0.3674967E-07  0.3298052E+04  0.7818609E-02  0.8163391E-01
        1   -1    0    0  501    0  0.00000000000E+00  0.00000000000E+00  0.22558279925E+04  0.22558279925E+04  0.50400001928E-02 0.  1.
       -1   -1    0    0    0  501  0.00000000000E+00  0.00000000000E+00 -0.12054497491E+04  0.12054497491E+04  0.50400001928E-02 0. -1.
    10030    2    1    2    0    0  0.00000000000E+00  0.00000000000E+00  0.10503782434E+04  0.34612777417E+04  0.32980523269E+04 0.  0.
        2    1    3    3  502    0 -0.47072337902E+03  0.69353850974E+03 -0.96520371515E+03  0.12783561224E+04  0.25500000920E-02 0. -1.
       -2    1    3    3    0  502  0.47072337902E+03 -0.69353850974E+03  0.20155819586E+04  0.21829216192E+04  0.25500000920E-02 0.  1.
</event>
<event>
 5   0  0.1116462E-06  0.3278457E+04  0.7818609E-02  0.8168399E-01
        2   -1    0    0  501    0  0.00000000000E+00  0.00000000000E+00  0.20990579157E+04  0.20990579157E+04  0.25500000920E-02 0. -1.
       -2   -1    0    0    0  501  0.00000000000E+00  0.00000000000E+00 -0.12801315791E+04  0.12801315791E+04  0.25500000920E-02 0.  1.
    10030    2    1    2    0    0  0.00000000000E+00  0.00000000000E+00  0.81892633664E+03  0.33791894948E+04  0.32784571520E+04 0.  0.
        1    1    3    3  502    0 -0.43327193446E+03  0.41019170075E+03  0.19831648813E+04  0.20709719329E+04  0.50400001928E-02 0. -1.
       -1    1    3    3    0  502  0.43327193446E+03 -0.41019170075E+03 -0.11642385446E+04  0.13082175619E+04  0.50400001928E-02 0.  1.
</event>
<event>
 5   0  0.3709747E-07  0.3311940E+04  0.7818609E-02  0.8159864E-01
        1   -1    0    0  501    0  0.00000000000E+00  0.00000000000E+00  0.11317947986E+04  0.11317947986E+04  0.50400001928E-02 0. -1.
       -1   -1    0    0    0  501  0.00000000000E+00  0.00000000000E+00 -0.24229094526E+04  0.24229094526E+04  0.50400001928E-02 0.  1.
    10030    2    1    2    0    0  0.00000000000E+00  0.00000000000E+00 -0.12911146540E+04  0.35547042511E+04  0.33119398037E+04 0.  0.
        4    1    3    3  502    0  0.16108891710E+04 -0.13091511508E+03 -0.25837714896E+03  0.16367232669E+04  0.12699999809E+01 0. -1.
       -4    1    3    3    0  502 -0.16108891710E+04  0.13091511508E+03 -0.10327375050E+04  0.19179809842E+04  0.12699999809E+01 0.  1.
</event>
<event>
 5   0  0.1129434E-06  0.3304355E+04  0.7818609E-02  0.8161788E-01
       -2   -1    0    0    0  501  0.00000000000E+00  0.00000000000E+00  0.11456804129E+04  0.11456804129E+04  0.25500000920E-02 0. -1.
        2   -1    0    0  501    0  0.00000000000E+00  0.00000000000E+00 -0.23825935282E+04  0.23825935282E+04  0.25500000920E-02 0.  1.
    10030    2    1    2    0    0  0.00000000000E+00  0.00000000000E+00 -0.12369131153E+04  0.35282739410E+04  0.33043551486E+04 0.  0.
        3    1    3    3  502    0  0.15683720232E+04 -0.25866630922E+03 -0.10995336533E+04  0.19327890024E+04  0.10100000352E+00 0.  1.
       -3    1    3    3    0  502 -0.15683720232E+04  0.25866630922E+03 -0.13737946200E+03  0.15954849387E+04  0.10100000352E+00 0. -1.
</event>
<event>
 5   0  0.3796529E-07  0.3200873E+04  0.7818609E-02  0.8188587E-01
        1   -1    0    0  501    0  0.00000000000E+00  0.00000000000E+00  0.95040290398E+03  0.95040290399E+03  0.50400001928E-02 0. -1.
       -1   -1    0    0    0  501  0.00000000000E+00  0.00000000000E+00 -0.26950637945E+04  0.26950637945E+04  0.50400001928E-02 0.  1.
    10030    2    1    2    0    0  0.00000000000E+00  0.00000000000E+00 -0.17446608906E+04  0.36454666985E+04  0.32008726665E+04 0.  0.
        5    1    3    3  502    0  0.38819724210E+02 -0.15958981327E+04 -0.74259331427E+03  0.17606432749E+04  0.46999998093E+01 0. -1.
       -5    1    3    3    0  502 -0.38819724210E+02  0.15958981327E+04 -0.10020675763E+04  0.18848234237E+04  0.46999998093E+01 0.  1.
</event>
<event>
 5   0  0.3749685E-07  0.3240040E+04  0.7818609E-02  0.8178322E-01
       -1   -1    0    0    0  501  0.00000000000E+00  0.00000000000E+00  0.86901965837E+03  0.86901965839E+03  0.50400001928E-02 0.  1.
        1   -1    0    0  501    0  0.00000000000E+00  0.00000000000E+00 -0.30200295221E+04  0.30200295221E+04  0.50400001928E-02 0. -1.
    10030    2    1    2    0    0  0.00000000000E+00  0.00000000000E+00 -0.21510098637E+04  0.38890491805E+04  0.32400401378E+04 0.  0.
        3    1    3    3  502    0  0.12737594537E+03 -0.82640810601E+03 -0.27409914642E+04  0.28656952396E+04  0.10100000352E+00 0. -1.
       -3    1    3    3    0  502 -0.12737594537E+03  0.82640810601E+03  0.58998160052E+03  0.10233539409E+04  0.10100000352E+00 0.  1.
</event>
<event>
 5   0  0.1126221E-06  0.3305155E+04  0.7818609E-02  0.8161585E-01
       -2   -1    0    0    0  501  0.00000000000E+00  0.00000000000E+00  0.12789497530E+04  0.12789497531E+04  0.25500000920E-02 0.  1.
        2   -1    0    0  501    0  0.00000000000E+00  0.00000000000E+00 -0.21353560669E+04  0.21353560669E+04  0.25500000920E-02 0. -1.
    10030    2    1    2    0    0  0.00000000000E+00  0.00000000000E+00 -0.85640631388E+03  0.34143058200E+04  0.33051554363E+04 0.  0.
        2    1    3    3  502    0  0.14110818774E+04  0.14648528306E+03 -0.13037807364E+04  0.19267730046E+04  0.25500000920E-02 0. -1.
       -2    1    3    3    0  502 -0.14110818774E+04 -0.14648528306E+03  0.44737442248E+03  0.14875328154E+04  0.25500000920E-02 0.  1.
</event>
<event>
 5   0  0.1146799E-06  0.3288140E+04  0.7818609E-02  0.8165920E-01
       -2   -1    0    0    0  501  0.00000000000E+00  0.00000000000E+00  0.14165247168E+04  0.14165247168E+04  0.25500000920E-02 0.  1.
        2   -1    0    0  501    0  0.00000000000E+00  0.00000000000E+00 -0.19081677139E+04  0.19081677139E+04  0.25500000920E-02 0. -1.
    10030    2    1    2    0    0  0.00000000000E+00  0.00000000000E+00 -0.49164299715E+03  0.33246924307E+04  0.32881403440E+04 0.  0.
        5    1    3    3  502    0 -0.79487636417E+02  0.11243824787E+04  0.96430794923E+03  0.14833968295E+04  0.46999998093E+01 0. -1.
       -5    1    3    3    0  502  0.79487636417E+02 -0.11243824787E+04 -0.14559509464E+04  0.18412956012E+04  0.46999998093E+01 0.  1.
</event>
<event>
 5   0  0.3709747E-07  0.3380109E+04  0.7818609E-02  0.8142805E-01
       -1   -1    0    0    0  501  0.00000000000E+00  0.00000000000E+00  0.17757095720E+04  0.17757095720E+04  0.50400001928E-02 0.  1.
        1   -1    0    0  501    0  0.00000000000E+00  0.00000000000E+00 -0.16085314528E+04  0.16085314528E+04  0.50400001928E-02 0. -1.
    10030    2    1    2    0    0  0.00000000000E+00  0.00000000000E+00  0.16717811918E+03  0.33842410247E+04  0.33801092867E+04 0.  0.
        4    1    3    3  502    0  0.11546755036E+04 -0.11586148524E+04 -0.34192360288E+03  0.16711006128E+04  0.12699999809E+01 0. -1.
       -4    1    3    3    0  502 -0.11546755036E+04  0.11586148524E+04  0.50910172206E+03  0.17131404120E+04  0.12699999809E+01 0.  1.
</event>
<event>
 5   0  0.1120545E-06  0.3327069E+04  0.7818609E-02  0.8156042E-01
       -2   -1    0    0    0  501  0.00000000000E+00  0.00000000000E+00  0.88755379048E+03  0.88755379049E+03  0.25500000920E-02 0.  1.
        2   -1    0    0  501    0  0.00000000000E+00  0.00000000000E+00 -0.31179482887E+04  0.31179482887E+04  0.25500000920E-02 0. -1.
    10030    2    1    2    0    0  0.00000000000E+00  0.00000000000E+00 -0.22303944982E+04  0.40055020792E+04  0.33270688734E+04 0.  0.
        4    1    3    3  502    0 -0.55461110532E+03  0.76648420025E+03  0.53212103650E+03  0.10854703671E+04  0.12699999809E+01 0.  1.
       -4    1    3    3    0  502  0.55461110532E+03 -0.76648420025E+03 -0.27625155347E+04  0.29200317121E+04  0.12699999809E+01 0. -1.
</event>
<event>
 5   0  0.3796529E-07  0.3297042E+04  0.7818609E-02  0.8163649E-01
        1   -1    0    0  501    0  0.00000000000E+00  0.00000000000E+00  0.11837253819E+04  0.11837253819E+04  0.50400001928E-02 0. -1.
       -1   -1    0    0    0  501  0.00000000000E+00  0.00000000000E+00 -0.22958202852E+04  0.22958202852E+04  0.50400001928E-02 0.  1.
    10030    2    1    2    0    0  0.00000000000E+00  0.00000000000E+00 -0.11120949033E+04  0.34795456671E+04  0.32970415489E+04 0.  0.
        5    1    3    3  502    0  0.12676586265E+04 -0.10398760403E+04 -0.73668902656E+03  0.17975075478E+04  0.46999998093E+01 0.  1.
       -5    1    3    3    0  502 -0.12676586265E+04  0.10398760403E+04 -0.37540587669E+03  0.16820381193E+04  0.46999998093E+01 0. -1.
</event>
<event>
 5   0  0.1126221E-06  0.3302386E+04  0.7818609E-02  0.8162289E-01
       -2   -1    0    0    0  501  0.00000000000E+00  0.00000000000E+00  0.99751402564E+03  0.99751402564E+03  0.25500000920E-02 0. -1.
        2   -1    0    0  501    0  0.00000000000E+00  0.00000000000E+00 -0.27332332063E+04  0.27332332063E+04  0.25500000920E-02 0.  1.
    10030    2    1    2    0    0  0.00000000000E+00  0.00000000000E+00 -0.17357191806E+04  0.37307472319E+04  0.33023860820E+04 0.  0.
        2    1    3    3  502    0 -0.84588347763E+03  0.61930357068E+03 -0.23090216691E+04  0.25358700358E+04  0.25500000920E-02 0. -1.
       -2    1    3    3    0  502  0.84588347763E+03 -0.61930357068E+03  0.57330248846E+03  0.11948771961E+04  0.25500000920E-02 0.  1.
</event>
<event>
 5   0  0.1129434E-06  0.3290805E+04  0.7818609E-02  0.8165239E-01
        2   -1    0    0  501    0  0.00000000000E+00  0.00000000000E+00  0.21248882308E+04  0.21248882308E+04  0.25500000920E-02 0.  1.
       -2   -1    0    0    0  501  0.00000000000E+00  0.00000000000E+00 -0.12741140966E+04  0.12741140966E+04  0.25500000920E-02 0. -1.
    10030    2    1    2    0    0  0.00000000000E+00  0.00000000000E+00  0.85077413419E+03  0.33990023273E+04  0.32908054020E+04 0.  0.
        3    1    3    3  502    0  0.44307862136E+03 -0.13553537285E+04 -0.42261040566E+03  0.14872464353E+04  0.10100000352E+00 0. -1.
       -3    1    3    3    0  502 -0.44307862136E+03  0.13553537285E+04  0.12733845398E+04  0.19117558920E+04  0.10100000352E+00 0.  1.
</event>
<event>
 5   0  0.3709747E-07  0.3384649E+04  0.7818609E-02  0.8141684E-01
       -1   -1    0    0    0  501  0.00000000000E+00  0.00000000000E+00  0.18387223096E+04  0.18387223096E+04  0.50400001928E-02 0.  1.
        1   -1    0    0  501    0  0.00000000000E+00  0.00000000000E+00 -0.15575829390E+04  0.15575829390E+04  0.50400001928E-02 0. -1.
    10030    2    1    2    0    0  0.00000000000E+00  0.00000000000E+00  0.28113937064E+03  0.33963052486E+04  0.33846491688E+04 0.  0.
        4    1    3    3  502    0 -0.10390691104E+04 -0.10900230679E+04 -0.63419419824E+03  0.16340192162E+04  0.12699999809E+01 0. -1.
       -4    1    3    3    0  502  0.10390691104E+04  0.10900230679E+04  0.91533356888E+03  0.17622860324E+04  0.12699999809E+01 0.  1.
</event>
<event>
 5   0  0.3796529E-07  0.3303387E+04  0.7818609E-02  0.8162034E-01
       -1   -1    0    0    0  501  0.00000000000E+00  0.00000000000E+00  0.16604105536E+04  0.16604105536E+04  0.50400001928E-02 0. -1.
        1   -1    0    0  501    0  0.00000000000E+00  0.00000000000E+00 -0.16430220683E+04  0.16430220683E+04  0.50400001928E-02 0.  1.
    10030    2    1    2    0    0  0.00000000000E+00  0.00000000000E+00  0.17388485252E+02  0.33034326219E+04  0.33033868572E+04 0.  0.
        5    1    3    3  502    0 -0.48123609235E+03 -0.13320935893E+04  0.85841630910E+03  0.16561890463E+04  0.46999998093E+01 0. -1.
       -5    1    3    3    0  502  0.48123609235E+03  0.13320935893E+04 -0.84102782385E+03  0.16472435757E+04  0.46999998093E+01 0.  1.
</event>
<event>
 5   0  0.1129434E-06  0.3336761E+04  0.7818609E-02  0.8153604E-01
       -2   -1    0    0    0  501  0.00000000000E+00  0.00000000000E+00  0.95539453074E+03  0.95539453075E+03  0.25500000920E-02 0. -1.
        2   -1    0    0  501    0  0.00000000000E+00  0.00000000000E+00 -0.29134486503E+04  0.29134486503E+04  0.25500000920E-02 0.  1.
    10030    2    1    2    0    0  0.00000000000E+00  0.00000000000E+00 -0.19580541196E+04  0.38688431811E+04  0.33367606484E+04 0.  0.
        3    1    3    3  502    0 -0.10355702244E+04  0.10915761781E+04 -0.14329091903E+03  0.15114484906E+04  0.10100000352E+00 0. -1.
       -3    1    3    3    0  502  0.10355702244E+04 -0.10915761781E+04 -0.18147632006E+04  0.23573946904E+04  0.10100000352E+00 0.  1.
</event>
<event>
 5   0  0.1129434E-06  0.3324712E+04  0.7818609E-02  0.8156636E-01
       -2   -1    0    0    0  501  0.00000000000E+00  0.00000000000E+00  0.17917622555E+04  0.17917622555E+04  0.25500000920E-02 0.  1.
        2   -1    0    0  501    0  0.00000000000E+00  0.00000000000E+00 -0.15422958827E+04  0.15422958827E+04  0.25500000920E-02 0. -1.
    10030    2    1    2    0    0  0.00000000000E+00  0.00000000000E+00  0.24946637279E+03  0.33340581383E+04  0.33247120474E+04 0.  0.
        3    1    3    3  502    0  0.32547419065E+03 -0.16057772022E+04  0.40654570749E+03  0.16881153084E+04  0.10100000352E+00 0.  1.
       -3    1    3    3    0  502 -0.32547419065E+03  0.16057772022E+04 -0.15707933469E+03  0.16459428299E+04  0.10100000352E+00 0. -1.
</event>
<event>
 5   0  0.1126221E-06  0.3383578E+04  0.7818609E-02  0.8141948E-01
       -2   -1    0    0    0  501  0.00000000000E+00  0.00000000000E+00  0.12061746451E+04  0.12061746451E+04  0.25500000920E-02 0. -1.
        2   -1    0    0  501    0  0.00000000000E+00  0.00000000000E+00 -0.23729157157E+04  0.23729157157E+04  0.25500000920E-02 0.  1.
    10030    2    1    2    0    0  0.00000000000E+00  0.00000000000E+00 -0.11667410706E+04  0.35790903608E+04  0.33835784438E+04 0.  0.
        2    1    3    3  502    0 -0.99306935934E+03 -0.11974983342E+04  0.11984549150E+03  0.15603050838E+04  0.25500000920E-02 0.  1.
       -2    1    3    3    0  502  0.99306935934E+03  0.11974983342E+04 -0.12865865621E+04  0.20187852770E+04  0.25500000920E-02 0. -1.
</event>
<event>
 5   0  0.3757406E-07  0.3293380E+04  0.7818609E-02  0.8164582E-01
       -1   -1    0    0    0  501  0.00000000000E+00  0.00000000000E+00  0.19864544730E+04  0.19864544730E+04  0.50400001928E-02 0.  1.
        1   -1    0    0  501    0  0.00000000000E+00  0.00000000000E+00 -0.13650393404E+04  0.13650393404E+04  0.50400001928E-02 0. -1.
    10030    2    1    2    0    0  0.00000000000E+00  0.00000000000E+00  0.62141513267E+03  0.33514938134E+04  0.32933803325E+04 0.  0.
        1    1    3    3  502    0  0.92711783010E+02  0.15414549384E+04  0.89255676318E+03  0.17836301122E+04  0.50400001928E-02 0.  1.
       -1    1    3    3    0  502 -0.92711783010E+02 -0.15414549384E+04 -0.27114163052E+03  0.15678637012E+04  0.50400001928E-02 0. -1.
</event>
<event>
 5   0  0.1120545E-06  0.3311602E+04  0.7818609E-02  0.8159950E-01
       -2   -1    0    0    0  501  0.00000000000E+00  0.00000000000E+00  0.14519008025E+04  0.14519008025E+04  0.25500000920E-02 0.  1.
        2   -1    0    0  501    0  0.00000000000E+00  0.00000000000E+00 -0.18883358701E+04  0.18883358701E+04  0.25500000920E-02 0. -1.
    10030    2    1    2    0    0  0.00000000000E+00  0.00000000000E+00 -0.43643506754E+03  0.33402366726E+04  0.33116016458E+04 0.  0.
        4    1    3    3  502    0 -0.71608616995E+03 -0.11339219300E+04  0.76132161963E+03  0.15421318256E+04  0.12699999809E+01 0.  1.
       -4    1    3    3    0  502  0.71608616995E+03  0.11339219300E+04 -0.11977566872E+04  0.17981048470E+04  0.12699999809E+01 0. -1.
</event>
<event>
 5   0  0.1129434E-06  0.3444308E+04  0.7818609E-02  0.8127117E-01
        2   -1    0    0  501    0  0.00000000000E+00  0.00000000000E+00  0.16895543360E+04  0.16895543360E+04  0.25500000920E-02 0. -1.
       -2   -1    0    0    0  501  0.00000000000E+00  0.00000000000E+00 -0.17553822447E+04  0.17553822447E+04  0.25500000920E-02 0.  1.
    10030    2    1    2    0    0  0.00000000000E+00  0.00000000000E+00 -0.65827908656E+02  0.34449365808E+04  0.34443075838E+04 0.  0.
        3    1    3    3  502    0 -0.58836729150E+03 -0.15441753005E+04 -0.51793574951E+03  0.17317363769E+04  0.10100000352E+00 0. -1.
       -3    1    3    3    0  502  0.58836729150E+03  0.15441753005E+04  0.45210784086E+03  0.17132002038E+04  0.10100000352E+00 0.  1.
</event>
<event>
 5   0  0.3674967E-07  0.3337825E+04  0.7818609E-02  0.8153337E-01
        1   -1    0    0  501    0  0.00000000000E+00  0.00000000000E+00  0.17542924291E+04  0.17542924291E+04  0.50400001928E-02 0.  1.
       -1   -1    0    0    0  501  0.00000000000E+00  0.00000000000E+00 -0.15876875961E+04  0.15876875961E+04  0.50400001928E-02 0. -1.
    10030    2    1    2    0    0  0.00000000000E+00  0.00000000000E+00  0.16660483300E+03  0.33419800252E+04  0.33378246386E+04 0.  0.
        2    1    3    3  502    0 -0.22752147420E+03  0.16507976965E+04  0.17490004271E+03  0.16755563496E+04  0.25500000920E-02 0.  1.
       -2    1    3    3    0  502  0.22752147420E+03 -0.16507976965E+04 -0.82952097145E+01  0.16664236755E+04  0.25500000920E-02 0. -1.
</event>
<event>
 5   0  0.3757406E-07  0.3269374E+04  0.7818609E-02  0.8170732E-01
       -1   -1    0    0    0  501  0.00000000000E+00  0.00000000000E+00  0.17851401390E+04  0.17851401390E+04  0.50400001928E-02 0.  1.
        1   -1    0    0  501    0  0.00000000000E+00  0.00000000000E+00 -0.14969140045E+04  0.14969140045E+04  0.50400001928E-02 0. -1.
    10030    2    1    2    0    0  0.00000000000E+00  0.00000000000E+00  0.28822613453E+03  0.32820541435E+04  0.32693738080E+04 0.  0.
        1    1    3    3  502    0 -0.79092511368E+03  0.14304342257E+04  0.12174065890E+03  0.16390623532E+04  0.50400001928E-02 0.  1.
       -1    1    3    3    0  502  0.79092511368E+03 -0.14304342257E+04  0.16648547563E+03  0.16429917903E+04  0.50400001928E-02 0. -1.
</event>
<event>
 5   0  0.1116462E-06  0.3275258E+04  0.7818609E-02  0.8169220E-01
        2   -1    0    0  501    0  0.00000000000E+00  0.00000000000E+00  0.18741372229E+04  0.18741372229E+04  0.25500000920E-02 0.  1.
       -2   -1    0    0    0  501  0.00000000000E+00  0.00000000000E+00 -0.14309667706E+04  0.14309667706E+04  0.25500000920E-02 0. -1.
    10030    2    1    2    0    0  0.00000000000E+00  0.00000000000E+00  0.44317045230E+03  0.33051039935E+04  0.32752576018E+04 0.  0.
        1    1    3    3  502    0  0.10115763033E+04  0.29080922071E+02  0.15208332966E+04  0.18267638691E+04  0.50400001928E-02 0.  1.
       -1    1    3    3    0  502 -0.10115763033E+04 -0.29080922071E+02 -0.10776628443E+04  0.14783401244E+04  0.50400001928E-02 0. -1.
</event>
<event>
 5   0  0.3796529E-07  0.3304008E+04  0.7818609E-02  0.8161876E-01
       -1   -1    0    0    0  501  0.00000000000E+00  0.00000000000E+00  0.14080403558E+04  0.14080403558E+04  0.50400001928E-02 0.  1.
        1   -1    0    0  501    0  0.00000000000E+00  0.00000000000E+00 -0.19382377975E+04  0.19382377975E+04  0.50400001928E-02 0. -1.
    10030    2    1    2    0    0  0.00000000000E+00  0.00000000000E+00 -0.53019744171E+03  0.33462781533E+04  0.33040078923E+04 0.  0.
        5    1    3    3  502    0  0.36606422438E+03 -0.85498816972E+03  0.11176844002E+04  0.14540454928E+04  0.46999998093E+01 0.  1.
       -5    1    3    3    0  502 -0.36606422438E+03  0.85498816972E+03 -0.16478818419E+04  0.18922326605E+04  0.46999998093E+01 0. -1.
</event>
<event>
 5   0  0.3757406E-07  0.3289224E+04  0.7818609E-02  0.8165643E-01
        1   -1    0    0  501    0  0.00000000000E+00  0.00000000000E+00  0.14988228117E+04  0.14988228117E+04  0.50400001928E-02 0.  1.
       -1   -1    0    0    0  501  0.00000000000E+00  0.00000000000E+00 -0.18045820361E+04  0.18045820361E+04  0.50400001928E-02 0. -1.
    10030    2    1    2    0    0  0.00000000000E+00  0.00000000000E+00 -0.30575922438E+03  0.33034048479E+04  0.32892240552E+04 0.  0.
        1    1    3    3  502    0  0.98532074920E+03  0.12569277768E+04  0.24127169839E+03  0.16152202473E+04  0.50400001928E-02 0.  1.
       -1    1    3    3    0  502 -0.98532074920E+03 -0.12569277768E+04 -0.54703092278E+03  0.16881846005E+04  0.50400001928E-02 0. -1.
</event>
<event>
 5   0  0.1129434E-06  0.3303649E+04  0.7818609E-02  0.8161967E-01
        2   -1    0    0  501    0  0.00000000000E+00  0.00000000000E+00  0.11405379123E+04  0.11405379123E+04  0.25500000920E-02 0. -1.
       -2   -1    0    0    0  501  0.00000000000E+00  0.00000000000E+00 -0.23923140359E+04  0.23923140360E+04  0.25500000920E-02 0.  1.
    10030    2    1    2    0    0  0.00000000000E+00  0.00000000000E+00 -0.12517761236E+04  0.35328519483E+04  0.33036494101E+04 0.  0.
        3    1    3    3  502    0  0.48260725694E+03 -0.14642843377E+04 -0.12598829916E+04  0.19910659328E+04  0.10100000352E+00 0.  1.
       -3    1    3    3    0  502 -0.48260725694E+03  0.14642843377E+04  0.81068679564E+01  0.15417860155E+04  0.10100000352E+00 0. -1.
</event>
<event>
 5   0  0.3757406E-07  0.3317062E+04  0.7818609E-02  0.8158568E-01
        1   -1    0    0  501    0  0.00000000000E+00  0.00000000000E+00  0.15596435779E+04  0.15596435779E+04  0.50400001928E-02 0.  1.
       -1   -1    0    0    0  501  0.00000000000E+00  0.00000000000E+00 -0.17636879203E+04  0.17636879203E+04  0.50400001928E-02 0. -1.
    10030    2    1    2    0    0  0.00000000000E+00  0.00000000000E+00 -0.20404434238E+03  0.33233314982E+04  0.33170616746E+04 0.  0.
        1    1    3    3  502    0 -0.12965649587E+04  0.52681277673E+03 -0.99371126164E+03  0.17164132560E+04  0.50400001928E-02 0. -1.
       -1    1    3    3    0  502  0.12965649587E+04 -0.52681277673E+03  0.78966691925E+03  0.16069182422E+04  0.50400001928E-02 0.  1.
</event>
<event>
 5   0  0.3757406E-07  0.3210341E+04  0.7818609E-02  0.8186091E-01
        1   -1    0    0  501    0  0.00000000000E+00  0.00000000000E+00  0.14593936175E+04  0.14593936175E+04  0.50400001928E-02 0. -1.
       -1   -1    0    0    0  501  0.00000000000E+00  0.00000000000E+00 -0.17655089773E+04  0.17655089773E+04  0.50400001928E-02 0.  1.
    10030    2    1    2    0    0  0.00000000000E+00  0.00000000000E+00 -0.30611535977E+03  0.32249025948E+04  0.32103411241E+04 0.  0.
        1    1    3    3  502    0  0.15416880497E+04  0.44442016453E+03 -0.10528983254E+03  0.16079170607E+04  0.50400001928E-02 0.  1.
       -1    1    3    3    0  502 -0.15416880497E+04 -0.44442016453E+03 -0.20082552724E+03  0.16169855341E+04  0.50400001928E-02 0. -1.
</event>
<event>
 5   0  0.3674967E-07  0.3296883E+04  0.7818609E-02  0.8163689E-01
        1   -1    0    0  501    0  0.00000000000E+00  0.00000000000E+00  0.24197407141E+04  0.24197407141E+04  0.50400001928E-02 0. -1.
       -1   -1    0    0    0  501  0.00000000000E+00  0.00000000000E+00 -0.11229963482E+04  0.11229963482E+04  0.50400001928E-02 0.  1.
    10030    2    1    2    0    0  0.00000000000E+00  0.00000000000E+00  0.12967443660E+04  0.35427370623E+04  0.32968833680E+04 0.  0.
        2    1    3    3  502    0  0.83384267246E+02  0.16462645035E+04  0.63242523226E+03  0.17655314854E+04  0.25500000920E-02 0.  1.
       -2    1    3    3    0  502 -0.83384267246E+02 -0.16462645035E+04  0.66431913372E+03  0.17772055770E+04  0.25500000920E-02 0. -1.
</event>
<event>
 5   0  0.1116462E-06  0.3298793E+04  0.7818609E-02  0.8163203E-01
        2   -1    0    0  501    0  0.00000000000E+00  0.00000000000E+00  0.16719594813E+04  0.16719594813E+04  0.25500000920E-02 0. -1.
       -2   -1    0    0    0  501  0.00000000000E+00  0.00000000000E+00 -0.16271377340E+04  0.16271377341E+04  0.25500000920E-02 0.  1.
    10030    2    1    2    0    0  0.00000000000E+00  0.00000000000E+00  0.44821747247E+02  0.32990972153E+04  0.32987927257E+04 0.  0.
        1    1    3    3  502    0  0.44113689345E+03 -0.71680365869E+03 -0.13962048538E+04  0.16302752030E+04  0.50400001928E-02 0.  1.
       -1    1    3    3    0  502 -0.44113689345E+03  0.71680365869E+03  0.14410266010E+04  0.16688220123E+04  0.50400001928E-02 0. -1.
</event>
<event>
 5   0  0.1129434E-06  0.3281782E+04  0.7818609E-02  0.8167547E-01
        2   -1    0    0  501    0  0.00000000000E+00  0.00000000000E+00  0.17130639666E+04  0.17130639666E+04  0.25500000920E-02 0. -1.
       -2   -1    0    0    0  501  0.00000000000E+00  0.00000000000E+00 -0.15717583834E+04  0.15717583834E+04  0.25500000920E-02 0.  1.
    10030    2    1    2    0    0  0.00000000000E+00  0.00000000000E+00  0.14130558324E+03  0.32848223500E+04  0.32817816203E+04 0.  0.
        3    1    3    3  502    0 -0.10359902649E+04 -0.48064027764E+03  0.12499769434E+04  0.16931430166E+04  0.10100000352E+00 0. -1.
       -3    1    3    3    0  502  0.10359902649E+04  0.48064027764E+03 -0.11086713601E+04  0.15916793334E+04  0.10100000352E+00 0.  1.
</event>
<event>
 5   0  0.1126221E-06  0.3277880E+04  0.7818609E-02  0.8168547E-01
        2   -1    0    0  501    0  0.00000000000E+00  0.00000000000E+00  0.17223950086E+04  0.17223950086E+04  0.25500000920E-02 0.  1.
       -2   -1    0    0    0  501  0.00000000000E+00  0.00000000000E+00 -0.15595283591E+04  0.15595283592E+04  0.25500000920E-02 0. -1.
    10030    2    1    2    0    0  0.00000000000E+00  0.00000000000E+00  0.16286664940E+03  0.32819233677E+04  0.32778797180E+04 0.  0.
        2    1    3    3  502    0 -0.16327629747E+04  0.31311091928E+02 -0.57404767710E+02  0.16340717927E+04  0.25500000920E-02 0.  1.
       -2    1    3    3    0  502  0.16327629747E+04 -0.31311091928E+02  0.22027141711E+03  0.16478515750E+04  0.25500000920E-02 0. -1.
</event>
<event>
 5   0  0.1116462E-06  0.3304538E+04  0.7818609E-02  0.8161742E-01
       -2   -1    0    0    0  501  0.00000000000E+00  0.00000000000E+00  0.13202118471E+04  0.13202118471E+04  0.25500000920E-02 0.  1.
        2   -1    0    0  501    0  0.00000000000E+00  0.00000000000E+00 -0.20678448190E+04  0.20678448190E+04  0.25500000920E-02 0. -1.
    10030    2    1    2    0    0  0.00000000000E+00  0.00000000000E+00 -0.74763297197E+03  0.33880566661E+04  0.33045382298E+04 0.  0.
        1    1    3    3  502    0 -0.78388441747E+03 -0.18400633202E+03 -0.18530774461E+04  0.20204527046E+04  0.50400001928E-02 0. -1.
       -1    1    3    3    0  502  0.78388441747E+03  0.18400633202E+03  0.11054444741E+04  0.13676039615E+04  0.50400001928E-02 0.  1.
</event>
<event>
 5   0  0.1129434E-06  0.3334561E+04  0.7818609E-02  0.8154157E-01
       -2   -1    0    0    0  501  0.00000000000E+00  0.00000000000E+00  0.12998143291E+04  0.12998143291E+04  0.25500000920E-02 0.  1.
        2   -1    0    0  501    0  0.00000000000E+00  0.00000000000E+00 -0.21386313128E+04  0.21386313128E+04  0.25500000920E-02 0. -1.
    10030    2    1    2    0    0  0.00000000000E+00  0.00000000000E+00 -0.83881698377E+03  0.34384456419E+04  0.33345606158E+04 0.  0.
        3    1    3    3  502    0 -0.20856425864E+02 -0.32081490443E+03  0.12675501918E+04  0.13076852420E+04  0.10100000352E+00 0.  1.
       -3    1    3    3    0  502  0.20856425864E+02  0.32081490443E+03 -0.21063671755E+04  0.21307603999E+04  0.10100000352E+00 0. -1.
</event>
<event>
 5   0  0.3749685E-07  0.3260273E+04  0.7818609E-02  0.8173078E-01
        1   -1    0    0  501    0  0.00000000000E+00  0.00000000000E+00  0.24344250362E+04  0.24344250362E+04  0.50400001928E-02 0.  1.
       -1   -1    0    0    0  501  0.00000000000E+00  0.00000000000E+00 -0.10915696054E+04  0.10915696054E+04  0.50400001928E-02 0. -1.
    10030    2    1    2    0    0  0.00000000000E+00  0.00000000000E+00  0.13428554308E+04  0.35259946416E+04  0.32602726120E+04 0.  0.
        3    1    3    3  502    0  0.18692990569E+03  0.15322179663E+03 -0.10720828242E+04  0.10989910376E+04  0.10100000352E+00 0. -1.
       -3    1    3    3    0  502 -0.18692990569E+03 -0.15322179663E+03  0.24149382549E+04  0.24270036040E+04  0.10100000352E+00 0.  1.
</event>
<event>
 5   0  0.3573375E-07  0.3308054E+04  0.7818609E-02  0.8160849E-01
        3   -1    0    0  501    0  0.00000000000E+00  0.00000000000E+00  0.13425500949E+04  0.13425500987E+04  0.10100000352E+00 0. -1.
       -3   -1    0    0    0  501  0.00000000000E+00  0.00000000000E+00 -0.20377673215E+04  0.20377673240E+04  0.10100000352E+00 0.  1.
    10030    2    1    2    0    0  0.00000000000E+00  0.00000000000E+00 -0.69521722657E+03  0.33803174227E+04  0.33080536401E+04 0.  0.
        5    1    3    3  502    0 -0.40918601582E+03  0.98744170336E+03  0.94222845122E+03  0.14248827521E+04  0.46999998093E+01 0. -1.
       -5    1    3    3    0  502  0.40918601582E+03 -0.98744170336E+03 -0.16374456778E+04  0.19554346706E+04  0.46999998093E+01 0.  1.
</event>
<event>
 5   0  0.1120545E-06  0.3299605E+04  0.7818609E-02  0.8162996E-01
        2   -1    0    0  501    0  0.00000000000E+00  0.00000000000E+00  0.21647298743E+04  0.21647298743E+04  0.25500000920E-02 0. -1.
       -2   -1    0    0    0  501  0.00000000000E+00  0.00000000000E+00 -0.12573619642E+04  0.12573619643E+04  0.25500000920E-02 0.  1.
    10030    2    1    2    0    0  0.00000000000E+00  0.00000000000E+00  0.90736791008E+03  0.34220918386E+04  0.32996054351E+04 0.  0.
        4    1    3    3  502    0 -0.15204180082E+04 -0.60863590813E+03  0.66042992609E+03  0.17658646292E+04  0.12699999809E+01 0.  1.
       -4    1    3    3    0  502  0.15204180082E+04  0.60863590813E+03  0.24693798398E+03  0.16562272094E+04  0.12699999809E+01 0. -1.
</event>
<event>
 5   0  0.1126221E-06  0.3294740E+04  0.7818609E-02  0.8164235E-01
       -2   -1    0    0    0  501  0.00000000000E+00  0.00000000000E+00  0.18387863439E+04  0.18387863439E+04  0.25500000920E-02 0. -1.
        2   -1    0    0  501    0  0.00000000000E+00  0.00000000000E+00 -0.14758800146E+04  0.14758800146E+04  0.25500000920E-02 0.  1.
    10030    2    1    2    0    0  0.00000000000E+00  0.00000000000E+00  0.36290632930E+03  0.33146663585E+04  0.32947400602E+04 0.  0.
        2    1    3    3  502    0 -0.37026033721E+03 -0.98192514269E+03 -0.10960923405E+04  0.15174610776E+04  0.25500000920E-02 0.  1.
       -2    1    3    3    0  502  0.37026033721E+03  0.98192514269E+03  0.14589986698E+04  0.17972052809E+04  0.25500000920E-02 0. -1.
</event>
<event>
 5   0  0.3674967E-07  0.3306902E+04  0.7818609E-02  0.8161141E-01
        1   -1    0    0  501    0  0.00000000000E+00  0.00000000000E+00  0.20348458986E+04  0.20348458986E+04  0.50400001928E-02 0. -1.
       -1   -1    0    0    0  501  0.00000000000E+00  0.00000000000E+00 -0.13435415165E+04  0.13435415165E+04  0.50400001928E-02 0.  1.
    10030    2    1    2    0    0  0.00000000000E+00  0.00000000000E+00  0.69130438211E+03  0.33783874151E+04  0.33069018398E+04 0.  0.
        2    1    3    3  502    0 -0.14760242808E+04  0.11277621631E+03 -0.40683921376E+03  0.15352147402E+04  0.25500000920E-02 0.  1.
       -2    1    3    3    0  502  0.14760242808E+04 -0.11277621631E+03  0.10981435959E+04  0.18431726750E+04  0.25500000920E-02 0. -1.
</event>
<event>
 5   0  0.3674967E-07  0.3196976E+04  0.7818609E-02  0.8189616E-01
        1   -1    0    0  501    0  0.00000000000E+00  0.00000000000E+00  0.26449783977E+04  0.26449783977E+04  0.50400001928E-02 0.  1.
       -1   -1    0    0    0  501  0.00000000000E+00  0.00000000000E+00 -0.96604367456E+03  0.96604367458E+03  0.50400001928E-02 0. -1.
    10030    2    1    2    0    0  0.00000000000E+00  0.00000000000E+00  0.16789347231E+04  0.36110220723E+04  0.31969764782E+04 0.  0.
        2    1    3    3  502    0  0.67667132784E+03  0.25176287079E+03 -0.77138254221E+03  0.10565508296E+04  0.25500000920E-02 0. -1.
       -2    1    3    3    0  502 -0.67667132784E+03 -0.25176287079E+03  0.24503172654E+04  0.25544712427E+04  0.25500000920E-02 0.  1.
</event>
<event>
 5   0  0.1116462E-06  0.3292791E+04  0.7818609E-02  0.8164732E-01
       -2   -1    0    0    0  501  0.00000000000E+00  0.00000000000E+00  0.10582769189E+04  0.10582769189E+04  0.25500000920E-02 0. -1.
        2   -1    0    0  501    0  0.00000000000E+00  0.00000000000E+00 -0.25613502679E+04  0.25613502679E+04  0.25500000920E-02 0.  1.
    10030    2    1    2    0    0  0.00000000000E+00  0.00000000000E+00 -0.15030733491E+04  0.36196271868E+04  0.32927908343E+04 0.  0.
        1    1    3    3  502    0  0.20465013242E+03  0.18924548203E+03  0.10321506335E+04  0.10691260260E+04  0.50400001928E-02 0. -1.
       -1    1    3    3    0  502 -0.20465013242E+03 -0.18924548203E+03 -0.25352239826E+04  0.25505011608E+04  0.50400001928E-02 0.  1.
</event>
<event>
 5   0  0.3757406E-07  0.3301850E+04  0.7818609E-02  0.8162425E-01
        1   -1    0    0  501    0  0.00000000000E+00  0.00000000000E+00  0.20720804150E+04  0.20720804150E+04  0.50400001928E-02 0.  1.
       -1   -1    0    0    0  501  0.00000000000E+00  0.00000000000E+00 -0.13153706498E+04  0.13153706499E+04  0.50400001928E-02 0. -1.
    10030    2    1    2    0    0  0.00000000000E+00  0.00000000000E+00  0.75670976518E+03  0.33874510649E+04  0.33018502462E+04 0.  0.
        1    1    3    3  502    0  0.45432339976E+03 -0.14450647910E+04  0.10518274490E+04  0.18441699987E+04  0.50400001928E-02 0.  1.
       -1    1    3    3    0  502 -0.45432339976E+03  0.14450647910E+04 -0.29511768379E+03  0.15432810661E+04  0.50400001928E-02 0. -1.
</event>
<event>
 5   0  0.3796529E-07  0.3317492E+04  0.7818609E-02  0.8158459E-01
        1   -1    0    0  501    0  0.00000000000E+00  0.00000000000E+00  0.22431275855E+04  0.22431275855E+04  0.50400001928E-02 0.  1.
       -1   -1    0    0    0  501  0.00000000000E+00  0.00000000000E+00 -0.12266083066E+04  0.12266083066E+04  0.50400001928E-02 0. -1.
    10030    2    1    2    0    0  0.00000000000E+00  0.00000000000E+00  0.10165192789E+04  0.34697358920E+04  0.33174923837E+04 0.  0.
        5    1    3    3  502    0 -0.13177087481E+04  0.89952469153E+03  0.33655693508E+02  0.15958244926E+04  0.46999998093E+01 0. -1.
       -5    1    3    3    0  502  0.13177087481E+04 -0.89952469153E+03  0.98286358538E+03  0.18739113994E+04  0.46999998093E+01 0.  1.
</event>
<event>
 5   0  0.3757406E-07  0.3280772E+04  0.7818609E-02  0.8167805E-01
        1   -1    0    0  501    0  0.00000000000E+00  0.00000000000E+00  0.11624057131E+04  0.11624057131E+04  0.50400001928E-02 0.  1.
       -1   -1    0    0    0  501  0.00000000000E+00  0.00000000000E+00 -0.23149107586E+04  0.23149107586E+04  0.50400001928E-02 0. -1.
    10030    2    1    2    0    0  0.00000000000E+00  0.00000000000E+00 -0.11525050455E+04  0.34773164717E+04  0.32807715502E+04 0.  0.
        1    1    3    3  502    0  0.77640837906E+03 -0.50940047828E+02 -0.21068790135E+04  0.22459617176E+04  0.50400001928E-02 0. -1.
       -1    1    3    3    0  502 -0.77640837906E+03  0.50940047828E+02  0.95437396804E+03  0.12313547541E+04  0.50400001928E-02 0.  1.
</event>
<event>
 5   0  0.3749685E-07  0.3307500E+04  0.7818609E-02  0.8160990E-01
        1   -1    0    0  501    0  0.00000000000E+00  0.00000000000E+00  0.18065312356E+04  0.18065312356E+04  0.50400001928E-02 0. -1.
       -1   -1    0    0    0  501  0.00000000000E+00  0.00000000000E+00 -0.15138900689E+04  0.15138900690E+04  0.50400001928E-02 0.  1.
    10030    2    1    2    0    0  0.00000000000E+00  0.00000000000E+00  0.29264116666E+03  0.33204213046E+04  0.33075003836E+04 0.  0.
        3    1    3    3  502    0 -0.15372220473E+04 -0.72860705492E+02 -0.46146120912E+03  0.16066445664E+04  0.10100000352E+00 0.  1.
       -3    1    3    3    0  502  0.15372220473E+04  0.72860705492E+02  0.75410237578E+03  0.17137767382E+04  0.10100000352E+00 0. -1.
</event>
<event>
 5   0  0.1129434E-06  0.3295194E+04  0.7818609E-02  0.8164119E-01
       -2   -1    0    0    0  501  0.00000000000E+00  0.00000000000E+00  0.14559443430E+04  0.14559443430E+04  0.25500000920E-02 0.  1.
        2   -1    0    0  501    0  0.00000000000E+00  0.00000000000E+00 -0.18644779909E+04  0.18644779910E+04  0.25500000920E-02 0. -1.
    10030    2    1    2    0    0  0.00000000000E+00  0.00000000000E+00 -0.40853364796E+03  0.33204223339E+04  0.32951941876E+04 0.  0.
        3    1    3    3  502    0 -0.14601350015E+04  0.75052650065E+03 -0.34422557791E+03  0.16774312235E+04  0.10100000352E+00 0. -1.
       -3    1    3    3    0  502  0.14601350015E+04 -0.75052650065E+03 -0.64308070053E+02  0.16429911104E+04  0.10100000352E+00 0.  1.
</event>
<event>
 5   0  0.1116462E-06  0.3291363E+04  0.7818609E-02  0.8165096E-01
        2   -1    0    0  501    0  0.00000000000E+00  0.00000000000E+00  0.19882592517E+04  0.19882592517E+04  0.25500000920E-02 0.  1.
       -2   -1    0    0    0  501  0.00000000000E+00  0.00000000000E+00 -0.13621301949E+04  0.13621301949E+04  0.25500000920E-02 0. -1.
    10030    2    1    2    0    0  0.00000000000E+00  0.00000000000E+00  0.62612905678E+03  0.33503894467E+04  0.32913632204E+04 0.  0.
        1    1    3    3  502    0 -0.34989873408E+03 -0.15050138151E+04 -0.26346011850E+03  0.15674523730E+04  0.50400001928E-02 0. -1.
       -1    1    3    3    0  502  0.34989873408E+03  0.15050138151E+04  0.88958917528E+03  0.17829370736E+04  0.50400001928E-02 0.  1.
</event>
<event>
 5   0  0.1120545E-06  0.3285731E+04  0.7818609E-02  0.8166536E-01
       -2   -1    0    0    0  501  0.00000000000E+00  0.00000000000E+00  0.11406095374E+04  0.11406095374E+04  0.25500000920E-02 0. -1.
        2   -1    0    0  501    0  0.00000000000E+00  0.00000000000E+00 -0.23662853082E+04  0.23662853082E+04  0.25500000920E-02 0.  1.
    10030    2    1    2    0    0  0.00000000000E+00  0.00000000000E+00 -0.12256757708E+04  0.35068948456E+04  0.32857313285E+04 0.  0.
        4    1    3    3  502    0  0.11266988196E+04  0.11330665044E+04 -0.10202597965E+04  0.18958432422E+04  0.12699999809E+01 0. -1.
       -4    1    3    3    0  502 -0.11266988196E+04 -0.11330665044E+04 -0.20541597434E+03  0.16110516035E+04  0.12699999809E+01 0.  1.
</event>
<event>
 5   0  0.3674967E-07  0.3472154E+04  0.7818609E-02  0.8120421E-01
       -1   -1    0    0    0  501  0.00000000000E+00  0.00000000000E+00  0.14121287757E+04  0.14121287758E+04  0.50400001928E-02 0. -1.
        1   -1    0    0  501    0  0.00000000000E+00  0.00000000000E+00 -0.21343408260E+04  0.21343408260E+04  0.50400001928E-02 0.  1.
    10030    2    1    2    0    0  0.00000000000E+00  0.00000000000E+00 -0.72221205027E+03  0.35464696018E+04  0.34721544307E+04 0.  0.
        2    1    3    3  502    0  0.10209512279E+04  0.13920415013E+04 -0.54900853344E+03  0.18114997435E+04  0.25500000920E-02 0.  1.
       -2    1    3    3    0  502 -0.10209512279E+04 -0.13920415013E+04 -0.17320351683E+03  0.17349698583E+04  0.25500000920E-02 0. -1.
</event>
<event>
 5   0  0.1146799E-06  0.3302611E+04  0.7818609E-02  0.8162231E-01
        2   -1    0    0  501    0  0.00000000000E+00  0.00000000000E+00  0.92483372423E+03  0.92483372424E+03  0.25500000920E-02 0.  1.
       -2   -1    0    0    0  501  0.00000000000E+00  0.00000000000E+00 -0.29484321689E+04  0.29484321689E+04  0.25500000920E-02 0. -1.
    10030    2    1    2    0    0  0.00000000000E+00  0.00000000000E+00 -0.20235984447E+04  0.38732658931E+04  0.33026107875E+04 0.  0.
        5    1    3    3  502    0 -0.26828593820E+03  0.15781879093E+04 -0.14869351372E+04  0.21848690153E+04  0.46999998093E+01 0.  1.
       -5    1    3    3    0  502  0.26828593820E+03 -0.15781879093E+04 -0.53666330748E+03  0.16883968779E+04  0.46999998093E+01 0. -1.
</event>
<event>
 5   0  0.1146799E-06  0.3297228E+04  0.7818609E-02  0.8163601E-01
       -2   -1    0    0    0  501  0.00000000000E+00  0.00000000000E+00  0.31127386306E+04  0.31127386306E+04  0.25500000920E-02 0.  1.
        2   -1    0    0  501    0  0.00000000000E+00  0.00000000000E+00 -0.87316280471E+03  0.87316280471E+03  0.25500000920E-02 0. -1.
    10030    2    1    2    0    0  0.00000000000E+00  0.00000000000E+00  0.22395758259E+04  0.39859014353E+04  0.32972276798E+04 0.  0.
        5    1    3    3  502    0 -0.84953998524E+03 -0.28929762898E+03 -0.55198652832E+03  0.10536235201E+04  0.46999998093E+01 0. -1.
       -5    1    3    3    0  502  0.84953998524E+03  0.28929762898E+03  0.27915623542E+04  0.29322779153E+04  0.46999998093E+01 0.  1.
</event>
<event>
 5   0  0.1129434E-06  0.3254275E+04  0.7818609E-02  0.8174629E-01
       -2   -1    0    0    0  501  0.00000000000E+00  0.00000000000E+00  0.26919492576E+04  0.26919492576E+04  0.25500000920E-02 0.  1.
        2   -1    0    0  501    0  0.00000000000E+00  0.00000000000E+00 -0.98351625880E+03  0.98351625880E+03  0.25500000920E-02 0. -1.
    10030    2    1    2    0    0  0.00000000000E+00  0.00000000000E+00  0.17084329988E+04  0.36754655164E+04  0.32542746428E+04 0.  0.
        3    1    3    3  502    0  0.52263012202E+03  0.13534886204E+04  0.22339939620E+02  0.14510591901E+04  0.10100000352E+00 0. -1.
       -3    1    3    3    0  502 -0.52263012202E+03 -0.13534886204E+04  0.16860930592E+04  0.22244063263E+04  0.10100000352E+00 0.  1.
</event>
<event>
 5   0  0.1146799E-06  0.3309672E+04  0.7818609E-02  0.8160439E-01
        2   -1    0    0  501    0  0.00000000000E+00  0.00000000000E+00  0.10434348189E+04  0.10434348189E+04  0.25500000920E-02 0.  1.
       -2   -1    0    0    0  501  0.00000000000E+00  0.00000000000E+00 -0.26244881112E+04  0.26244881112E+04  0.25500000920E-02 0. -1.
    10030    2    1    2    0    0  0.00000000000E+00  0.00000000000E+00 -0.15810532923E+04  0.36679229301E+04  0.33096720544E+04 0.  0.
        5    1    3    3  502    0  0.13803276355E+04 -0.14095260954E+03 -0.17899683462E+04  0.22647694783E+04  0.46999998093E+01 0. -1.
       -5    1    3    3    0  502 -0.13803276355E+04  0.14095260954E+03  0.20891505381E+03  0.14031534518E+04  0.46999998093E+01 0.  1.
</event>
<event>
 5   0  0.1126221E-06  0.3321065E+04  0.7818609E-02  0.8157556E-01
        2   -1    0    0  501    0  0.00000000000E+00  0.00000000000E+00  0.17665302358E+04  0.17665302358E+04  0.25500000920E-02 0.  1.
       -2   -1    0    0    0  501  0.00000000000E+00  0.00000000000E+00 -0.15608953774E+04  0.15608953774E+04  0.25500000920E-02 0. -1.
    10030    2    1    2    0    0  0.00000000000E+00  0.00000000000E+00  0.20563485840E+03  0.33274256132E+04  0.33210654188E+04 0.  0.
        2    1    3    3  502    0  0.14154513832E+04 -0.19129406409E+03  0.95135899006E+03  0.17161526637E+04  0.25500000920E-02 0.  1.
       -2    1    3    3    0  502 -0.14154513832E+04  0.19129406409E+03 -0.74572413165E+03  0.16112729495E+04  0.25500000920E-02 0. -1.
</event>
<event>
 5   0  0.1146799E-06  0.3258608E+04  0.7818609E-02  0.8173508E-01
        2   -1    0    0  501    0  0.00000000000E+00  0.00000000000E+00  0.27919223382E+04  0.27919223382E+04  0.25500000920E-02 0.  1.
       -2   -1    0    0    0  501  0.00000000000E+00  0.00000000000E+00 -0.95082566806E+03  0.95082566807E+03  0.25500000920E-02 0. -1.
    10030    2    1    2    0    0  0.00000000000E+00  0.00000000000E+00  0.18410966701E+04  0.37427480063E+04  0.32586079374E+04 0.  0.
        5    1    3    3  502    0  0.23326539204E+03 -0.16631241602E+03 -0.92166224461E+03  0.96517145937E+03  0.46999998093E+01 0. -1.
       -5    1    3    3    0  502 -0.23326539204E+03  0.16631241602E+03  0.27627589148E+04  0.27775765469E+04  0.46999998093E+01 0.  1.
</event>
<event>
 5   0  0.1126221E-06  0.3574688E+04  0.7818609E-02  0.8096314E-01
        2   -1    0    0  501    0  0.00000000000E+00  0.00000000000E+00  0.17416579093E+04  0.17416579093E+04  0.25500000920E-02 0. -1.
       -2   -1    0    0    0  501  0.00000000000E+00  0.00000000000E+00 -0.18342287298E+04  0.18342287298E+04  0.25500000920E-02 0.  1.
    10030    2    1    2    0    0  0.00000000000E+00  0.00000000000E+00 -0.92570820513E+02  0.35758866391E+04  0.35746882240E+04 0.  0.
        2    1    3    3  502    0 -0.12588850527E+04 -0.19779781492E+03  0.12074038431E+04  0.17554884197E+04  0.25500000920E-02 0.  1.
       -2    1    3    3    0  502  0.12588850527E+04  0.19779781492E+03 -0.12999746636E+04  0.18203982194E+04  0.25500000920E-02 0. -1.
</event>
<event>
 5   0  0.1120545E-06  0.3304439E+04  0.7818609E-02  0.8161767E-01
       -2   -1    0    0    0  501  0.00000000000E+00  0.00000000000E+00  0.23306390131E+04  0.23306390131E+04  0.25500000920E-02 0. -1.
        2   -1    0    0  501    0  0.00000000000E+00  0.00000000000E+00 -0.11712796106E+04  0.11712796106E+04  0.25500000920E-02 0.  1.
    10030    2    1    2    0    0  0.00000000000E+00  0.00000000000E+00  0.11593594025E+04  0.35019186237E+04  0.33044394113E+04 0.  0.
        4    1    3    3  502    0  0.19108621056E+03 -0.14422361693E+04  0.14095951441E+04  0.20257144890E+04  0.12699999809E+01 0. -1.
       -4    1    3    3    0  502 -0.19108621056E+03  0.14422361693E+04 -0.25023574161E+03  0.14762041347E+04  0.12699999809E+01 0.  1.
</event>
<event>
 5   0  0.1116462E-06  0.3279184E+04  0.7818609E-02  0.8168212E-01
       -2   -1    0    0    0  501  0.00000000000E+00  0.00000000000E+00  0.10324272828E+04  0.10324272828E+04  0.25500000920E-02 0.  1.
        2   -1    0    0  501    0  0.00000000000E+00  0.00000000000E+00 -0.26038265507E+04  0.26038265507E+04  0.25500000920E-02 0. -1.
    10030    2    1    2    0    0  0.00000000000E+00  0.00000000000E+00 -0.15713992679E+04  0.36362538335E+04  0.32791837830E+04 0.  0.
        1    1    3    3  502    0 -0.37306716215E+03  0.15341243923E+04 -0.12760557355E+04  0.20300332506E+04  0.50400001928E-02 0. -1.
       -1    1    3    3    0  502  0.37306716215E+03 -0.15341243923E+04 -0.29534353246E+03  0.16062205829E+04  0.50400001928E-02 0.  1.
</event>
<event>
 5   0  0.3757406E-07  0.3308895E+04  0.7818609E-02  0.8160636E-01
       -1   -1    0    0    0  501  0.00000000000E+00  0.00000000000E+00  0.10646983225E+04  0.10646983225E+04  0.50400001928E-02 0.  1.
        1   -1    0    0  501    0  0.00000000000E+00  0.00000000000E+00 -0.25708657017E+04  0.25708657018E+04  0.50400001928E-02 0. -1.
    10030    2    1    2    0    0  0.00000000000E+00  0.00000000000E+00 -0.15061673793E+04  0.36355640242E+04  0.33088949213E+04 0.  0.
        1    1    3    3  502    0 -0.98119814463E+03 -0.41605505412E+03  0.63728906042E+03  0.12417684783E+04  0.50400001928E-02 0.  1.
       -1    1    3    3    0  502  0.98119814463E+03  0.41605505412E+03 -0.21434564397E+04  0.23937955460E+04  0.50400001928E-02 0. -1.
</event>
<event>
 5   0  0.3796529E-07  0.3306557E+04  0.7818609E-02  0.8161229E-01
        1   -1    0    0  501    0  0.00000000000E+00  0.00000000000E+00  0.20547409501E+04  0.20547409501E+04  0.50400001928E-02 0. -1.
       -1   -1    0    0    0  501  0.00000000000E+00  0.00000000000E+00 -0.13302548494E+04  0.13302548494E+04  0.50400001928E-02 0.  1.
    10030    2    1    2    0    0  0.00000000000E+00  0.00000000000E+00  0.72448610072E+03  0.33849957995E+04  0.33065565854E+04 0.  0.
        5    1    3    3  502    0 -0.27663002462E+03  0.70904392275E+03 -0.11402380344E+04  0.13709238929E+04  0.46999998093E+01 0.  1.
       -5    1    3    3    0  502  0.27663002462E+03 -0.70904392275E+03  0.18647241351E+04  0.20140719066E+04  0.46999998093E+01 0. -1.
</event>
<event>
 5   0  0.3674967E-07  0.3264858E+04  0.7818609E-02  0.8171895E-01
       -1   -1    0    0    0  501  0.00000000000E+00  0.00000000000E+00  0.15509446086E+04  0.15509446086E+04  0.50400001928E-02 0.  1.
        1   -1    0    0  501    0  0.00000000000E+00  0.00000000000E+00 -0.17181941236E+04  0.17181941236E+04  0.50400001928E-02 0. -1.
    10030    2    1    2    0    0  0.00000000000E+00  0.00000000000E+00 -0.16724951500E+03  0.32691387323E+04  0.32648576769E+04 0.  0.
        2    1    3    3  502    0  0.73738928664E+03  0.11144542452E+03  0.13704022273E+04  0.15601811777E+04  0.25500000920E-02 0.  1.
       -2    1    3    3    0  502 -0.73738928664E+03 -0.11144542452E+03 -0.15376517423E+04  0.17089575546E+04  0.25500000920E-02 0. -1.
</event>
<event>
 5   0  0.3796529E-07  0.3309971E+04  0.7818609E-02  0.8160363E-01
       -1   -1    0    0    0  501  0.00000000000E+00  0.00000000000E+00  0.15207361971E+04  0.15207361971E+04  0.50400001928E-02 0. -1.
        1   -1    0    0  501    0  0.00000000000E+00  0.00000000000E+00 -0.18010863537E+04  0.18010863537E+04  0.50400001928E-02 0.  1.
    10030    2    1    2    0    0  0.00000000000E+00  0.00000000000E+00 -0.28035015659E+03  0.33218225509E+04  0.33099711251E+04 0.  0.
        5    1    3    3  502    0 -0.12623210559E+04 -0.10009510184E+04 -0.52047480721E+03  0.16930072369E+04  0.46999998093E+01 0.  1.
       -5    1    3    3    0  502  0.12623210559E+04  0.10009510184E+04  0.24012465062E+03  0.16288153140E+04  0.46999998093E+01 0. -1.
</event>
<event>
 5   0  0.1116462E-06  0.3302060E+04  0.7818609E-02  0.8162371E-01
        2   -1    0    0  501    0  0.00000000000E+00  0.00000000000E+00  0.14186860102E+04  0.14186860102E+04  0.25500000920E-02 0. -1.
       -2   -1    0    0    0  501  0.00000000000E+00  0.00000000000E+00 -0.19214257821E+04  0.19214257822E+04  0.25500000920E-02 0.  1.
    10030    2    1    2    0    0  0.00000000000E+00  0.00000000000E+00 -0.50273977198E+03  0.33401117923E+04  0.33020598884E+04 0.  0.
        1    1    3    3  502    0 -0.41064132180E+03 -0.11638339165E+04  0.85797427773E+03  0.15030820143E+04  0.50400001928E-02 0. -1.
       -1    1    3    3    0  502  0.41064132180E+03  0.11638339165E+04 -0.13607140497E+04  0.18370297781E+04  0.50400001928E-02 0.  1.
</event>
<event>
 5   0  0.1120545E-06  0.3309248E+04  0.7818609E-02  0.8160546E-01
        2   -1    0    0  501    0  0.00000000000E+00  0.00000000000E+00  0.29567408125E+04  0.29567408125E+04  0.25500000920E-02 0. -1.
       -2   -1    0    0    0  501  0.00000000000E+00  0.00000000000E+00 -0.92594543244E+03  0.92594543245E+03  0.25500000920E-02 0.  1.
    10030    2    1    2    0    0  0.00000000000E+00  0.00000000000E+00  0.20307953801E+04  0.38826862450E+04  0.33092480417E+04 0.  0.
        4    1    3    3  502    0 -0.82963544026E+03 -0.82603147902E+03 -0.35646935636E+03  0.12238034904E+04  0.12699999809E+01 0.  1.
       -4    1    3    3    0  502  0.82963544026E+03  0.82603147902E+03  0.23872647364E+04  0.26588827546E+04  0.12699999809E+01 0. -1.
</event>
<event>
 5   0  0.3709747E-07  0.3301648E+04  0.7818609E-02  0.8162476E-01
       -1   -1    0    0    0  501  0.00000000000E+00  0.00000000000E+00  0.12069112763E+04  0.12069112763E+04  0.50400001928E-02 0.  1.
        1   -1    0    0  501    0  0.00000000000E+00  0.00000000000E+00 -0.22580112312E+04  0.22580112312E+04  0.50400001928E-02 0. -1.
    10030    2    1    2    0    0  0.00000000000E+00  0.00000000000E+00 -0.10510999549E+04  0.34649225075E+04  0.33016475989E+04 0.  0.
        4    1    3    3  502    0 -0.10493281062E+03  0.71198270766E+03  0.10336156236E+04  0.12594812984E+04  0.12699999809E+01 0.  1.
       -4    1    3    3    0  502  0.10493281062E+03 -0.71198270766E+03 -0.20847155785E+04  0.22054412091E+04  0.12699999809E+01 0. -1.
</event>
<event>
 5   0  0.3674967E-07  0.3285016E+04  0.7818609E-02  0.8166718E-01
       -1   -1    0    0    0  501  0.00000000000E+00  0.00000000000E+00  0.10265172252E+04  0.10265172252E+04  0.50400001928E-02 0.  1.
        1   -1    0    0  501    0  0.00000000000E+00  0.00000000000E+00 -0.26281421965E+04  0.26281421965E+04  0.50400001928E-02 0. -1.
    10030    2    1    2    0    0  0.00000000000E+00  0.00000000000E+00 -0.16016249713E+04  0.36546594217E+04  0.32850164292E+04 0.  0.
        2    1    3    3  502    0  0.13613921710E+04 -0.18794377697E+03 -0.18015410524E+04  0.22658909219E+04  0.25500000920E-02 0. -1.
       -2    1    3    3    0  502 -0.13613921710E+04  0.18794377697E+03  0.19991608111E+03  0.13887684998E+04  0.25500000920E-02 0.  1.
</event>
<event>
 5   0  0.3674967E-07  0.3284833E+04  0.7818609E-02  0.8166765E-01
       -1   -1    0    0    0  501  0.00000000000E+00  0.00000000000E+00  0.12583886491E+04  0.12583886491E+04  0.50400001928E-02 0. -1.
        1   -1    0    0  501    0  0.00000000000E+00  0.00000000000E+00 -0.21436395805E+04  0.21436395805E+04  0.50400001928E-02 0.  1.
    10030    2    1    2    0    0  0.00000000000E+00  0.00000000000E+00 -0.88525093139E+03  0.34020282295E+04  0.32848328516E+04 0.  0.
        2    1    3    3  502    0 -0.65378590033E+03 -0.13229129381E+04  0.30421026221E+03  0.15066779779E+04  0.25500000920E-02 0. -1.
       -2    1    3    3    0  502  0.65378590033E+03  0.13229129381E+04 -0.11894611936E+04  0.18953502517E+04  0.25500000920E-02 0.  1.
</event>
<event>
 5   0  0.1126221E-06  0.3195916E+04  0.7818609E-02  0.8189897E-01
        2   -1    0    0  501    0  0.00000000000E+00  0.00000000000E+00  0.19098247146E+04  0.19098247146E+04  0.25500000920E-02 0. -1.
       -2   -1    0    0    0  501  0.00000000000E+00  0.00000000000E+00 -0.13370176860E+04  0.13370176860E+04  0.25500000920E-02 0.  1.
    10030    2    1    2    0    0  0.00000000000E+00  0.00000000000E+00  0.57280702858E+03  0.32468424006E+04  0.31959157815E+04 0.  0.
        2    1    3    3  502    0 -0.12488212600E+04  0.25918871138E+02 -0.72609328599E+03  0.14447967979E+04  0.25500000920E-02 0.  1.
       -2    1    3    3    0  502  0.12488212600E+04 -0.25918871138E+02  0.12989003146E+04  0.18020456028E+04  0.25500000920E-02 0. -1.
</event>
<event>
 5   0  0.3757406E-07  0.3180306E+04  0.7818609E-02  0.8194038E-01
        1   -1    0    0  501    0  0.00000000000E+00  0.00000000000E+00  0.22639183463E+04  0.22639183463E+04  0.50400001928E-02 0.  1.
       -1   -1    0    0    0  501  0.00000000000E+00  0.00000000000E+00 -0.11169070772E+04  0.11169070772E+04  0.50400001928E-02 0. -1.
    10030    2    1    2    0    0  0.00000000000E+00  0.00000000000E+00  0.11470112691E+04  0.33808254235E+04  0.31803059118E+04 0.  0.
        1    1    3    3  502    0  0.98304116136E+03 -0.35515628416E+03  0.18474288246E+04  0.21226161153E+04  0.50400001928E-02 0.  1.
       -1    1    3    3    0  502 -0.98304116136E+03  0.35515628416E+03 -0.70041755552E+03  0.12582093082E+04  0.50400001928E-02 0. -1.
</event>
<event>
 5   0  0.3709747E-07  0.3288564E+04  0.7818609E-02  0.8165811E-01
       -1   -1    0    0    0  501  0.00000000000E+00  0.00000000000E+00  0.30763572960E+04  0.30763572960E+04  0.50400001928E-02 0.  1.
        1   -1    0    0  501    0  0.00000000000E+00  0.00000000000E+00 -0.87885225980E+03  0.87885225981E+03  0.50400001928E-02 0. -1.
    10030    2    1    2    0    0  0.00000000000E+00  0.00000000000E+00  0.21975050362E+04  0.39552095558E+04  0.32885641618E+04 0.  0.
        4    1    3    3  502    0  0.10417089761E+04  0.51001307994E+03 -0.30301366633E+03  0.11987868148E+04  0.12699999809E+01 0. -1.
       -4    1    3    3    0  502 -0.10417089761E+04 -0.51001307994E+03  0.25005187025E+04  0.27564227410E+04  0.12699999809E+01 0.  1.
</event>
<event>
 5   0  0.3749685E-07  0.3306890E+04  0.7818609E-02  0.8161144E-01
       -1   -1    0    0    0  501  0.00000000000E+00  0.00000000000E+00  0.22801597752E+04  0.22801597752E+04  0.50400001928E-02 0.  1.
        1   -1    0    0  501    0  0.00000000000E+00  0.00000000000E+00 -0.11989865506E+04  0.11989865506E+04  0.50400001928E-02 0. -1.
    10030    2    1    2    0    0  0.00000000000E+00  0.00000000000E+00  0.10811732246E+04  0.34791463259E+04  0.33068903240E+04 0.  0.
        3    1    3    3  502    0  0.97863410934E+03 -0.13194977175E+04  0.73764491957E+03  0.18008106464E+04  0.10100000352E+00 0.  1.
       -3    1    3    3    0  502 -0.97863410934E+03  0.13194977175E+04  0.34352830503E+03  0.16783356795E+04  0.10100000352E+00 0. -1.
</event>
<event>
 5   0  0.3709747E-07  0.3327028E+04  0.7818609E-02  0.8156052E-01
       -1   -1    0    0    0  501  0.00000000000E+00  0.00000000000E+00  0.15253216945E+04  0.15253216945E+04  0.50400001928E-02 0.  1.
        1   -1    0    0  501    0  0.00000000000E+00  0.00000000000E+00 -0.18142264610E+04  0.18142264610E+04  0.50400001928E-02 0. -1.
    10030    2    1    2    0    0  0.00000000000E+00  0.00000000000E+00 -0.28890476650E+03  0.33395481555E+04  0.33270280911E+04 0.  0.
        4    1    3    3  502    0 -0.10115468001E+04 -0.74725740918E+03 -0.12374286740E+04  0.17643276058E+04  0.12699999809E+01 0. -1.
       -4    1    3    3    0  502  0.10115468001E+04  0.74725740918E+03  0.94852390749E+03  0.15752205497E+04  0.12699999809E+01 0.  1.
</event>
<event>
 5   0  0.1120545E-06  0.3316175E+04  0.7818609E-02  0.8158792E-01
        2   -1    0    0  501    0  0.00000000000E+00  0.00000000000E+00  0.17084701212E+04  0.17084701212E+04  0.25500000920E-02 0. -1.
       -2   -1    0    0    0  501  0.00000000000E+00  0.00000000000E+00 -0.16091910751E+04  0.16091910751E+04  0.25500000920E-02 0.  1.
    10030    2    1    2    0    0  0.00000000000E+00  0.00000000000E+00  0.99279046112E+02  0.33176611962E+04  0.33161754302E+04 0.  0.
        4    1    3    3  502    0  0.16550371015E+03 -0.16232005541E+04 -0.24558884652E+03  0.16499960640E+04  0.12699999809E+01 0.  1.
       -4    1    3    3    0  502 -0.16550371015E+03  0.16232005541E+04  0.34486789263E+03  0.16676651322E+04  0.12699999809E+01 0. -1.
</event>
<event>
 5   0  0.1126221E-06  0.3288027E+04  0.7818609E-02  0.8165949E-01
       -2   -1    0    0    0  501  0.00000000000E+00  0.00000000000E+00  0.15558860427E+04  0.15558860427E+04  0.25500000920E-02 0. -1.
        2   -1    0    0  501    0  0.00000000000E+00  0.00000000000E+00 -0.17371325135E+04  0.17371325135E+04  0.25500000920E-02 0.  1.
    10030    2    1    2    0    0  0.00000000000E+00  0.00000000000E+00 -0.18124647079E+03  0.32930185562E+04  0.32880269050E+04 0.  0.
        2    1    3    3  502    0 -0.38484269360E+03 -0.12110726936E+04 -0.11352691844E+04  0.17040061881E+04  0.25500000920E-02 0.  1.
       -2    1    3    3    0  502  0.38484269360E+03  0.12110726936E+04  0.95402271361E+03  0.15890123681E+04  0.25500000920E-02 0. -1.
</event>
<event>
 5   0  0.1146799E-06  0.3424521E+04  0.7818609E-02  0.8131914E-01
       -2   -1    0    0    0  501  0.00000000000E+00  0.00000000000E+00  0.13769652713E+04  0.13769652713E+04  0.25500000920E-02 0.  1.
        2   -1    0    0  501    0  0.00000000000E+00  0.00000000000E+00 -0.21292010706E+04  0.21292010706E+04  0.25500000920E-02 0. -1.
    10030    2    1    2    0    0  0.00000000000E+00  0.00000000000E+00 -0.75223579930E+03  0.35061663419E+04  0.34245209474E+04 0.  0.
        5    1    3    3  502    0  0.46659698208E+03  0.69936347038E+03 -0.19033213613E+04  0.20807393643E+04  0.46999998093E+01 0. -1.
       -5    1    3    3    0  502 -0.46659698208E+03 -0.69936347038E+03  0.11510855621E+04  0.14254269776E+04  0.46999998093E+01 0.  1.
</event>
<event>
 5   0  0.1129434E-06  0.3218123E+04  0.7818609E-02  0.8184047E-01
       -2   -1    0    0    0  501  0.00000000000E+00  0.00000000000E+00  0.16250556668E+04  0.16250556668E+04  0.25500000920E-02 0. -1.
        2   -1    0    0  501    0  0.00000000000E+00  0.00000000000E+00 -0.15932243612E+04  0.15932243612E+04  0.25500000920E-02 0.  1.
    10030    2    1    2    0    0  0.00000000000E+00  0.00000000000E+00  0.31831305538E+02  0.32182800280E+04  0.32181226059E+04 0.  0.
        3    1    3    3  502    0 -0.93264174931E+03 -0.65052663523E+03  0.11544232438E+04  0.16204007442E+04  0.10100000352E+00 0. -1.
       -3    1    3    3    0  502  0.93264174931E+03  0.65052663523E+03 -0.11225919383E+04  0.15978792838E+04  0.10100000352E+00 0.  1.
</event>
<event>
 5   0  0.1116462E-06  0.3317435E+04  0.7818609E-02  0.8158473E-01
        2   -1    0    0  501    0  0.00000000000E+00  0.00000000000E+00  0.16352682955E+04  0.16352682955E+04  0.25500000920E-02 0.  1.
       -2   -1    0    0    0  501  0.00000000000E+00  0.00000000000E+00 -0.16825030828E+04  0.16825030828E+04  0.25500000920E-02 0. -1.
    10030    2    1    2    0    0  0.00000000000E+00  0.00000000000E+00 -0.47234787294E+02  0.33177713782E+04  0.33174351227E+04 0.  0.
        1    1    3    3  502    0  0.52552318367E+03  0.10680878801E+04  0.11316436708E+04  0.16424383501E+04  0.50400001928E-02 0.  1.
       -1    1    3    3    0  502 -0.52552318367E+03 -0.10680878801E+04 -0.11788784581E+04  0.16753330281E+04  0.50400001928E-02 0. -1.
</event>
<event>
 5   0  0.3749685E-07  0.3246429E+04  0.7818609E-02  0.8176662E-01
        1   -1    0    0  501    0  0.00000000000E+00  0.00000000000E+00  0.24085391794E+04  0.24085391794E+04  0.50400001928E-02 0.  1.
       -1   -1    0    0    0  501  0.00000000000E+00  0.00000000000E+00 -0.10939516001E+04  0.10939516001E+04  0.50400001928E-02 0. -1.
    10030    2    1    2    0    0  0.00000000000E+00  0.00000000000E+00  0.13145875793E+04  0.35024907795E+04  0.32464289854E+04 0.  0.
        3    1    3    3  502    0 -0.19437678059E+03 -0.14091044719E+04 -0.18634743746E+03  0.14346020784E+04  0.10100000352E+00 0. -1.
       -3    1    3    3    0  502  0.19437678059E+03  0.14091044719E+04  0.15009350168E+04  0.20678887012E+04  0.10100000352E+00 0.  1.
</event>
<event>
 5   0  0.3749685E-07  0.3314915E+04  0.7818609E-02  0.8159111E-01
        1   -1    0    0  501    0  0.00000000000E+00  0.00000000000E+00  0.14207417600E+04  0.14207417600E+04  0.50400001928E-02 0.  1.
       -1   -1    0    0    0  501  0.00000000000E+00  0.00000000000E+00 -0.19336138891E+04  0.19336138891E+04  0.50400001928E-02 0. -1.
    10030    2    1    2    0    0  0.00000000000E+00  0.00000000000E+00 -0.51287212908E+03  0.33543556491E+04  0.33149153836E+04 0.  0.
        3    1    3    3  502    0 -0.56629620475E+03 -0.12996410267E+04  0.61250540426E+03  0.15443189665E+04  0.10100000352E+00 0.  1.
       -3    1    3    3    0  502  0.56629620475E+03  0.12996410267E+04 -0.11253775333E+04  0.18100366827E+04  0.10100000352E+00 0. -1.
</event>
<event>
 5   0  0.1146799E-06  0.3303580E+04  0.7818609E-02  0.8161985E-01
       -2   -1    0    0    0  501  0.00000000000E+00  0.00000000000E+00  0.10011815566E+04  0.10011815567E+04  0.25500000920E-02 0. -1.
        2   -1    0    0  501    0  0.00000000000E+00  0.00000000000E+00 -0.27251904619E+04  0.27251904619E+04  0.25500000920E-02 0.  1.
    10030    2    1    2    0    0  0.00000000000E+00  0.00000000000E+00 -0.17240089052E+04  0.37263720185E+04  0.33035801360E+04 0.  0.
        5    1    3    3  502    0  0.17724318875E+03 -0.57715331854E+02  0.98927214898E+03  0.10066914533E+04  0.46999998093E+01 0. -1.
       -5    1    3    3    0  502 -0.17724318875E+03  0.57715331854E+02 -0.27132810542E+04  0.27196805652E+04  0.46999998093E+01 0.  1.
</event>
<event>
 5   0  0.3709747E-07  0.3306586E+04  0.7818609E-02  0.8161222E-01
       -1   -1    0    0    0  501  0.00000000000E+00  0.00000000000E+00  0.15560932217E+04  0.15560932218E+04  0.50400001928E-02 0. -1.
        1   -1    0    0  501    0  0.00000000000E+00  0.00000000000E+00 -0.17565643869E+04  0.17565643869E+04  0.50400001928E-02 0.  1.
    10030    2    1    2    0    0  0.00000000000E+00  0.00000000000E+00 -0.20047116519E+03  0.33126576087E+04  0.33065861163E+04 0.  0.
        4    1    3    3  502    0  0.35642809801E+03  0.13584290237E+04 -0.97419392120E+03  0.17092178944E+04  0.12699999809E+01 0.  1.
       -4    1    3    3    0  502 -0.35642809801E+03 -0.13584290237E+04  0.77372275601E+03  0.16034397143E+04  0.12699999809E+01 0. -1.
</event>
<event>
 5   0  0.1116462E-06  0.3297981E+04  0.7818609E-02  0.8163409E-01
        2   -1    0    0  501    0  0.00000000000E+00  0.00000000000E+00  0.11683980029E+04  0.11683980029E+04  0.25500000920E-02 0.  1.
       -2   -1    0    0    0  501  0.00000000000E+00  0.00000000000E+00 -0.23272632398E+04  0.23272632398E+04  0.25500000920E-02 0. -1.
    10030    2    1    2    0    0  0.00000000000E+00  0.00000000000E+00 -0.11588652369E+04  0.34956612427E+04  0.32979810319E+04 0.  0.
        1    1    3    3  502    0 -0.12748856903E+03  0.73058627149E+03 -0.21405191909E+04  0.22653547277E+04  0.50400001928E-02 0. -1.
       -1    1    3    3    0  502  0.12748856903E+03 -0.73058627149E+03  0.98165395409E+03  0.12303065150E+04  0.50400001928E-02 0.  1.
</event>
<event>
 5   0  0.1129434E-06  0.3274652E+04  0.7818609E-02  0.8169375E-01
       -2   -1    0    0    0  501  0.00000000000E+00  0.00000000000E+00  0.22212281240E+04  0.22212281241E+04  0.25500000920E-02 0.  1.
        2   -1    0    0  501    0  0.00000000000E+00  0.00000000000E+00 -0.12069163096E+04  0.12069163096E+04  0.25500000920E-02 0. -1.
    10030    2    1    2    0    0  0.00000000000E+00  0.00000000000E+00  0.10143118145E+04  0.34281444336E+04  0.32746520122E+04 0.  0.
        3    1    3    3  502    0  0.54059789488E+03  0.10315686350E+04  0.17119499360E+04  0.20705440169E+04  0.10100000352E+00 0.  1.
       -3    1    3    3    0  502 -0.54059789488E+03 -0.10315686350E+04 -0.69763812153E+03  0.13576004167E+04  0.10100000352E+00 0. -1.
</event>
<event>
 5   0  0.3749685E-07  0.3313274E+04  0.7818609E-02  0.8159526E-01
       -1   -1    0    0    0  501  0.00000000000E+00  0.00000000000E+00  0.23574574975E+04  0.23574574975E+04  0.50400001928E-02 0. -1.
        1   -1    0    0  501    0  0.00000000000E+00  0.00000000000E+00 -0.11641553349E+04  0.11641553349E+04  0.50400001928E-02 0.  1.
    10030    2    1    2    0    0  0.00000000000E+00  0.00000000000E+00  0.11933021626E+04  0.35216128324E+04  0.33132743457E+04 0.  0.
        3    1    3    3  502    0 -0.68070718981E+03 -0.90570521199E+03  0.18812779139E+04  0.21961035515E+04  0.10100000352E+00 0. -1.
       -3    1    3    3    0  502  0.68070718981E+03  0.90570521199E+03 -0.68797575129E+03  0.13255092809E+04  0.10100000352E+00 0.  1.
</event>
<event>
 5   0  0.1129434E-06  0.3299205E+04  0.7818609E-02  0.8163098E-01
       -2   -1    0    0    0  501  0.00000000000E+00  0.00000000000E+00  0.12195208885E+04  0.12195208886E+04  0.25500000920E-02 0.  1.
        2   -1    0    0  501    0  0.00000000000E+00  0.00000000000E+00 -0.22313584370E+04  0.22313584370E+04  0.25500000920E-02 0. -1.
    10030    2    1    2    0    0  0.00000000000E+00  0.00000000000E+00 -0.10118375485E+04  0.34508793256E+04  0.32992048883E+04 0.  0.
        3    1    3    3  502    0 -0.14089815505E+04  0.11275754204E+03 -0.13954540754E+04  0.19862616544E+04  0.10100000352E+00 0. -1.
       -3    1    3    3    0  502  0.14089815505E+04 -0.11275754204E+03  0.38361652686E+03  0.14646176712E+04  0.10100000352E+00 0.  1.
</event>
<event>
 5   0  0.1116462E-06  0.3042470E+04  0.7818609E-02  0.8231706E-01
       -2   -1    0    0    0  501  0.00000000000E+00  0.00000000000E+00  0.16869407405E+04  0.16869407405E+04  0.25500000920E-02 0. -1.
        2   -1    0    0  501    0  0.00000000000E+00  0.00000000000E+00 -0.13718059614E+04  0.13718059614E+04  0.25500000920E-02 0.  1.
    10030    2    1    2    0    0  0.00000000000E+00  0.00000000000E+00  0.31513477910E+03  0.30587467020E+04  0.30424696314E+04 0.  0.
        1    1    3    3  502    0 -0.11635961676E+03  0.63009100707E+01 -0.13673122448E+04  0.13722689375E+04  0.50400001928E-02 0.  1.
       -1    1    3    3    0  502  0.11635961676E+03 -0.63009100707E+01  0.16824470239E+04  0.16864777645E+04  0.50400001928E-02 0. -1.
</event>
<event>
 5   0  0.3709747E-07  0.3302496E+04  0.7818609E-02  0.8162261E-01
        1   -1    0    0  501    0  0.00000000000E+00  0.00000000000E+00  0.24646325439E+04  0.24646325439E+04  0.50400001928E-02 0. -1.
       -1   -1    0    0    0  501  0.00000000000E+00  0.00000000000E+00 -0.11062984987E+04  0.11062984987E+04  0.50400001928E-02 0.  1.
    10030    2    1    2    0    0  0.00000000000E+00  0.00000000000E+00  0.13583340452E+04  0.35709310426E+04  0.33024955916E+04 0.  0.
        4    1    3    3  502    0  0.20451469528E+03  0.14139382870E+04 -0.21612578897E+03  0.14449082011E+04  0.12699999809E+01 0.  1.
       -4    1    3    3    0  502 -0.20451469528E+03 -0.14139382870E+04  0.15744598342E+04  0.21260228415E+04  0.12699999809E+01 0. -1.
</event>
<event>
 5   0  0.1120545E-06  0.3281932E+04  0.7818609E-02  0.8167508E-01
       -2   -1    0    0    0  501  0.00000000000E+00  0.00000000000E+00  0.13553699245E+04  0.13553699245E+04  0.25500000920E-02 0.  1.
        2   -1    0    0  501    0  0.00000000000E+00  0.00000000000E+00 -0.19867417550E+04  0.19867417550E+04  0.25500000920E-02 0. -1.
    10030    2    1    2    0    0  0.00000000000E+00  0.00000000000E+00 -0.63137183050E+03  0.33421116794E+04  0.32819323712E+04 0.  0.
        4    1    3    3  502    0 -0.59805700821E+02 -0.50513826653E+03 -0.19044302977E+04  0.19711919648E+04  0.12699999809E+01 0. -1.
       -4    1    3    3    0  502  0.59805700821E+02  0.50513826653E+03  0.12730584672E+04  0.13709197147E+04  0.12699999809E+01 0.  1.
</event>
<event>
 5   0  0.1126221E-06  0.3299975E+04  0.7818609E-02  0.8162902E-01
       -2   -1    0    0    0  501  0.00000000000E+00  0.00000000000E+00  0.16048698383E+04  0.16048698383E+04  0.25500000920E-02 0.  1.
        2   -1    0    0  501    0  0.00000000000E+00  0.00000000000E+00 -0.16963738980E+04  0.16963738980E+04  0.25500000920E-02 0. -1.
    10030    2    1    2    0    0  0.00000000000E+00  0.00000000000E+00 -0.91504059673E+02  0.33012437363E+04  0.32999753353E+04 0.  0.
        2    1    3    3  502    0 -0.13910477059E+04 -0.77359688319E+03 -0.48065289108E+03  0.16626764747E+04  0.25500000920E-02 0. -1.
       -2    1    3    3    0  502  0.13910477059E+04  0.77359688319E+03  0.38914883141E+03  0.16385672616E+04  0.25500000920E-02 0.  1.
</event>
<event>
 5   0  0.3749685E-07  0.3301522E+04  0.7818609E-02  0.8162508E-01
       -1   -1    0    0    0  501  0.00000000000E+00  0.00000000000E+00  0.13121771933E+04  0.13121771933E+04  0.50400001928E-02 0.  1.
        1   -1    0    0  501    0  0.00000000000E+00  0.00000000000E+00 -0.20767103513E+04  0.20767103513E+04  0.50400001928E-02 0. -1.
    10030    2    1    2    0    0  0.00000000000E+00  0.00000000000E+00 -0.76453315796E+03  0.33888875446E+04  0.33015220491E+04 0.  0.
        3    1    3    3  502    0  0.13646528617E+04  0.76672713263E+03  0.15588163522E+03  0.15730375149E+04  0.10100000352E+00 0. -1.
       -3    1    3    3    0  502 -0.13646528617E+04 -0.76672713263E+03 -0.92041479319E+03  0.18158500298E+04  0.10100000352E+00 0.  1.
</event>
<event>
 5   0  0.3709747E-07  0.3294667E+04  0.7818609E-02  0.8164254E-01
       -1   -1    0    0    0  501  0.00000000000E+00  0.00000000000E+00  0.10048377486E+04  0.10048377486E+04  0.50400001928E-02 0. -1.
        1   -1    0    0  501    0  0.00000000000E+00  0.00000000000E+00 -0.27006425836E+04  0.27006425836E+04  0.50400001928E-02 0.  1.
    10030    2    1    2    0    0  0.00000000000E+00  0.00000000000E+00 -0.16958048349E+04  0.37054803322E+04  0.32946669717E+04 0.  0.
        4    1    3    3  502    0  0.33093992775E+02 -0.24162580625E+03 -0.26802256308E+04  0.26912988105E+04  0.12699999809E+01 0.  1.
       -4    1    3    3    0  502 -0.33093992775E+02  0.24162580625E+03  0.98442079589E+03  0.10141815217E+04  0.12699999809E+01 0. -1.
</event>
<event>
 5   0  0.3796529E-07  0.3308743E+04  0.7818609E-02  0.8160674E-01
       -1   -1    0    0    0  501  0.00000000000E+00  0.00000000000E+00  0.15422320307E+04  0.15422320307E+04  0.50400001928E-02 0. -1.
        1   -1    0    0  501    0  0.00000000000E+00  0.00000000000E+00 -0.17746644961E+04  0.17746644961E+04  0.50400001928E-02 0.  1.
    10030    2    1    2    0    0  0.00000000000E+00  0.00000000000E+00 -0.23243246546E+03  0.33168965268E+04  0.33087426189E+04 0.  0.
        5    1    3    3  502    0 -0.58112274684E+03  0.10563898274E+04 -0.12518181984E+04  0.17380258934E+04  0.46999998093E+01 0.  1.
       -5    1    3    3    0  502  0.58112274684E+03 -0.10563898274E+04  0.10193857330E+04  0.15788706334E+04  0.46999998093E+01 0. -1.
</event>
<event>
 5   0  0.3709747E-07  0.3299293E+04  0.7818609E-02  0.8163075E-01
        1   -1    0    0  501    0  0.00000000000E+00  0.00000000000E+00  0.15233630406E+04  0.15233630407E+04  0.50400001928E-02 0.  1.
       -1   -1    0    0    0  501  0.00000000000E+00  0.00000000000E+00 -0.17863989468E+04  0.17863989468E+04  0.50400001928E-02 0. -1.
    10030    2    1    2    0    0  0.00000000000E+00  0.00000000000E+00 -0.26303590612E+03  0.33097619874E+04  0.32992933373E+04 0.  0.
        4    1    3    3  502    0 -0.13888207511E+04 -0.22571386637E+03 -0.99539069230E+03  0.17235353409E+04  0.12699999809E+01 0. -1.
       -4    1    3    3    0  502  0.13888207511E+04  0.22571386637E+03  0.73235478618E+03  0.15862266465E+04  0.12699999809E+01 0.  1.
</event>
<event>
 5   0  0.3757406E-07  0.3296388E+04  0.7818609E-02  0.8163815E-01
        1   -1    0    0  501    0  0.00000000000E+00  0.00000000000E+00  0.33632691719E+04  0.33632691719E+04  0.50400001928E-02 0. -1.
       -1   -1    0    0    0  501  0.00000000000E+00  0.00000000000E+00 -0.80770916485E+03  0.80770916487E+03  0.50400001928E-02 0.  1.
    10030    2    1    2    0    0  0.00000000000E+00  0.00000000000E+00  0.25555600070E+04  0.41709783368E+04  0.32963879226E+04 0.  0.
        1    1    3    3  502    0 -0.13243144077E+04 -0.90608735388E+03  0.17541522295E+04  0.23773626117E+04  0.50400001928E-02 0.  1.
       -1    1    3    3    0  502  0.13243144077E+04  0.90608735388E+03  0.80140777753E+03  0.17936157250E+04  0.50400001928E-02 0. -1.
</event>
<event>
 5   0  0.1146799E-06  0.3409401E+04  0.7818609E-02  0.8135603E-01
        2   -1    0    0  501    0  0.00000000000E+00  0.00000000000E+00  0.18428286515E+04  0.18428286515E+04  0.25500000920E-02 0.  1.
       -2   -1    0    0    0  501  0.00000000000E+00  0.00000000000E+00 -0.15769259831E+04  0.15769259831E+04  0.25500000920E-02 0. -1.
    10030    2    1    2    0    0  0.00000000000E+00  0.00000000000E+00  0.26590266838E+03  0.34197546347E+04  0.34094013452E+04 0.  0.
        5    1    3    3  502    0 -0.16291472857E+04  0.50039667143E+03  0.94565211650E+02  0.17068926083E+04  0.46999998093E+01 0. -1.
       -5    1    3    3    0  502  0.16291472857E+04 -0.50039667143E+03  0.17133745673E+03  0.17128620263E+04  0.46999998093E+01 0.  1.
</event>
<event>
 5   0  0.3709747E-07  0.3365907E+04  0.7818609E-02  0.8146325E-01
        1   -1    0    0  501    0  0.00000000000E+00  0.00000000000E+00  0.11528334095E+04  0.11528334095E+04  0.50400001928E-02 0.  1.
       -1   -1    0    0    0  501  0.00000000000E+00  0.00000000000E+00 -0.24568441890E+04  0.24568441890E+04  0.50400001928E-02 0. -1.
    10030    2    1    2    0    0  0.00000000000E+00  0.00000000000E+00 -0.13040107794E+04  0.36096775985E+04  0.33659067504E+04 0.  0.
        4    1    3    3  502    0 -0.16326744462E+04 -0.12262251151E+03 -0.10696566304E+04  0.19557170162E+04  0.12699999809E+01 0. -1.
       -4    1    3    3    0  502  0.16326744462E+04  0.12262251151E+03 -0.23435414903E+03  0.16539605823E+04  0.12699999809E+01 0.  1.
</event>
<event>
 5   0  0.3674967E-07  0.3308483E+04  0.7818609E-02  0.8160740E-01
        1   -1    0    0  501    0  0.00000000000E+00  0.00000000000E+00  0.13747311797E+04  0.13747311797E+04  0.50400001928E-02 0.  1.
       -1   -1    0    0    0  501  0.00000000000E+00  0.00000000000E+00 -0.19905820237E+04  0.19905820237E+04  0.50400001928E-02 0. -1.
    10030    2    1    2    0    0  0.00000000000E+00  0.00000000000E+00 -0.61585084405E+03  0.33653132034E+04  0.33084831411E+04 0.  0.
        2    1    3    3  502    0 -0.29420995628E+03 -0.16243073265E+04 -0.19846003842E+03  0.16626244844E+04  0.25500000920E-02 0.  1.
       -2    1    3    3    0  502  0.29420995628E+03  0.16243073265E+04 -0.41739080563E+03  0.17026887190E+04  0.25500000920E-02 0. -1.
</event>
<event>
 5   0  0.1129434E-06  0.3353481E+04  0.7818609E-02  0.8149419E-01
       -2   -1    0    0    0  501  0.00000000000E+00  0.00000000000E+00  0.12858068543E+04  0.12858068543E+04  0.25500000920E-02 0.  1.
        2   -1    0    0  501    0  0.00000000000E+00  0.00000000000E+00 -0.21865327397E+04  0.21865327397E+04  0.25500000920E-02 0. -1.
    10030    2    1    2    0    0  0.00000000000E+00  0.00000000000E+00 -0.90072588537E+03  0.34723395939E+04  0.33534810474E+04 0.  0.
        3    1    3    3  502    0 -0.71169342053E+03 -0.80367762491E+03 -0.17840579793E+04  0.20821306715E+04  0.10100000352E+00 0. -1.
       -3    1    3    3    0  502  0.71169342053E+03  0.80367762491E+03  0.88333209393E+03  0.13902089224E+04  0.10100000352E+00 0.  1.
</event>
<event>
 5   0  0.1129434E-06  0.3290257E+04  0.7818609E-02  0.8165379E-01
       -2   -1    0    0    0  501  0.00000000000E+00  0.00000000000E+00  0.11722725575E+04  0.11722725575E+04  0.25500000920E-02 0. -1.
        2   -1    0    0  501    0  0.00000000000E+00  0.00000000000E+00 -0.23087194737E+04  0.23087194738E+04  0.25500000920E-02 0.  1.
    10030    2    1    2    0    0  0.00000000000E+00  0.00000000000E+00 -0.11364469163E+04  0.34809920312E+04  0.32902574258E+04 0.  0.
        3    1    3    3  502    0 -0.10899730814E+04 -0.13020705457E+03  0.72814681017E+03  0.13172672404E+04  0.10100000352E+00 0. -1.
       -3    1    3    3    0  502  0.10899730814E+04  0.13020705457E+03 -0.18645937265E+04  0.21637247908E+04  0.10100000352E+00 0.  1.
</event>
<event>
 5   0  0.3796529E-07  0.3304590E+04  0.7818609E-02  0.8161728E-01
        1   -1    0    0  501    0  0.00000000000E+00  0.00000000000E+00  0.26453863080E+04  0.26453863080E+04  0.50400001928E-02 0.  1.
       -1   -1    0    0    0  501  0.00000000000E+00  0.00000000000E+00 -0.10320150699E+04  0.10320150699E+04  0.50400001928E-02 0. -1.
    10030    2    1    2    0    0  0.00000000000E+00  0.00000000000E+00  0.16133712381E+04  0.36774013779E+04  0.33045898599E+04 0.  0.
        5    1    3    3  502    0  0.13437191555E+04  0.52025483858E+03 -0.93121257015E+02  0.14439321052E+04  0.46999998093E+01 0. -1.
       -5    1    3    3    0  502 -0.13437191555E+04 -0.52025483858E+03  0.17064924951E+04  0.22334692726E+04  0.46999998093E+01 0.  1.
</event>
<event>
 5   0  0.1146799E-06  0.3311307E+04  0.7818609E-02  0.8160024E-01
        2   -1    0    0  501    0  0.00000000000E+00  0.00000000000E+00  0.15920029635E+04  0.15920029635E+04  0.25500000920E-02 0. -1.
       -2   -1    0    0    0  501  0.00000000000E+00  0.00000000000E+00 -0.17218485118E+04  0.17218485118E+04  0.25500000920E-02 0.  1.
    10030    2    1    2    0    0  0.00000000000E+00  0.00000000000E+00 -0.12984554835E+03  0.33138514753E+04  0.33113066505E+04 0.  0.
        5    1    3    3  502    0 -0.20958494698E+03  0.11637596239E+04  0.10948049683E+04  0.16114845084E+04  0.46999998093E+01 0. -1.
       -5    1    3    3    0  502  0.20958494698E+03 -0.11637596239E+04 -0.12246505166E+04  0.17023669669E+04  0.46999998093E+01 0.  1.
</event>
<event>
 5   0  0.1129434E-06  0.3183196E+04  0.7818609E-02  0.8193269E-01
        2   -1    0    0  501    0  0.00000000000E+00  0.00000000000E+00  0.15043744961E+04  0.15043744961E+04  0.25500000920E-02 0. -1.
       -2   -1    0    0    0  501  0.00000000000E+00  0.00000000000E+00 -0.16838785376E+04  0.16838785376E+04  0.25500000920E-02 0.  1.
    10030    2    1    2    0    0  0.00000000000E+00  0.00000000000E+00 -0.17950404158E+03  0.31882530337E+04  0.31831958322E+04 0.  0.
        3    1    3    3  502    0  0.36869625418E+03 -0.45957025223E+03 -0.15706280115E+04  0.16775023414E+04  0.10100000352E+00 0.  1.
       -3    1    3    3    0  502 -0.36869625418E+03  0.45957025223E+03  0.13911239699E+04  0.15107506923E+04  0.10100000352E+00 0. -1.
</event>
<event>
 5   0  0.3749685E-07  0.3318309E+04  0.7818609E-02  0.8158252E-01
       -1   -1    0    0    0  501  0.00000000000E+00  0.00000000000E+00  0.13709937632E+04  0.13709937632E+04  0.50400001928E-02 0. -1.
        1   -1    0    0  501    0  0.00000000000E+00  0.00000000000E+00 -0.20078816859E+04  0.20078816859E+04  0.50400001928E-02 0.  1.
    10030    2    1    2    0    0  0.00000000000E+00  0.00000000000E+00 -0.63688792272E+03  0.33788754491E+04  0.33183087672E+04 0.  0.
        3    1    3    3  502    0  0.16527668948E+04 -0.31205504648E+02 -0.17379096213E+03  0.16621719228E+04  0.10100000352E+00 0. -1.
       -3    1    3    3    0  502 -0.16527668948E+04  0.31205504648E+02 -0.46309696058E+03  0.17167035263E+04  0.10100000352E+00 0.  1.
</event>
<event>
 5   0  0.3749685E-07  0.3286899E+04  0.7818609E-02  0.8166237E-01
       -1   -1    0    0    0  501  0.00000000000E+00  0.00000000000E+00  0.14312485822E+04  0.14312485822E+04  0.50400001928E-02 0. -1.
        1   -1    0    0  501    0  0.00000000000E+00  0.00000000000E+00 -0.18871119694E+04  0.18871119694E+04  0.50400001928E-02 0.  1.
    10030    2    1    2    0    0  0.00000000000E+00  0.00000000000E+00 -0.45586338724E+03  0.33183605517E+04  0.32868990436E+04 0.  0.
        3    1    3    3  502    0  0.74536587555E+03  0.38373396632E+03  0.11991416085E+04  0.14631345300E+04  0.10100000352E+00 0. -1.
       -3    1    3    3    0  502 -0.74536587555E+03 -0.38373396632E+03 -0.16550049958E+04  0.18552260217E+04  0.10100000352E+00 0.  1.
</event>
<event>
 5   0  0.3709747E-07  0.3300482E+04  0.7818609E-02  0.8162773E-01
       -1   -1    0    0    0  501  0.00000000000E+00  0.00000000000E+00  0.12656480909E+04  0.12656480909E+04  0.50400001928E-02 0. -1.
        1   -1    0    0  501    0  0.00000000000E+00  0.00000000000E+00 -0.21517007786E+04  0.21517007786E+04  0.50400001928E-02 0.  1.
    10030    2    1    2    0    0  0.00000000000E+00  0.00000000000E+00 -0.88605268768E+03  0.34173488695E+04  0.33004823785E+04 0.  0.
        4    1    3    3  502    0  0.34501153557E+03 -0.15566108753E+04 -0.88380417782E+03  0.18229596305E+04  0.12699999809E+01 0.  1.
       -4    1    3    3    0  502 -0.34501153557E+03  0.15566108753E+04 -0.22485098629E+01  0.15943892390E+04  0.12699999809E+01 0. -1.
</event>
<event>
 5   0  0.1116462E-06  0.3288340E+04  0.7818609E-02  0.8165869E-01
       -2   -1    0    0    0  501  0.00000000000E+00  0.00000000000E+00  0.13098545128E+04  0.13098545128E+04  0.25500000920E-02 0. -1.
        2   -1    0    0  501    0  0.00000000000E+00  0.00000000000E+00 -0.20638134735E+04  0.20638134735E+04  0.25500000920E-02 0.  1.
    10030    2    1    2    0    0  0.00000000000E+00  0.00000000000E+00 -0.75395896074E+03  0.33736679863E+04  0.32883402450E+04 0.  0.
        1    1    3    3  502    0  0.73484143012E+03 -0.93996253878E+03  0.78364630518E+03  0.14274533384E+04  0.50400001928E-02 0. -1.
       -1    1    3    3    0  502 -0.73484143012E+03  0.93996253878E+03 -0.15376052659E+04  0.19462146479E+04  0.50400001928E-02 0.  1.
</event>
<event>
 5   0  0.3674967E-07  0.3251887E+04  0.7818609E-02  0.8175247E-01
       -1   -1    0    0    0  501  0.00000000000E+00  0.00000000000E+00  0.18111148350E+04  0.18111148350E+04  0.50400001928E-02 0.  1.
        1   -1    0    0  501    0  0.00000000000E+00  0.00000000000E+00 -0.14597039777E+04  0.14597039777E+04  0.50400001928E-02 0. -1.
    10030    2    1    2    0    0  0.00000000000E+00  0.00000000000E+00  0.35141085732E+03  0.32708188128E+04  0.32518865471E+04 0.  0.
        2    1    3    3  502    0  0.13089985332E+04 -0.15685555526E+03 -0.78147073535E+03  0.15325721306E+04  0.25500000920E-02 0. -1.
       -2    1    3    3    0  502 -0.13089985332E+04  0.15685555526E+03  0.11328815927E+04  0.17382466822E+04  0.25500000920E-02 0.  1.
</event>
<event>
 5   0  0.1126221E-06  0.3268573E+04  0.7818609E-02  0.8170938E-01
       -2   -1    0    0    0  501  0.00000000000E+00  0.00000000000E+00  0.14068201836E+04  0.14068201836E+04  0.25500000920E-02 0. -1.
        2   -1    0    0  501    0  0.00000000000E+00  0.00000000000E+00 -0.18985311715E+04  0.18985311715E+04  0.25500000920E-02 0.  1.
    10030    2    1    2    0    0  0.00000000000E+00  0.00000000000E+00 -0.49171098791E+03  0.33053513551E+04  0.32685727597E+04 0.  0.
        2    1    3    3  502    0 -0.36378459853E+03 -0.23422475831E+02 -0.18568929440E+04  0.18923369816E+04  0.25500000920E-02 0.  1.
       -2    1    3    3    0  502  0.36378459853E+03  0.23422475831E+02  0.13651819561E+04  0.14130143735E+04  0.25500000920E-02 0. -1.
</event>
<event>
 5   0  0.1129434E-06  0.3300804E+04  0.7818609E-02  0.8162691E-01
        2   -1    0    0  501    0  0.00000000000E+00  0.00000000000E+00  0.20783408277E+04  0.20783408277E+04  0.25500000920E-02 0.  1.
       -2   -1    0    0    0  501  0.00000000000E+00  0.00000000000E+00 -0.13105772535E+04  0.13105772535E+04  0.25500000920E-02 0. -1.
    10030    2    1    2    0    0  0.00000000000E+00  0.00000000000E+00  0.76776357420E+03  0.33889180811E+04  0.33008036680E+04 0.  0.
        3    1    3    3  502    0 -0.10650384281E+04 -0.12573605728E+04  0.28887095676E+03  0.16729342197E+04  0.10100000352E+00 0.  1.
       -3    1    3    3    0  502  0.10650384281E+04  0.12573605728E+04  0.47889261745E+03  0.17159838614E+04  0.10100000352E+00 0. -1.
</event>
<event>
 5   0  0.3709747E-07  0.3131055E+04  0.7818609E-02  0.8207267E-01
        1   -1    0    0  501    0  0.00000000000E+00  0.00000000000E+00  0.19667569051E+04  0.19667569052E+04  0.50400001928E-02 0.  1.
       -1   -1    0    0    0  501  0.00000000000E+00  0.00000000000E+00 -0.12461507452E+04  0.12461507452E+04  0.50400001928E-02 0. -1.
    10030    2    1    2    0    0  0.00000000000E+00  0.00000000000E+00  0.72060616000E+03  0.32129076503E+04  0.31310545079E+04 0.  0.
        4    1    3    3  502    0  0.61072372293E+03  0.10888592649E+04 -0.60899470789E+03  0.13890551219E+04  0.12699999809E+01 0. -1.
       -4    1    3    3    0  502 -0.61072372293E+03 -0.10888592649E+04  0.13296008679E+04  0.18238525284E+04  0.12699999809E+01 0.  1.
</event>
<event>
 5   0  0.3757406E-07  0.3300061E+04  0.7818609E-02  0.8162880E-01
        1   -1    0    0  501    0  0.00000000000E+00  0.00000000000E+00  0.24755753738E+04  0.24755753738E+04  0.50400001928E-02 0.  1.
       -1   -1    0    0    0  501  0.00000000000E+00  0.00000000000E+00 -0.10997848688E+04  0.10997848688E+04  0.50400001928E-02 0. -1.
    10030    2    1    2    0    0  0.00000000000E+00  0.00000000000E+00  0.13757905050E+04  0.35753602427E+04  0.33000608102E+04 0.  0.
        1    1    3    3  502    0  0.12470131244E+04 -0.25933839120E+03  0.18243544698E+04  0.22249870483E+04  0.50400001928E-02 0.  1.
       -1    1    3    3    0  502 -0.12470131244E+04  0.25933839120E+03 -0.44856396479E+03  0.13503731943E+04  0.50400001928E-02 0. -1.
</event>
<event>
 5   0  0.1129434E-06  0.3267083E+04  0.7818609E-02  0.8171322E-01
       -2   -1    0    0    0  501  0.00000000000E+00  0.00000000000E+00  0.11800098767E+04  0.11800098768E+04  0.25500000920E-02 0.  1.
        2   -1    0    0  501    0  0.00000000000E+00  0.00000000000E+00 -0.22613857378E+04  0.22613857378E+04  0.25500000920E-02 0. -1.
    10030    2    1    2    0    0  0.00000000000E+00  0.00000000000E+00 -0.10813758611E+04  0.34413956146E+04  0.32670828001E+04 0.  0.
        3    1    3    3  502    0 -0.10655273929E+04 -0.11092384717E+04 -0.11202231968E+04  0.19028028361E+04  0.10100000352E+00 0. -1.
       -3    1    3    3    0  502  0.10655273929E+04  0.11092384717E+04  0.38847335730E+02  0.15385927785E+04  0.10100000352E+00 0.  1.
</event>
<event>
 5   0  0.1146799E-06  0.3353053E+04  0.7818609E-02  0.8149526E-01
        2   -1    0    0  501    0  0.00000000000E+00  0.00000000000E+00  0.18434555978E+04  0.18434555978E+04  0.25500000920E-02 0.  1.
       -2   -1    0    0    0  501  0.00000000000E+00  0.00000000000E+00 -0.15247135440E+04  0.15247135440E+04  0.25500000920E-02 0. -1.
    10030    2    1    2    0    0  0.00000000000E+00  0.00000000000E+00  0.31874205388E+03  0.33681691418E+04  0.33530533653E+04 0.  0.
        5    1    3    3  502    0 -0.17422768746E+03 -0.15364519981E+04  0.81011829855E+03  0.17456671439E+04  0.46999998093E+01 0.  1.
       -5    1    3    3    0  502  0.17422768746E+03  0.15364519981E+04 -0.49137624468E+03  0.16225019979E+04  0.46999998093E+01 0. -1.
</event>
<event>
 5   0  0.3749685E-07  0.3255286E+04  0.7818609E-02  0.8174367E-01
        1   -1    0    0  501    0  0.00000000000E+00  0.00000000000E+00  0.20886273887E+04  0.20886273887E+04  0.50400001928E-02 0.  1.
       -1   -1    0    0    0  501  0.00000000000E+00  0.00000000000E+00 -0.12684028677E+04  0.12684028677E+04  0.50400001928E-02 0. -1.
    10030    2    1    2    0    0  0.00000000000E+00  0.00000000000E+00  0.82022452103E+03  0.33570302564E+04  0.32552855293E+04 0.  0.
        3    1    3    3  502    0 -0.61099463148E+03  0.40186615214E+03  0.19096616755E+04  0.20449006257E+04  0.10100000352E+00 0.  1.
       -3    1    3    3    0  502  0.61099463148E+03 -0.40186615214E+03 -0.10894371545E+04  0.13121296307E+04  0.10100000352E+00 0. -1.
</event>
<event>
 5   0  0.3709747E-07  0.3325157E+04  0.7818609E-02  0.8156524E-01
       -1   -1    0    0    0  501  0.00000000000E+00  0.00000000000E+00  0.12709548152E+04  0.12709548152E+04  0.50400001928E-02 0. -1.
        1   -1    0    0  501    0  0.00000000000E+00  0.00000000000E+00 -0.21748746548E+04  0.21748746548E+04  0.50400001928E-02 0.  1.
    10030    2    1    2    0    0  0.00000000000E+00  0.00000000000E+00 -0.90391983957E+03  0.34458294700E+04  0.33251570880E+04 0.  0.
        4    1    3    3  502    0  0.53812458538E+03  0.15384711544E+04 -0.11188245751E+03  0.16337046427E+04  0.12699999809E+01 0. -1.
       -4    1    3    3    0  502 -0.53812458538E+03 -0.15384711544E+04 -0.79203738206E+03  0.18121248273E+04  0.12699999809E+01 0.  1.
</event>
<event>
 5   0  0.3674967E-07  0.3305514E+04  0.7818609E-02  0.8161494E-01
       -1   -1    0    0    0  501  0.00000000000E+00  0.00000000000E+00  0.32582415438E+04  0.32582415438E+04  0.50400001928E-02 0. -1.
        1   -1    0    0  501    0  0.00000000000E+00  0.00000000000E+00 -0.83836810587E+03  0.83836810588E+03  0.50400001928E-02 0.  1.
    10030    2    1    2    0    0  0.00000000000E+00  0.00000000000E+00  0.24198734380E+04  0.40966096497E+04  0.33055140548E+04 0.  0.
        2    1    3    3  502    0 -0.42635538012E+03  0.22622035557E+03 -0.74908114290E+03  0.89111004825E+03  0.25500000920E-02 0.  1.
       -2    1    3    3    0  502  0.42635538012E+03 -0.22622035557E+03  0.31689545809E+04  0.32054996015E+04  0.25500000920E-02 0. -1.
</event>
<event>
 5   0  0.1120545E-06  0.3324764E+04  0.7818609E-02  0.8156623E-01
       -2   -1    0    0    0  501  0.00000000000E+00  0.00000000000E+00  0.11470331967E+04  0.11470331967E+04  0.25500000920E-02 0.  1.
        2   -1    0    0  501    0  0.00000000000E+00  0.00000000000E+00 -0.24092707539E+04  0.24092707539E+04  0.25500000920E-02 0. -1.
    10030    2    1    2    0    0  0.00000000000E+00  0.00000000000E+00 -0.12622375571E+04  0.35563039506E+04  0.33247637718E+04 0.  0.
        4    1    3    3  502    0  0.29828306674E+03 -0.64438737990E+03 -0.22388943211E+04  0.23487991139E+04  0.12699999809E+01 0. -1.
       -4    1    3    3    0  502 -0.29828306674E+03  0.64438737990E+03  0.97665676396E+03  0.12075048367E+04  0.12699999809E+01 0.  1.
</event>
<event>
 5   0  0.3796529E-07  0.3289446E+04  0.7818609E-02  0.8165586E-01
       -1   -1    0    0    0  501  0.00000000000E+00  0.00000000000E+00  0.12160569951E+04  0.12160569951E+04  0.50400001928E-02 0. -1.
        1   -1    0    0  501    0  0.00000000000E+00  0.00000000000E+00 -0.22244958883E+04  0.22244958883E+04  0.50400001928E-02 0.  1.
    10030    2    1    2    0    0  0.00000000000E+00  0.00000000000E+00 -0.10084388932E+04  0.34405528834E+04  0.32894460236E+04 0.  0.
        5    1    3    3  502    0  0.88942584078E+03  0.11784395235E+04  0.25384573934E+03  0.14980847059E+04  0.46999998093E+01 0. -1.
       -5    1    3    3    0  502 -0.88942584078E+03 -0.11784395235E+04 -0.12622846326E+04  0.19424681775E+04  0.46999998093E+01 0.  1.
</event>
<event>
 5   0  0.1146799E-06  0.3307740E+04  0.7818609E-02  0.8160929E-01
       -2   -1    0    0    0  501  0.00000000000E+00  0.00000000000E+00  0.17784727305E+04  0.17784727305E+04  0.25500000920E-02 0.  1.
        2   -1    0    0  501    0  0.00000000000E+00  0.00000000000E+00 -0.15379972824E+04  0.15379972824E+04  0.25500000920E-02 0. -1.
    10030    2    1    2    0    0  0.00000000000E+00  0.00000000000E+00  0.24047544817E+03  0.33164700129E+04  0.33077401508E+04 0.  0.
        5    1    3    3  502    0 -0.54119900027E+03 -0.88868565131E+03 -0.11686921772E+04  0.15647753960E+04  0.46999998093E+01 0. -1.
       -5    1    3    3    0  502  0.54119900027E+03  0.88868565131E+03  0.14091676254E+04  0.17516946170E+04  0.46999998093E+01 0.  1.
</event>
<event>
 5   0  0.3674967E-07  0.3289553E+04  0.7818609E-02  0.8165559E-01
        1   -1    0    0  501    0  0.00000000000E+00  0.00000000000E+00  0.27291384677E+04  0.27291384677E+04  0.50400001928E-02 0. -1.
       -1   -1    0    0    0  501  0.00000000000E+00  0.00000000000E+00 -0.99126158570E+03  0.99126158571E+03  0.50400001928E-02 0.  1.
    10030    2    1    2    0    0  0.00000000000E+00  0.00000000000E+00  0.17378768820E+04  0.37204000534E+04  0.32895532372E+04 0.  0.
        2    1    3    3  502    0 -0.15095405393E+04 -0.74583329721E+02  0.16027784915E+04  0.22029921030E+04  0.25500000920E-02 0. -1.
       -2    1    3    3    0  502  0.15095405393E+04  0.74583329721E+02  0.13509839044E+03  0.15174079504E+04  0.25500000920E-02 0.  1.
</event>
<event>
 5   0  0.1116462E-06  0.3134126E+04  0.7818609E-02  0.8206434E-01
        2   -1    0    0  501    0  0.00000000000E+00  0.00000000000E+00  0.87935691189E+03  0.87935691189E+03  0.25500000920E-02 0. -1.
       -2   -1    0    0    0  501  0.00000000000E+00  0.00000000000E+00 -0.27925938723E+04  0.27925938723E+04  0.25500000920E-02 0.  1.
    10030    2    1    2    0    0  0.00000000000E+00  0.00000000000E+00 -0.19132369604E+04  0.36719507842E+04  0.31341261773E+04 0.  0.
        1    1    3    3  502    0 -0.10327737273E+04 -0.18950611015E+03 -0.23194863745E+04  0.25460854619E+04  0.50400001928E-02 0.  1.
       -1    1    3    3    0  502  0.10327737273E+04  0.18950611015E+03  0.40624941407E+03  0.11258653223E+04  0.50400001928E-02 0. -1.
</event>
<event>
 5   0  0.3796529E-07  0.3322579E+04  0.7818609E-02  0.8157174E-01
        1   -1    0    0  501    0  0.00000000000E+00  0.00000000000E+00  0.30332995125E+04  0.30332995125E+04  0.50400001928E-02 0. -1.
       -1   -1    0    0    0  501  0.00000000000E+00  0.00000000000E+00 -0.90986149261E+03  0.90986149262E+03  0.50400001928E-02 0.  1.
    10030    2    1    2    0    0  0.00000000000E+00  0.00000000000E+00  0.21234380199E+04  0.39431610052E+04  0.33225787708E+04 0.  0.
        5    1    3    3  502    0 -0.77383805101E+03  0.40909924154E+03 -0.61398059700E+03  0.10691967930E+04  0.46999998093E+01 0.  1.
       -5    1    3    3    0  502  0.77383805101E+03 -0.40909924154E+03  0.27374186169E+04  0.28739642122E+04  0.46999998093E+01 0. -1.
</event>
<event>
 5   0  0.3674967E-07  0.3280636E+04  0.7818609E-02  0.8167840E-01
       -1   -1    0    0    0  501  0.00000000000E+00  0.00000000000E+00  0.13077499353E+04  0.13077499353E+04  0.50400001928E-02 0. -1.
        1   -1    0    0  501    0  0.00000000000E+00  0.00000000000E+00 -0.20574604997E+04  0.20574604997E+04  0.50400001928E-02 0.  1.
    10030    2    1    2    0    0  0.00000000000E+00  0.00000000000E+00 -0.74971056439E+03  0.33652104350E+04  0.32806364233E+04 0.  0.
        2    1    3    3  502    0 -0.16105177009E+04 -0.30306162946E+03 -0.44760772443E+03  0.16988132008E+04  0.25500000920E-02 0.  1.
       -2    1    3    3    0  502  0.16105177009E+04  0.30306162946E+03 -0.30210283996E+03  0.16663972342E+04  0.25500000920E-02 0. -1.
</event>
<event>
 5   0  0.1126221E-06  0.3304375E+04  0.7818609E-02  0.8161783E-01
        2   -1    0    0  501    0  0.00000000000E+00  0.00000000000E+00  0.20112701545E+04  0.20112701545E+04  0.25500000920E-02 0. -1.
       -2   -1    0    0    0  501  0.00000000000E+00  0.00000000000E+00 -0.13572137210E+04  0.13572137210E+04  0.25500000920E-02 0.  1.
    10030    2    1    2    0    0  0.00000000000E+00  0.00000000000E+00  0.65405643352E+03  0.33684838755E+04  0.33043749486E+04 0.  0.
        2    1    3    3  502    0 -0.10406697923E+03  0.14771109527E+04  0.10740738882E+04  0.18292953343E+04  0.25500000920E-02 0.  1.
       -2    1    3    3    0  502  0.10406697923E+03 -0.14771109527E+04 -0.42001745467E+03  0.15391885411E+04  0.25500000920E-02 0. -1.
</event>
<event>
 5   0  0.1126221E-06  0.3302173E+04  0.7818609E-02  0.8162343E-01
       -2   -1    0    0    0  501  0.00000000000E+00  0.00000000000E+00  0.16291871706E+04  0.16291871706E+04  0.25500000920E-02 0.  1.
        2   -1    0    0  501    0  0.00000000000E+00  0.00000000000E+00 -0.16732798349E+04  0.16732798349E+04  0.25500000920E-02 0. -1.
    10030    2    1    2    0    0  0.00000000000E+00  0.00000000000E+00 -0.44092664213E+02  0.33024670055E+04  0.33021726423E+04 0.  0.
        2    1    3    3  502    0  0.16069187191E+04 -0.37117611065E+03 -0.10032568687E+03  0.16522786442E+04  0.25500000920E-02 0.  1.
       -2    1    3    3    0  502 -0.16069187191E+04  0.37117611065E+03  0.56233022653E+02  0.16501883613E+04  0.25500000920E-02 0. -1.
</event>
<event>
 5   0  0.1120545E-06  0.3275145E+04  0.7818609E-02  0.8169249E-01
        2   -1    0    0  501    0  0.00000000000E+00  0.00000000000E+00  0.20664869299E+04  0.20664869300E+04  0.25500000920E-02 0. -1.
       -2   -1    0    0    0  501  0.00000000000E+00  0.00000000000E+00 -0.12976820367E+04  0.12976820367E+04  0.25500000920E-02 0.  1.
    10030    2    1    2    0    0  0.00000000000E+00  0.00000000000E+00  0.76880489322E+03  0.33641689667E+04  0.32751445575E+04 0.  0.
        4    1    3    3  502    0 -0.10633008639E+04  0.18140872687E+03  0.16500153050E+04  0.19713117392E+04  0.12699999809E+01 0. -1.
       -4    1    3    3    0  502  0.10633008639E+04 -0.18140872687E+03 -0.88121041183E+03  0.13928572275E+04  0.12699999809E+01 0.  1.
</event>
<event>
 5   0  0.1126221E-06  0.3267720E+04  0.7818609E-02  0.8171158E-01
        2   -1    0    0  501    0  0.00000000000E+00  0.00000000000E+00  0.13931444094E+04  0.13931444094E+04  0.25500000920E-02 0. -1.
       -2   -1    0    0    0  501  0.00000000000E+00  0.00000000000E+00 -0.19161674805E+04  0.19161674805E+04  0.25500000920E-02 0.  1.
    10030    2    1    2    0    0  0.00000000000E+00  0.00000000000E+00 -0.52302307118E+03  0.33093118899E+04  0.32677197021E+04 0.  0.
        2    1    3    3  502    0  0.11318720937E+03  0.15568053105E+04 -0.75040222551E+03  0.17319230985E+04  0.25500000920E-02 0.  1.
       -2    1    3    3    0  502 -0.11318720937E+03 -0.15568053105E+04  0.22737915433E+03  0.15773887913E+04  0.25500000920E-02 0. -1.
</event>
<event>
 5   0  0.1126221E-06  0.3310303E+04  0.7818609E-02  0.8160279E-01
        2   -1    0    0  501    0  0.00000000000E+00  0.00000000000E+00  0.19625440554E+04  0.19625440554E+04  0.25500000920E-02 0.  1.
       -2   -1    0    0    0  501  0.00000000000E+00  0.00000000000E+00 -0.13959057877E+04  0.13959057877E+04  0.25500000920E-02 0. -1.
    10030    2    1    2    0    0  0.00000000000E+00  0.00000000000E+00  0.56663826772E+03  0.33584498431E+04  0.33103030711E+04 0.  0.
        2    1    3    3  502    0  0.12451009133E+04 -0.10904790108E+04  0.27288123455E+03  0.16774638373E+04  0.25500000920E-02 0.  1.
       -2    1    3    3    0  502 -0.12451009133E+04  0.10904790108E+04  0.29375703316E+03  0.16809860058E+04  0.25500000920E-02 0. -1.
</event>
<event>
 5   0  0.1129434E-06  0.3300219E+04  0.7818609E-02  0.8162840E-01
       -2   -1    0    0    0  501  0.00000000000E+00  0.00000000000E+00  0.27616285247E+04  0.27616285247E+04  0.25500000920E-02 0.  1.
        2   -1    0    0  501    0  0.00000000000E+00  0.00000000000E+00 -0.98596197198E+03  0.98596197198E+03  0.25500000920E-02 0. -1.
    10030    2    1    2    0    0  0.00000000000E+00  0.00000000000E+00  0.17756665527E+04  0.37475904967E+04  0.33002186025E+04 0.  0.
        3    1    3    3  502    0 -0.97449302304E+01  0.12188119875E+04  0.21509411617E+04  0.24722753722E+04  0.10100000352E+00 0.  1.
       -3    1    3    3    0  502  0.97449302304E+01 -0.12188119875E+04 -0.37527460897E+03  0.12753151245E+04  0.10100000352E+00 0. -1.
</event>
<event>
 5   0  0.3709747E-07  0.3309740E+04  0.7818609E-02  0.8160422E-01
       -1   -1    0    0    0  501  0.00000000000E+00  0.00000000000E+00  0.18172824833E+04  0.18172824834E+04  0.50400001928E-02 0. -1.
        1   -1    0    0  501    0  0.00000000000E+00  0.00000000000E+00 -0.15069722626E+04  0.15069722626E+04  0.50400001928E-02 0.  1.
    10030    2    1    2    0    0  0.00000000000E+00  0.00000000000E+00  0.31031022076E+03  0.33242547459E+04  0.33097397455E+04 0.  0.
        4    1    3    3  502    0 -0.41889269170E+03 -0.48180706557E+03 -0.13782964305E+04  0.15189838047E+04  0.12699999809E+01 0.  1.
       -4    1    3    3    0  502  0.41889269170E+03  0.48180706557E+03  0.16886066513E+04  0.18052709412E+04  0.12699999809E+01 0. -1.
</event>
<event>
 5   0  0.3757406E-07  0.3277248E+04  0.7818609E-02  0.8168709E-01
       -1   -1    0    0    0  501  0.00000000000E+00  0.00000000000E+00  0.12637063486E+04  0.12637063487E+04  0.50400001928E-02 0.  1.
        1   -1    0    0  501    0  0.00000000000E+00  0.00000000000E+00 -0.21247721171E+04  0.21247721171E+04  0.50400001928E-02 0. -1.
    10030    2    1    2    0    0  0.00000000000E+00  0.00000000000E+00 -0.86106576844E+03  0.33884784657E+04  0.32772476341E+04 0.  0.
        1    1    3    3  502    0 -0.21149186871E+03  0.12511930805E+04 -0.15024827351E+04  0.19666385801E+04  0.50400001928E-02 0. -1.
       -1    1    3    3    0  502  0.21149186871E+03 -0.12511930805E+04  0.64141696669E+03  0.14218398857E+04  0.50400001928E-02 0.  1.
</event>
<event>
 5   0  0.3749685E-07  0.3301398E+04  0.7818609E-02  0.8162540E-01
       -1   -1    0    0    0  501  0.00000000000E+00  0.00000000000E+00  0.21696887997E+04  0.21696887997E+04  0.50400001928E-02 0.  1.
        1   -1    0    0  501    0  0.00000000000E+00  0.00000000000E+00 -0.12558517886E+04  0.12558517886E+04  0.50400001928E-02 0. -1.
    10030    2    1    2    0    0  0.00000000000E+00  0.00000000000E+00  0.91383701111E+03  0.34255405883E+04  0.33013982248E+04 0.  0.
        3    1    3    3  502    0 -0.31890334008E+03  0.12354815348E+04  0.15435289025E+04  0.20026471097E+04  0.10100000352E+00 0.  1.
       -3    1    3    3    0  502  0.31890334008E+03 -0.12354815348E+04 -0.62969189134E+03  0.14228934786E+04  0.10100000352E+00 0. -1.
</event>
<event>
 5   0  0.3674967E-07  0.3324626E+04  0.7818609E-02  0.8156657E-01
       -1   -1    0    0    0  501  0.00000000000E+00  0.00000000000E+00  0.14287674949E+04  0.14287674949E+04  0.50400001928E-02 0. -1.
        1   -1    0    0  501    0  0.00000000000E+00  0.00000000000E+00 -0.19340339097E+04  0.19340339097E+04  0.50400001928E-02 0.  1.
    10030    2    1    2    0    0  0.00000000000E+00  0.00000000000E+00 -0.50526641480E+03  0.33628014046E+04  0.33246261650E+04 0.  0.
        2    1    3    3  502    0 -0.36262745928E+03  0.42097228553E+03 -0.18373292561E+04  0.19195038772E+04  0.25500000920E-02 0.  1.
       -2    1    3    3    0  502  0.36262745928E+03 -0.42097228553E+03  0.13320628413E+04  0.14432975274E+04  0.25500000920E-02 0. -1.
</event>
<event>
 5   0  0.3749685E-07  0.3328430E+04  0.7818609E-02  0.8155699E-01
        1   -1    0    0  501    0  0.00000000000E+00  0.00000000000E+00  0.99214682176E+03  0.99214682177E+03  0.50400001928E-02 0.  1.
       -1   -1    0    0    0  501  0.00000000000E+00  0.00000000000E+00 -0.27915340555E+04  0.27915340555E+04  0.50400001928E-02 0. -1.
    10030    2    1    2    0    0  0.00000000000E+00  0.00000000000E+00 -0.17993872337E+04  0.37836808773E+04  0.33284300449E+04 0.  0.
        3    1    3    3  502    0 -0.51789428013E+03 -0.13663766230E+04  0.57486936768E+01  0.14612435180E+04  0.10100000352E+00 0.  1.
       -3    1    3    3    0  502  0.51789428013E+03  0.13663766230E+04 -0.18051359274E+04  0.23224373593E+04  0.10100000352E+00 0. -1.
</event>
<event>
 5   0  0.1120545E-06  0.3281429E+04  0.7818609E-02  0.8167637E-01
       -2   -1    0    0    0  501  0.00000000000E+00  0.00000000000E+00  0.12781498573E+04  0.12781498573E+04  0.25500000920E-02 0.  1.
        2   -1    0    0  501    0  0.00000000000E+00  0.00000000000E+00 -0.21061254959E+04  0.21061254959E+04  0.25500000920E-02 0. -1.
    10030    2    1    2    0    0  0.00000000000E+00  0.00000000000E+00 -0.82797563864E+03  0.33842753533E+04  0.32814289583E+04 0.  0.
        4    1    3    3  502    0 -0.80427806147E+03  0.14205555282E+04 -0.58377183025E+03  0.17336759707E+04  0.12699999809E+01 0. -1.
       -4    1    3    3    0  502  0.80427806147E+03 -0.14205555282E+04 -0.24420380839E+03  0.16505993825E+04  0.12699999809E+01 0.  1.
</event>
<event>
 5   0  0.1120545E-06  0.3291803E+04  0.7818609E-02  0.8164984E-01
        2   -1    0    0  501    0  0.00000000000E+00  0.00000000000E+00  0.24706414265E+04  0.24706414265E+04  0.25500000920E-02 0. -1.
       -2   -1    0    0    0  501  0.00000000000E+00  0.00000000000E+00 -0.10964727908E+04  0.10964727908E+04  0.25500000920E-02 0.  1.
    10030    2    1    2    0    0  0.00000000000E+00  0.00000000000E+00  0.13741686357E+04  0.35671142173E+04  0.32918026065E+04 0.  0.
        4    1    3    3  502    0  0.43657164149E+03 -0.10929521971E+03 -0.10285024501E+04  0.11226571809E+04  0.12699999809E+01 0.  1.
       -4    1    3    3    0  502 -0.43657164149E+03  0.10929521971E+03  0.24026710858E+04  0.24444570363E+04  0.12699999809E+01 0. -1.
</event>
<event>
 5   0  0.1126221E-06  0.3213910E+04  0.7818609E-02  0.8185153E-01
        2   -1    0    0  501    0  0.00000000000E+00  0.00000000000E+00  0.18211990466E+04  0.18211990466E+04  0.25500000920E-02 0.  1.
       -2   -1    0    0    0  501  0.00000000000E+00  0.00000000000E+00 -0.14179148382E+04  0.14179148382E+04  0.25500000920E-02 0. -1.
    10030    2    1    2    0    0  0.00000000000E+00  0.00000000000E+00  0.40328420840E+03  0.32391138847E+04  0.32139104850E+04 0.  0.
        2    1    3    3  502    0  0.26918446160E+03 -0.73931757520E+03  0.16137917811E+04  0.17953759116E+04  0.25500000920E-02 0.  1.
       -2    1    3    3    0  502 -0.26918446160E+03  0.73931757520E+03 -0.12105075727E+04  0.14437379731E+04  0.25500000920E-02 0. -1.
</event>
<event>
 5   0  0.3573375E-07  0.3289005E+04  0.7818609E-02  0.8165699E-01
        3   -1    0    0  501    0  0.00000000000E+00  0.00000000000E+00  0.28591474081E+04  0.28591474099E+04  0.10100000352E+00 0.  1.
       -3   -1    0    0    0  501  0.00000000000E+00  0.00000000000E+00 -0.94587221629E+03  0.94587222168E+03  0.10100000352E+00 0. -1.
    10030    2    1    2    0    0  0.00000000000E+00  0.00000000000E+00  0.19132751918E+04  0.38050196316E+04  0.32890047791E+04 0.  0.
        5    1    3    3  502    0 -0.48133563725E+03  0.94619996704E+03  0.24096242151E+04  0.26331139970E+04  0.46999998093E+01 0.  1.
       -5    1    3    3    0  502  0.48133563725E+03 -0.94619996704E+03 -0.49634902331E+03  0.11719056345E+04  0.46999998093E+01 0. -1.
</event>
<event>
 5   0  0.3709747E-07  0.3290004E+04  0.7818609E-02  0.8165444E-01
       -1   -1    0    0    0  501  0.00000000000E+00  0.00000000000E+00  0.10320377351E+04  0.10320377351E+04  0.50400001928E-02 0. -1.
        1   -1    0    0  501    0  0.00000000000E+00  0.00000000000E+00 -0.26220278962E+04  0.26220278962E+04  0.50400001928E-02 0.  1.
    10030    2    1    2    0    0  0.00000000000E+00  0.00000000000E+00 -0.15899901610E+04  0.36540656313E+04  0.32900040920E+04 0.  0.
        4    1    3    3  502    0  0.62577189846E+03  0.76222583011E+03  0.66730244345E+03  0.11907446615E+04  0.12699999809E+01 0. -1.
       -4    1    3    3    0  502 -0.62577189846E+03 -0.76222583011E+03 -0.22572926045E+04  0.24633209698E+04  0.12699999809E+01 0.  1.
</event>
<event>
 5   0  0.3749685E-07  0.3298197E+04  0.7818609E-02  0.8163354E-01
       -1   -1    0    0    0  501  0.00000000000E+00  0.00000000000E+00  0.13308644575E+04  0.13308644575E+04  0.50400001928E-02 0. -1.
        1   -1    0    0  501    0  0.00000000000E+00  0.00000000000E+00 -0.20434277918E+04  0.20434277918E+04  0.50400001928E-02 0.  1.
    10030    2    1    2    0    0  0.00000000000E+00  0.00000000000E+00 -0.71256333429E+03  0.33742922493E+04  0.32981967312E+04 0.  0.
        3    1    3    3  502    0 -0.18106112185E+03 -0.73588561582E+03  0.11421657707E+04  0.13707127443E+04  0.10100000352E+00 0. -1.
       -3    1    3    3    0  502  0.18106112185E+03  0.73588561582E+03 -0.18547291050E+04  0.20035795049E+04  0.10100000352E+00 0.  1.
</event>
<event>
 5   0  0.3709747E-07  0.3250033E+04  0.7818609E-02  0.8175727E-01
        1   -1    0    0  501    0  0.00000000000E+00  0.00000000000E+00  0.15533016496E+04  0.15533016496E+04  0.50400001928E-02 0.  1.
       -1   -1    0    0    0  501  0.00000000000E+00  0.00000000000E+00 -0.17000420237E+04  0.17000420237E+04  0.50400001928E-02 0. -1.
    10030    2    1    2    0    0  0.00000000000E+00  0.00000000000E+00 -0.14674037409E+03  0.32533436733E+04  0.32500326643E+04 0.  0.
        4    1    3    3  502    0 -0.84615578022E+03  0.39083666214E+03  0.12591296373E+04  0.15665701252E+04  0.12699999809E+01 0.  1.
       -4    1    3    3    0  502  0.84615578022E+03 -0.39083666214E+03 -0.14058700114E+04  0.16867735481E+04  0.12699999809E+01 0. -1.
</event>
<event>
 5   0  0.3709747E-07  0.3330367E+04  0.7818609E-02  0.8155211E-01
        1   -1    0    0  501    0  0.00000000000E+00  0.00000000000E+00  0.16564262166E+04  0.16564262166E+04  0.50400001928E-02 0.  1.
       -1   -1    0    0    0  501  0.00000000000E+00  0.00000000000E+00 -0.16739869149E+04  0.16739869149E+04  0.50400001928E-02 0. -1.
    10030    2    1    2    0    0  0.00000000000E+00  0.00000000000E+00 -0.17560698300E+02  0.33304131316E+04  0.33303668340E+04 0.  0.
        4    1    3    3  502    0  0.14547872678E+04  0.14784073543E+03 -0.80539127357E+03  0.16694069588E+04  0.12699999809E+01 0. -1.
       -4    1    3    3    0  502 -0.14547872678E+04 -0.14784073543E+03  0.78783057526E+03  0.16610061728E+04  0.12699999809E+01 0.  1.
</event>
<event>
 5   0  0.1116462E-06  0.3270533E+04  0.7818609E-02  0.8170434E-01
       -2   -1    0    0    0  501  0.00000000000E+00  0.00000000000E+00  0.12797557231E+04  0.12797557231E+04  0.25500000920E-02 0.  1.
        2   -1    0    0  501    0  0.00000000000E+00  0.00000000000E+00 -0.20895372470E+04  0.20895372470E+04  0.25500000920E-02 0. -1.
    10030    2    1    2    0    0  0.00000000000E+00  0.00000000000E+00 -0.80978152392E+03  0.33692929701E+04  0.32705334430E+04 0.  0.
        1    1    3    3  502    0  0.36836470371E+03 -0.15927604769E+04 -0.36474270056E+03  0.16749972326E+04  0.50400001928E-02 0. -1.
       -1    1    3    3    0  502 -0.36836470371E+03  0.15927604769E+04 -0.44503882335E+03  0.16942957375E+04  0.50400001928E-02 0.  1.
</event>
<event>
 5   0  0.1126221E-06  0.3307096E+04  0.7818609E-02  0.8161092E-01
       -2   -1    0    0    0  501  0.00000000000E+00  0.00000000000E+00  0.11012086417E+04  0.11012086417E+04  0.25500000920E-02 0. -1.
        2   -1    0    0  501    0  0.00000000000E+00  0.00000000000E+00 -0.24829273268E+04  0.24829273268E+04  0.25500000920E-02 0.  1.
    10030    2    1    2    0    0  0.00000000000E+00  0.00000000000E+00 -0.13817186851E+04  0.35841359686E+04  0.33070960247E+04 0.  0.
        2    1    3    3  502    0  0.14517655749E+04  0.79041468371E+03 -0.64434076996E+03  0.17741346298E+04  0.25500000920E-02 0. -1.
       -2    1    3    3    0  502 -0.14517655749E+04 -0.79041468371E+03 -0.73737791517E+03  0.18100013388E+04  0.25500000920E-02 0.  1.
</event>
<event>
 5   0  0.1129434E-06  0.3319809E+04  0.7818609E-02  0.8157873E-01
        2   -1    0    0  501    0  0.00000000000E+00  0.00000000000E+00  0.26152410169E+04  0.26152410169E+04  0.25500000920E-02 0. -1.
       -2   -1    0    0    0  501  0.00000000000E+00  0.00000000000E+00 -0.10535481846E+04  0.10535481846E+04  0.25500000920E-02 0.  1.
    10030    2    1    2    0    0  0.00000000000E+00  0.00000000000E+00  0.15616928323E+04  0.36687892015E+04  0.33198086846E+04 0.  0.
        3    1    3    3  502    0  0.63661475669E+03 -0.15246655735E+04  0.95697004892E+03  0.19093651155E+04  0.10100000352E+00 0.  1.
       -3    1    3    3    0  502 -0.63661475669E+03  0.15246655735E+04  0.60472278341E+03  0.17594240860E+04  0.10100000352E+00 0. -1.
</event>
<event>
 5   0  0.1146799E-06  0.3306557E+04  0.7818609E-02  0.8161229E-01
       -2   -1    0    0    0  501  0.00000000000E+00  0.00000000000E+00  0.16717767105E+04  0.16717767105E+04  0.25500000920E-02 0. -1.
        2   -1    0    0  501    0  0.00000000000E+00  0.00000000000E+00 -0.16349854339E+04  0.16349854339E+04  0.25500000920E-02 0.  1.
    10030    2    1    2    0    0  0.00000000000E+00  0.00000000000E+00  0.36791276606E+02  0.33067621445E+04  0.33065574669E+04 0.  0.
        5    1    3    3  502    0  0.16055824962E+04  0.24899182581E+03 -0.28726424551E+03  0.16499802781E+04  0.46999998093E+01 0.  1.
       -5    1    3    3    0  502 -0.16055824962E+04 -0.24899182581E+03  0.32405552211E+03  0.16567818664E+04  0.46999998093E+01 0. -1.
</event>
<event>
 5   0  0.3796529E-07  0.3318197E+04  0.7818609E-02  0.8158281E-01
       -1   -1    0    0    0  501  0.00000000000E+00  0.00000000000E+00  0.21621252046E+04  0.21621252046E+04  0.50400001928E-02 0.  1.
        1   -1    0    0  501    0  0.00000000000E+00  0.00000000000E+00 -0.12731028840E+04  0.12731028840E+04  0.50400001928E-02 0. -1.
    10030    2    1    2    0    0  0.00000000000E+00  0.00000000000E+00  0.88902232056E+03  0.34352280886E+04  0.33181970006E+04 0.  0.
        5    1    3    3  502    0 -0.65034509645E+03 -0.11471559020E+04  0.14868328627E+04  0.19873624380E+04  0.46999998093E+01 0.  1.
       -5    1    3    3    0  502  0.65034509645E+03  0.11471559020E+04 -0.59781054218E+03  0.14478656507E+04  0.46999998093E+01 0. -1.
</event>
<event>
 5   0  0.3674967E-07  0.3326238E+04  0.7818609E-02  0.8156251E-01
       -1   -1    0    0    0  501  0.00000000000E+00  0.00000000000E+00  0.26683247655E+04  0.26683247655E+04  0.50400001928E-02 0. -1.
        1   -1    0    0  501    0  0.00000000000E+00  0.00000000000E+00 -0.10365923883E+04  0.10365923883E+04  0.50400001928E-02 0.  1.
    10030    2    1    2    0    0  0.00000000000E+00  0.00000000000E+00  0.16317323772E+04  0.37049171538E+04  0.33262382004E+04 0.  0.
        2    1    3    3  502    0  0.37657615375E+03 -0.13435023047E+03  0.26139964722E+04  0.26443973114E+04  0.25500000920E-02 0. -1.
       -2    1    3    3    0  502 -0.37657615375E+03  0.13435023047E+03 -0.98226409494E+03  0.10605198424E+04  0.25500000920E-02 0.  1.
</event>
<event>
 5   0  0.3796529E-07  0.3309916E+04  0.7818609E-02  0.8160377E-01
        1   -1    0    0  501    0  0.00000000000E+00  0.00000000000E+00  0.13189520105E+04  0.13189520105E+04  0.50400001928E-02 0.  1.
       -1   -1    0    0    0  501  0.00000000000E+00  0.00000000000E+00 -0.20765618031E+04  0.20765618031E+04  0.50400001928E-02 0. -1.
    10030    2    1    2    0    0  0.00000000000E+00  0.00000000000E+00 -0.75760979260E+03  0.33955138136E+04  0.33099156274E+04 0.  0.
        5    1    3    3  502    0 -0.45909435180E+03  0.11836006096E+04  0.71034141875E+03  0.14547456987E+04  0.46999998093E+01 0.  1.
       -5    1    3    3    0  502  0.45909435180E+03 -0.11836006096E+04 -0.14679512114E+04  0.19407681149E+04  0.46999998093E+01 0. -1.
</event>
<event>
 5   0  0.1126221E-06  0.3298986E+04  0.7818609E-02  0.8163154E-01
       -2   -1    0    0    0  501  0.00000000000E+00  0.00000000000E+00  0.18632198707E+04  0.18632198707E+04  0.25500000920E-02 0.  1.
        2   -1    0    0  501    0  0.00000000000E+00  0.00000000000E+00 -0.14602820512E+04  0.14602820512E+04  0.25500000920E-02 0. -1.
    10030    2    1    2    0    0  0.00000000000E+00  0.00000000000E+00  0.40293781956E+03  0.33235019219E+04  0.32989856227E+04 0.  0.
        2    1    3    3  502    0 -0.74061227396E+03  0.14014544549E+04 -0.25826149288E+03  0.16060137385E+04  0.25500000920E-02 0. -1.
       -2    1    3    3    0  502  0.74061227396E+03 -0.14014544549E+04  0.66119931244E+03  0.17174881834E+04  0.25500000920E-02 0.  1.
</event>
<event>
 5   0  0.1116462E-06  0.3299553E+04  0.7818609E-02  0.8163009E-01
        2   -1    0    0  501    0  0.00000000000E+00  0.00000000000E+00  0.17869743039E+04  0.17869743039E+04  0.25500000920E-02 0.  1.
       -2   -1    0    0    0  501  0.00000000000E+00  0.00000000000E+00 -0.15231122607E+04  0.15231122607E+04  0.25500000920E-02 0. -1.
    10030    2    1    2    0    0  0.00000000000E+00  0.00000000000E+00  0.26386204323E+03  0.33100865647E+04  0.32995529830E+04 0.  0.
        1    1    3    3  502    0  0.10253169023E+04  0.12791309595E+04  0.31775657207E+03  0.16698562815E+04  0.50400001928E-02 0. -1.
       -1    1    3    3    0  502 -0.10253169023E+04 -0.12791309595E+04 -0.53894528842E+02  0.16402302832E+04  0.50400001928E-02 0.  1.
</event>
<event>
 5   0  0.1116462E-06  0.3297341E+04  0.7818609E-02  0.8163572E-01
        2   -1    0    0  501    0  0.00000000000E+00  0.00000000000E+00  0.27504959905E+04  0.27504959905E+04  0.25500000920E-02 0.  1.
       -2   -1    0    0    0  501  0.00000000000E+00  0.00000000000E+00 -0.98822705485E+03  0.98822705486E+03  0.25500000920E-02 0. -1.
    10030    2    1    2    0    0  0.00000000000E+00  0.00000000000E+00  0.17622689357E+04  0.37387230454E+04  0.32973410816E+04 0.  0.
        1    1    3    3  502    0  0.10825687687E+04 -0.93951502650E+03  0.18047056437E+04  0.23046921886E+04  0.50400001928E-02 0. -1.
       -1    1    3    3    0  502 -0.10825687687E+04  0.93951502650E+03 -0.42436707992E+02  0.14340308568E+04  0.50400001928E-02 0.  1.
</event>
<event>
 5   0  0.1129434E-06  0.3289229E+04  0.7818609E-02  0.8165642E-01
        2   -1    0    0  501    0  0.00000000000E+00  0.00000000000E+00  0.19490016412E+04  0.19490016412E+04  0.25500000920E-02 0.  1.
       -2   -1    0    0    0  501  0.00000000000E+00  0.00000000000E+00 -0.13877651881E+04  0.13877651881E+04  0.25500000920E-02 0. -1.
    10030    2    1    2    0    0  0.00000000000E+00  0.00000000000E+00  0.56123645312E+03  0.33367668293E+04  0.32892288635E+04 0.  0.
        3    1    3    3  502    0  0.51448155424E+03  0.10264060148E+04  0.14751576319E+04  0.18693021762E+04  0.10100000352E+00 0.  1.
       -3    1    3    3    0  502 -0.51448155424E+03 -0.10264060148E+04 -0.91392117875E+03  0.14674646531E+04  0.10100000352E+00 0. -1.
</event>
<event>
 5   0  0.3709747E-07  0.3293948E+04  0.7818609E-02  0.8164437E-01
        1   -1    0    0  501    0  0.00000000000E+00  0.00000000000E+00  0.23888190810E+04  0.23888190810E+04  0.50400001928E-02 0.  1.
       -1   -1    0    0    0  501  0.00000000000E+00  0.00000000000E+00 -0.11355082787E+04  0.11355082787E+04  0.50400001928E-02 0. -1.
    10030    2    1    2    0    0  0.00000000000E+00  0.00000000000E+00  0.12533108023E+04  0.35243273597E+04  0.32939482952E+04 0.  0.
        4    1    3    3  502    0 -0.44784030681E+03  0.40800068322E+03  0.22652702259E+04  0.23448830050E+04  0.12699999809E+01 0.  1.
       -4    1    3    3    0  502  0.44784030681E+03 -0.40800068322E+03 -0.10119594236E+04  0.11794443547E+04  0.12699999809E+01 0. -1.
</event>
<event>
 5   0  0.1129434E-06  0.3297622E+04  0.7818609E-02  0.8163501E-01
        2   -1    0    0  501    0  0.00000000000E+00  0.00000000000E+00  0.21981762380E+04  0.21981762380E+04  0.25500000920E-02 0. -1.
       -2   -1    0    0    0  501  0.00000000000E+00  0.00000000000E+00 -0.12367424267E+04  0.12367424267E+04  0.25500000920E-02 0.  1.
    10030    2    1    2    0    0  0.00000000000E+00  0.00000000000E+00  0.96143381137E+03  0.34349186647E+04  0.32976220614E+04 0.  0.
        3    1    3    3  502    0 -0.20771904124E+03  0.10882596306E+04 -0.79123914577E+03  0.13614388050E+04  0.10100000352E+00 0.  1.
       -3    1    3    3    0  502  0.20771904124E+03 -0.10882596306E+04  0.17526729571E+04  0.20734798597E+04  0.10100000352E+00 0. -1.
</event>
<event>
 5   0  0.3674967E-07  0.3312045E+04  0.7818609E-02  0.8159837E-01
       -1   -1    0    0    0  501  0.00000000000E+00  0.00000000000E+00  0.10898899267E+04  0.10898899267E+04  0.50400001928E-02 0. -1.
        1   -1    0    0  501    0  0.00000000000E+00  0.00000000000E+00 -0.25162264761E+04  0.25162264761E+04  0.50400001928E-02 0.  1.
    10030    2    1    2    0    0  0.00000000000E+00  0.00000000000E+00 -0.14263365494E+04  0.36061164028E+04  0.33120446190E+04 0.  0.
        2    1    3    3  502    0 -0.75597171179E+03  0.10657314909E+03  0.88685419490E+03  0.11701971749E+04  0.25500000920E-02 0. -1.
       -2    1    3    3    0  502  0.75597171179E+03 -0.10657314909E+03 -0.23131907443E+04  0.24359192279E+04  0.25500000920E-02 0.  1.
</event>
<event>
 5   0  0.3674967E-07  0.3254954E+04  0.7818609E-02  0.8174453E-01
       -1   -1    0    0    0  501  0.00000000000E+00  0.00000000000E+00  0.12826423468E+04  0.12826423468E+04  0.50400001928E-02 0.  1.
        1   -1    0    0  501    0  0.00000000000E+00  0.00000000000E+00 -0.20650196511E+04  0.20650196511E+04  0.50400001928E-02 0. -1.
    10030    2    1    2    0    0  0.00000000000E+00  0.00000000000E+00 -0.78237730423E+03  0.33476619979E+04  0.32549541634E+04 0.  0.
        2    1    3    3  502    0  0.11083239035E+04  0.98518748958E+02  0.83032328505E+03  0.13883531887E+04  0.25500000920E-02 0.  1.
       -2    1    3    3    0  502 -0.11083239035E+04 -0.98518748958E+02 -0.16127005893E+04  0.19593088092E+04  0.25500000920E-02 0. -1.
</event>
<event>
 5   0  0.1129434E-06  0.3297418E+04  0.7818609E-02  0.8163553E-01
        2   -1    0    0  501    0  0.00000000000E+00  0.00000000000E+00  0.20339322820E+04  0.20339322820E+04  0.25500000920E-02 0.  1.
       -2   -1    0    0    0  501  0.00000000000E+00  0.00000000000E+00 -0.13364464883E+04  0.13364464883E+04  0.25500000920E-02 0. -1.
    10030    2    1    2    0    0  0.00000000000E+00  0.00000000000E+00  0.69748579371E+03  0.33703787703E+04  0.32974181754E+04 0.  0.
        3    1    3    3  502    0  0.36467905892E+03  0.51174232466E+03  0.19067302571E+04  0.20076083549E+04  0.10100000352E+00 0.  1.
       -3    1    3    3    0  502 -0.36467905892E+03 -0.51174232466E+03 -0.12092444634E+04  0.13627704155E+04  0.10100000352E+00 0. -1.
</event>
<event>
 5   0  0.3674967E-07  0.3296140E+04  0.7818609E-02  0.8163878E-01
       -1   -1    0    0    0  501  0.00000000000E+00  0.00000000000E+00  0.99085944501E+03  0.99085944503E+03  0.50400001928E-02 0.  1.
        1   -1    0    0  501    0  0.00000000000E+00  0.00000000000E+00 -0.27411914981E+04  0.27411914981E+04  0.50400001928E-02 0. -1.
    10030    2    1    2    0    0  0.00000000000E+00  0.00000000000E+00 -0.17503320531E+04  0.37320509431E+04  0.32961404621E+04 0.  0.
        2    1    3    3  502    0 -0.38066428306E+03 -0.85846863777E+03 -0.24086262392E+04  0.25852183773E+04  0.25500000920E-02 0. -1.
       -2    1    3    3    0  502  0.38066428306E+03  0.85846863777E+03  0.65829418612E+03  0.11468325658E+04  0.25500000920E-02 0.  1.
</event>
<event>
 5   0  0.3674967E-07  0.3299196E+04  0.7818609E-02  0.8163100E-01
        1   -1    0    0  501    0  0.00000000000E+00  0.00000000000E+00  0.15478504442E+04  0.15478504443E+04  0.50400001928E-02 0.  1.
       -1   -1    0    0    0  501  0.00000000000E+00  0.00000000000E+00 -0.17580335866E+04  0.17580335866E+04  0.50400001928E-02 0. -1.
    10030    2    1    2    0    0  0.00000000000E+00  0.00000000000E+00 -0.21018314238E+03  0.33058840309E+04  0.32991957008E+04 0.  0.
        2    1    3    3  502    0  0.25047558984E+03 -0.15802579744E+04 -0.50742739251E+03  0.16785219228E+04  0.25500000920E-02 0. -1.
       -2    1    3    3    0  502 -0.25047558984E+03  0.15802579744E+04  0.29724425013E+03  0.16273621081E+04  0.25500000920E-02 0.  1.
</event>
<event>
 5   0  0.3573375E-07  0.3301508E+04  0.7818609E-02  0.8162512E-01
       -3   -1    0    0    0  501  0.00000000000E+00  0.00000000000E+00  0.13550675725E+04  0.13550675762E+04  0.10100000352E+00 0. -1.
        3   -1    0    0  501    0  0.00000000000E+00  0.00000000000E+00 -0.20109612389E+04  0.20109612414E+04  0.10100000352E+00 0.  1.
    10030    2    1    2    0    0  0.00000000000E+00  0.00000000000E+00 -0.65589366643E+03  0.33660288177E+04  0.33015077616E+04 0.  0.
        4    1    3    3  502    0 -0.95786689714E+01 -0.16299979002E+04 -0.59381472504E+03  0.17348205804E+04  0.12699999809E+01 0.  1.
       -4    1    3    3    0  502  0.95786689714E+01  0.16299979002E+04 -0.62078941390E+02  0.16312082373E+04  0.12699999809E+01 0. -1.
</event>
<event>
 5   0  0.1126221E-06  0.3287016E+04  0.7818609E-02  0.8166207E-01
        2   -1    0    0  501    0  0.00000000000E+00  0.00000000000E+00  0.23170494531E+04  0.23170494531E+04  0.25500000920E-02 0. -1.
       -2   -1    0    0    0  501  0.00000000000E+00  0.00000000000E+00 -0.11657575305E+04  0.11657575305E+04  0.25500000920E-02 0.  1.
    10030    2    1    2    0    0  0.00000000000E+00  0.00000000000E+00  0.11512919227E+04  0.34828069836E+04  0.32870155755E+04 0.  0.
        2    1    3    3  502    0 -0.11634130203E+04  0.76461223747E+03 -0.34985617346E+03  0.14354654547E+04  0.25500000920E-02 0.  1.
       -2    1    3    3    0  502  0.11634130203E+04 -0.76461223747E+03  0.15011480961E+04  0.20473415289E+04  0.25500000920E-02 0. -1.
</event>
<event>
 5   0  0.1126221E-06  0.2972074E+04  0.7818609E-02  0.8251751E-01
       -2   -1    0    0    0  501  0.00000000000E+00  0.00000000000E+00  0.18448693564E+04  0.18448693564E+04  0.25500000920E-02 0.  1.
        2   -1    0    0  501    0  0.00000000000E+00  0.00000000000E+00 -0.11969986466E+04  0.11969986466E+04  0.25500000920E-02 0. -1.
    10030    2    1    2    0    0  0.00000000000E+00  0.00000000000E+00  0.64787070979E+03  0.30418680030E+04  0.29720741059E+04 0.  0.
        2    1    3    3  502    0  0.14329656238E+03  0.85798805849E+03 -0.90919362728E+03  0.12582966523E+04  0.25500000920E-02 0. -1.
       -2    1    3    3    0  502 -0.14329656238E+03 -0.85798805849E+03  0.15570643371E+04  0.17835713507E+04  0.25500000920E-02 0.  1.
</event>
<event>
 5   0  0.3749685E-07  0.3315760E+04  0.7818609E-02  0.8158897E-01
        1   -1    0    0  501    0  0.00000000000E+00  0.00000000000E+00  0.27860421448E+04  0.27860421448E+04  0.50400001928E-02 0.  1.
       -1   -1    0    0    0  501  0.00000000000E+00  0.00000000000E+00 -0.98654893625E+03  0.98654893626E+03  0.50400001928E-02 0. -1.
    10030    2    1    2    0    0  0.00000000000E+00  0.00000000000E+00  0.17994932085E+04  0.37725910810E+04  0.33157604945E+04 0.  0.
        3    1    3    3  502    0  0.51207133149E+03  0.14852096649E+04  0.15023403845E+04  0.21737275446E+04  0.10100000352E+00 0. -1.
       -3    1    3    3    0  502 -0.51207133149E+03 -0.14852096649E+04  0.29715282404E+03  0.15988635364E+04  0.10100000352E+00 0.  1.
</event>
<event>
 5   0  0.1120545E-06  0.3311658E+04  0.7818609E-02  0.8159935E-01
        2   -1    0    0  501    0  0.00000000000E+00  0.00000000000E+00  0.20853333519E+04  0.20853333519E+04  0.25500000920E-02 0.  1.
       -2   -1    0    0    0  501  0.00000000000E+00  0.00000000000E+00 -0.13147875730E+04  0.13147875730E+04  0.25500000920E-02 0. -1.
    10030    2    1    2    0    0  0.00000000000E+00  0.00000000000E+00  0.77054577891E+03  0.34001209248E+04  0.33116584223E+04 0.  0.
        4    1    3    3  502    0  0.15174518730E+04 -0.13761020011E+03  0.10507948433E+04  0.18508830783E+04  0.12699999809E+01 0.  1.
       -4    1    3    3    0  502 -0.15174518730E+04  0.13761020011E+03 -0.28024906440E+03  0.15492378465E+04  0.12699999809E+01 0. -1.
</event>
<event>
 5   0  0.3757406E-07  0.3289952E+04  0.7818609E-02  0.8165457E-01
        1   -1    0    0  501    0  0.00000000000E+00  0.00000000000E+00  0.19970438537E+04  0.19970438538E+04  0.50400001928E-02 0. -1.
       -1   -1    0    0    0  501  0.00000000000E+00  0.00000000000E+00 -0.13549753981E+04  0.13549753981E+04  0.50400001928E-02 0.  1.
    10030    2    1    2    0    0  0.00000000000E+00  0.00000000000E+00  0.64206845564E+03  0.33520192519E+04  0.32899515442E+04 0.  0.
        1    1    3    3  502    0  0.63128938143E+02  0.19697665288E+03  0.19837409431E+04  0.19944957242E+04  0.50400001928E-02 0. -1.
       -1    1    3    3    0  502 -0.63128938143E+02 -0.19697665288E+03 -0.13416724874E+04  0.13575235277E+04  0.50400001928E-02 0.  1.
</event>
<event>
 5   0  0.1126221E-06  0.3328320E+04  0.7818609E-02  0.8155727E-01
        2   -1    0    0  501    0  0.00000000000E+00  0.00000000000E+00  0.24721287974E+04  0.24721287974E+04  0.25500000920E-02 0.  1.
       -2   -1    0    0    0  501  0.00000000000E+00  0.00000000000E+00 -0.11202605748E+04  0.11202605749E+04  0.25500000920E-02 0. -1.
    10030    2    1    2    0    0  0.00000000000E+00  0.00000000000E+00  0.13518682226E+04  0.35923893723E+04  0.33283199532E+04 0.  0.
        2    1    3    3  502    0  0.56276445757E+02  0.15413279216E+04  0.13504738936E+04  0.20500337893E+04  0.25500000920E-02 0.  1.
       -2    1    3    3    0  502 -0.56276445757E+02 -0.15413279216E+04  0.13943290282E+01  0.15423555830E+04  0.25500000920E-02 0. -1.
</event>
<event>
 5   0  0.3796529E-07  0.3266583E+04  0.7818609E-02  0.8171451E-01
        1   -1    0    0  501    0  0.00000000000E+00  0.00000000000E+00  0.20715851627E+04  0.20715851627E+04  0.50400001928E-02 0.  1.
       -1   -1    0    0    0  501  0.00000000000E+00  0.00000000000E+00 -0.12877293988E+04  0.12877293988E+04  0.50400001928E-02 0. -1.
    10030    2    1    2    0    0  0.00000000000E+00  0.00000000000E+00  0.78385576387E+03  0.33593145615E+04  0.32665829952E+04 0.  0.
        5    1    3    3  502    0 -0.12450313804E+03  0.81313482919E+03 -0.10591306898E+04  0.13410701659E+04  0.46999998093E+01 0. -1.
       -5    1    3    3    0  502  0.12450313804E+03 -0.81313482919E+03  0.18429864537E+04  0.20182443956E+04  0.46999998093E+01 0.  1.
</event>
<event>
 5   0  0.1116462E-06  0.3313912E+04  0.7818609E-02  0.8159365E-01
       -2   -1    0    0    0  501  0.00000000000E+00  0.00000000000E+00  0.13288418998E+04  0.13288418998E+04  0.25500000920E-02 0. -1.
        2   -1    0    0  501    0  0.00000000000E+00  0.00000000000E+00 -0.20660868894E+04  0.20660868894E+04  0.25500000920E-02 0.  1.
    10030    2    1    2    0    0  0.00000000000E+00  0.00000000000E+00 -0.73724498964E+03  0.33949287891E+04  0.33139117835E+04 0.  0.
        1    1    3    3  502    0  0.11489454564E+04 -0.81271426938E+02 -0.15888862202E+04  0.19624576753E+04  0.50400001928E-02 0.  1.
       -1    1    3    3    0  502 -0.11489454564E+04  0.81271426938E+02  0.85164123054E+03  0.14324711139E+04  0.50400001928E-02 0. -1.
</event>
<event>
 5   0  0.3674967E-07  0.3235643E+04  0.7818609E-02  0.8179467E-01
        1   -1    0    0  501    0  0.00000000000E+00  0.00000000000E+00  0.22686469996E+04  0.22686469996E+04  0.50400001928E-02 0. -1.
       -1   -1    0    0    0  501  0.00000000000E+00  0.00000000000E+00 -0.11537034703E+04  0.11537034704E+04  0.50400001928E-02 0.  1.
    10030    2    1    2    0    0  0.00000000000E+00  0.00000000000E+00  0.11149435292E+04  0.34223504700E+04  0.32356426975E+04 0.  0.
        2    1    3    3  502    0  0.23420798304E+03 -0.98987359345E+02 -0.11324371867E+04  0.11606316636E+04  0.25500000920E-02 0.  1.
       -2    1    3    3    0  502 -0.23420798304E+03  0.98987359345E+02  0.22473807160E+04  0.22617188064E+04  0.25500000920E-02 0. -1.
</event>
<event>
 5   0  0.3757406E-07  0.3241278E+04  0.7818609E-02  0.8178000E-01
       -1   -1    0    0    0  501  0.00000000000E+00  0.00000000000E+00  0.16156701703E+04  0.16156701703E+04  0.50400001928E-02 0. -1.
        1   -1    0    0  501    0  0.00000000000E+00  0.00000000000E+00 -0.16256230993E+04  0.16256230993E+04  0.50400001928E-02 0.  1.
    10030    2    1    2    0    0  0.00000000000E+00  0.00000000000E+00 -0.99529289677E+01  0.32412932696E+04  0.32412779885E+04 0.  0.
        1    1    3    3  502    0 -0.93184926527E+03 -0.48760064576E+03 -0.12380164648E+04  0.16244328888E+04  0.50400001928E-02 0.  1.
       -1    1    3    3    0  502  0.93184926527E+03  0.48760064576E+03  0.12280635359E+04  0.16168603808E+04  0.50400001928E-02 0. -1.
</event>
<event>
 5   0  0.3709747E-07  0.3131539E+04  0.7818609E-02  0.8207135E-01
        1   -1    0    0  501    0  0.00000000000E+00  0.00000000000E+00  0.21314702389E+04  0.21314702389E+04  0.50400001928E-02 0.  1.
       -1   -1    0    0    0  501  0.00000000000E+00  0.00000000000E+00 -0.11502080716E+04  0.11502080716E+04  0.50400001928E-02 0. -1.
    10030    2    1    2    0    0  0.00000000000E+00  0.00000000000E+00  0.98126216735E+03  0.32816783105E+04  0.31315390933E+04 0.  0.
        4    1    3    3  502    0 -0.28783634167E+03  0.95192643827E+03 -0.77673992396E+03  0.12618796400E+04  0.12699999809E+01 0. -1.
       -4    1    3    3    0  502  0.28783634167E+03 -0.95192643827E+03  0.17580020913E+04  0.20197986705E+04  0.12699999809E+01 0.  1.
</event>
<event>
 5   0  0.3709747E-07  0.3299662E+04  0.7818609E-02  0.8162981E-01
        1   -1    0    0  501    0  0.00000000000E+00  0.00000000000E+00  0.20883828423E+04  0.20883828423E+04  0.50400001928E-02 0.  1.
       -1   -1    0    0    0  501  0.00000000000E+00  0.00000000000E+00 -0.13033734189E+04  0.13033734189E+04  0.50400001928E-02 0. -1.
    10030    2    1    2    0    0  0.00000000000E+00  0.00000000000E+00  0.78500942345E+03  0.33917562612E+04  0.32996622161E+04 0.  0.
        4    1    3    3  502    0 -0.13832876579E+04  0.34722778554E+03 -0.46003456225E+03  0.14985610735E+04  0.12699999809E+01 0. -1.
       -4    1    3    3    0  502  0.13832876579E+04 -0.34722778554E+03  0.12450439857E+04  0.18931951877E+04  0.12699999809E+01 0.  1.
</event>
<event>
 5   0  0.1126221E-06  0.3282893E+04  0.7818609E-02  0.8167262E-01
        2   -1    0    0  501    0  0.00000000000E+00  0.00000000000E+00  0.26705891193E+04  0.26705891193E+04  0.25500000920E-02 0.  1.
       -2   -1    0    0    0  501  0.00000000000E+00  0.00000000000E+00 -0.10088957290E+04  0.10088957290E+04  0.25500000920E-02 0. -1.
    10030    2    1    2    0    0  0.00000000000E+00  0.00000000000E+00  0.16616933903E+04  0.36794848483E+04  0.32828926004E+04 0.  0.
        2    1    3    3  502    0  0.12525900611E+04 -0.10492230804E+04  0.10062627216E+04  0.19189621149E+04  0.25500000920E-02 0.  1.
       -2    1    3    3    0  502 -0.12525900611E+04  0.10492230804E+04  0.65543066864E+03  0.17605227334E+04  0.25500000920E-02 0. -1.
</event>
<event>
 5   0  0.1126221E-06  0.3296597E+04  0.7818609E-02  0.8163762E-01
       -2   -1    0    0    0  501  0.00000000000E+00  0.00000000000E+00  0.25584273561E+04  0.25584273561E+04  0.25500000920E-02 0. -1.
        2   -1    0    0  501    0  0.00000000000E+00  0.00000000000E+00 -0.10619365000E+04  0.10619365000E+04  0.25500000920E-02 0.  1.
    10030    2    1    2    0    0  0.00000000000E+00  0.00000000000E+00  0.14964908562E+04  0.36203638561E+04  0.32965966644E+04 0.  0.
        2    1    3    3  502    0 -0.97938981762E+03 -0.56093892844E+02 -0.70643502580E+03  0.12088843557E+04  0.25500000920E-02 0.  1.
       -2    1    3    3    0  502  0.97938981762E+03  0.56093892844E+02  0.22029258820E+04  0.24114795004E+04  0.25500000920E-02 0. -1.
</event>
<event>
 5   0  0.1120545E-06  0.3306536E+04  0.7818609E-02  0.8161234E-01
       -2   -1    0    0    0  501  0.00000000000E+00  0.00000000000E+00  0.10254880040E+04  0.10254880040E+04  0.25500000920E-02 0. -1.
        2   -1    0    0  501    0  0.00000000000E+00  0.00000000000E+00 -0.26653598658E+04  0.26653598658E+04  0.25500000920E-02 0.  1.
    10030    2    1    2    0    0  0.00000000000E+00  0.00000000000E+00 -0.16398718618E+04  0.36908478698E+04  0.33065356909E+04 0.  0.
        4    1    3    3  502    0 -0.71005102305E+03 -0.38311111163E+03 -0.24306906621E+04  0.25610945486E+04  0.12699999809E+01 0.  1.
       -4    1    3    3    0  502  0.71005102305E+03  0.38311111163E+03  0.79081880023E+03  0.11297533213E+04  0.12699999809E+01 0. -1.
</event>
<event>
 5   0  0.1146799E-06  0.3314136E+04  0.7818609E-02  0.8159308E-01
        2   -1    0    0  501    0  0.00000000000E+00  0.00000000000E+00  0.11187185614E+04  0.11187185614E+04  0.25500000920E-02 0.  1.
       -2   -1    0    0    0  501  0.00000000000E+00  0.00000000000E+00 -0.24544821253E+04  0.24544821253E+04  0.25500000920E-02 0. -1.
    10030    2    1    2    0    0  0.00000000000E+00  0.00000000000E+00 -0.13357635639E+04  0.35732006866E+04  0.33141362145E+04 0.  0.
        5    1    3    3  502    0 -0.29043260512E+03  0.35613595568E+03 -0.23843969906E+04  0.24282823180E+04  0.46999998093E+01 0. -1.
       -5    1    3    3    0  502  0.29043260512E+03 -0.35613595568E+03  0.10486334268E+04  0.11449183686E+04  0.46999998093E+01 0.  1.
</event>
<event>
 5   0  0.1126221E-06  0.3291496E+04  0.7818609E-02  0.8165063E-01
        2   -1    0    0  501    0  0.00000000000E+00  0.00000000000E+00  0.21744316380E+04  0.21744316380E+04  0.25500000920E-02 0. -1.
       -2   -1    0    0    0  501  0.00000000000E+00  0.00000000000E+00 -0.12456066804E+04  0.12456066804E+04  0.25500000920E-02 0.  1.
    10030    2    1    2    0    0  0.00000000000E+00  0.00000000000E+00  0.92882495768E+03  0.34200383184E+04  0.32914960576E+04 0.  0.
        2    1    3    3  502    0  0.12339096047E+04  0.95192360879E+03  0.10140263547E+04  0.18592850555E+04  0.25500000920E-02 0.  1.
       -2    1    3    3    0  502 -0.12339096047E+04 -0.95192360879E+03 -0.85201396990E+02  0.15607532629E+04  0.25500000920E-02 0. -1.
</event>
<event>
 5   0  0.1116462E-06  0.3264585E+04  0.7818609E-02  0.8171966E-01
        2   -1    0    0  501    0  0.00000000000E+00  0.00000000000E+00  0.11882798273E+04  0.11882798273E+04  0.25500000920E-02 0. -1.
       -2   -1    0    0    0  501  0.00000000000E+00  0.00000000000E+00 -0.22422148340E+04  0.22422148340E+04  0.25500000920E-02 0.  1.
    10030    2    1    2    0    0  0.00000000000E+00  0.00000000000E+00 -0.10539350067E+04  0.34304946613E+04  0.32645849082E+04 0.  0.
        1    1    3    3  502    0 -0.29033980100E+03  0.16006120324E+04 -0.66842916676E+03  0.17587079432E+04  0.50400001928E-02 0.  1.
       -1    1    3    3    0  502  0.29033980100E+03 -0.16006120324E+04 -0.38550583989E+03  0.16717867181E+04  0.50400001928E-02 0. -1.
</event>
<event>
 5   0  0.1120545E-06  0.3294680E+04  0.7818609E-02  0.8164250E-01
        2   -1    0    0  501    0  0.00000000000E+00  0.00000000000E+00  0.17082571889E+04  0.17082571889E+04  0.25500000920E-02 0.  1.
       -2   -1    0    0    0  501  0.00000000000E+00  0.00000000000E+00 -0.15885956168E+04  0.15885956168E+04  0.25500000920E-02 0. -1.
    10030    2    1    2    0    0  0.00000000000E+00  0.00000000000E+00  0.11966157214E+03  0.32968528057E+04  0.32946804899E+04 0.  0.
        4    1    3    3  502    0  0.50008302989E+03  0.12006892245E+04 -0.95177128125E+03  0.16117096002E+04  0.12699999809E+01 0. -1.
       -4    1    3    3    0  502 -0.50008302989E+03 -0.12006892245E+04  0.10714328534E+04  0.16851432055E+04  0.12699999809E+01 0.  1.
</event>
<event>
 5   0  0.1120545E-06  0.3153621E+04  0.7818609E-02  0.8201174E-01
       -2   -1    0    0    0  501  0.00000000000E+00  0.00000000000E+00  0.18298178240E+04  0.18298178240E+04  0.25500000920E-02 0. -1.
        2   -1    0    0  501    0  0.00000000000E+00  0.00000000000E+00 -0.13587866348E+04  0.13587866348E+04  0.25500000920E-02 0.  1.
    10030    2    1    2    0    0  0.00000000000E+00  0.00000000000E+00  0.47103118912E+03  0.31886044588E+04  0.31536214125E+04 0.  0.
        4    1    3    3  502    0 -0.33388132516E+03  0.88843176456E+03  0.15086670118E+04  0.17823763646E+04  0.12699999809E+01 0. -1.
       -4    1    3    3    0  502  0.33388132516E+03 -0.88843176456E+03 -0.10376358227E+04  0.14062280942E+04  0.12699999809E+01 0.  1.
</event>
<event>
 5   0  0.1146799E-06  0.3300414E+04  0.7818609E-02  0.8162790E-01
       -2   -1    0    0    0  501  0.00000000000E+00  0.00000000000E+00  0.12112775784E+04  0.12112775784E+04  0.25500000920E-02 0. -1.
        2   -1    0    0  501    0  0.00000000000E+00  0.00000000000E+00 -0.22481910495E+04  0.22481910495E+04  0.25500000920E-02 0.  1.
    10030    2    1    2    0    0  0.00000000000E+00  0.00000000000E+00 -0.10369134711E+04  0.34594686279E+04  0.33004141620E+04 0.  0.
        5    1    3    3  502    0  0.61299519525E+02 -0.16209716984E+04 -0.83613758597E+03  0.18249534325E+04  0.46999998093E+01 0.  1.
       -5    1    3    3    0  502 -0.61299519525E+02  0.16209716984E+04 -0.20077588514E+03  0.16345151954E+04  0.46999998093E+01 0. -1.
</event>
<event>
 5   0  0.3709747E-07  0.3312907E+04  0.7818609E-02  0.8159619E-01
        1   -1    0    0  501    0  0.00000000000E+00  0.00000000000E+00  0.23270426423E+04  0.23270426423E+04  0.50400001928E-02 0. -1.
       -1   -1    0    0    0  501  0.00000000000E+00  0.00000000000E+00 -0.11791092947E+04  0.11791092947E+04  0.50400001928E-02 0.  1.
    10030    2    1    2    0    0  0.00000000000E+00  0.00000000000E+00  0.11479333477E+04  0.35061519370E+04  0.33129066445E+04 0.  0.
        4    1    3    3  502    0 -0.43650160830E+03  0.12919666677E+04 -0.42115970767E+03  0.14272661408E+04  0.12699999809E+01 0.  1.
       -4    1    3    3    0  502  0.43650160830E+03 -0.12919666677E+04  0.15690930553E+04  0.20788857962E+04  0.12699999809E+01 0. -1.
</event>
<event>
 5   0  0.1146799E-06  0.3264343E+04  0.7818609E-02  0.8172028E-01
       -2   -1    0    0    0  501  0.00000000000E+00  0.00000000000E+00  0.19553915545E+04  0.19553915545E+04  0.25500000920E-02 0.  1.
        2   -1    0    0  501    0  0.00000000000E+00  0.00000000000E+00 -0.13623784854E+04  0.13623784854E+04  0.25500000920E-02 0. -1.
    10030    2    1    2    0    0  0.00000000000E+00  0.00000000000E+00  0.59301306916E+03  0.33177700399E+04  0.32643427420E+04 0.  0.
        5    1    3    3  502    0 -0.13783167704E+04 -0.64330508234E+03  0.89810883758E+03  0.17664144822E+04  0.46999998093E+01 0.  1.
       -5    1    3    3    0  502  0.13783167704E+04  0.64330508234E+03 -0.30509576842E+03  0.15513555577E+04  0.46999998093E+01 0. -1.
</event>
<event>
 5   0  0.1129434E-06  0.3317321E+04  0.7818609E-02  0.8158502E-01
        2   -1    0    0  501    0  0.00000000000E+00  0.00000000000E+00  0.22525405255E+04  0.22525405255E+04  0.25500000920E-02 0. -1.
       -2   -1    0    0    0  501  0.00000000000E+00  0.00000000000E+00 -0.12213564926E+04  0.12213564926E+04  0.25500000920E-02 0.  1.
    10030    2    1    2    0    0  0.00000000000E+00  0.00000000000E+00  0.10311840329E+04  0.34738970180E+04  0.33173212058E+04 0.  0.
        3    1    3    3  502    0 -0.10127795581E+04 -0.81197814340E+03 -0.56567581967E+03  0.14159873170E+04  0.10100000352E+00 0.  1.
       -3    1    3    3    0  502  0.10127795581E+04  0.81197814340E+03  0.15968598526E+04  0.20579097010E+04  0.10100000352E+00 0. -1.
</event>
<event>
 5   0  0.3674967E-07  0.3279781E+04  0.7818609E-02  0.8168059E-01
        1   -1    0    0  501    0  0.00000000000E+00  0.00000000000E+00  0.18089398200E+04  0.18089398200E+04  0.50400001928E-02 0. -1.
       -1   -1    0    0    0  501  0.00000000000E+00  0.00000000000E+00 -0.14866394330E+04  0.14866394330E+04  0.50400001928E-02 0.  1.
    10030    2    1    2    0    0  0.00000000000E+00  0.00000000000E+00  0.32230038702E+03  0.32955792530E+04  0.32797812539E+04 0.  0.
        2    1    3    3  502    0  0.16176316147E+04  0.72608907583E+02 -0.99400123926E+02  0.16223083797E+04  0.25500000920E-02 0.  1.
       -2    1    3    3    0  502 -0.16176316147E+04 -0.72608907583E+02  0.42170051094E+03  0.16732708733E+04  0.25500000920E-02 0. -1.
</event>
<event>
 5   0  0.3757406E-07  0.3309134E+04  0.7818609E-02  0.8160575E-01
       -1   -1    0    0    0  501  0.00000000000E+00  0.00000000000E+00  0.11398357727E+04  0.11398357727E+04  0.50400001928E-02 0. -1.
        1   -1    0    0  501    0  0.00000000000E+00  0.00000000000E+00 -0.24017431499E+04  0.24017431500E+04  0.50400001928E-02 0.  1.
    10030    2    1    2    0    0  0.00000000000E+00  0.00000000000E+00 -0.12619073773E+04  0.35415789227E+04  0.33091344845E+04 0.  0.
        1    1    3    3  502    0  0.11249086352E+04 -0.53134837798E+03  0.53646648808E+03  0.13548235417E+04  0.50400001928E-02 0. -1.
       -1    1    3    3    0  502 -0.11249086352E+04  0.53134837798E+03 -0.17983738653E+04  0.21867553809E+04  0.50400001928E-02 0.  1.
</event>
<event>
 5   0  0.3796529E-07  0.3317042E+04  0.7818609E-02  0.8158572E-01
        1   -1    0    0  501    0  0.00000000000E+00  0.00000000000E+00  0.29503243946E+04  0.29503243946E+04  0.50400001928E-02 0. -1.
       -1   -1    0    0    0  501  0.00000000000E+00  0.00000000000E+00 -0.93233555151E+03  0.93233555152E+03  0.50400001928E-02 0.  1.
    10030    2    1    2    0    0  0.00000000000E+00  0.00000000000E+00  0.20179888430E+04  0.38826599461E+04  0.33170422497E+04 0.  0.
        5    1    3    3  502    0 -0.48800771872E+03 -0.12141813479E+04  0.22017077940E+04  0.25612354791E+04  0.46999998093E+01 0. -1.
       -5    1    3    3    0  502  0.48800771872E+03  0.12141813479E+04 -0.18371895095E+03  0.13214244670E+04  0.46999998093E+01 0.  1.
</event>
<event>
 5   0  0.3796529E-07  0.3188005E+04  0.7818609E-02  0.8191992E-01
       -1   -1    0    0    0  501  0.00000000000E+00  0.00000000000E+00  0.15366441486E+04  0.15366441486E+04  0.50400001928E-02 0.  1.
        1   -1    0    0  501    0  0.00000000000E+00  0.00000000000E+00 -0.16535020637E+04  0.16535020637E+04  0.50400001928E-02 0. -1.
    10030    2    1    2    0    0  0.00000000000E+00  0.00000000000E+00 -0.11685791509E+03  0.31901462122E+04  0.31880051887E+04 0.  0.
        5    1    3    3  502    0  0.64266557276E+03 -0.14573835676E+04 -0.12040825879E+03  0.15973434635E+04  0.46999998093E+01 0. -1.
       -5    1    3    3    0  502 -0.64266557276E+03  0.14573835676E+04  0.35503436908E+01  0.15928027488E+04  0.46999998093E+01 0.  1.
</event>
<event>
 5   0  0.1116462E-06  0.3299769E+04  0.7818609E-02  0.8162954E-01
       -2   -1    0    0    0  501  0.00000000000E+00  0.00000000000E+00  0.26667811651E+04  0.26667811651E+04  0.25500000920E-02 0.  1.
        2   -1    0    0  501    0  0.00000000000E+00  0.00000000000E+00 -0.10207510275E+04  0.10207510275E+04  0.25500000920E-02 0. -1.
    10030    2    1    2    0    0  0.00000000000E+00  0.00000000000E+00  0.16460301375E+04  0.36875321926E+04  0.32997694553E+04 0.  0.
        1    1    3    3  502    0  0.76743659982E+03  0.26665427100E+03 -0.78171676846E+03  0.11274504606E+04  0.50400001928E-02 0. -1.
       -1    1    3    3    0  502 -0.76743659982E+03 -0.26665427100E+03  0.24277469060E+04  0.25600817320E+04  0.50400001928E-02 0.  1.
</event>
<event>
 5   0  0.1116462E-06  0.3258121E+04  0.7818609E-02  0.8173634E-01
       -2   -1    0    0    0  501  0.00000000000E+00  0.00000000000E+00  0.14754196655E+04  0.14754196655E+04  0.25500000920E-02 0.  1.
        2   -1    0    0  501    0  0.00000000000E+00  0.00000000000E+00 -0.17987001049E+04  0.17987001049E+04  0.25500000920E-02 0. -1.
    10030    2    1    2    0    0  0.00000000000E+00  0.00000000000E+00 -0.32328043945E+03  0.32741197704E+04  0.32581206283E+04 0.  0.
        1    1    3    3  502    0 -0.61768727200E+03 -0.34714145995E+03  0.13124620757E+04  0.14915097919E+04  0.50400001928E-02 0.  1.
       -1    1    3    3    0  502  0.61768727200E+03  0.34714145995E+03 -0.16357425152E+04  0.17826099784E+04  0.50400001928E-02 0. -1.
</event>
<event>
 5   0  0.3757406E-07  0.3302447E+04  0.7818609E-02  0.8162273E-01
        1   -1    0    0  501    0  0.00000000000E+00  0.00000000000E+00  0.18410398075E+04  0.18410398075E+04  0.50400001928E-02 0. -1.
       -1   -1    0    0    0  501  0.00000000000E+00  0.00000000000E+00 -0.14809780254E+04  0.14809780255E+04  0.50400001928E-02 0.  1.
    10030    2    1    2    0    0  0.00000000000E+00  0.00000000000E+00  0.36006178207E+03  0.33220178330E+04  0.33024472737E+04 0.  0.
        1    1    3    3  502    0  0.72191309962E+03 -0.10572136032E+04  0.12291304702E+04  0.17747171153E+04  0.50400001928E-02 0. -1.
       -1    1    3    3    0  502 -0.72191309962E+03  0.10572136032E+04 -0.86906868818E+03  0.15473007177E+04  0.50400001928E-02 0.  1.
</event>
<event>
 5   0  0.1126221E-06  0.3251577E+04  0.7818609E-02  0.8175327E-01
       -2   -1    0    0    0  501  0.00000000000E+00  0.00000000000E+00  0.25426700982E+04  0.25426700982E+04  0.25500000920E-02 0. -1.
        2   -1    0    0  501    0  0.00000000000E+00  0.00000000000E+00 -0.10395323927E+04  0.10395323927E+04  0.25500000920E-02 0.  1.
    10030    2    1    2    0    0  0.00000000000E+00  0.00000000000E+00  0.15031377055E+04  0.35822024909E+04  0.32515768058E+04 0.  0.
        2    1    3    3  502    0 -0.60299209531E+03  0.33434804821E+03  0.23736243352E+04  0.24717363470E+04  0.25500000920E-02 0. -1.
       -2    1    3    3    0  502  0.60299209531E+03 -0.33434804821E+03 -0.87048662965E+03  0.11104661439E+04  0.25500000920E-02 0.  1.
</event>
<event>
 5   0  0.1146799E-06  0.3339387E+04  0.7818609E-02  0.8152945E-01
       -2   -1    0    0    0  501  0.00000000000E+00  0.00000000000E+00  0.15862224595E+04  0.15862224595E+04  0.25500000920E-02 0. -1.
        2   -1    0    0  501    0  0.00000000000E+00  0.00000000000E+00 -0.17575571233E+04  0.17575571233E+04  0.25500000920E-02 0.  1.
    10030    2    1    2    0    0  0.00000000000E+00  0.00000000000E+00 -0.17133466374E+03  0.33437795828E+04  0.33393871192E+04 0.  0.
        5    1    3    3  502    0  0.18866330820E+03 -0.56649613778E+03  0.14756600253E+04  0.15918876588E+04  0.46999998093E+01 0. -1.
       -5    1    3    3    0  502 -0.18866330820E+03  0.56649613778E+03 -0.16469946890E+04  0.17518919241E+04  0.46999998093E+01 0.  1.
</event>
<event>
 5   0  0.1146799E-06  0.3318834E+04  0.7818609E-02  0.8158120E-01
        2   -1    0    0  501    0  0.00000000000E+00  0.00000000000E+00  0.22740292267E+04  0.22740292267E+04  0.25500000920E-02 0. -1.
       -2   -1    0    0    0  501  0.00000000000E+00  0.00000000000E+00 -0.12109185613E+04  0.12109185613E+04  0.25500000920E-02 0.  1.
    10030    2    1    2    0    0  0.00000000000E+00  0.00000000000E+00  0.10631106654E+04  0.34849477880E+04  0.33188336502E+04 0.  0.
        5    1    3    3  502    0 -0.51040717714E+03  0.65725350340E+03  0.20390820100E+04  0.22023567348E+04  0.46999998093E+01 0. -1.
       -5    1    3    3    0  502  0.51040717714E+03 -0.65725350340E+03 -0.97597134453E+03  0.12825910531E+04  0.46999998093E+01 0.  1.
</event>
<event>
 5   0  0.3757406E-07  0.3353744E+04  0.7818609E-02  0.8149353E-01
       -1   -1    0    0    0  501  0.00000000000E+00  0.00000000000E+00  0.25408689715E+04  0.25408689715E+04  0.50400001928E-02 0. -1.
        1   -1    0    0  501    0  0.00000000000E+00  0.00000000000E+00 -0.11066684097E+04  0.11066684097E+04  0.50400001928E-02 0.  1.
    10030    2    1    2    0    0  0.00000000000E+00  0.00000000000E+00  0.14342005617E+04  0.36475373812E+04  0.33537438328E+04 0.  0.
        1    1    3    3  502    0  0.18169677761E+03  0.19479663340E+03 -0.10835095912E+04  0.11157743865E+04  0.50400001928E-02 0.  1.
       -1    1    3    3    0  502 -0.18169677761E+03 -0.19479663340E+03  0.25177101529E+04  0.25317629947E+04  0.50400001928E-02 0. -1.
</event>
<event>
 5   0  0.3709747E-07  0.3293676E+04  0.7818609E-02  0.8164506E-01
       -1   -1    0    0    0  501  0.00000000000E+00  0.00000000000E+00  0.18457146136E+04  0.18457146136E+04  0.50400001928E-02 0.  1.
        1   -1    0    0  501    0  0.00000000000E+00  0.00000000000E+00 -0.14693905261E+04  0.14693905261E+04  0.50400001928E-02 0. -1.
    10030    2    1    2    0    0  0.00000000000E+00  0.00000000000E+00  0.37632408750E+03  0.33151051397E+04  0.32936761026E+04 0.  0.
        4    1    3    3  502    0  0.99950029412E+03  0.51704061633E+03 -0.10220510141E+04  0.15201716104E+04  0.12699999809E+01 0. -1.
       -4    1    3    3    0  502 -0.99950029412E+03 -0.51704061633E+03  0.13983751016E+04  0.17949335293E+04  0.12699999809E+01 0.  1.
</event>
<event>
 5   0  0.1129434E-06  0.3289982E+04  0.7818609E-02  0.8165449E-01
       -2   -1    0    0    0  501  0.00000000000E+00  0.00000000000E+00  0.11816638766E+04  0.11816638766E+04  0.25500000920E-02 0. -1.
        2   -1    0    0  501    0  0.00000000000E+00  0.00000000000E+00 -0.22899877669E+04  0.22899877669E+04  0.25500000920E-02 0.  1.
    10030    2    1    2    0    0  0.00000000000E+00  0.00000000000E+00 -0.11083238903E+04  0.34716516434E+04  0.32899822625E+04 0.  0.
        3    1    3    3  502    0  0.60038611446E+02 -0.35593950559E+02  0.11801006787E+04  0.11821629271E+04  0.10100000352E+00 0. -1.
       -3    1    3    3    0  502 -0.60038611446E+02  0.35593950559E+02 -0.22884245690E+04  0.22894887164E+04  0.10100000352E+00 0.  1.
</event>
<event>
 5   0  0.1116462E-06  0.3297130E+04  0.7818609E-02  0.8163626E-01
       -2   -1    0    0    0  501  0.00000000000E+00  0.00000000000E+00  0.13741299133E+04  0.13741299133E+04  0.25500000920E-02 0. -1.
        2   -1    0    0  501    0  0.00000000000E+00  0.00000000000E+00 -0.19778093878E+04  0.19778093878E+04  0.25500000920E-02 0.  1.
    10030    2    1    2    0    0  0.00000000000E+00  0.00000000000E+00 -0.60367947457E+03  0.33519393011E+04  0.32971302932E+04 0.  0.
        1    1    3    3  502    0  0.12985289044E+04 -0.99008169314E+03 -0.53216261144E+03  0.17174504708E+04  0.50400001928E-02 0.  1.
       -1    1    3    3    0  502 -0.12985289044E+04  0.99008169314E+03 -0.71516863126E+02  0.16344888303E+04  0.50400001928E-02 0. -1.
</event>
<event>
 5   0  0.1146799E-06  0.3281693E+04  0.7818609E-02  0.8167569E-01
        2   -1    0    0  501    0  0.00000000000E+00  0.00000000000E+00  0.18849242172E+04  0.18849242172E+04  0.25500000920E-02 0.  1.
       -2   -1    0    0    0  501  0.00000000000E+00  0.00000000000E+00 -0.14283740074E+04  0.14283740074E+04  0.25500000920E-02 0. -1.
    10030    2    1    2    0    0  0.00000000000E+00  0.00000000000E+00  0.45655020981E+03  0.33132982246E+04  0.32816927082E+04 0.  0.
        5    1    3    3  502    0 -0.28470774658E+02 -0.98870415629E+03 -0.10935349771E+04  0.14745125736E+04  0.46999998093E+01 0. -1.
       -5    1    3    3    0  502  0.28470774658E+02  0.98870415629E+03  0.15500851869E+04  0.18387856510E+04  0.46999998093E+01 0.  1.
</event>
<event>
 5   0  0.3674967E-07  0.3296886E+04  0.7818609E-02  0.8163688E-01
       -1   -1    0    0    0  501  0.00000000000E+00  0.00000000000E+00  0.20745450403E+04  0.20745450403E+04  0.50400001928E-02 0.  1.
        1   -1    0    0  501    0  0.00000000000E+00  0.00000000000E+00 -0.13098603921E+04  0.13098603921E+04  0.50400001928E-02 0. -1.
    10030    2    1    2    0    0  0.00000000000E+00  0.00000000000E+00  0.76468464812E+03  0.33844054324E+04  0.32968860338E+04 0.  0.
        2    1    3    3  502    0 -0.10227485857E+04 -0.12605947652E+04  0.87935515312E+02  0.16256833906E+04  0.25500000920E-02 0.  1.
       -2    1    3    3    0  502  0.10227485857E+04  0.12605947652E+04  0.67674913281E+03  0.17587220418E+04  0.25500000920E-02 0. -1.
</event>
<event>
 5   0  0.1129434E-06  0.3292127E+04  0.7818609E-02  0.8164902E-01
        2   -1    0    0  501    0  0.00000000000E+00  0.00000000000E+00  0.15556376332E+04  0.15556376332E+04  0.25500000920E-02 0. -1.
       -2   -1    0    0    0  501  0.00000000000E+00  0.00000000000E+00 -0.17417455709E+04  0.17417455709E+04  0.25500000920E-02 0.  1.
    10030    2    1    2    0    0  0.00000000000E+00  0.00000000000E+00 -0.18610793766E+03  0.32973832041E+04  0.32921269463E+04 0.  0.
        3    1    3    3  502    0 -0.12111537552E+04 -0.87915515995E+03 -0.77950778885E+03  0.16874358113E+04  0.10100000352E+00 0.  1.
       -3    1    3    3    0  502  0.12111537552E+04  0.87915515995E+03  0.59339985119E+03  0.16099473928E+04  0.10100000352E+00 0. -1.
</event>
<event>
 5   0  0.1120545E-06  0.3288287E+04  0.7818609E-02  0.8165882E-01
       -2   -1    0    0    0  501  0.00000000000E+00  0.00000000000E+00  0.14634494994E+04  0.14634494994E+04  0.25500000920E-02 0.  1.
        2   -1    0    0  501    0  0.00000000000E+00  0.00000000000E+00 -0.18471484336E+04  0.18471484336E+04  0.25500000920E-02 0. -1.
    10030    2    1    2    0    0  0.00000000000E+00  0.00000000000E+00 -0.38369893425E+03  0.33105979330E+04  0.32882873661E+04 0.  0.
        4    1    3    3  502    0 -0.92962929971E+03 -0.12724279055E+04  0.28029230303E+03  0.16005776450E+04  0.12699999809E+01 0.  1.
       -4    1    3    3    0  502  0.92962929971E+03  0.12724279055E+04 -0.66399123728E+03  0.17100202881E+04  0.12699999809E+01 0. -1.
</event>
<event>
 5   0  0.3573375E-07  0.3287130E+04  0.7818609E-02  0.8166178E-01
        3   -1    0    0  501    0  0.00000000000E+00  0.00000000000E+00  0.30674709095E+04  0.30674709112E+04  0.10100000352E+00 0. -1.
       -3   -1    0    0    0  501  0.00000000000E+00  0.00000000000E+00 -0.88062941238E+03  0.88062941817E+03  0.10100000352E+00 0.  1.
    10030    2    1    2    0    0  0.00000000000E+00  0.00000000000E+00  0.21868414972E+04  0.39481003294E+04  0.32871295194E+04 0.  0.
        5    1    3    3  502    0 -0.21892352490E+03  0.22976039366E+03 -0.84347068097E+03  0.90121153338E+03  0.46999998093E+01 0.  1.
       -5    1    3    3    0  502  0.21892352490E+03 -0.22976039366E+03  0.30303121781E+04  0.30468887960E+04  0.46999998093E+01 0. -1.
</event>
<event>
 5   0  0.1129434E-06  0.3292869E+04  0.7818609E-02  0.8164712E-01
        2   -1    0    0  501    0  0.00000000000E+00  0.00000000000E+00  0.19366196349E+04  0.19366196349E+04  0.25500000920E-02 0.  1.
       -2   -1    0    0    0  501  0.00000000000E+00  0.00000000000E+00 -0.13997307894E+04  0.13997307894E+04  0.25500000920E-02 0. -1.
    10030    2    1    2    0    0  0.00000000000E+00  0.00000000000E+00  0.53688884551E+03  0.33363504243E+04  0.32928687374E+04 0.  0.
        3    1    3    3  502    0 -0.14396482062E+04  0.44474569794E+03  0.94080367000E+03  0.17763719344E+04  0.10100000352E+00 0.  1.
       -3    1    3    3    0  502  0.14396482062E+04 -0.44474569794E+03 -0.40391482449E+03  0.15599784900E+04  0.10100000352E+00 0. -1.
</event>
<event>
 5   0  0.1120545E-06  0.3313607E+04  0.7818609E-02  0.8159442E-01
       -2   -1    0    0    0  501  0.00000000000E+00  0.00000000000E+00  0.11166365489E+04  0.11166365490E+04  0.25500000920E-02 0.  1.
        2   -1    0    0  501    0  0.00000000000E+00  0.00000000000E+00 -0.24582726990E+04  0.24582726990E+04  0.25500000920E-02 0. -1.
    10030    2    1    2    0    0  0.00000000000E+00  0.00000000000E+00 -0.13416361500E+04  0.35749092479E+04  0.33136065807E+04 0.  0.
        4    1    3    3  502    0  0.77261316181E+03 -0.12287336223E+04 -0.15327422367E+04  0.21109281819E+04  0.12699999809E+01 0. -1.
       -4    1    3    3    0  502 -0.77261316181E+03  0.12287336223E+04  0.19110608664E+03  0.14639810660E+04  0.12699999809E+01 0.  1.
</event>
<event>
 5   0  0.1116462E-06  0.3291305E+04  0.7818609E-02  0.8165111E-01
        2   -1    0    0  501    0  0.00000000000E+00  0.00000000000E+00  0.12297577127E+04  0.12297577127E+04  0.25500000920E-02 0.  1.
       -2   -1    0    0    0  501  0.00000000000E+00  0.00000000000E+00 -0.22022002147E+04  0.22022002147E+04  0.25500000920E-02 0. -1.
    10030    2    1    2    0    0  0.00000000000E+00  0.00000000000E+00 -0.97244250201E+03  0.34319579274E+04  0.32913053331E+04 0.  0.
        1    1    3    3  502    0 -0.15605865844E+04 -0.25326608617E+03 -0.99774087690E+01  0.15810356563E+04  0.50400001928E-02 0. -1.
       -1    1    3    3    0  502  0.15605865844E+04  0.25326608617E+03 -0.96246509324E+03  0.18509222711E+04  0.50400001928E-02 0.  1.
</event>
<event>
 5   0  0.3709747E-07  0.3289915E+04  0.7818609E-02  0.8165466E-01
        1   -1    0    0  501    0  0.00000000000E+00  0.00000000000E+00  0.14562638564E+04  0.14562638564E+04  0.50400001928E-02 0.  1.
       -1   -1    0    0    0  501  0.00000000000E+00  0.00000000000E+00 -0.18581012970E+04  0.18581012970E+04  0.50400001928E-02 0. -1.
    10030    2    1    2    0    0  0.00000000000E+00  0.00000000000E+00 -0.40183744055E+03  0.33143651534E+04  0.32899153547E+04 0.  0.
        4    1    3    3  502    0  0.37179532079E+03  0.61512707738E+03 -0.16915334161E+04  0.18379064157E+04  0.12699999809E+01 0. -1.
       -4    1    3    3    0  502 -0.37179532079E+03 -0.61512707738E+03  0.12896959756E+04  0.14764587377E+04  0.12699999809E+01 0.  1.
</event>
<event>
 5   0  0.1129434E-06  0.3265470E+04  0.7818609E-02  0.8171738E-01
        2   -1    0    0  501    0  0.00000000000E+00  0.00000000000E+00  0.20992075837E+04  0.20992075837E+04  0.25500000920E-02 0.  1.
       -2   -1    0    0    0  501  0.00000000000E+00  0.00000000000E+00 -0.12699186942E+04  0.12699186942E+04  0.25500000920E-02 0. -1.
    10030    2    1    2    0    0  0.00000000000E+00  0.00000000000E+00  0.82928888942E+03  0.33691262779E+04  0.32654696162E+04 0.  0.
        3    1    3    3  502    0  0.12011443020E+04 -0.42393803105E+03  0.14685144356E+04  0.19439664982E+04  0.10100000352E+00 0.  1.
       -3    1    3    3    0  502 -0.12011443020E+04  0.42393803105E+03 -0.63922554617E+03  0.14251597797E+04  0.10100000352E+00 0. -1.
</event>
<event>
 5   0  0.1146799E-06  0.3303782E+04  0.7818609E-02  0.8161934E-01
        2   -1    0    0  501    0  0.00000000000E+00  0.00000000000E+00  0.12668064710E+04  0.12668064710E+04  0.25500000920E-02 0.  1.
       -2   -1    0    0    0  501  0.00000000000E+00  0.00000000000E+00 -0.21540332053E+04  0.21540332053E+04  0.25500000920E-02 0. -1.
    10030    2    1    2    0    0  0.00000000000E+00  0.00000000000E+00 -0.88722673427E+03  0.34208396763E+04  0.33037815928E+04 0.  0.
        5    1    3    3  502    0 -0.24469777257E+03  0.12996499211E+04  0.58128300904E+03  0.14446033864E+04  0.46999998093E+01 0.  1.
       -5    1    3    3    0  502  0.24469777257E+03 -0.12996499211E+04 -0.14685097433E+04  0.19762362899E+04  0.46999998093E+01 0. -1.
</event>
<event>
 5   0  0.3749685E-07  0.3291532E+04  0.7818609E-02  0.8165053E-01
       -1   -1    0    0    0  501  0.00000000000E+00  0.00000000000E+00  0.12573272252E+04  0.12573272252E+04  0.50400001928E-02 0.  1.
        1   -1    0    0  501    0  0.00000000000E+00  0.00000000000E+00 -0.21542087985E+04  0.21542087985E+04  0.50400001928E-02 0. -1.
    10030    2    1    2    0    0  0.00000000000E+00  0.00000000000E+00 -0.89688157329E+03  0.34115360238E+04  0.32915317840E+04 0.  0.
        3    1    3    3  502    0  0.67169196244E+03  0.67312048687E+03 -0.18406495619E+04  0.20717751090E+04  0.10100000352E+00 0. -1.
       -3    1    3    3    0  502 -0.67169196244E+03 -0.67312048687E+03  0.94376798863E+03  0.13397609148E+04  0.10100000352E+00 0.  1.
</event>
<event>
 5   0  0.3709747E-07  0.3300579E+04  0.7818609E-02  0.8162748E-01
       -1   -1    0    0    0  501  0.00000000000E+00  0.00000000000E+00  0.15019791127E+04  0.15019791127E+04  0.50400001928E-02 0. -1.
        1   -1    0    0  501    0  0.00000000000E+00  0.00000000000E+00 -0.18132441338E+04  0.18132441338E+04  0.50400001928E-02 0.  1.
    10030    2    1    2    0    0  0.00000000000E+00  0.00000000000E+00 -0.31126502105E+03  0.33152232465E+04  0.33005786252E+04 0.  0.
        4    1    3    3  502    0  0.14638182715E+04 -0.50181680796E+03 -0.73164814552E+03  0.17116935072E+04  0.12699999809E+01 0. -1.
       -4    1    3    3    0  502 -0.14638182715E+04  0.50181680796E+03  0.42038312446E+03  0.16035297393E+04  0.12699999809E+01 0.  1.
</event>
<event>
 5   0  0.1120545E-06  0.3302297E+04  0.7818609E-02  0.8162311E-01
        2   -1    0    0  501    0  0.00000000000E+00  0.00000000000E+00  0.29296574545E+04  0.29296574545E+04  0.25500000920E-02 0.  1.
       -2   -1    0    0    0  501  0.00000000000E+00  0.00000000000E+00 -0.93058376078E+03  0.93058376079E+03  0.25500000920E-02 0. -1.
    10030    2    1    2    0    0  0.00000000000E+00  0.00000000000E+00  0.19990736937E+04  0.38602412153E+04  0.33022971712E+04 0.  0.
        4    1    3    3  502    0  0.10667794712E+04  0.40300634741E+03 -0.39630543760E+03  0.12072664035E+04  0.12699999809E+01 0. -1.
       -4    1    3    3    0  502 -0.10667794712E+04 -0.40300634741E+03  0.23953791313E+04  0.26529748117E+04  0.12699999809E+01 0.  1.
</event>
<event>
 5   0  0.3749685E-07  0.3286013E+04  0.7818609E-02  0.8166463E-01
       -1   -1    0    0    0  501  0.00000000000E+00  0.00000000000E+00  0.14631695058E+04  0.14631695058E+04  0.50400001928E-02 0. -1.
        1   -1    0    0  501    0  0.00000000000E+00  0.00000000000E+00 -0.18449472354E+04  0.18449472354E+04  0.50400001928E-02 0.  1.
    10030    2    1    2    0    0  0.00000000000E+00  0.00000000000E+00 -0.38177772968E+03  0.33081167412E+04  0.32860131069E+04 0.  0.
        3    1    3    3  502    0 -0.15080238479E+03 -0.50626448260E+03  0.13753478135E+04  0.14733046881E+04  0.10100000352E+00 0. -1.
       -3    1    3    3    0  502  0.15080238479E+03  0.50626448260E+03 -0.17571255432E+04  0.18348120531E+04  0.10100000352E+00 0.  1.
</event>
<event>
 5   0  0.1146799E-06  0.3326744E+04  0.7818609E-02  0.8156123E-01
       -2   -1    0    0    0  501  0.00000000000E+00  0.00000000000E+00  0.11518304788E+04  0.11518304788E+04  0.25500000920E-02 0. -1.
        2   -1    0    0  501    0  0.00000000000E+00  0.00000000000E+00 -0.24020958372E+04  0.24020958372E+04  0.25500000920E-02 0.  1.
    10030    2    1    2    0    0  0.00000000000E+00  0.00000000000E+00 -0.12502653584E+04  0.35539263160E+04  0.33267444737E+04 0.  0.
        5    1    3    3  502    0 -0.16515019975E+03 -0.13250602177E+04 -0.16846938553E+04  0.21497150149E+04  0.46999998093E+01 0.  1.
       -5    1    3    3    0  502  0.16515019975E+03  0.13250602177E+04  0.43442849694E+03  0.14042113011E+04  0.46999998093E+01 0. -1.
</event>
<event>
 5   0  0.1126221E-06  0.3334633E+04  0.7818609E-02  0.8154139E-01
       -2   -1    0    0    0  501  0.00000000000E+00  0.00000000000E+00  0.17378683270E+04  0.17378683270E+04  0.25500000920E-02 0.  1.
        2   -1    0    0  501    0  0.00000000000E+00  0.00000000000E+00 -0.15996285413E+04  0.15996285413E+04  0.25500000920E-02 0. -1.
    10030    2    1    2    0    0  0.00000000000E+00  0.00000000000E+00  0.13823978567E+03  0.33374968683E+04  0.33346326796E+04 0.  0.
        2    1    3    3  502    0  0.57019598954E+03 -0.88507533231E+03 -0.12248408909E+04  0.16151523205E+04  0.25500000920E-02 0. -1.
       -2    1    3    3    0  502 -0.57019598954E+03  0.88507533231E+03  0.13630806766E+04  0.17223445478E+04  0.25500000920E-02 0.  1.
</event>
<event>
 5   0  0.1146799E-06  0.3315781E+04  0.7818609E-02  0.8158892E-01
        2   -1    0    0  501    0  0.00000000000E+00  0.00000000000E+00  0.23912495115E+04  0.23912495115E+04  0.25500000920E-02 0.  1.
       -2   -1    0    0    0  501  0.00000000000E+00  0.00000000000E+00 -0.11494410484E+04  0.11494410484E+04  0.25500000920E-02 0. -1.
    10030    2    1    2    0    0  0.00000000000E+00  0.00000000000E+00  0.12418084631E+04  0.35406905600E+04  0.33157806595E+04 0.  0.
        5    1    3    3  502    0  0.55921357884E+03  0.15173420458E+04  0.10111103869E+04  0.19072003081E+04  0.46999998093E+01 0.  1.
       -5    1    3    3    0  502 -0.55921357884E+03 -0.15173420458E+04  0.23069807626E+03  0.16334902519E+04  0.46999998093E+01 0. -1.
</event>
<event>
 5   0  0.3796529E-07  0.3404709E+04  0.7818609E-02  0.8136751E-01
       -1   -1    0    0    0  501  0.00000000000E+00  0.00000000000E+00  0.18099588028E+04  0.18099588028E+04  0.50400001928E-02 0.  1.
        1   -1    0    0  501    0  0.00000000000E+00  0.00000000000E+00 -0.16011477455E+04  0.16011477455E+04  0.50400001928E-02 0. -1.
    10030    2    1    2    0    0  0.00000000000E+00  0.00000000000E+00  0.20881105730E+03  0.34111065484E+04  0.34047093601E+04 0.  0.
        5    1    3    3  502    0 -0.16679290053E+04 -0.16203672098E+03  0.40454528074E+03  0.17239263441E+04  0.46999998093E+01 0.  1.
       -5    1    3    3    0  502  0.16679290053E+04  0.16203672098E+03 -0.19573422344E+03  0.16871802043E+04  0.46999998093E+01 0. -1.
</event>
<event>
 5   0  0.3709747E-07  0.3299622E+04  0.7818609E-02  0.8162992E-01
       -1   -1    0    0    0  501  0.00000000000E+00  0.00000000000E+00  0.88572445668E+03  0.88572445669E+03  0.50400001928E-02 0.  1.
        1   -1    0    0  501    0  0.00000000000E+00  0.00000000000E+00 -0.30730502775E+04  0.30730502775E+04  0.50400001928E-02 0. -1.
    10030    2    1    2    0    0  0.00000000000E+00  0.00000000000E+00 -0.21873258208E+04  0.39587747342E+04  0.32996216677E+04 0.  0.
        4    1    3    3  502    0 -0.38683184864E+03 -0.16079571925E+03  0.82084979583E+03  0.92156939113E+03  0.12699999809E+01 0.  1.
       -4    1    3    3    0  502  0.38683184864E+03  0.16079571925E+03 -0.30081756166E+04  0.30372053431E+04  0.12699999809E+01 0. -1.
</event>
<event>
 5   0  0.1129434E-06  0.3322531E+04  0.7818609E-02  0.8157186E-01
       -2   -1    0    0    0  501  0.00000000000E+00  0.00000000000E+00  0.20150956722E+04  0.20150956722E+04  0.25500000920E-02 0.  1.
        2   -1    0    0  501    0  0.00000000000E+00  0.00000000000E+00 -0.13695645143E+04  0.13695645143E+04  0.25500000920E-02 0. -1.
    10030    2    1    2    0    0  0.00000000000E+00  0.00000000000E+00  0.64553115790E+03  0.33846601865E+04  0.33225312794E+04 0.  0.
        3    1    3    3  502    0 -0.23724377930E+03 -0.78326559149E+02 -0.13503169783E+04  0.13732354542E+04  0.10100000352E+00 0. -1.
       -3    1    3    3    0  502  0.23724377930E+03  0.78326559149E+02  0.19958481362E+04  0.20114247323E+04  0.10100000352E+00 0.  1.
</event>
<event>
 5   0  0.3674967E-07  0.3365815E+04  0.7818609E-02  0.8146348E-01
       -1   -1    0    0    0  501  0.00000000000E+00  0.00000000000E+00  0.15924847154E+04  0.15924847154E+04  0.50400001928E-02 0. -1.
        1   -1    0    0  501    0  0.00000000000E+00  0.00000000000E+00 -0.17784648607E+04  0.17784648607E+04  0.50400001928E-02 0.  1.
    10030    2    1    2    0    0  0.00000000000E+00  0.00000000000E+00 -0.18598014534E+03  0.33709495761E+04  0.33658152698E+04 0.  0.
        2    1    3    3  502    0  0.99690192121E+03 -0.99449650847E+03 -0.10159930818E+04  0.17363981940E+04  0.25500000920E-02 0.  1.
       -2    1    3    3    0  502 -0.99690192121E+03  0.99449650847E+03  0.83001293650E+03  0.16345513821E+04  0.25500000920E-02 0. -1.
</event>
<event>
 5   0  0.1120545E-06  0.3275435E+04  0.7818609E-02  0.8169174E-01
       -2   -1    0    0    0  501  0.00000000000E+00  0.00000000000E+00  0.10729869450E+04  0.10729869450E+04  0.25500000920E-02 0. -1.
        2   -1    0    0  501    0  0.00000000000E+00  0.00000000000E+00 -0.24996747780E+04  0.24996747780E+04  0.25500000920E-02 0.  1.
    10030    2    1    2    0    0  0.00000000000E+00  0.00000000000E+00 -0.14266878330E+04  0.35726617230E+04  0.32754348740E+04 0.  0.
        4    1    3    3  502    0 -0.11969307023E+04 -0.22686300409E+03  0.48051382823E+03  0.13095820252E+04  0.12699999809E+01 0. -1.
       -4    1    3    3    0  502  0.11969307023E+04  0.22686300409E+03 -0.19072016613E+04  0.22630796978E+04  0.12699999809E+01 0.  1.
</event>
<event>
 5   0  0.3709747E-07  0.3309471E+04  0.7818609E-02  0.8160490E-01
       -1   -1    0    0    0  501  0.00000000000E+00  0.00000000000E+00  0.11375155156E+04  0.11375155157E+04  0.50400001928E-02 0.  1.
        1   -1    0    0  501    0  0.00000000000E+00  0.00000000000E+00 -0.24071310526E+04  0.24071310526E+04  0.50400001928E-02 0. -1.
    10030    2    1    2    0    0  0.00000000000E+00  0.00000000000E+00 -0.12696155370E+04  0.35446465683E+04  0.33094706045E+04 0.  0.
        4    1    3    3  502    0  0.25343952610E+02  0.85090327651E+03  0.88499363790E+03  0.12279633765E+04  0.12699999809E+01 0.  1.
       -4    1    3    3    0  502 -0.25343952610E+02 -0.85090327651E+03 -0.21546091749E+04  0.23166831918E+04  0.12699999809E+01 0. -1.
</event>
<event>
 5   0  0.3757406E-07  0.3317690E+04  0.7818609E-02  0.8158409E-01
        1   -1    0    0  501    0  0.00000000000E+00  0.00000000000E+00  0.11465898260E+04  0.11465898260E+04  0.50400001928E-02 0.  1.
       -1   -1    0    0    0  501  0.00000000000E+00  0.00000000000E+00 -0.23999571307E+04  0.23999571307E+04  0.50400001928E-02 0. -1.
    10030    2    1    2    0    0  0.00000000000E+00  0.00000000000E+00 -0.12533673047E+04  0.35465469568E+04  0.33176898161E+04 0.  0.
        1    1    3    3  502    0  0.69326268472E+03  0.12117457156E+04 -0.15844962413E+04  0.21117692033E+04  0.50400001928E-02 0. -1.
       -1    1    3    3    0  502 -0.69326268472E+03 -0.12117457156E+04  0.33112893658E+03  0.14347777535E+04  0.50400001928E-02 0.  1.
</event>
<event>
 5   0  0.3796529E-07  0.3247878E+04  0.7818609E-02  0.8176286E-01
        1   -1    0    0  501    0  0.00000000000E+00  0.00000000000E+00  0.12899906432E+04  0.12899906432E+04  0.50400001928E-02 0.  1.
       -1   -1    0    0    0  501  0.00000000000E+00  0.00000000000E+00 -0.20443383619E+04  0.20443383619E+04  0.50400001928E-02 0. -1.
    10030    2    1    2    0    0  0.00000000000E+00  0.00000000000E+00 -0.75434771871E+03  0.33343290051E+04  0.32478776814E+04 0.  0.
        5    1    3    3  502    0 -0.29235975318E+03  0.11813079434E+04  0.72671125123E+03  0.14174251356E+04  0.46999998093E+01 0.  1.
       -5    1    3    3    0  502  0.29235975318E+03 -0.11813079434E+04 -0.14810589699E+04  0.19169038695E+04  0.46999998093E+01 0. -1.
</event>
<event>
 5   0  0.3749685E-07  0.3294525E+04  0.7818609E-02  0.8164290E-01
       -1   -1    0    0    0  501  0.00000000000E+00  0.00000000000E+00  0.17350816326E+04  0.17350816326E+04  0.50400001928E-02 0.  1.
        1   -1    0    0  501    0  0.00000000000E+00  0.00000000000E+00 -0.15638880310E+04  0.15638880311E+04  0.50400001928E-02 0. -1.
    10030    2    1    2    0    0  0.00000000000E+00  0.00000000000E+00  0.17119360156E+03  0.32989696637E+04  0.32945247901E+04 0.  0.
        3    1    3    3  502    0 -0.10684110282E+04 -0.98335462856E+03 -0.69326037061E+03  0.16090675568E+04  0.10100000352E+00 0. -1.
       -3    1    3    3    0  502  0.10684110282E+04  0.98335462856E+03  0.86445397217E+03  0.16899021069E+04  0.10100000352E+00 0.  1.
</event>
<event>
 5   0  0.1126221E-06  0.3293367E+04  0.7818609E-02  0.8164585E-01
        2   -1    0    0  501    0  0.00000000000E+00  0.00000000000E+00  0.16800192581E+04  0.16800192581E+04  0.25500000920E-02 0. -1.
       -2   -1    0    0    0  501  0.00000000000E+00  0.00000000000E+00 -0.16140090340E+04  0.16140090340E+04  0.25500000920E-02 0.  1.
    10030    2    1    2    0    0  0.00000000000E+00  0.00000000000E+00  0.66010224061E+02  0.32940282921E+04  0.32933668243E+04 0.  0.
        2    1    3    3  502    0 -0.19212239840E+03  0.10626159240E+04 -0.12104270445E+04  0.16220965594E+04  0.25500000920E-02 0.  1.
       -2    1    3    3    0  502  0.19212239840E+03 -0.10626159240E+04  0.12764372686E+04  0.16719317326E+04  0.25500000920E-02 0. -1.
</event>
<event>
 5   0  0.3709747E-07  0.3318688E+04  0.7818609E-02  0.8158156E-01
        1   -1    0    0  501    0  0.00000000000E+00  0.00000000000E+00  0.12454707904E+04  0.12454707904E+04  0.50400001928E-02 0. -1.
       -1   -1    0    0    0  501  0.00000000000E+00  0.00000000000E+00 -0.22107483765E+04  0.22107483765E+04  0.50400001928E-02 0.  1.
    10030    2    1    2    0    0  0.00000000000E+00  0.00000000000E+00 -0.96527758614E+03  0.34562191669E+04  0.33186880105E+04 0.  0.
        4    1    3    3  502    0  0.80284519262E+03  0.12998961784E+04 -0.11568709284E+04  0.19164139521E+04  0.12699999809E+01 0.  1.
       -4    1    3    3    0  502 -0.80284519262E+03 -0.12998961784E+04  0.19159334228E+03  0.15398052148E+04  0.12699999809E+01 0. -1.
</event>
<event>
 5   0  0.1146799E-06  0.3331501E+04  0.7818609E-02  0.8154926E-01
        2   -1    0    0  501    0  0.00000000000E+00  0.00000000000E+00  0.21766852736E+04  0.21766852736E+04  0.25500000920E-02 0. -1.
       -2   -1    0    0    0  501  0.00000000000E+00  0.00000000000E+00 -0.12747474689E+04  0.12747474689E+04  0.25500000920E-02 0.  1.
    10030    2    1    2    0    0  0.00000000000E+00  0.00000000000E+00  0.90193780465E+03  0.34514327425E+04  0.33315005888E+04 0.  0.
        5    1    3    3  502    0  0.46257733606E+03 -0.80503084892E+03 -0.98180352537E+03  0.13513003781E+04  0.46999998093E+01 0.  1.
       -5    1    3    3    0  502 -0.46257733606E+03  0.80503084892E+03  0.18837413300E+04  0.21001323644E+04  0.46999998093E+01 0. -1.
</event>
<event>
 5   0  0.1120545E-06  0.3313047E+04  0.7818609E-02  0.8159583E-01
        2   -1    0    0  501    0  0.00000000000E+00  0.00000000000E+00  0.24272732385E+04  0.24272732385E+04  0.25500000920E-02 0.  1.
       -2   -1    0    0    0  501  0.00000000000E+00  0.00000000000E+00 -0.11305157941E+04  0.11305157941E+04  0.25500000920E-02 0. -1.
    10030    2    1    2    0    0  0.00000000000E+00  0.00000000000E+00  0.12967574444E+04  0.35577890326E+04  0.33130473783E+04 0.  0.
        4    1    3    3  502    0 -0.70900677613E+03  0.14606577198E+04  0.29570118927E+03  0.16503491719E+04  0.12699999809E+01 0.  1.
       -4    1    3    3    0  502  0.70900677613E+03 -0.14606577198E+04  0.10010562552E+04  0.19074398606E+04  0.12699999809E+01 0. -1.
</event>
<event>
 5   0  0.3757406E-07  0.3330962E+04  0.7818609E-02  0.8155062E-01
        1   -1    0    0  501    0  0.00000000000E+00  0.00000000000E+00  0.20721083668E+04  0.20721083668E+04  0.50400001928E-02 0.  1.
       -1   -1    0    0    0  501  0.00000000000E+00  0.00000000000E+00 -0.13386494504E+04  0.13386494504E+04  0.50400001928E-02 0. -1.
    10030    2    1    2    0    0  0.00000000000E+00  0.00000000000E+00  0.73345891634E+03  0.34107578172E+04  0.33309618590E+04 0.  0.
        1    1    3    3  502    0 -0.62636075172E+03  0.57860321194E+03 -0.10981778619E+04  0.13903611345E+04  0.50400001928E-02 0. -1.
       -1    1    3    3    0  502  0.62636075172E+03 -0.57860321194E+03  0.18316367782E+04  0.20203966827E+04  0.50400001928E-02 0.  1.
</event>
<event>
 5   0  0.1146799E-06  0.3268749E+04  0.7818609E-02  0.8170893E-01
        2   -1    0    0  501    0  0.00000000000E+00  0.00000000000E+00  0.25635718527E+04  0.25635718527E+04  0.25500000920E-02 0.  1.
       -2   -1    0    0    0  501  0.00000000000E+00  0.00000000000E+00 -0.10419755495E+04  0.10419755495E+04  0.25500000920E-02 0. -1.
    10030    2    1    2    0    0  0.00000000000E+00  0.00000000000E+00  0.15215963032E+04  0.36055474022E+04  0.32687485005E+04 0.  0.
        5    1    3    3  502    0 -0.10499270070E+04 -0.91828364346E+03 -0.17876943021E+03  0.14062617711E+04  0.46999998093E+01 0. -1.
       -5    1    3    3    0  502  0.10499270070E+04  0.91828364346E+03  0.17003657334E+04  0.21992856311E+04  0.46999998093E+01 0.  1.
</event>
<event>
 5   0  0.1116462E-06  0.3105036E+04  0.7818609E-02  0.8214357E-01
        2   -1    0    0  501    0  0.00000000000E+00  0.00000000000E+00  0.16777026864E+04  0.16777026864E+04  0.25500000920E-02 0. -1.
       -2   -1    0    0    0  501  0.00000000000E+00  0.00000000000E+00 -0.14366737512E+04  0.14366737512E+04  0.25500000920E-02 0.  1.
    10030    2    1    2    0    0  0.00000000000E+00  0.00000000000E+00  0.24102893518E+03  0.31143764376E+04  0.31050355308E+04 0.  0.
        1    1    3    3  502    0  0.88129387072E+03 -0.11972684119E+04  0.56927620698E+03  0.15919189478E+04  0.50400001928E-02 0. -1.
       -1    1    3    3    0  502 -0.88129387072E+03  0.11972684119E+04 -0.32824727180E+03  0.15224574897E+04  0.50400001928E-02 0.  1.
</event>
<event>
 5   0  0.1129434E-06  0.3313311E+04  0.7818609E-02  0.8159517E-01
       -2   -1    0    0    0  501  0.00000000000E+00  0.00000000000E+00  0.13333607498E+04  0.13333607498E+04  0.25500000920E-02 0.  1.
        2   -1    0    0  501    0  0.00000000000E+00  0.00000000000E+00 -0.20583377077E+04  0.20583377077E+04  0.25500000920E-02 0. -1.
    10030    2    1    2    0    0  0.00000000000E+00  0.00000000000E+00 -0.72497695794E+03  0.33916984575E+04  0.33133105555E+04 0.  0.
        3    1    3    3  502    0  0.46506049903E+03  0.10200513723E+04 -0.16110667780E+04  0.19627333602E+04  0.10100000352E+00 0. -1.
       -3    1    3    3    0  502 -0.46506049903E+03 -0.10200513723E+04  0.88608982008E+03  0.14289650973E+04  0.10100000352E+00 0.  1.
</event>
<event>
 5   0  0.3757406E-07  0.3304393E+04  0.7818609E-02  0.8161779E-01
       -1   -1    0    0    0  501  0.00000000000E+00  0.00000000000E+00  0.15808966710E+04  0.15808966710E+04  0.50400001928E-02 0. -1.
        1   -1    0    0  501    0  0.00000000000E+00  0.00000000000E+00 -0.17267116497E+04  0.17267116497E+04  0.50400001928E-02 0.  1.
    10030    2    1    2    0    0  0.00000000000E+00  0.00000000000E+00 -0.14581497876E+03  0.33076083207E+04  0.33043926515E+04 0.  0.
        1    1    3    3  502    0  0.18156405868E+03 -0.14459446487E+04  0.70633018731E+03  0.16194516874E+04  0.50400001928E-02 0. -1.
       -1    1    3    3    0  502 -0.18156405868E+03  0.14459446487E+04 -0.85214516607E+03  0.16881566333E+04  0.50400001928E-02 0.  1.
</event>
<event>
 5   0  0.3674967E-07  0.3296591E+04  0.7818609E-02  0.8163763E-01
       -1   -1    0    0    0  501  0.00000000000E+00  0.00000000000E+00  0.13727298290E+04  0.13727298290E+04  0.50400001928E-02 0.  1.
        1   -1    0    0  501    0  0.00000000000E+00  0.00000000000E+00 -0.19791786538E+04  0.19791786538E+04  0.50400001928E-02 0. -1.
    10030    2    1    2    0    0  0.00000000000E+00  0.00000000000E+00 -0.60644882475E+03  0.33519084828E+04  0.32965907086E+04 0.  0.
        2    1    3    3  502    0 -0.16388619844E+01 -0.10378694763E+04  0.99877133054E+03  0.14403888039E+04  0.25500000920E-02 0.  1.
       -2    1    3    3    0  502  0.16388619844E+01  0.10378694763E+04 -0.16052201553E+04  0.19115196789E+04  0.25500000920E-02 0. -1.
</event>
<event>
 5   0  0.1116462E-06  0.3293553E+04  0.7818609E-02  0.8164538E-01
        2   -1    0    0  501    0  0.00000000000E+00  0.00000000000E+00  0.27220749851E+04  0.27220749851E+04  0.25500000920E-02 0.  1.
       -2   -1    0    0    0  501  0.00000000000E+00  0.00000000000E+00 -0.99625201829E+03  0.99625201829E+03  0.25500000920E-02 0. -1.
    10030    2    1    2    0    0  0.00000000000E+00  0.00000000000E+00  0.17258229668E+04  0.37183270034E+04  0.32935529131E+04 0.  0.
        1    1    3    3  502    0 -0.16338758908E+04 -0.20525624159E+03  0.87856094275E+03  0.18664270362E+04  0.50400001928E-02 0.  1.
       -1    1    3    3    0  502  0.16338758908E+04  0.20525624159E+03  0.84726202407E+03  0.18518999672E+04  0.50400001928E-02 0. -1.
</event>
<event>
 5   0  0.1129434E-06  0.3318230E+04  0.7818609E-02  0.8158272E-01
       -2   -1    0    0    0  501  0.00000000000E+00  0.00000000000E+00  0.22835374517E+04  0.22835374517E+04  0.25500000920E-02 0.  1.
        2   -1    0    0  501    0  0.00000000000E+00  0.00000000000E+00 -0.12054380465E+04  0.12054380465E+04  0.25500000920E-02 0. -1.
    10030    2    1    2    0    0  0.00000000000E+00  0.00000000000E+00  0.10780994052E+04  0.34889754983E+04  0.33182302060E+04 0.  0.
        3    1    3    3  502    0 -0.61902559717E+03  0.10195915362E+04  0.17516046919E+04  0.21191693178E+04  0.10100000352E+00 0.  1.
       -3    1    3    3    0  502  0.61902559717E+03 -0.10195915362E+04 -0.67350528668E+03  0.13698061804E+04  0.10100000352E+00 0. -1.
</event>
<event>
 5   0  0.3796529E-07  0.3292042E+04  0.7818609E-02  0.8164923E-01
        1   -1    0    0  501    0  0.00000000000E+00  0.00000000000E+00  0.23426154381E+04  0.23426154381E+04  0.50400001928E-02 0. -1.
       -1   -1    0    0    0  501  0.00000000000E+00  0.00000000000E+00 -0.11565642721E+04  0.11565642721E+04  0.50400001928E-02 0.  1.
    10030    2    1    2    0    0  0.00000000000E+00  0.00000000000E+00  0.11860511660E+04  0.34991797103E+04  0.32920421134E+04 0.  0.
        5    1    3    3  502    0 -0.24650609447E+03 -0.16826913452E+03 -0.11275549464E+04  0.11663970179E+04  0.46999998093E+01 0.  1.
       -5    1    3    3    0  502  0.24650609447E+03  0.16826913452E+03  0.23136061124E+04  0.23327826923E+04  0.46999998093E+01 0. -1.
</event>
<event>
 5   0  0.1129434E-06  0.3308948E+04  0.7818609E-02  0.8160622E-01
       -2   -1    0    0    0  501  0.00000000000E+00  0.00000000000E+00  0.13816082465E+04  0.13816082465E+04  0.25500000920E-02 0. -1.
        2   -1    0    0  501    0  0.00000000000E+00  0.00000000000E+00 -0.19812298828E+04  0.19812298828E+04  0.25500000920E-02 0.  1.
    10030    2    1    2    0    0  0.00000000000E+00  0.00000000000E+00 -0.59962163632E+03  0.33628381293E+04  0.33089475936E+04 0.  0.
        3    1    3    3  502    0 -0.10154397748E+04 -0.16488491125E+03  0.10170462821E+04  0.14466126366E+04  0.10100000352E+00 0. -1.
       -3    1    3    3    0  502  0.10154397748E+04  0.16488491125E+03 -0.16166679184E+04  0.19162254927E+04  0.10100000352E+00 0.  1.
</event>
<event>
 5   0  0.3709747E-07  0.3294432E+04  0.7818609E-02  0.8164314E-01
       -1   -1    0    0    0  501  0.00000000000E+00  0.00000000000E+00  0.13986953602E+04  0.13986953602E+04  0.50400001928E-02 0. -1.
        1   -1    0    0  501    0  0.00000000000E+00  0.00000000000E+00 -0.19398934673E+04  0.19398934674E+04  0.50400001928E-02 0.  1.
    10030    2    1    2    0    0  0.00000000000E+00  0.00000000000E+00 -0.54119810717E+03  0.33385888275E+04  0.32944316609E+04 0.  0.
        4    1    3    3  502    0  0.10333915671E+04  0.53581839919E+02 -0.15693971120E+04  0.18798345812E+04  0.12699999809E+01 0.  1.
       -4    1    3    3    0  502 -0.10333915671E+04 -0.53581839919E+02  0.10281990049E+04  0.14587542463E+04  0.12699999809E+01 0. -1.
</event>
<event>
 5   0  0.3709747E-07  0.3295035E+04  0.7818609E-02  0.8164160E-01
       -1   -1    0    0    0  501  0.00000000000E+00  0.00000000000E+00  0.10232267595E+04  0.10232267595E+04  0.50400001928E-02 0.  1.
        1   -1    0    0  501    0  0.00000000000E+00  0.00000000000E+00 -0.26527001916E+04  0.26527001916E+04  0.50400001928E-02 0. -1.
    10030    2    1    2    0    0  0.00000000000E+00  0.00000000000E+00 -0.16294734321E+04  0.36759269511E+04  0.32950349442E+04 0.  0.
        4    1    3    3  502    0 -0.49847420136E+03  0.19441569553E+03 -0.25530762481E+04  0.26085386587E+04  0.12699999809E+01 0. -1.
       -4    1    3    3    0  502  0.49847420136E+03 -0.19441569553E+03  0.92360281603E+03  0.10673882924E+04  0.12699999809E+01 0.  1.
</event>
<event>
 5   0  0.1129434E-06  0.3286592E+04  0.7818609E-02  0.8166315E-01
       -2   -1    0    0    0  501  0.00000000000E+00  0.00000000000E+00  0.19556462037E+04  0.19556462037E+04  0.25500000920E-02 0. -1.
        2   -1    0    0  501    0  0.00000000000E+00  0.00000000000E+00 -0.13808338517E+04  0.13808338517E+04  0.25500000920E-02 0.  1.
    10030    2    1    2    0    0  0.00000000000E+00  0.00000000000E+00  0.57481235203E+03  0.33364800554E+04  0.32865924481E+04 0.  0.
        3    1    3    3  502    0 -0.77779523575E+03 -0.23643705919E+03  0.17372136814E+04  0.19180144152E+04  0.10100000352E+00 0. -1.
       -3    1    3    3    0  502  0.77779523575E+03  0.23643705919E+03 -0.11624013294E+04  0.14184656402E+04  0.10100000352E+00 0.  1.
</event>
<event>
 5   0  0.3796529E-07  0.3292939E+04  0.7818609E-02  0.8164694E-01
       -1   -1    0    0    0  501  0.00000000000E+00  0.00000000000E+00  0.13715437250E+04  0.13715437250E+04  0.50400001928E-02 0. -1.
        1   -1    0    0  501    0  0.00000000000E+00  0.00000000000E+00 -0.19765043162E+04  0.19765043162E+04  0.50400001928E-02 0.  1.
    10030    2    1    2    0    0  0.00000000000E+00  0.00000000000E+00 -0.60496059117E+03  0.33480480413E+04  0.32929391688E+04 0.  0.
        5    1    3    3  502    0 -0.75510601229E+03 -0.40326558138E+03  0.11274820643E+04  0.14156433570E+04  0.46999998093E+01 0. -1.
       -5    1    3    3    0  502  0.75510601229E+03  0.40326558138E+03 -0.17324426555E+04  0.19324046842E+04  0.46999998093E+01 0.  1.
</event>
<event>
 5   0  0.3757406E-07  0.3205678E+04  0.7818609E-02  0.8187319E-01
       -1   -1    0    0    0  501  0.00000000000E+00  0.00000000000E+00  0.13761654795E+04  0.13761654795E+04  0.50400001928E-02 0. -1.
        1   -1    0    0  501    0  0.00000000000E+00  0.00000000000E+00 -0.18668484991E+04  0.18668484991E+04  0.50400001928E-02 0.  1.
    10030    2    1    2    0    0  0.00000000000E+00  0.00000000000E+00 -0.49068301964E+03  0.32430139786E+04  0.32056777505E+04 0.  0.
        1    1    3    3  502    0 -0.11441464946E+04  0.85006550251E+03  0.49627909785E+03  0.15092963601E+04  0.50400001928E-02 0. -1.
       -1    1    3    3    0  502  0.11441464946E+04 -0.85006550251E+03 -0.98696211749E+03  0.17337176186E+04  0.50400001928E-02 0.  1.
</event>
<event>
 5   0  0.3709747E-07  0.3288155E+04  0.7818609E-02  0.8165916E-01
       -1   -1    0    0    0  501  0.00000000000E+00  0.00000000000E+00  0.13524018145E+04  0.13524018145E+04  0.50400001928E-02 0. -1.
        1   -1    0    0  501    0  0.00000000000E+00  0.00000000000E+00 -0.19986593206E+04  0.19986593206E+04  0.50400001928E-02 0.  1.
    10030    2    1    2    0    0  0.00000000000E+00  0.00000000000E+00 -0.64625750614E+03  0.33510611351E+04  0.32881547967E+04 0.  0.
        4    1    3    3  502    0  0.11093538803E+04  0.11416501469E+04  0.95779778578E+02  0.15947433864E+04  0.12699999809E+01 0.  1.
       -4    1    3    3    0  502 -0.11093538803E+04 -0.11416501469E+04 -0.74203728472E+03  0.17563177487E+04  0.12699999809E+01 0. -1.
</event>
<event>
 5   0  0.1126221E-06  0.3282861E+04  0.7818609E-02  0.8167270E-01
        2   -1    0    0  501    0  0.00000000000E+00  0.00000000000E+00  0.30600176454E+04  0.30600176454E+04  0.25500000920E-02 0. -1.
       -2   -1    0    0    0  501  0.00000000000E+00  0.00000000000E+00 -0.88048333881E+03  0.88048333881E+03  0.25500000920E-02 0.  1.
    10030    2    1    2    0    0  0.00000000000E+00  0.00000000000E+00  0.21795343066E+04  0.39405009842E+04  0.32828612844E+04 0.  0.
        2    1    3    3  502    0  0.34095711560E+03  0.32090587240E+03 -0.79862404945E+03  0.92576060944E+03  0.25500000920E-02 0.  1.
       -2    1    3    3    0  502 -0.34095711560E+03 -0.32090587240E+03  0.29781583560E+04  0.30147403748E+04  0.25500000920E-02 0. -1.
</event>
<event>
 5   0  0.1126221E-06  0.3299377E+04  0.7818609E-02  0.8163054E-01
       -2   -1    0    0    0  501  0.00000000000E+00  0.00000000000E+00  0.15620182421E+04  0.15620182421E+04  0.25500000920E-02 0. -1.
        2   -1    0    0  501    0  0.00000000000E+00  0.00000000000E+00 -0.17422796094E+04  0.17422796094E+04  0.25500000920E-02 0.  1.
    10030    2    1    2    0    0  0.00000000000E+00  0.00000000000E+00 -0.18026136722E+03  0.33042978515E+04  0.32993772338E+04 0.  0.
        2    1    3    3  502    0  0.73638706441E+02 -0.55859357964E+03  0.14626729248E+04  0.15674378876E+04  0.25500000920E-02 0. -1.
       -2    1    3    3    0  502 -0.73638706441E+02  0.55859357964E+03 -0.16429342921E+04  0.17368599639E+04  0.25500000920E-02 0.  1.
</event>
<event>
 5   0  0.1126221E-06  0.3306522E+04  0.7818609E-02  0.8161238E-01
        2   -1    0    0  501    0  0.00000000000E+00  0.00000000000E+00  0.16129519024E+04  0.16129519024E+04  0.25500000920E-02 0. -1.
       -2   -1    0    0    0  501  0.00000000000E+00  0.00000000000E+00 -0.16945771671E+04  0.16945771671E+04  0.25500000920E-02 0.  1.
    10030    2    1    2    0    0  0.00000000000E+00  0.00000000000E+00 -0.81625264718E+02  0.33075290696E+04  0.33065217166E+04 0.  0.
        2    1    3    3  502    0 -0.89889974391E+03  0.60391695333E+03 -0.12904069778E+04  0.16846028032E+04  0.25500000920E-02 0.  1.
       -2    1    3    3    0  502  0.89889974391E+03 -0.60391695333E+03  0.12087817131E+04  0.16229262664E+04  0.25500000920E-02 0. -1.
</event>
<event>
 5   0  0.3674967E-07  0.3305981E+04  0.7818609E-02  0.8161375E-01
       -1   -1    0    0    0  501  0.00000000000E+00  0.00000000000E+00  0.11247822476E+04  0.11247822476E+04  0.50400001928E-02 0.  1.
        1   -1    0    0  501    0  0.00000000000E+00  0.00000000000E+00 -0.24292506287E+04  0.24292506287E+04  0.50400001928E-02 0. -1.
    10030    2    1    2    0    0  0.00000000000E+00  0.00000000000E+00 -0.13044683811E+04  0.35540328763E+04  0.33059812353E+04 0.  0.
        2    1    3    3  502    0  0.29295783616E+03 -0.10562151807E+04  0.67792441878E+03  0.12887964615E+04  0.25500000920E-02 0.  1.
       -2    1    3    3    0  502 -0.29295783616E+03  0.10562151807E+04 -0.19823927999E+04  0.22652364148E+04  0.25500000920E-02 0. -1.
</event>
<event>
 5   0  0.3709747E-07  0.3277330E+04  0.7818609E-02  0.8168688E-01
        1   -1    0    0  501    0  0.00000000000E+00  0.00000000000E+00  0.94331154837E+03  0.94331154838E+03  0.50400001928E-02 0. -1.
       -1   -1    0    0    0  501  0.00000000000E+00  0.00000000000E+00 -0.28465910059E+04  0.28465910059E+04  0.50400001928E-02 0.  1.
    10030    2    1    2    0    0  0.00000000000E+00  0.00000000000E+00 -0.19032794575E+04  0.37899025543E+04  0.32773295039E+04 0.  0.
        4    1    3    3  502    0  0.15050253589E+04 -0.12451546825E+03 -0.16872181693E+04  0.22643569057E+04  0.12699999809E+01 0.  1.
       -4    1    3    3    0  502 -0.15050253589E+04  0.12451546825E+03 -0.21606128827E+03  0.15255456486E+04  0.12699999809E+01 0. -1.
</event>
<event>
 5   0  0.3749685E-07  0.3318423E+04  0.7818609E-02  0.8158223E-01
        1   -1    0    0  501    0  0.00000000000E+00  0.00000000000E+00  0.14916984898E+04  0.14916984898E+04  0.50400001928E-02 0. -1.
       -1   -1    0    0    0  501  0.00000000000E+00  0.00000000000E+00 -0.18455357052E+04  0.18455357052E+04  0.50400001928E-02 0.  1.
    10030    2    1    2    0    0  0.00000000000E+00  0.00000000000E+00 -0.35383721533E+03  0.33372341950E+04  0.33184230136E+04 0.  0.
        3    1    3    3  502    0 -0.88530728710E+03 -0.10294028267E+04  0.78218761679E+03  0.15669258598E+04  0.10100000352E+00 0. -1.
       -3    1    3    3    0  502  0.88530728710E+03  0.10294028267E+04 -0.11360248321E+04  0.17703083352E+04  0.10100000352E+00 0.  1.
</event>
<event>
 5   0  0.1146799E-06  0.3302975E+04  0.7818609E-02  0.8162139E-01
        2   -1    0    0  501    0  0.00000000000E+00  0.00000000000E+00  0.14276453380E+04  0.14276453380E+04  0.25500000920E-02 0. -1.
       -2   -1    0    0    0  501  0.00000000000E+00  0.00000000000E+00 -0.19104265253E+04  0.19104265253E+04  0.25500000920E-02 0.  1.
    10030    2    1    2    0    0  0.00000000000E+00  0.00000000000E+00 -0.48278118735E+03  0.33380718633E+04  0.33029753389E+04 0.  0.
        5    1    3    3  502    0 -0.10783902980E+04  0.10413106745E+04 -0.94167173410E+03  0.17703167232E+04  0.46999998093E+01 0.  1.
       -5    1    3    3    0  502  0.10783902980E+04 -0.10413106745E+04  0.45889054675E+03  0.15677551401E+04  0.46999998093E+01 0. -1.
</event>
<event>
 5   0  0.3709747E-07  0.3287074E+04  0.7818609E-02  0.8166192E-01
        1   -1    0    0  501    0  0.00000000000E+00  0.00000000000E+00  0.17975210585E+04  0.17975210586E+04  0.50400001928E-02 0. -1.
       -1   -1    0    0    0  501  0.00000000000E+00  0.00000000000E+00 -0.15027437576E+04  0.15027437576E+04  0.50400001928E-02 0.  1.
    10030    2    1    2    0    0  0.00000000000E+00  0.00000000000E+00  0.29477730092E+03  0.33002648162E+04  0.32870738051E+04 0.  0.
        4    1    3    3  502    0 -0.57936388123E+03  0.29632267835E+03  0.16626642422E+04  0.17854757439E+04  0.12699999809E+01 0. -1.
       -4    1    3    3    0  502  0.57936388123E+03 -0.29632267835E+03 -0.13678869413E+04  0.15147890723E+04  0.12699999809E+01 0.  1.
</event>
<event>
 5   0  0.1146799E-06  0.3304539E+04  0.7818609E-02  0.8161741E-01
        2   -1    0    0  501    0  0.00000000000E+00  0.00000000000E+00  0.20908122369E+04  0.20908122369E+04  0.25500000920E-02 0.  1.
       -2   -1    0    0    0  501  0.00000000000E+00  0.00000000000E+00 -0.13057102262E+04  0.13057102262E+04  0.25500000920E-02 0. -1.
    10030    2    1    2    0    0  0.00000000000E+00  0.00000000000E+00  0.78510201071E+03  0.33965224632E+04  0.33045392532E+04 0.  0.
        5    1    3    3  502    0  0.16341406715E+04 -0.24403106501E+03  0.39004721680E+03  0.16976824839E+04  0.46999998093E+01 0. -1.
       -5    1    3    3    0  502 -0.16341406715E+04  0.24403106501E+03  0.39505479390E+03  0.16988399792E+04  0.46999998093E+01 0.  1.
</event>
<event>
 5   0  0.3709747E-07  0.3283297E+04  0.7818609E-02  0.8167158E-01
       -1   -1    0    0    0  501  0.00000000000E+00  0.00000000000E+00  0.11829977571E+04  0.11829977571E+04  0.50400001928E-02 0.  1.
        1   -1    0    0  501    0  0.00000000000E+00  0.00000000000E+00 -0.22781193974E+04  0.22781193974E+04  0.50400001928E-02 0. -1.
    10030    2    1    2    0    0  0.00000000000E+00  0.00000000000E+00 -0.10951216403E+04  0.34611171545E+04  0.32832972071E+04 0.  0.
        4    1    3    3  502    0 -0.96167060125E+03 -0.91123065715E+03 -0.15695280323E+04  0.20539161407E+04  0.12699999809E+01 0. -1.
       -4    1    3    3    0  502  0.96167060125E+03  0.91123065715E+03  0.47440639196E+03  0.14072010139E+04  0.12699999809E+01 0.  1.
</event>
<event>
 5   0  0.3573375E-07  0.3287433E+04  0.7818609E-02  0.8166100E-01
        3   -1    0    0  501    0  0.00000000000E+00  0.00000000000E+00  0.29212025642E+04  0.29212025660E+04  0.10100000352E+00 0. -1.
       -3   -1    0    0    0  501  0.00000000000E+00  0.00000000000E+00 -0.92489434421E+03  0.92489434973E+03  0.10100000352E+00 0.  1.
    10030    2    1    2    0    0  0.00000000000E+00  0.00000000000E+00  0.19963082200E+04  0.38460969157E+04  0.32874328853E+04 0.  0.
        4    1    3    3  502    0  0.12638452944E+04  0.10338671637E+04  0.77736114420E+03  0.18084463503E+04  0.12699999809E+01 0.  1.
       -4    1    3    3    0  502 -0.12638452944E+04 -0.10338671637E+04  0.12189470758E+04  0.20376505654E+04  0.12699999809E+01 0. -1.
</event>
<event>
 5   0  0.3749685E-07  0.3292002E+04  0.7818609E-02  0.8164933E-01
        1   -1    0    0  501    0  0.00000000000E+00  0.00000000000E+00  0.13859735960E+04  0.13859735960E+04  0.50400001928E-02 0. -1.
       -1   -1    0    0    0  501  0.00000000000E+00  0.00000000000E+00 -0.19548135384E+04  0.19548135384E+04  0.50400001928E-02 0.  1.
    10030    2    1    2    0    0  0.00000000000E+00  0.00000000000E+00 -0.56883994239E+03  0.33407871345E+04  0.32920023994E+04 0.  0.
        3    1    3    3  502    0  0.55865122434E+03  0.12316513287E+04 -0.12365473881E+04  0.18325134759E+04  0.10100000352E+00 0.  1.
       -3    1    3    3    0  502 -0.55865122434E+03 -0.12316513287E+04  0.66770744571E+03  0.15082736586E+04  0.10100000352E+00 0. -1.
</event>
<event>
 5   0  0.3749685E-07  0.3296511E+04  0.7818609E-02  0.8163784E-01
       -1   -1    0    0    0  501  0.00000000000E+00  0.00000000000E+00  0.11266814516E+04  0.11266814516E+04  0.50400001928E-02 0.  1.
        1   -1    0    0  501    0  0.00000000000E+00  0.00000000000E+00 -0.24112813298E+04  0.24112813298E+04  0.50400001928E-02 0. -1.
    10030    2    1    2    0    0  0.00000000000E+00  0.00000000000E+00 -0.12845998782E+04  0.35379627815E+04  0.32965108518E+04 0.  0.
        3    1    3    3  502    0 -0.15594593896E+04  0.33203233409E+02 -0.70622175635E+02  0.15614107545E+04  0.10100000352E+00 0.  1.
       -3    1    3    3    0  502  0.15594593896E+04 -0.33203233409E+02 -0.12139777026E+04  0.19765520269E+04  0.10100000352E+00 0. -1.
</event>
<event>
 5   0  0.1120545E-06  0.3291895E+04  0.7818609E-02  0.8164961E-01
        2   -1    0    0  501    0  0.00000000000E+00  0.00000000000E+00  0.15266548902E+04  0.15266548902E+04  0.25500000920E-02 0.  1.
       -2   -1    0    0    0  501  0.00000000000E+00  0.00000000000E+00 -0.17745616312E+04  0.17745616312E+04  0.25500000920E-02 0. -1.
    10030    2    1    2    0    0  0.00000000000E+00  0.00000000000E+00 -0.24790674094E+03  0.33012165214E+04  0.32918950119E+04 0.  0.
        4    1    3    3  502    0 -0.12522160011E+04 -0.95442221460E+03  0.35717062556E+03  0.16144779793E+04  0.12699999809E+01 0.  1.
       -4    1    3    3    0  502  0.12522160011E+04  0.95442221460E+03 -0.60507736651E+03  0.16867385421E+04  0.12699999809E+01 0. -1.
</event>
<event>
 5   0  0.1126221E-06  0.3331519E+04  0.7818609E-02  0.8154921E-01
       -2   -1    0    0    0  501  0.00000000000E+00  0.00000000000E+00  0.20196904130E+04  0.20196904130E+04  0.25500000920E-02 0.  1.
        2   -1    0    0  501    0  0.00000000000E+00  0.00000000000E+00 -0.13738513456E+04  0.13738513456E+04  0.25500000920E-02 0. -1.
    10030    2    1    2    0    0  0.00000000000E+00  0.00000000000E+00  0.64583906749E+03  0.33935417586E+04  0.33315188077E+04 0.  0.
        2    1    3    3  502    0 -0.22319754375E+03  0.44237310548E+03 -0.12970477024E+04  0.13884681668E+04  0.25500000920E-02 0. -1.
       -2    1    3    3    0  502  0.22319754375E+03 -0.44237310548E+03  0.19428867699E+04  0.20050735918E+04  0.25500000920E-02 0.  1.
</event>
<event>
 5   0  0.3749685E-07  0.3298385E+04  0.7818609E-02  0.8163306E-01
        1   -1    0    0  501    0  0.00000000000E+00  0.00000000000E+00  0.30895925254E+04  0.30895925254E+04  0.50400001928E-02 0. -1.
       -1   -1    0    0    0  501  0.00000000000E+00  0.00000000000E+00 -0.88032179069E+03  0.88032179071E+03  0.50400001928E-02 0.  1.
    10030    2    1    2    0    0  0.00000000000E+00  0.00000000000E+00  0.22092707347E+04  0.39699143161E+04  0.32983848317E+04 0.  0.
        3    1    3    3  502    0  0.38071539993E+03 -0.61207190161E+03 -0.68068742679E+03  0.99141898896E+03  0.10100000352E+00 0.  1.
       -3    1    3    3    0  502 -0.38071539993E+03  0.61207190161E+03  0.28899581615E+04  0.29784953272E+04  0.10100000352E+00 0. -1.
</event>
<event>
 5   0  0.1129434E-06  0.3023364E+04  0.7818609E-02  0.8237090E-01
       -2   -1    0    0    0  501  0.00000000000E+00  0.00000000000E+00  0.89997827175E+03  0.89997827175E+03  0.25500000920E-02 0.  1.
        2   -1    0    0  501    0  0.00000000000E+00  0.00000000000E+00 -0.25391535716E+04  0.25391535716E+04  0.25500000920E-02 0. -1.
    10030    2    1    2    0    0  0.00000000000E+00  0.00000000000E+00 -0.16391752998E+04  0.34391318433E+04  0.30233643797E+04 0.  0.
        3    1    3    3  502    0  0.92130269606E+03  0.18061203266E+03  0.52814991164E+03  0.10772008650E+04  0.10100000352E+00 0.  1.
       -3    1    3    3    0  502 -0.92130269606E+03 -0.18061203266E+03 -0.21673252115E+04  0.23619309784E+04  0.10100000352E+00 0. -1.
</event>
<event>
 5   0  0.3757406E-07  0.3305820E+04  0.7818609E-02  0.8161416E-01
        1   -1    0    0  501    0  0.00000000000E+00  0.00000000000E+00  0.18645040914E+04  0.18645040914E+04  0.50400001928E-02 0. -1.
       -1   -1    0    0    0  501  0.00000000000E+00  0.00000000000E+00 -0.14653291773E+04  0.14653291773E+04  0.50400001928E-02 0.  1.
    10030    2    1    2    0    0  0.00000000000E+00  0.00000000000E+00  0.39917491408E+03  0.33298332687E+04  0.33058204708E+04 0.  0.
        1    1    3    3  502    0  0.12753566257E+04  0.10507400007E+04  0.16027610030E+03  0.16602040538E+04  0.50400001928E-02 0. -1.
       -1    1    3    3    0  502 -0.12753566257E+04 -0.10507400007E+04  0.23889881377E+03  0.16696292149E+04  0.50400001928E-02 0.  1.
</event>
<event>
 5   0  0.3709747E-07  0.3281314E+04  0.7818609E-02  0.8167666E-01
        1   -1    0    0  501    0  0.00000000000E+00  0.00000000000E+00  0.21988601016E+04  0.21988601016E+04  0.50400001928E-02 0.  1.
       -1   -1    0    0    0  501  0.00000000000E+00  0.00000000000E+00 -0.12241594345E+04  0.12241594345E+04  0.50400001928E-02 0. -1.
    10030    2    1    2    0    0  0.00000000000E+00  0.00000000000E+00  0.97470066712E+03  0.34230195360E+04  0.32813139676E+04 0.  0.
        4    1    3    3  502    0  0.23213116176E+03  0.15344980393E+04 -0.67781867009E+02  0.15534365463E+04  0.12699999809E+01 0. -1.
       -4    1    3    3    0  502 -0.23213116176E+03 -0.15344980393E+04  0.10424825341E+04  0.18695829898E+04  0.12699999809E+01 0.  1.
</event>
<event>
 5   0  0.3796529E-07  0.3056032E+04  0.7818609E-02  0.8227909E-01
       -1   -1    0    0    0  501  0.00000000000E+00  0.00000000000E+00  0.12034605177E+04  0.12034605177E+04  0.50400001928E-02 0.  1.
        1   -1    0    0  501    0  0.00000000000E+00  0.00000000000E+00 -0.19400990042E+04  0.19400990042E+04  0.50400001928E-02 0. -1.
    10030    2    1    2    0    0  0.00000000000E+00  0.00000000000E+00 -0.73663848645E+03  0.31435595219E+04  0.30560317747E+04 0.  0.
        5    1    3    3  502    0 -0.63595233362E+03 -0.56076255870E+03 -0.16759159263E+04  0.18781922958E+04  0.46999998093E+01 0. -1.
       -5    1    3    3    0  502  0.63595233362E+03  0.56076255870E+03  0.93927743986E+03  0.12653672261E+04  0.46999998093E+01 0.  1.
</event>
<event>
 5   0  0.1129434E-06  0.3334412E+04  0.7818609E-02  0.8154194E-01
       -2   -1    0    0    0  501  0.00000000000E+00  0.00000000000E+00  0.12236225962E+04  0.12236225962E+04  0.25500000920E-02 0. -1.
        2   -1    0    0  501    0  0.00000000000E+00  0.00000000000E+00 -0.22715958463E+04  0.22715958463E+04  0.25500000920E-02 0.  1.
    10030    2    1    2    0    0  0.00000000000E+00  0.00000000000E+00 -0.10479732501E+04  0.34952184425E+04  0.33344120963E+04 0.  0.
        3    1    3    3  502    0  0.12552696198E+04 -0.10968886141E+04 -0.55190855994E+03  0.17559810702E+04  0.10100000352E+00 0.  1.
       -3    1    3    3    0  502 -0.12552696198E+04  0.10968886141E+04 -0.49606469013E+03  0.17392373723E+04  0.10100000352E+00 0. -1.
</event>
<event>
 5   0  0.3757406E-07  0.3331684E+04  0.7818609E-02  0.8154880E-01
        1   -1    0    0  501    0  0.00000000000E+00  0.00000000000E+00  0.15876150843E+04  0.15876150843E+04  0.50400001928E-02 0. -1.
       -1   -1    0    0    0  501  0.00000000000E+00  0.00000000000E+00 -0.17479232226E+04  0.17479232226E+04  0.50400001928E-02 0.  1.
    10030    2    1    2    0    0  0.00000000000E+00  0.00000000000E+00 -0.16030813824E+03  0.33355383069E+04  0.33316838232E+04 0.  0.
        1    1    3    3  502    0 -0.13674837343E+04 -0.53173837902E+03  0.70960062337E+03  0.16298130298E+04  0.50400001928E-02 0. -1.
       -1    1    3    3    0  502  0.13674837343E+04  0.53173837902E+03 -0.86990876161E+03  0.17057252771E+04  0.50400001928E-02 0.  1.
</event>
<event>
 5   0  0.1116462E-06  0.3314192E+04  0.7818609E-02  0.8159294E-01
       -2   -1    0    0    0  501  0.00000000000E+00  0.00000000000E+00  0.21687783254E+04  0.21687783254E+04  0.25500000920E-02 0.  1.
        2   -1    0    0  501    0  0.00000000000E+00  0.00000000000E+00 -0.12661353517E+04  0.12661353517E+04  0.25500000920E-02 0. -1.
    10030    2    1    2    0    0  0.00000000000E+00  0.00000000000E+00  0.90264297377E+03  0.34349136771E+04  0.33141918519E+04 0.  0.
        1    1    3    3  502    0 -0.58262361714E+03 -0.21522436080E+03 -0.11409317282E+04  0.12990369561E+04  0.50400001928E-02 0. -1.
       -1    1    3    3    0  502  0.58262361714E+03  0.21522436080E+03  0.20435747020E+04  0.21358767210E+04  0.50400001928E-02 0.  1.
</event>
<event>
 5   0  0.3709747E-07  0.3333181E+04  0.7818609E-02  0.8154503E-01
       -1   -1    0    0    0  501  0.00000000000E+00  0.00000000000E+00  0.10122857031E+04  0.10122857031E+04  0.50400001928E-02 0.  1.
        1   -1    0    0  501    0  0.00000000000E+00  0.00000000000E+00 -0.27438142245E+04  0.27438142245E+04  0.50400001928E-02 0. -1.
    10030    2    1    2    0    0  0.00000000000E+00  0.00000000000E+00 -0.17315285215E+04  0.37560999276E+04  0.33331810100E+04 0.  0.
        4    1    3    3  502    0  0.73504571757E+03  0.60166227536E+03  0.67737745196E+03  0.11666754158E+04  0.12699999809E+01 0.  1.
       -4    1    3    3    0  502 -0.73504571757E+03 -0.60166227536E+03 -0.24089059734E+04  0.25894245118E+04  0.12699999809E+01 0. -1.
</event>
<event>
 5   0  0.3796529E-07  0.3302606E+04  0.7818609E-02  0.8162233E-01
       -1   -1    0    0    0  501  0.00000000000E+00  0.00000000000E+00  0.17177791344E+04  0.17177791344E+04  0.50400001928E-02 0. -1.
        1   -1    0    0  501    0  0.00000000000E+00  0.00000000000E+00 -0.15873996991E+04  0.15873996991E+04  0.50400001928E-02 0.  1.
    10030    2    1    2    0    0  0.00000000000E+00  0.00000000000E+00  0.13037943529E+03  0.33051788336E+04  0.33026062927E+04 0.  0.
        5    1    3    3  502    0  0.69434349289E+03  0.99510085042E+03 -0.10557011956E+04  0.16083736174E+04  0.46999998093E+01 0.  1.
       -5    1    3    3    0  502 -0.69434349289E+03 -0.99510085042E+03  0.11860806309E+04  0.16968052162E+04  0.46999998093E+01 0. -1.
</event>
<event>
 5   0  0.3674967E-07  0.3326559E+04  0.7818609E-02  0.8156170E-01
        1   -1    0    0  501    0  0.00000000000E+00  0.00000000000E+00  0.16715769024E+04  0.16715769024E+04  0.50400001928E-02 0. -1.
       -1   -1    0    0    0  501  0.00000000000E+00  0.00000000000E+00 -0.16550230308E+04  0.16550230308E+04  0.50400001928E-02 0.  1.
    10030    2    1    2    0    0  0.00000000000E+00  0.00000000000E+00  0.16553871589E+02  0.33265999332E+04  0.33265587452E+04 0.  0.
        2    1    3    3  502    0  0.30172513441E+03 -0.11067835296E+04 -0.11961010581E+04  0.16573067245E+04  0.25500000920E-02 0.  1.
       -2    1    3    3    0  502 -0.30172513441E+03  0.11067835296E+04  0.12126549297E+04  0.16692932087E+04  0.25500000920E-02 0. -1.
</event>
<event>
 5   0  0.3709747E-07  0.3289141E+04  0.7818609E-02  0.8165664E-01
        1   -1    0    0  501    0  0.00000000000E+00  0.00000000000E+00  0.14028648947E+04  0.14028648947E+04  0.50400001928E-02 0. -1.
       -1   -1    0    0    0  501  0.00000000000E+00  0.00000000000E+00 -0.19279202169E+04  0.19279202170E+04  0.50400001928E-02 0.  1.
    10030    2    1    2    0    0  0.00000000000E+00  0.00000000000E+00 -0.52505532225E+03  0.33307851117E+04  0.32891406733E+04 0.  0.
        4    1    3    3  502    0 -0.64859154469E+03  0.37519974901E+03  0.12199627160E+04  0.14316970646E+04  0.12699999809E+01 0. -1.
       -4    1    3    3    0  502  0.64859154469E+03 -0.37519974901E+03 -0.17450180383E+04  0.18990880470E+04  0.12699999809E+01 0.  1.
</event>
<event>
 5   0  0.3796529E-07  0.3262605E+04  0.7818609E-02  0.8172476E-01
        1   -1    0    0  501    0  0.00000000000E+00  0.00000000000E+00  0.15286045235E+04  0.15286045235E+04  0.50400001928E-02 0. -1.
       -1   -1    0    0    0  501  0.00000000000E+00  0.00000000000E+00 -0.17408998101E+04  0.17408998101E+04  0.50400001928E-02 0.  1.
    10030    2    1    2    0    0  0.00000000000E+00  0.00000000000E+00 -0.21229528659E+03  0.32695043335E+04  0.32626046800E+04 0.  0.
        5    1    3    3  502    0  0.16283960103E+04  0.96870036345E+02 -0.97892240965E+02  0.16342161274E+04  0.46999998093E+01 0.  1.
       -5    1    3    3    0  502 -0.16283960103E+04 -0.96870036345E+02 -0.11440304562E+03  0.16352882061E+04  0.46999998093E+01 0. -1.
</event>
<event>
 5   0  0.1126221E-06  0.3299325E+04  0.7818609E-02  0.8163067E-01
       -2   -1    0    0    0  501  0.00000000000E+00  0.00000000000E+00  0.22458142233E+04  0.22458142233E+04  0.25500000920E-02 0.  1.
        2   -1    0    0  501    0  0.00000000000E+00  0.00000000000E+00 -0.12117591109E+04  0.12117591109E+04  0.25500000920E-02 0. -1.
    10030    2    1    2    0    0  0.00000000000E+00  0.00000000000E+00  0.10340551124E+04  0.34575733341E+04  0.32993246863E+04 0.  0.
        2    1    3    3  502    0 -0.47634481607E+02  0.74706075581E+03 -0.10235211666E+04  0.12680553597E+04  0.25500000920E-02 0. -1.
       -2    1    3    3    0  502  0.47634481607E+02 -0.74706075581E+03  0.20575762790E+04  0.21895179745E+04  0.25500000920E-02 0.  1.
</event>
<event>
 5   0  0.3757406E-07  0.3312818E+04  0.7818609E-02  0.8159642E-01
       -1   -1    0    0    0  501  0.00000000000E+00  0.00000000000E+00  0.13594438423E+04  0.13594438423E+04  0.50400001928E-02 0.  1.
        1   -1    0    0  501    0  0.00000000000E+00  0.00000000000E+00 -0.20182446708E+04  0.20182446708E+04  0.50400001928E-02 0. -1.
    10030    2    1    2    0    0  0.00000000000E+00  0.00000000000E+00 -0.65880082854E+03  0.33776885131E+04  0.33128177070E+04 0.  0.
        1    1    3    3  502    0 -0.56886260584E+02 -0.11541059899E+04 -0.15394397770E+04  0.19248562309E+04  0.50400001928E-02 0. -1.
       -1    1    3    3    0  502  0.56886260584E+02  0.11541059899E+04  0.88063894850E+03  0.14528322822E+04  0.50400001928E-02 0.  1.
</event>
<event>
 5   0  0.3757406E-07  0.3301002E+04  0.7818609E-02  0.8162640E-01
        1   -1    0    0  501    0  0.00000000000E+00  0.00000000000E+00  0.14194045947E+04  0.14194045948E+04  0.50400001928E-02 0.  1.
       -1   -1    0    0    0  501  0.00000000000E+00  0.00000000000E+00 -0.19192228190E+04  0.19192228190E+04  0.50400001928E-02 0. -1.
    10030    2    1    2    0    0  0.00000000000E+00  0.00000000000E+00 -0.49981822429E+03  0.33386274138E+04  0.33010020828E+04 0.  0.
        1    1    3    3  502    0 -0.12799396973E+04  0.99474584083E+03 -0.56391325534E+03  0.17163225443E+04  0.50400001928E-02 0. -1.
       -1    1    3    3    0  502  0.12799396973E+04 -0.99474584083E+03  0.64095031058E+02  0.16223048695E+04  0.50400001928E-02 0.  1.
</event>
<event>
 5   0  0.3757406E-07  0.3316528E+04  0.7818609E-02  0.8158703E-01
       -1   -1    0    0    0  501  0.00000000000E+00  0.00000000000E+00  0.21586997935E+04  0.21586997935E+04  0.50400001928E-02 0.  1.
        1   -1    0    0  501    0  0.00000000000E+00  0.00000000000E+00 -0.12738405521E+04  0.12738405521E+04  0.50400001928E-02 0. -1.
    10030    2    1    2    0    0  0.00000000000E+00  0.00000000000E+00  0.88485924137E+03  0.34325403456E+04  0.33165279054E+04 0.  0.
        1    1    3    3  502    0 -0.10550967014E+04  0.12780670352E+04  0.38429596851E+03  0.17012841583E+04  0.50400001928E-02 0. -1.
       -1    1    3    3    0  502  0.10550967014E+04 -0.12780670352E+04  0.50056327285E+03  0.17312561873E+04  0.50400001928E-02 0.  1.
</event>
<event>
 5   0  0.1120545E-06  0.3341094E+04  0.7818609E-02  0.8152517E-01
        2   -1    0    0  501    0  0.00000000000E+00  0.00000000000E+00  0.14955610650E+04  0.14955610650E+04  0.25500000920E-02 0. -1.
       -2   -1    0    0    0  501  0.00000000000E+00  0.00000000000E+00 -0.18660070473E+04  0.18660070473E+04  0.25500000920E-02 0.  1.
    10030    2    1    2    0    0  0.00000000000E+00  0.00000000000E+00 -0.37044598238E+03  0.33615681123E+04  0.33410941243E+04 0.  0.
        4    1    3    3  502    0 -0.66874960952E+02  0.15693271885E+04 -0.75744872174E+03  0.17438435319E+04  0.12699999809E+01 0. -1.
       -4    1    3    3    0  502  0.66874960952E+02 -0.15693271885E+04  0.38700273936E+03  0.16177245804E+04  0.12699999809E+01 0.  1.
</event>
<event>
 5   0  0.3749685E-07  0.3293033E+04  0.7818609E-02  0.8164670E-01
       -1   -1    0    0    0  501  0.00000000000E+00  0.00000000000E+00  0.92065608328E+03  0.92065608330E+03  0.50400001928E-02 0. -1.
        1   -1    0    0  501    0  0.00000000000E+00  0.00000000000E+00 -0.29446572775E+04  0.29446572776E+04  0.50400001928E-02 0.  1.
    10030    2    1    2    0    0  0.00000000000E+00  0.00000000000E+00 -0.20240011943E+04  0.38653133609E+04  0.32930330310E+04 0.  0.
        3    1    3    3  502    0 -0.75002796771E+03 -0.11466253229E+04 -0.20837667662E+04  0.24938675846E+04  0.10100000352E+00 0.  1.
       -3    1    3    3    0  502  0.75002796771E+03  0.11466253229E+04  0.59765571960E+02  0.13714457762E+04  0.10100000352E+00 0. -1.
</event>
<event>
 5   0  0.1120545E-06  0.3201107E+04  0.7818609E-02  0.8188525E-01
        2   -1    0    0  501    0  0.00000000000E+00  0.00000000000E+00  0.23842845860E+04  0.23842845860E+04  0.25500000920E-02 0. -1.
       -2   -1    0    0    0  501  0.00000000000E+00  0.00000000000E+00 -0.10744402944E+04  0.10744402944E+04  0.25500000920E-02 0.  1.
    10030    2    1    2    0    0  0.00000000000E+00  0.00000000000E+00  0.13098442916E+04  0.34587248804E+04  0.32011069539E+04 0.  0.
        4    1    3    3  502    0  0.14385974149E+04  0.35538016112E+03  0.13085104935E+04  0.19768811056E+04  0.12699999809E+01 0. -1.
       -4    1    3    3    0  502 -0.14385974149E+04 -0.35538016112E+03  0.13337981112E+01  0.14818437749E+04  0.12699999809E+01 0.  1.
</event>
<event>
 5   0  0.1129434E-06  0.3297881E+04  0.7818609E-02  0.8163435E-01
       -2   -1    0    0    0  501  0.00000000000E+00  0.00000000000E+00  0.17275704394E+04  0.17275704394E+04  0.25500000920E-02 0. -1.
        2   -1    0    0  501    0  0.00000000000E+00  0.00000000000E+00 -0.15738896123E+04  0.15738896124E+04  0.25500000920E-02 0.  1.
    10030    2    1    2    0    0  0.00000000000E+00  0.00000000000E+00  0.15368082707E+03  0.33014600518E+04  0.32978812406E+04 0.  0.
        3    1    3    3  502    0 -0.14384013789E+04  0.37100793604E+03  0.79341026848E+03  0.16840858885E+04  0.10100000352E+00 0. -1.
       -3    1    3    3    0  502  0.14384013789E+04 -0.37100793604E+03 -0.63972944141E+03  0.16173741633E+04  0.10100000352E+00 0.  1.
</event>
<event>
 5   0  0.1116462E-06  0.3262863E+04  0.7818609E-02  0.8172410E-01
       -2   -1    0    0    0  501  0.00000000000E+00  0.00000000000E+00  0.19095692956E+04  0.19095692956E+04  0.25500000920E-02 0.  1.
        2   -1    0    0  501    0  0.00000000000E+00  0.00000000000E+00 -0.13938055261E+04  0.13938055261E+04  0.25500000920E-02 0. -1.
    10030    2    1    2    0    0  0.00000000000E+00  0.00000000000E+00  0.51576376947E+03  0.33033748217E+04  0.32628626920E+04 0.  0.
        1    1    3    3  502    0 -0.55044616834E+02  0.96115788000E+03  0.15913203530E+04  0.18598803311E+04  0.50400001928E-02 0.  1.
       -1    1    3    3    0  502  0.55044616834E+02 -0.96115788000E+03 -0.10755565835E+04  0.14434944906E+04  0.50400001928E-02 0. -1.
</event>
<event>
 5   0  0.1120545E-06  0.3280939E+04  0.7818609E-02  0.8167762E-01
        2   -1    0    0  501    0  0.00000000000E+00  0.00000000000E+00  0.14958287888E+04  0.14958287888E+04  0.25500000920E-02 0. -1.
       -2   -1    0    0    0  501  0.00000000000E+00  0.00000000000E+00 -0.17990962237E+04  0.17990962237E+04  0.25500000920E-02 0.  1.
    10030    2    1    2    0    0  0.00000000000E+00  0.00000000000E+00 -0.30326743493E+03  0.32949250125E+04  0.32809388445E+04 0.  0.
        4    1    3    3  502    0  0.12671073152E+04  0.10409251943E+04 -0.19712697914E+03  0.16516497411E+04  0.12699999809E+01 0. -1.
       -4    1    3    3    0  502 -0.12671073152E+04 -0.10409251943E+04 -0.10614045579E+03  0.16432752714E+04  0.12699999809E+01 0.  1.
</event>
<event>
 5   0  0.3749685E-07  0.3299673E+04  0.7818609E-02  0.8162979E-01
        1   -1    0    0  501    0  0.00000000000E+00  0.00000000000E+00  0.19602934356E+04  0.19602934356E+04  0.50400001928E-02 0. -1.
       -1   -1    0    0    0  501  0.00000000000E+00  0.00000000000E+00 -0.13885471706E+04  0.13885471706E+04  0.50400001928E-02 0.  1.
    10030    2    1    2    0    0  0.00000000000E+00  0.00000000000E+00  0.57174626505E+03  0.33488406062E+04  0.32996726526E+04 0.  0.
        3    1    3    3  502    0  0.64228913605E+03 -0.79398530970E+03 -0.10292018170E+04  0.14498980642E+04  0.10100000352E+00 0.  1.
       -3    1    3    3    0  502 -0.64228913605E+03  0.79398530970E+03  0.16009480820E+04  0.18989425420E+04  0.10100000352E+00 0. -1.
</event>
<event>
 5   0  0.1129434E-06  0.3311431E+04  0.7818609E-02  0.8159993E-01
        2   -1    0    0  501    0  0.00000000000E+00  0.00000000000E+00  0.23858970821E+04  0.23858970821E+04  0.25500000920E-02 0. -1.
       -2   -1    0    0    0  501  0.00000000000E+00  0.00000000000E+00 -0.11489994742E+04  0.11489994742E+04  0.25500000920E-02 0.  1.
    10030    2    1    2    0    0  0.00000000000E+00  0.00000000000E+00  0.12368976079E+04  0.35348965563E+04  0.33114314082E+04 0.  0.
        3    1    3    3  502    0  0.16412128595E+03 -0.33642969136E+03  0.23401349101E+04  0.23698844152E+04  0.10100000352E+00 0. -1.
       -3    1    3    3    0  502 -0.16412128595E+03  0.33642969136E+03 -0.11032373022E+04  0.11650121411E+04  0.10100000352E+00 0.  1.
</event>
<event>
 5   0  0.3749685E-07  0.3342980E+04  0.7818609E-02  0.8152044E-01
        1   -1    0    0  501    0  0.00000000000E+00  0.00000000000E+00  0.24904320196E+04  0.24904320196E+04  0.50400001928E-02 0.  1.
       -1   -1    0    0    0  501  0.00000000000E+00  0.00000000000E+00 -0.11218448660E+04  0.11218448660E+04  0.50400001928E-02 0. -1.
    10030    2    1    2    0    0  0.00000000000E+00  0.00000000000E+00  0.13685871536E+04  0.36122768856E+04  0.33429797339E+04 0.  0.
        3    1    3    3  502    0  0.12643369207E+04  0.12804671111E+03 -0.48896067599E+03  0.13616263666E+04  0.10100000352E+00 0. -1.
       -3    1    3    3    0  502 -0.12643369207E+04 -0.12804671111E+03  0.18575478296E+04  0.22506505190E+04  0.10100000352E+00 0.  1.
</event>
<event>
 5   0  0.1120545E-06  0.3324862E+04  0.7818609E-02  0.8156598E-01
        2   -1    0    0  501    0  0.00000000000E+00  0.00000000000E+00  0.18201853723E+04  0.18201853723E+04  0.25500000920E-02 0.  1.
       -2   -1    0    0    0  501  0.00000000000E+00  0.00000000000E+00 -0.15183488546E+04  0.15183488546E+04  0.25500000920E-02 0. -1.
    10030    2    1    2    0    0  0.00000000000E+00  0.00000000000E+00  0.30183651767E+03  0.33385342269E+04  0.33248617266E+04 0.  0.
        4    1    3    3  502    0  0.11194317427E+04  0.16530452497E+03  0.13738023269E+04  0.17798279295E+04  0.12699999809E+01 0.  1.
       -4    1    3    3    0  502 -0.11194317427E+04 -0.16530452497E+03 -0.10719658092E+04  0.15587062974E+04  0.12699999809E+01 0. -1.
</event>
<event>
 5   0  0.1126221E-06  0.3313190E+04  0.7818609E-02  0.8159547E-01
        2   -1    0    0  501    0  0.00000000000E+00  0.00000000000E+00  0.15849644121E+04  0.15849644121E+04  0.25500000920E-02 0.  1.
       -2   -1    0    0    0  501  0.00000000000E+00  0.00000000000E+00 -0.17314633673E+04  0.17314633673E+04  0.25500000920E-02 0. -1.
    10030    2    1    2    0    0  0.00000000000E+00  0.00000000000E+00 -0.14649895518E+03  0.33164277794E+04  0.33131904974E+04 0.  0.
        2    1    3    3  502    0 -0.14021885393E+04  0.76824180312E+03 -0.50723931102E+03  0.16773848355E+04  0.25500000920E-02 0. -1.
       -2    1    3    3    0  502  0.14021885393E+04 -0.76824180312E+03  0.36074035584E+03  0.16390429439E+04  0.25500000920E-02 0.  1.
</event>
<event>
 5   0  0.1116462E-06  0.3303762E+04  0.7818609E-02  0.8161939E-01
       -2   -1    0    0    0  501  0.00000000000E+00  0.00000000000E+00  0.16791478619E+04  0.16791478619E+04  0.25500000920E-02 0.  1.
        2   -1    0    0  501    0  0.00000000000E+00  0.00000000000E+00 -0.16250572988E+04  0.16250572988E+04  0.25500000920E-02 0. -1.
    10030    2    1    2    0    0  0.00000000000E+00  0.00000000000E+00  0.54090563142E+02  0.33042051607E+04  0.33037623938E+04 0.  0.
        1    1    3    3  502    0 -0.10250294729E+03 -0.16468282655E+04  0.10554973956E+03  0.16533877155E+04  0.50400001928E-02 0.  1.
       -1    1    3    3    0  502  0.10250294729E+03  0.16468282655E+04 -0.51459176415E+02  0.16508174451E+04  0.50400001928E-02 0. -1.
</event>
<event>
 5   0  0.1129434E-06  0.3278723E+04  0.7818609E-02  0.8168330E-01
       -2   -1    0    0    0  501  0.00000000000E+00  0.00000000000E+00  0.92607402725E+03  0.92607402725E+03  0.25500000920E-02 0.  1.
        2   -1    0    0  501    0  0.00000000000E+00  0.00000000000E+00 -0.29020428784E+04  0.29020428784E+04  0.25500000920E-02 0. -1.
    10030    2    1    2    0    0  0.00000000000E+00  0.00000000000E+00 -0.19759688511E+04  0.38281169056E+04  0.32787232489E+04 0.  0.
        3    1    3    3  502    0 -0.20470044617E+03 -0.40523923924E+02  0.91050438444E+03  0.93411064942E+03  0.10100000352E+00 0.  1.
       -3    1    3    3    0  502  0.20470044617E+03  0.40523923924E+02 -0.28864732356E+04  0.28940062562E+04  0.10100000352E+00 0. -1.
</event>
<event>
 5   0  0.1126221E-06  0.3308519E+04  0.7818609E-02  0.8160731E-01
       -2   -1    0    0    0  501  0.00000000000E+00  0.00000000000E+00  0.12554115919E+04  0.12554115919E+04  0.25500000920E-02 0. -1.
        2   -1    0    0  501    0  0.00000000000E+00  0.00000000000E+00 -0.21798230082E+04  0.21798230082E+04  0.25500000920E-02 0.  1.
    10030    2    1    2    0    0  0.00000000000E+00  0.00000000000E+00 -0.92441141637E+03  0.34352346001E+04  0.33085193503E+04 0.  0.
        2    1    3    3  502    0  0.67667259454E+03  0.96457635626E+03 -0.16678329331E+04  0.20420480014E+04  0.25500000920E-02 0.  1.
       -2    1    3    3    0  502 -0.67667259454E+03 -0.96457635626E+03  0.74342151676E+03  0.13931865987E+04  0.25500000920E-02 0. -1.
</event>
<event>
 5   0  0.3709747E-07  0.3272929E+04  0.7818609E-02  0.8169818E-01
       -1   -1    0    0    0  501  0.00000000000E+00  0.00000000000E+00  0.10807878063E+04  0.10807878063E+04  0.50400001928E-02 0. -1.
        1   -1    0    0  501    0  0.00000000000E+00  0.00000000000E+00 -0.24778377019E+04  0.24778377019E+04  0.50400001928E-02 0.  1.
    10030    2    1    2    0    0  0.00000000000E+00  0.00000000000E+00 -0.13970498956E+04  0.35586255082E+04  0.32729294366E+04 0.  0.
        4    1    3    3  502    0  0.92898664867E+03 -0.21680303724E+03  0.74720178637E+03  0.12117474460E+04  0.12699999809E+01 0. -1.
       -4    1    3    3    0  502 -0.92898664867E+03  0.21680303724E+03 -0.21442516820E+04  0.23468780622E+04  0.12699999809E+01 0.  1.
</event>
<event>
 5   0  0.3674967E-07  0.3259834E+04  0.7818609E-02  0.8173191E-01
        1   -1    0    0  501    0  0.00000000000E+00  0.00000000000E+00  0.20661244097E+04  0.20661244097E+04  0.50400001928E-02 0. -1.
       -1   -1    0    0    0  501  0.00000000000E+00  0.00000000000E+00 -0.12858034338E+04  0.12858034338E+04  0.50400001928E-02 0.  1.
    10030    2    1    2    0    0  0.00000000000E+00  0.00000000000E+00  0.78032097585E+03  0.33519278435E+04  0.32598342661E+04 0.  0.
        2    1    3    3  502    0 -0.96405154055E+03 -0.12781118711E+04  0.70485322937E+03  0.17492236572E+04  0.25500000920E-02 0.  1.
       -2    1    3    3    0  502  0.96405154055E+03  0.12781118711E+04  0.75467746474E+02  0.16027041863E+04  0.25500000920E-02 0. -1.
</event>
<event>
 5   0  0.3709747E-07  0.3301831E+04  0.7818609E-02  0.8162430E-01
       -1   -1    0    0    0  501  0.00000000000E+00  0.00000000000E+00  0.12653058874E+04  0.12653058874E+04  0.50400001928E-02 0. -1.
        1   -1    0    0  501    0  0.00000000000E+00  0.00000000000E+00 -0.21540419588E+04  0.21540419588E+04  0.50400001928E-02 0.  1.
    10030    2    1    2    0    0  0.00000000000E+00  0.00000000000E+00 -0.88873607138E+03  0.34193478462E+04  0.33018309903E+04 0.  0.
        4    1    3    3  502    0 -0.11455286896E+04 -0.86834928581E+03  0.39647474008E+03  0.14911271888E+04  0.12699999809E+01 0. -1.
       -4    1    3    3    0  502  0.11455286896E+04  0.86834928581E+03 -0.12852108115E+04  0.19282206574E+04  0.12699999809E+01 0.  1.
</event>
<event>
 5   0  0.3796529E-07  0.3309402E+04  0.7818609E-02  0.8160507E-01
       -1   -1    0    0    0  501  0.00000000000E+00  0.00000000000E+00  0.21582296380E+04  0.21582296380E+04  0.50400001928E-02 0. -1.
        1   -1    0    0  501    0  0.00000000000E+00  0.00000000000E+00 -0.12686489668E+04  0.12686489668E+04  0.50400001928E-02 0.  1.
    10030    2    1    2    0    0  0.00000000000E+00  0.00000000000E+00  0.88958067127E+03  0.34268786048E+04  0.33094022423E+04 0.  0.
        5    1    3    3  502    0  0.10803858121E+04 -0.12467424186E+04  0.31212715276E+03  0.16790013731E+04  0.46999998093E+01 0.  1.
       -5    1    3    3    0  502 -0.10803858121E+04  0.12467424186E+04  0.57745351850E+03  0.17478772318E+04  0.46999998093E+01 0. -1.
</event>
<event>
 5   0  0.3796529E-07  0.3291579E+04  0.7818609E-02  0.8165041E-01
       -1   -1    0    0    0  501  0.00000000000E+00  0.00000000000E+00  0.20477466371E+04  0.20477466371E+04  0.50400001928E-02 0.  1.
        1   -1    0    0  501    0  0.00000000000E+00  0.00000000000E+00 -0.13227332635E+04  0.13227332636E+04  0.50400001928E-02 0. -1.
    10030    2    1    2    0    0  0.00000000000E+00  0.00000000000E+00  0.72501337351E+03  0.33704799006E+04  0.32915787046E+04 0.  0.
        5    1    3    3  502    0 -0.17276934271E+03  0.12845487557E+04  0.14010601534E+04  0.19086399333E+04  0.46999998093E+01 0.  1.
       -5    1    3    3    0  502  0.17276934271E+03 -0.12845487557E+04 -0.67604677989E+03  0.14618399673E+04  0.46999998093E+01 0. -1.
</event>
<event>
 5   0  0.1129434E-06  0.3334786E+04  0.7818609E-02  0.8154100E-01
       -2   -1    0    0    0  501  0.00000000000E+00  0.00000000000E+00  0.19036376058E+04  0.19036376058E+04  0.25500000920E-02 0.  1.
        2   -1    0    0  501    0  0.00000000000E+00  0.00000000000E+00 -0.14604664642E+04  0.14604664642E+04  0.25500000920E-02 0. -1.
    10030    2    1    2    0    0  0.00000000000E+00  0.00000000000E+00  0.44317114164E+03  0.33641040700E+04  0.33347856802E+04 0.  0.
        3    1    3    3  502    0 -0.40053435666E+03  0.12314987922E+04 -0.83797318327E+03  0.15424707816E+04  0.10100000352E+00 0. -1.
       -3    1    3    3    0  502  0.40053435666E+03 -0.12314987922E+04  0.12811443249E+04  0.18216332884E+04  0.10100000352E+00 0.  1.
</event>
<event>
 5   0  0.1129434E-06  0.3304287E+04  0.7818609E-02  0.8161805E-01
       -2   -1    0    0    0  501  0.00000000000E+00  0.00000000000E+00  0.17539857530E+04  0.17539857530E+04  0.25500000920E-02 0.  1.
        2   -1    0    0  501    0  0.00000000000E+00  0.00000000000E+00 -0.15562145907E+04  0.15562145907E+04  0.25500000920E-02 0. -1.
    10030    2    1    2    0    0  0.00000000000E+00  0.00000000000E+00  0.19777116232E+03  0.33102003437E+04  0.33042870461E+04 0.  0.
        3    1    3    3  502    0 -0.42752655875E+03 -0.11414055952E+04 -0.10184545462E+04  0.15883435914E+04  0.10100000352E+00 0. -1.
       -3    1    3    3    0  502  0.42752655875E+03  0.11414055952E+04  0.12162257086E+04  0.17218567523E+04  0.10100000352E+00 0.  1.
</event>
<event>
 5   0  0.3573375E-07  0.3230614E+04  0.7818609E-02  0.8180778E-01
       -3   -1    0    0    0  501  0.00000000000E+00  0.00000000000E+00  0.13988348141E+04  0.13988348178E+04  0.10100000352E+00 0.  1.
        3   -1    0    0  501    0  0.00000000000E+00  0.00000000000E+00 -0.18652790390E+04  0.18652790417E+04  0.10100000352E+00 0. -1.
    10030    2    1    2    0    0  0.00000000000E+00  0.00000000000E+00 -0.46644422484E+03  0.32641138594E+04  0.32306143491E+04 0.  0.
        4    1    3    3  502    0 -0.45731464157E+02 -0.58402794656E+03  0.12877230309E+04  0.14147127717E+04  0.12699999809E+01 0.  1.
       -4    1    3    3    0  502  0.45731464157E+02  0.58402794656E+03 -0.17541672558E+04  0.18494010877E+04  0.12699999809E+01 0. -1.
</event>
<event>
 5   0  0.1116462E-06  0.3303983E+04  0.7818609E-02  0.8161883E-01
       -2   -1    0    0    0  501  0.00000000000E+00  0.00000000000E+00  0.13074711114E+04  0.13074711114E+04  0.25500000920E-02 0. -1.
        2   -1    0    0  501    0  0.00000000000E+00  0.00000000000E+00 -0.20872933180E+04  0.20872933180E+04  0.25500000920E-02 0.  1.
    10030    2    1    2    0    0  0.00000000000E+00  0.00000000000E+00 -0.77982220663E+03  0.33947644295E+04  0.33039828779E+04 0.  0.
        1    1    3    3  502    0  0.14444567056E+04 -0.68464762454E+03  0.38533212653E+02  0.15989628991E+04  0.50400001928E-02 0. -1.
       -1    1    3    3    0  502 -0.14444567056E+04  0.68464762454E+03 -0.81835541928E+03  0.17958015304E+04  0.50400001928E-02 0.  1.
</event>
<event>
 5   0  0.3674967E-07  0.3300725E+04  0.7818609E-02  0.8162711E-01
        1   -1    0    0  501    0  0.00000000000E+00  0.00000000000E+00  0.19996743120E+04  0.19996743120E+04  0.50400001928E-02 0.  1.
       -1   -1    0    0    0  501  0.00000000000E+00  0.00000000000E+00 -0.13620702786E+04  0.13620702786E+04  0.50400001928E-02 0. -1.
    10030    2    1    2    0    0  0.00000000000E+00  0.00000000000E+00  0.63760403342E+03  0.33617445906E+04  0.33007253428E+04 0.  0.
        2    1    3    3  502    0  0.18920084460E+03 -0.10027630203E+04  0.16398409244E+04  0.19314266468E+04  0.25500000920E-02 0.  1.
       -2    1    3    3    0  502 -0.18920084460E+03  0.10027630203E+04 -0.10022368910E+04  0.14303179438E+04  0.25500000920E-02 0. -1.
</event>
<event>
 5   0  0.1129434E-06  0.3360974E+04  0.7818609E-02  0.8147552E-01
        2   -1    0    0  501    0  0.00000000000E+00  0.00000000000E+00  0.12596099580E+04  0.12596099580E+04  0.25500000920E-02 0. -1.
       -2   -1    0    0    0  501  0.00000000000E+00  0.00000000000E+00 -0.22419924748E+04  0.22419924748E+04  0.25500000920E-02 0.  1.
    10030    2    1    2    0    0  0.00000000000E+00  0.00000000000E+00 -0.98238251675E+03  0.35016024328E+04  0.33609736964E+04 0.  0.
        3    1    3    3  502    0 -0.14657916381E+04  0.65082136602E+03  0.31728637273E+02  0.16040948518E+04  0.10100000352E+00 0.  1.
       -3    1    3    3    0  502  0.14657916381E+04 -0.65082136602E+03 -0.10141111540E+04  0.18975075810E+04  0.10100000352E+00 0. -1.
</event>
<event>
 5   0  0.1120545E-06  0.3354535E+04  0.7818609E-02  0.8149156E-01
       -2   -1    0    0    0  501  0.00000000000E+00  0.00000000000E+00  0.30400766880E+04  0.30400766880E+04  0.25500000920E-02 0.  1.
        2   -1    0    0  501    0  0.00000000000E+00  0.00000000000E+00 -0.92538004451E+03  0.92538004451E+03  0.25500000920E-02 0. -1.
    10030    2    1    2    0    0  0.00000000000E+00  0.00000000000E+00  0.21146966435E+04  0.39654567325E+04  0.33545350205E+04 0.  0.
        4    1    3    3  502    0 -0.48422799282E+03 -0.11206389260E+04  0.24169981596E+04  0.27078017039E+04  0.12699999809E+01 0.  1.
       -4    1    3    3    0  502  0.48422799282E+03  0.11206389260E+04 -0.30230151611E+03  0.12576550286E+04  0.12699999809E+01 0. -1.
</event>
<event>
 5   0  0.1146799E-06  0.3305449E+04  0.7818609E-02  0.8161510E-01
        2   -1    0    0  501    0  0.00000000000E+00  0.00000000000E+00  0.26471710136E+04  0.26471710136E+04  0.25500000920E-02 0.  1.
       -2   -1    0    0    0  501  0.00000000000E+00  0.00000000000E+00 -0.10318558683E+04  0.10318558683E+04  0.25500000920E-02 0. -1.
    10030    2    1    2    0    0  0.00000000000E+00  0.00000000000E+00  0.16153151453E+04  0.36790268820E+04  0.33054494066E+04 0.  0.
        5    1    3    3  502    0  0.39585536225E+02  0.15739763712E+04  0.13669516363E+04  0.20850773362E+04  0.46999998093E+01 0.  1.
       -5    1    3    3    0  502 -0.39585536225E+02 -0.15739763712E+04  0.24836350899E+03  0.15939495458E+04  0.46999998093E+01 0. -1.
</event>
<event>
 5   0  0.3757406E-07  0.3301363E+04  0.7818609E-02  0.8162549E-01
       -1   -1    0    0    0  501  0.00000000000E+00  0.00000000000E+00  0.13696104891E+04  0.13696104891E+04  0.50400001928E-02 0.  1.
        1   -1    0    0  501    0  0.00000000000E+00  0.00000000000E+00 -0.19894338527E+04  0.19894338528E+04  0.50400001928E-02 0. -1.
    10030    2    1    2    0    0  0.00000000000E+00  0.00000000000E+00 -0.61982336365E+03  0.33590443419E+04  0.33013630349E+04 0.  0.
        1    1    3    3  502    0  0.45460595806E+03 -0.89977961299E+03  0.10200139128E+04  0.14341193505E+04  0.50400001928E-02 0.  1.
       -1    1    3    3    0  502 -0.45460595806E+03  0.89977961299E+03 -0.16398372765E+04  0.19249249914E+04  0.50400001928E-02 0. -1.
</event>
<event>
 5   0  0.3749685E-07  0.3308030E+04  0.7818609E-02  0.8160855E-01
       -1   -1    0    0    0  501  0.00000000000E+00  0.00000000000E+00  0.16625329048E+04  0.16625329048E+04  0.50400001928E-02 0. -1.
        1   -1    0    0  501    0  0.00000000000E+00  0.00000000000E+00 -0.16455407976E+04  0.16455407976E+04  0.50400001928E-02 0.  1.
    10030    2    1    2    0    0  0.00000000000E+00  0.00000000000E+00  0.16992107144E+02  0.33080737024E+04  0.33080300617E+04 0.  0.
        3    1    3    3  502    0 -0.10843459928E+04 -0.12130408602E+04 -0.28898283016E+03  0.16525088341E+04  0.10100000352E+00 0. -1.
       -3    1    3    3    0  502  0.10843459928E+04  0.12130408602E+04  0.30597493730E+03  0.16555648683E+04  0.10100000352E+00 0.  1.
</event>
<event>
 5   0  0.3709747E-07  0.3243815E+04  0.7818609E-02  0.8177341E-01
        1   -1    0    0  501    0  0.00000000000E+00  0.00000000000E+00  0.18607373345E+04  0.18607373345E+04  0.50400001928E-02 0.  1.
       -1   -1    0    0    0  501  0.00000000000E+00  0.00000000000E+00 -0.14137322203E+04  0.14137322203E+04  0.50400001928E-02 0. -1.
    10030    2    1    2    0    0  0.00000000000E+00  0.00000000000E+00  0.44700511427E+03  0.32744695548E+04  0.32438152372E+04 0.  0.
        4    1    3    3  502    0 -0.73997973802E+03  0.96414513297E+03  0.13076335506E+04  0.17852319081E+04  0.12699999809E+01 0.  1.
       -4    1    3    3    0  502  0.73997973802E+03 -0.96414513297E+03 -0.86062843633E+03  0.14892376467E+04  0.12699999809E+01 0. -1.
</event>
<event>
 5   0  0.3796529E-07  0.3297418E+04  0.7818609E-02  0.8163553E-01
       -1   -1    0    0    0  501  0.00000000000E+00  0.00000000000E+00  0.22350227068E+04  0.22350227068E+04  0.50400001928E-02 0. -1.
        1   -1    0    0  501    0  0.00000000000E+00  0.00000000000E+00 -0.12162028152E+04  0.12162028152E+04  0.50400001928E-02 0.  1.
    10030    2    1    2    0    0  0.00000000000E+00  0.00000000000E+00  0.10188198916E+04  0.34512255220E+04  0.32974177218E+04 0.  0.
        5    1    3    3  502    0  0.15458018536E+04  0.57151357930E+03  0.55723229796E+03  0.17397301704E+04  0.46999998093E+01 0. -1.
       -5    1    3    3    0  502 -0.15458018536E+04 -0.57151357930E+03  0.46158759364E+03  0.17114953516E+04  0.46999998093E+01 0.  1.
</event>
<event>
 5   0  0.1129434E-06  0.3274079E+04  0.7818609E-02  0.8169523E-01
       -2   -1    0    0    0  501  0.00000000000E+00  0.00000000000E+00  0.14938670889E+04  0.14938670889E+04  0.25500000920E-02 0. -1.
        2   -1    0    0  501    0  0.00000000000E+00  0.00000000000E+00 -0.17939331781E+04  0.17939331781E+04  0.25500000920E-02 0.  1.
    10030    2    1    2    0    0  0.00000000000E+00  0.00000000000E+00 -0.30006608925E+03  0.32878002670E+04  0.32740786396E+04 0.  0.
        3    1    3    3  502    0 -0.75889215029E+03  0.12335466609E+04 -0.91634530411E+03  0.17138387868E+04  0.10100000352E+00 0.  1.
       -3    1    3    3    0  502  0.75889215029E+03 -0.12335466609E+04  0.61627921486E+03  0.15739614803E+04  0.10100000352E+00 0. -1.
</event>
<event>
 5   0  0.3674967E-07  0.3255865E+04  0.7818609E-02  0.8174217E-01
        1   -1    0    0  501    0  0.00000000000E+00  0.00000000000E+00  0.17117132153E+04  0.17117132153E+04  0.50400001928E-02 0.  1.
       -1   -1    0    0    0  501  0.00000000000E+00  0.00000000000E+00 -0.15482520851E+04  0.15482520851E+04  0.50400001928E-02 0. -1.
    10030    2    1    2    0    0  0.00000000000E+00  0.00000000000E+00  0.16346113014E+03  0.32599653004E+04  0.32558645886E+04 0.  0.
        2    1    3    3  502    0  0.88922723779E+03  0.19661899133E+03 -0.12693315441E+04  0.15622377146E+04  0.25500000920E-02 0. -1.
       -2    1    3    3    0  502 -0.88922723779E+03 -0.19661899133E+03  0.14327926743E+04  0.16977275858E+04  0.25500000920E-02 0.  1.
</event>
<event>
 5   0  0.3709747E-07  0.3032303E+04  0.7818609E-02  0.8234566E-01
        1   -1    0    0  501    0  0.00000000000E+00  0.00000000000E+00  0.21346304039E+04  0.21346304040E+04  0.50400001928E-02 0. -1.
       -1   -1    0    0    0  501  0.00000000000E+00  0.00000000000E+00 -0.10768682563E+04  0.10768682563E+04  0.50400001928E-02 0.  1.
    10030    2    1    2    0    0  0.00000000000E+00  0.00000000000E+00  0.10577621477E+04  0.32114986602E+04  0.30323032308E+04 0.  0.
        4    1    3    3  502    0 -0.89137700249E+03 -0.11257264343E+03  0.18223174716E+04  0.20317647848E+04  0.12699999809E+01 0. -1.
       -4    1    3    3    0  502  0.89137700249E+03  0.11257264343E+03 -0.76455532390E+03  0.11797338754E+04  0.12699999809E+01 0.  1.
</event>
<event>
 5   0  0.3749685E-07  0.3309333E+04  0.7818609E-02  0.8160525E-01
        1   -1    0    0  501    0  0.00000000000E+00  0.00000000000E+00  0.12727947979E+04  0.12727947979E+04  0.50400001928E-02 0. -1.
       -1   -1    0    0    0  501  0.00000000000E+00  0.00000000000E+00 -0.21511101387E+04  0.21511101387E+04  0.50400001928E-02 0.  1.
    10030    2    1    2    0    0  0.00000000000E+00  0.00000000000E+00 -0.87831534083E+03  0.34239049366E+04  0.33093333433E+04 0.  0.
        3    1    3    3  502    0  0.73593991206E+03 -0.12428497402E+04  0.39603107839E+03  0.14977061314E+04  0.10100000352E+00 0. -1.
       -3    1    3    3    0  502 -0.73593991206E+03  0.12428497402E+04 -0.12743464192E+04  0.19261988052E+04  0.10100000352E+00 0.  1.
</event>
<event>
 5   0  0.3709747E-07  0.3345095E+04  0.7818609E-02  0.8151515E-01
       -1   -1    0    0    0  501  0.00000000000E+00  0.00000000000E+00  0.13300277965E+04  0.13300277965E+04  0.50400001928E-02 0. -1.
        1   -1    0    0  501    0  0.00000000000E+00  0.00000000000E+00 -0.21032750686E+04  0.21032750686E+04  0.50400001928E-02 0.  1.
    10030    2    1    2    0    0  0.00000000000E+00  0.00000000000E+00 -0.77324727205E+03  0.34333028651E+04  0.33450945009E+04 0.  0.
        4    1    3    3  502    0 -0.11344614428E+04 -0.11886209140E+04 -0.65991580408E+02  0.16444387930E+04  0.12699999809E+01 0.  1.
       -4    1    3    3    0  502  0.11344614428E+04  0.11886209140E+04 -0.70725569164E+03  0.17888640721E+04  0.12699999809E+01 0. -1.
</event>
<event>
 5   0  0.1126221E-06  0.3302721E+04  0.7818609E-02  0.8162203E-01
       -2   -1    0    0    0  501  0.00000000000E+00  0.00000000000E+00  0.13079814297E+04  0.13079814297E+04  0.25500000920E-02 0. -1.
        2   -1    0    0  501    0  0.00000000000E+00  0.00000000000E+00 -0.20848857613E+04  0.20848857613E+04  0.25500000920E-02 0.  1.
    10030    2    1    2    0    0  0.00000000000E+00  0.00000000000E+00 -0.77690433151E+03  0.33928671910E+04  0.33027212167E+04 0.  0.
        2    1    3    3  502    0  0.57879691785E+03  0.90224068285E+03  0.90199804003E+03  0.14009441767E+04  0.25500000920E-02 0. -1.
       -2    1    3    3    0  502 -0.57879691785E+03 -0.90224068285E+03 -0.16789023715E+04  0.19919230143E+04  0.25500000920E-02 0.  1.
</event>
<event>
 5   0  0.1146799E-06  0.3295606E+04  0.7818609E-02  0.8164014E-01
        2   -1    0    0  501    0  0.00000000000E+00  0.00000000000E+00  0.18480548179E+04  0.18480548179E+04  0.25500000920E-02 0.  1.
       -2   -1    0    0    0  501  0.00000000000E+00  0.00000000000E+00 -0.14692499612E+04  0.14692499613E+04  0.25500000920E-02 0. -1.
    10030    2    1    2    0    0  0.00000000000E+00  0.00000000000E+00  0.37880485669E+03  0.33173047792E+04  0.32956058439E+04 0.  0.
        5    1    3    3  502    0 -0.11927291524E+04 -0.31352316388E+03  0.12894533398E+04  0.17842678080E+04  0.46999998093E+01 0.  1.
       -5    1    3    3    0  502  0.11927291524E+04  0.31352316388E+03 -0.91064848312E+03  0.15330369712E+04  0.46999998093E+01 0. -1.
</event>
<event>
 5   0  0.1129434E-06  0.3263400E+04  0.7818609E-02  0.8172271E-01
        2   -1    0    0  501    0  0.00000000000E+00  0.00000000000E+00  0.27962471859E+04  0.27962471859E+04  0.25500000920E-02 0.  1.
       -2   -1    0    0    0  501  0.00000000000E+00  0.00000000000E+00 -0.95214904948E+03  0.95214904948E+03  0.25500000920E-02 0. -1.
    10030    2    1    2    0    0  0.00000000000E+00  0.00000000000E+00  0.18440981364E+04  0.37483962354E+04  0.32633995160E+04 0.  0.
        3    1    3    3  502    0 -0.84168587111E+03  0.81647128641E+03 -0.38120544710E+03  0.12330361188E+04  0.10100000352E+00 0. -1.
       -3    1    3    3    0  502  0.84168587111E+03 -0.81647128641E+03  0.22253035835E+04  0.25153601166E+04  0.10100000352E+00 0.  1.
</event>
<event>
 5   0  0.1146799E-06  0.3294622E+04  0.7818609E-02  0.8164265E-01
        2   -1    0    0  501    0  0.00000000000E+00  0.00000000000E+00  0.27828834060E+04  0.27828834060E+04  0.25500000920E-02 0.  1.
       -2   -1    0    0    0  501  0.00000000000E+00  0.00000000000E+00 -0.97511596585E+03  0.97511596585E+03  0.25500000920E-02 0. -1.
    10030    2    1    2    0    0  0.00000000000E+00  0.00000000000E+00  0.18077674402E+04  0.37579993719E+04  0.32946223094E+04 0.  0.
        5    1    3    3  502    0 -0.14075119599E+04  0.77150778362E+03  0.13265356093E+04  0.20823143351E+04  0.46999998093E+01 0.  1.
       -5    1    3    3    0  502  0.14075119599E+04 -0.77150778362E+03  0.48123183088E+03  0.16756850368E+04  0.46999998093E+01 0. -1.
</event>
<event>
 5   0  0.3709747E-07  0.3307880E+04  0.7818609E-02  0.8160893E-01
       -1   -1    0    0    0  501  0.00000000000E+00  0.00000000000E+00  0.11289930455E+04  0.11289930455E+04  0.50400001928E-02 0. -1.
        1   -1    0    0  501    0  0.00000000000E+00  0.00000000000E+00 -0.24229708747E+04  0.24229708747E+04  0.50400001928E-02 0.  1.
    10030    2    1    2    0    0  0.00000000000E+00  0.00000000000E+00 -0.12939778292E+04  0.35519639202E+04  0.33078798449E+04 0.  0.
        4    1    3    3  502    0 -0.10788656231E+04 -0.10999069836E+04 -0.12928433462E+04  0.20112662519E+04  0.12699999809E+01 0.  1.
       -4    1    3    3    0  502  0.10788656231E+04  0.10999069836E+04 -0.11344830552E+01  0.15406976684E+04  0.12699999809E+01 0. -1.
</event>
<event>
 5   0  0.3796529E-07  0.3258317E+04  0.7818609E-02  0.8173583E-01
       -1   -1    0    0    0  501  0.00000000000E+00  0.00000000000E+00  0.18435224709E+04  0.18435224709E+04  0.50400001928E-02 0. -1.
        1   -1    0    0  501    0  0.00000000000E+00  0.00000000000E+00 -0.14397207125E+04  0.14397207125E+04  0.50400001928E-02 0.  1.
    10030    2    1    2    0    0  0.00000000000E+00  0.00000000000E+00  0.40380175843E+03  0.32832431835E+04  0.32583170413E+04 0.  0.
        5    1    3    3  502    0 -0.11197458025E+03  0.13337619584E+04  0.11378098315E+04  0.17567278021E+04  0.46999998093E+01 0. -1.
       -5    1    3    3    0  502  0.11197458025E+03 -0.13337619584E+04 -0.73400807303E+03  0.15265153813E+04  0.46999998093E+01 0.  1.
</event>
<event>
 5   0  0.3749685E-07  0.3301047E+04  0.7818609E-02  0.8162629E-01
        1   -1    0    0  501    0  0.00000000000E+00  0.00000000000E+00  0.18941818566E+04  0.18941818566E+04  0.50400001928E-02 0.  1.
       -1   -1    0    0    0  501  0.00000000000E+00  0.00000000000E+00 -0.14382078718E+04  0.14382078718E+04  0.50400001928E-02 0. -1.
    10030    2    1    2    0    0  0.00000000000E+00  0.00000000000E+00  0.45597398480E+03  0.33323897284E+04  0.33010466563E+04 0.  0.
        3    1    3    3  502    0  0.21317695272E+03 -0.95042097015E+03  0.15731111141E+04  0.18502494484E+04  0.10100000352E+00 0.  1.
       -3    1    3    3    0  502 -0.21317695272E+03  0.95042097015E+03 -0.11171371293E+04  0.14821402800E+04  0.10100000352E+00 0. -1.
</event>
<event>
 5   0  0.3796529E-07  0.3299203E+04  0.7818609E-02  0.8163098E-01
        1   -1    0    0  501    0  0.00000000000E+00  0.00000000000E+00  0.16516050902E+04  0.16516050902E+04  0.50400001928E-02 0. -1.
       -1   -1    0    0    0  501  0.00000000000E+00  0.00000000000E+00 -0.16476003151E+04  0.16476003151E+04  0.50400001928E-02 0.  1.
    10030    2    1    2    0    0  0.00000000000E+00  0.00000000000E+00  0.40047751368E+01  0.32992054053E+04  0.32992029747E+04 0.  0.
        5    1    3    3  502    0 -0.64639303900E+03  0.79733226814E+03 -0.12893545451E+04  0.16480351755E+04  0.46999998093E+01 0.  1.
       -5    1    3    3    0  502  0.64639303900E+03 -0.79733226814E+03  0.12933593202E+04  0.16511702298E+04  0.46999998093E+01 0. -1.
</event>
<event>
 5   0  0.1126221E-06  0.3304094E+04  0.7818609E-02  0.8161854E-01
        2   -1    0    0  501    0  0.00000000000E+00  0.00000000000E+00  0.19607578705E+04  0.19607578705E+04  0.25500000920E-02 0. -1.
       -2   -1    0    0    0  501  0.00000000000E+00  0.00000000000E+00 -0.13919412998E+04  0.13919412998E+04  0.25500000920E-02 0.  1.
    10030    2    1    2    0    0  0.00000000000E+00  0.00000000000E+00  0.56881657075E+03  0.33526991703E+04  0.33040943442E+04 0.  0.
        2    1    3    3  502    0  0.61487751967E+03 -0.97371043018E+03 -0.91753052134E+03  0.14724294970E+04  0.25500000920E-02 0.  1.
       -2    1    3    3    0  502 -0.61487751967E+03  0.97371043018E+03  0.14863470921E+04  0.18802696733E+04  0.25500000920E-02 0. -1.
</event>
<event>
 5   0  0.1129434E-06  0.3300496E+04  0.7818609E-02  0.8162769E-01
       -2   -1    0    0    0  501  0.00000000000E+00  0.00000000000E+00  0.14208673113E+04  0.14208673113E+04  0.25500000920E-02 0. -1.
        2   -1    0    0  501    0  0.00000000000E+00  0.00000000000E+00 -0.19166588913E+04  0.19166588913E+04  0.25500000920E-02 0.  1.
    10030    2    1    2    0    0  0.00000000000E+00  0.00000000000E+00 -0.49579158005E+03  0.33375262026E+04  0.33004956995E+04 0.  0.
        3    1    3    3  502    0  0.51281139709E+03 -0.11245208196E+04  0.85789748246E+03  0.15044968273E+04  0.10100000352E+00 0. -1.
       -3    1    3    3    0  502 -0.51281139709E+03  0.11245208196E+04 -0.13536890625E+04  0.18330293753E+04  0.10100000352E+00 0.  1.
</event>
<event>
 5   0  0.1129434E-06  0.3302701E+04  0.7818609E-02  0.8162208E-01
        2   -1    0    0  501    0  0.00000000000E+00  0.00000000000E+00  0.22715963957E+04  0.22715963957E+04  0.25500000920E-02 0.  1.
       -2   -1    0    0    0  501  0.00000000000E+00  0.00000000000E+00 -0.12004592427E+04  0.12004592427E+04  0.25500000920E-02 0. -1.
    10030    2    1    2    0    0  0.00000000000E+00  0.00000000000E+00  0.10711371530E+04  0.34720556384E+04  0.33027012514E+04 0.  0.
        3    1    3    3  502    0  0.62300628847E+03 -0.58965328445E+03 -0.94786227556E+03  0.12783859883E+04  0.10100000352E+00 0. -1.
       -3    1    3    3    0  502 -0.62300628847E+03  0.58965328445E+03  0.20189994286E+04  0.21936696502E+04  0.10100000352E+00 0.  1.
</event>
<event>
 5   0  0.3674967E-07  0.3290863E+04  0.7818609E-02  0.8165224E-01
       -1   -1    0    0    0  501  0.00000000000E+00  0.00000000000E+00  0.21653191795E+04  0.21653191795E+04  0.50400001928E-02 0.  1.
        1   -1    0    0  501    0  0.00000000000E+00  0.00000000000E+00 -0.12503677977E+04  0.12503677977E+04  0.50400001928E-02 0. -1.
    10030    2    1    2    0    0  0.00000000000E+00  0.00000000000E+00  0.91495138182E+03  0.34156869772E+04  0.32908633358E+04 0.  0.
        2    1    3    3  502    0 -0.11965665198E+04 -0.28165796608E+03 -0.67778610667E+03  0.14037437987E+04  0.25500000920E-02 0. -1.
       -2    1    3    3    0  502  0.11965665198E+04  0.28165796608E+03  0.15927374885E+04  0.20119431784E+04  0.25500000920E-02 0.  1.
</event>
<event>
 5   0  0.1120545E-06  0.3299059E+04  0.7818609E-02  0.8163135E-01
        2   -1    0    0  501    0  0.00000000000E+00  0.00000000000E+00  0.18452177833E+04  0.18452177833E+04  0.25500000920E-02 0. -1.
       -2   -1    0    0    0  501  0.00000000000E+00  0.00000000000E+00 -0.14745945767E+04  0.14745945767E+04  0.25500000920E-02 0.  1.
    10030    2    1    2    0    0  0.00000000000E+00  0.00000000000E+00  0.37062320664E+03  0.33198123600E+04  0.32990593423E+04 0.  0.
        4    1    3    3  502    0 -0.28986875116E+03 -0.16086173864E+04  0.40868257961E+03  0.16848432724E+04  0.12699999809E+01 0. -1.
       -4    1    3    3    0  502  0.28986875116E+03  0.16086173864E+04 -0.38059372971E+02  0.16349690876E+04  0.12699999809E+01 0.  1.
</event>
<event>
 5   0  0.1129434E-06  0.3296988E+04  0.7818609E-02  0.8163662E-01
        2   -1    0    0  501    0  0.00000000000E+00  0.00000000000E+00  0.17268051624E+04  0.17268051624E+04  0.25500000920E-02 0.  1.
       -2   -1    0    0    0  501  0.00000000000E+00  0.00000000000E+00 -0.15737347192E+04  0.15737347192E+04  0.25500000920E-02 0. -1.
    10030    2    1    2    0    0  0.00000000000E+00  0.00000000000E+00  0.15307044317E+03  0.33005398816E+04  0.32969884667E+04 0.  0.
        3    1    3    3  502    0  0.93121453786E+03  0.10312690350E+04 -0.81146982248E+03  0.16090865797E+04  0.10100000352E+00 0. -1.
       -3    1    3    3    0  502 -0.93121453786E+03 -0.10312690350E+04  0.96454026565E+03  0.16914533018E+04  0.10100000352E+00 0.  1.
</event>
<event>
 5   0  0.1129434E-06  0.3298363E+04  0.7818609E-02  0.8163312E-01
        2   -1    0    0  501    0  0.00000000000E+00  0.00000000000E+00  0.11268795551E+04  0.11268795551E+04  0.25500000920E-02 0. -1.
       -2   -1    0    0    0  501  0.00000000000E+00  0.00000000000E+00 -0.24135668180E+04  0.24135668180E+04  0.25500000920E-02 0.  1.
    10030    2    1    2    0    0  0.00000000000E+00  0.00000000000E+00 -0.12866872629E+04  0.35404463731E+04  0.32983626860E+04 0.  0.
        3    1    3    3  502    0  0.36130894853E+03 -0.16029220665E+04 -0.49193865648E+03  0.17151988105E+04  0.10100000352E+00 0. -1.
       -3    1    3    3    0  502 -0.36130894853E+03  0.16029220665E+04 -0.79474860641E+03  0.18252475627E+04  0.10100000352E+00 0.  1.
</event>
<event>
 5   0  0.1129434E-06  0.3316047E+04  0.7818609E-02  0.8158824E-01
        2   -1    0    0  501    0  0.00000000000E+00  0.00000000000E+00  0.20862571191E+04  0.20862571191E+04  0.25500000920E-02 0.  1.
       -2   -1    0    0    0  501  0.00000000000E+00  0.00000000000E+00 -0.13176912511E+04  0.13176912511E+04  0.25500000920E-02 0. -1.
    10030    2    1    2    0    0  0.00000000000E+00  0.00000000000E+00  0.76856586805E+03  0.34039483702E+04  0.33160474987E+04 0.  0.
        3    1    3    3  502    0  0.48953680853E+03  0.22237406667E+03  0.19942797931E+04  0.20654898731E+04  0.10100000352E+00 0.  1.
       -3    1    3    3    0  502 -0.48953680853E+03 -0.22237406667E+03 -0.12257139250E+04  0.13384584972E+04  0.10100000352E+00 0. -1.
</event>
<event>
 5   0  0.1146799E-06  0.3283997E+04  0.7818609E-02  0.8166979E-01
       -2   -1    0    0    0  501  0.00000000000E+00  0.00000000000E+00  0.17932897076E+04  0.17932897076E+04  0.25500000920E-02 0.  1.
        2   -1    0    0  501    0  0.00000000000E+00  0.00000000000E+00 -0.15034711918E+04  0.15034711918E+04  0.25500000920E-02 0. -1.
    10030    2    1    2    0    0  0.00000000000E+00  0.00000000000E+00  0.28981851571E+03  0.32967608994E+04  0.32839972070E+04 0.  0.
        5    1    3    3  502    0  0.66397326407E+02 -0.14523678256E+04  0.91099804290E+03  0.17157273764E+04  0.46999998093E+01 0. -1.
       -5    1    3    3    0  502 -0.66397326407E+02  0.14523678256E+04 -0.62117952719E+03  0.15810335230E+04  0.46999998093E+01 0.  1.
</event>
<event>
 5   0  0.3749685E-07  0.3302304E+04  0.7818609E-02  0.8162309E-01
       -1   -1    0    0    0  501  0.00000000000E+00  0.00000000000E+00  0.19645876744E+04  0.19645876744E+04  0.50400001928E-02 0.  1.
        1   -1    0    0  501    0  0.00000000000E+00  0.00000000000E+00 -0.13877229189E+04  0.13877229189E+04  0.50400001928E-02 0. -1.
    10030    2    1    2    0    0  0.00000000000E+00  0.00000000000E+00  0.57686475545E+03  0.33523105933E+04  0.33023042513E+04 0.  0.
        3    1    3    3  502    0 -0.21151302920E+03  0.10406021440E+04 -0.99511642171E+03  0.14552825453E+04  0.10100000352E+00 0. -1.
       -3    1    3    3    0  502  0.21151302920E+03 -0.10406021440E+04  0.15719811772E+04  0.18970280481E+04  0.10100000352E+00 0.  1.
</event>
<event>
 5   0  0.3674967E-07  0.3296265E+04  0.7818609E-02  0.8163846E-01
        1   -1    0    0  501    0  0.00000000000E+00  0.00000000000E+00  0.20963602064E+04  0.20963602064E+04  0.50400001928E-02 0. -1.
       -1   -1    0    0    0  501  0.00000000000E+00  0.00000000000E+00 -0.12957413781E+04  0.12957413782E+04  0.50400001928E-02 0.  1.
    10030    2    1    2    0    0  0.00000000000E+00  0.00000000000E+00  0.80061882823E+03  0.33921015845E+04  0.32962649547E+04 0.  0.
        2    1    3    3  502    0  0.44403772615E+03 -0.12035472696E+04  0.14651130113E+04  0.19473704497E+04  0.25500000920E-02 0. -1.
       -2    1    3    3    0  502 -0.44403772615E+03  0.12035472696E+04 -0.66449418311E+03  0.14447311348E+04  0.25500000920E-02 0.  1.
</event>
<event>
 5   0  0.3709747E-07  0.3299639E+04  0.7818609E-02  0.8162987E-01
       -1   -1    0    0    0  501  0.00000000000E+00  0.00000000000E+00  0.15864435988E+04  0.15864435988E+04  0.50400001928E-02 0. -1.
        1   -1    0    0  501    0  0.00000000000E+00  0.00000000000E+00 -0.17157269830E+04  0.17157269830E+04  0.50400001928E-02 0.  1.
    10030    2    1    2    0    0  0.00000000000E+00  0.00000000000E+00 -0.12928338420E+03  0.33021705818E+04  0.32996388224E+04 0.  0.
        4    1    3    3  502    0  0.12042257064E+04 -0.88986674023E+03  0.62862362535E+03  0.16239432387E+04  0.12699999809E+01 0.  1.
       -4    1    3    3    0  502 -0.12042257064E+04  0.88986674023E+03 -0.75790700954E+03  0.16782273431E+04  0.12699999809E+01 0. -1.
</event>
<event>
 5   0  0.1129434E-06  0.3293845E+04  0.7818609E-02  0.8164463E-01
        2   -1    0    0  501    0  0.00000000000E+00  0.00000000000E+00  0.18130995158E+04  0.18130995158E+04  0.25500000920E-02 0. -1.
       -2   -1    0    0    0  501  0.00000000000E+00  0.00000000000E+00 -0.14959764407E+04  0.14959764407E+04  0.25500000920E-02 0.  1.
    10030    2    1    2    0    0  0.00000000000E+00  0.00000000000E+00  0.31712307509E+03  0.33090759565E+04  0.32938452667E+04 0.  0.
        3    1    3    3  502    0  0.12775060526E+04 -0.10393782334E+04  0.16361704800E+03  0.16550224697E+04  0.10100000352E+00 0. -1.
       -3    1    3    3    0  502 -0.12775060526E+04  0.10393782334E+04  0.15350602708E+03  0.16540534868E+04  0.10100000352E+00 0.  1.
</event>
<event>
 5   0  0.1129434E-06  0.3263525E+04  0.7818609E-02  0.8172239E-01
       -2   -1    0    0    0  501  0.00000000000E+00  0.00000000000E+00  0.14269049048E+04  0.14269049048E+04  0.25500000920E-02 0.  1.
        2   -1    0    0  501    0  0.00000000000E+00  0.00000000000E+00 -0.18660314747E+04  0.18660314747E+04  0.25500000920E-02 0. -1.
    10030    2    1    2    0    0  0.00000000000E+00  0.00000000000E+00 -0.43912656988E+03  0.32929363794E+04  0.32635253722E+04 0.  0.
        3    1    3    3  502    0  0.53199698264E+03 -0.74273908916E+03  0.11446446114E+04  0.14645454724E+04  0.10100000352E+00 0.  1.
       -3    1    3    3    0  502 -0.53199698264E+03  0.74273908916E+03 -0.15837711813E+04  0.18283909070E+04  0.10100000352E+00 0. -1.
</event>
<event>
 5   0  0.1116462E-06  0.3227612E+04  0.7818609E-02  0.8181563E-01
       -2   -1    0    0    0  501  0.00000000000E+00  0.00000000000E+00  0.23652731028E+04  0.23652731028E+04  0.25500000920E-02 0.  1.
        2   -1    0    0  501    0  0.00000000000E+00  0.00000000000E+00 -0.11010860265E+04  0.11010860265E+04  0.25500000920E-02 0. -1.
    10030    2    1    2    0    0  0.00000000000E+00  0.00000000000E+00  0.12641870763E+04  0.34663591293E+04  0.32276116014E+04 0.  0.
        1    1    3    3  502    0 -0.17753654197E+03 -0.15654521832E+04  0.10075370426E+04  0.18701044500E+04  0.50400001928E-02 0. -1.
       -1    1    3    3    0  502  0.17753654197E+03  0.15654521832E+04  0.25665003362E+03  0.15962546793E+04  0.50400001928E-02 0.  1.
</event>
<event>
 5   0  0.3757406E-07  0.3301169E+04  0.7818609E-02  0.8162598E-01
        1   -1    0    0  501    0  0.00000000000E+00  0.00000000000E+00  0.11672599121E+04  0.11672599121E+04  0.50400001928E-02 0.  1.
       -1   -1    0    0    0  501  0.00000000000E+00  0.00000000000E+00 -0.23340381868E+04  0.23340381868E+04  0.50400001928E-02 0. -1.
    10030    2    1    2    0    0  0.00000000000E+00  0.00000000000E+00 -0.11667782747E+04  0.35012980989E+04  0.33011690104E+04 0.  0.
        1    1    3    3  502    0  0.50182101837E+03  0.53974489571E+03  0.98306278185E+03  0.12286420634E+04  0.50400001928E-02 0.  1.
       -1    1    3    3    0  502 -0.50182101837E+03 -0.53974489571E+03 -0.21498410566E+04  0.22726560355E+04  0.50400001928E-02 0. -1.
</event>
<event>
 5   0  0.1126221E-06  0.3305362E+04  0.7818609E-02  0.8161532E-01
        2   -1    0    0  501    0  0.00000000000E+00  0.00000000000E+00  0.22266567620E+04  0.22266567620E+04  0.25500000920E-02 0.  1.
       -2   -1    0    0    0  501  0.00000000000E+00  0.00000000000E+00 -0.12266613434E+04  0.12266613434E+04  0.25500000920E-02 0. -1.
    10030    2    1    2    0    0  0.00000000000E+00  0.00000000000E+00  0.99999541863E+03  0.34533181054E+04  0.33053615687E+04 0.  0.
        2    1    3    3  502    0  0.21130144815E+03  0.56046529782E+03 -0.11092704639E+04  0.12606548354E+04  0.25500000920E-02 0. -1.
       -2    1    3    3    0  502 -0.21130144815E+03 -0.56046529782E+03  0.21092658825E+04  0.21926632699E+04  0.25500000920E-02 0.  1.
</event>
<event>
 5   0  0.1129434E-06  0.3307633E+04  0.7818609E-02  0.8160956E-01
       -2   -1    0    0    0  501  0.00000000000E+00  0.00000000000E+00  0.10311689627E+04  0.10311689627E+04  0.25500000920E-02 0. -1.
        2   -1    0    0  501    0  0.00000000000E+00  0.00000000000E+00 -0.26524354331E+04  0.26524354331E+04  0.25500000920E-02 0.  1.
    10030    2    1    2    0    0  0.00000000000E+00  0.00000000000E+00 -0.16212664704E+04  0.36836043957E+04  0.33076330474E+04 0.  0.
        3    1    3    3  502    0  0.70709440424E+03  0.13244750732E+04 -0.15829217965E+04  0.21817099120E+04  0.10100000352E+00 0.  1.
       -3    1    3    3    0  502 -0.70709440424E+03 -0.13244750732E+04 -0.38344673836E+02  0.15018944837E+04  0.10100000352E+00 0. -1.
</event>
<event>
 5   0  0.3757406E-07  0.3304071E+04  0.7818609E-02  0.8161860E-01
       -1   -1    0    0    0  501  0.00000000000E+00  0.00000000000E+00  0.18442499646E+04  0.18442499646E+04  0.50400001928E-02 0. -1.
        1   -1    0    0  501    0  0.00000000000E+00  0.00000000000E+00 -0.14798541514E+04  0.14798541514E+04  0.50400001928E-02 0.  1.
    10030    2    1    2    0    0  0.00000000000E+00  0.00000000000E+00  0.36439581321E+03  0.33241041160E+04  0.33040708021E+04 0.  0.
        1    1    3    3  502    0  0.15306112421E+04 -0.24151524796E+03  0.75848913088E+03  0.17252264057E+04  0.50400001928E-02 0. -1.
       -1    1    3    3    0  502 -0.15306112421E+04  0.24151524796E+03 -0.39409331767E+03  0.15988777103E+04  0.50400001928E-02 0.  1.
</event>
<event>
 5   0  0.1120545E-06  0.3286649E+04  0.7818609E-02  0.8166301E-01
        2   -1    0    0  501    0  0.00000000000E+00  0.00000000000E+00  0.15607757535E+04  0.15607757535E+04  0.25500000920E-02 0. -1.
       -2   -1    0    0    0  501  0.00000000000E+00  0.00000000000E+00 -0.17302396815E+04  0.17302396815E+04  0.25500000920E-02 0.  1.
    10030    2    1    2    0    0  0.00000000000E+00  0.00000000000E+00 -0.16946392798E+03  0.32910154350E+04  0.32866494444E+04 0.  0.
        4    1    3    3  502    0 -0.90589105098E+03 -0.55247741868E+03 -0.13412473579E+04  0.17102093388E+04  0.12699999809E+01 0.  1.
       -4    1    3    3    0  502  0.90589105098E+03  0.55247741868E+03  0.11717834299E+04  0.15808060963E+04  0.12699999809E+01 0. -1.
</event>
<event>
 5   0  0.3573375E-07  0.3304220E+04  0.7818609E-02  0.8161823E-01
        3   -1    0    0  501    0  0.00000000000E+00  0.00000000000E+00  0.18823585142E+04  0.18823585169E+04  0.10100000352E+00 0.  1.
       -3   -1    0    0    0  501  0.00000000000E+00  0.00000000000E+00 -0.14500250447E+04  0.14500250482E+04  0.10100000352E+00 0. -1.
    10030    2    1    2    0    0  0.00000000000E+00  0.00000000000E+00  0.43233346952E+03  0.33323835650E+04  0.33042197257E+04 0.  0.
        3    1    3    3  502    0  0.74393844146E+03  0.10617937757E+03 -0.12676825457E+04  0.14736816182E+04  0.10100000352E+00 0. -1.
       -3    1    3    3    0  502 -0.74393844146E+03 -0.10617937757E+03  0.17000160152E+04  0.18587019468E+04  0.10100000352E+00 0.  1.
</event>
<event>
 5   0  0.1146799E-06  0.3323283E+04  0.7818609E-02  0.8156996E-01
       -2   -1    0    0    0  501  0.00000000000E+00  0.00000000000E+00  0.27828048678E+04  0.27828048678E+04  0.25500000920E-02 0.  1.
        2   -1    0    0  501    0  0.00000000000E+00  0.00000000000E+00 -0.99218344155E+03  0.99218344155E+03  0.25500000920E-02 0. -1.
    10030    2    1    2    0    0  0.00000000000E+00  0.00000000000E+00  0.17906214263E+04  0.37749883094E+04  0.33232832626E+04 0.  0.
        5    1    3    3  502    0  0.26512375518E+02 -0.15663751230E+04  0.15244889996E+04  0.21859374950E+04  0.46999998093E+01 0. -1.
       -5    1    3    3    0  502 -0.26512375518E+02  0.15663751230E+04  0.26613242669E+03  0.15890508144E+04  0.46999998093E+01 0.  1.
</event>
<event>
 5   0  0.1120545E-06  0.3310282E+04  0.7818609E-02  0.8160284E-01
       -2   -1    0    0    0  501  0.00000000000E+00  0.00000000000E+00  0.14392079384E+04  0.14392079384E+04  0.25500000920E-02 0. -1.
        2   -1    0    0  501    0  0.00000000000E+00  0.00000000000E+00 -0.19034717773E+04  0.19034717773E+04  0.25500000920E-02 0.  1.
    10030    2    1    2    0    0  0.00000000000E+00  0.00000000000E+00 -0.46426383887E+03  0.33426797156E+04  0.33102819773E+04 0.  0.
        4    1    3    3  502    0 -0.98233177570E+03  0.62672325978E+03  0.95484352382E+03  0.15064811747E+04  0.12699999809E+01 0. -1.
       -4    1    3    3    0  502  0.98233177570E+03 -0.62672325978E+03 -0.14191073627E+04  0.18361985409E+04  0.12699999809E+01 0.  1.
</event>
<event>
 5   0  0.1129434E-06  0.3236257E+04  0.7818609E-02  0.8179307E-01
       -2   -1    0    0    0  501  0.00000000000E+00  0.00000000000E+00  0.13593159742E+04  0.13593159742E+04  0.25500000920E-02 0. -1.
        2   -1    0    0  501    0  0.00000000000E+00  0.00000000000E+00 -0.19262183231E+04  0.19262183231E+04  0.25500000920E-02 0.  1.
    10030    2    1    2    0    0  0.00000000000E+00  0.00000000000E+00 -0.56690234894E+03  0.32855342973E+04  0.32362566873E+04 0.  0.
        3    1    3    3  502    0  0.45799291154E+03  0.92019340114E+03  0.98530847368E+03  0.14238490794E+04  0.10100000352E+00 0. -1.
       -3    1    3    3    0  502 -0.45799291154E+03 -0.92019340114E+03 -0.15522108226E+04  0.18616852179E+04  0.10100000352E+00 0.  1.
</event>
<event>
 5   0  0.1129434E-06  0.3360510E+04  0.7818609E-02  0.8147667E-01
       -2   -1    0    0    0  501  0.00000000000E+00  0.00000000000E+00  0.15293179351E+04  0.15293179351E+04  0.25500000920E-02 0.  1.
        2   -1    0    0  501    0  0.00000000000E+00  0.00000000000E+00 -0.18460886455E+04  0.18460886455E+04  0.25500000920E-02 0. -1.
    10030    2    1    2    0    0  0.00000000000E+00  0.00000000000E+00 -0.31677071038E+03  0.33754065806E+04  0.33605097681E+04 0.  0.
        3    1    3    3  502    0 -0.93399733992E+03  0.69879933354E+03  0.10563494551E+04  0.15737044580E+04  0.10100000352E+00 0.  1.
       -3    1    3    3    0  502  0.93399733992E+03 -0.69879933354E+03 -0.13731201655E+04  0.18017021226E+04  0.10100000352E+00 0. -1.
</event>
<event>
 5   0  0.1120545E-06  0.3303991E+04  0.7818609E-02  0.8161881E-01
       -2   -1    0    0    0  501  0.00000000000E+00  0.00000000000E+00  0.15780431937E+04  0.15780431937E+04  0.25500000920E-02 0.  1.
        2   -1    0    0  501    0  0.00000000000E+00  0.00000000000E+00 -0.17294136710E+04  0.17294136710E+04  0.25500000920E-02 0. -1.
    10030    2    1    2    0    0  0.00000000000E+00  0.00000000000E+00 -0.15137047731E+03  0.33074568647E+04  0.33039912062E+04 0.  0.
        4    1    3    3  502    0  0.69774252708E+03 -0.96707267151E+03 -0.12201314129E+04  0.17061056426E+04  0.12699999809E+01 0.  1.
       -4    1    3    3    0  502 -0.69774252708E+03  0.96707267151E+03  0.10687609356E+04  0.16013512221E+04  0.12699999809E+01 0. -1.
</event>
<event>
 5   0  0.1129434E-06  0.3303000E+04  0.7818609E-02  0.8162132E-01
        2   -1    0    0  501    0  0.00000000000E+00  0.00000000000E+00  0.12561097652E+04  0.12561097652E+04  0.25500000920E-02 0. -1.
       -2   -1    0    0    0  501  0.00000000000E+00  0.00000000000E+00 -0.21713489807E+04  0.21713489807E+04  0.25500000920E-02 0.  1.
    10030    2    1    2    0    0  0.00000000000E+00  0.00000000000E+00 -0.91523921548E+03  0.34274587459E+04  0.33030002473E+04 0.  0.
        3    1    3    3  502    0 -0.15421052897E+04  0.43527350792E+03 -0.42675998639E+02  0.16029263870E+04  0.10100000352E+00 0.  1.
       -3    1    3    3    0  502  0.15421052897E+04 -0.43527350792E+03 -0.87256321684E+03  0.18245323589E+04  0.10100000352E+00 0. -1.
</event>
<event>
 5   0  0.3796529E-07  0.3302168E+04  0.7818609E-02  0.8162344E-01
       -1   -1    0    0    0  501  0.00000000000E+00  0.00000000000E+00  0.13333678237E+04  0.13333678237E+04  0.50400001928E-02 0.  1.
        1   -1    0    0  501    0  0.00000000000E+00  0.00000000000E+00 -0.20445059604E+04  0.20445059604E+04  0.50400001928E-02 0. -1.
    10030    2    1    2    0    0  0.00000000000E+00  0.00000000000E+00 -0.71113813671E+03  0.33778737842E+04  0.33021680533E+04 0.  0.
        5    1    3    3  502    0 -0.14294250117E+04 -0.61750113813E+03  0.20610290977E+03  0.15706890269E+04  0.46999998093E+01 0.  1.
       -5    1    3    3    0  502  0.14294250117E+04  0.61750113813E+03 -0.91724104648E+03  0.18071847573E+04  0.46999998093E+01 0. -1.
</event>
<event>
 5   0  0.1116462E-06  0.3359114E+04  0.7818609E-02  0.8148015E-01
       -2   -1    0    0    0  501  0.00000000000E+00  0.00000000000E+00  0.17201410935E+04  0.17201410935E+04  0.25500000920E-02 0. -1.
        2   -1    0    0  501    0  0.00000000000E+00  0.00000000000E+00 -0.16399308483E+04  0.16399308483E+04  0.25500000920E-02 0.  1.
    10030    2    1    2    0    0  0.00000000000E+00  0.00000000000E+00  0.80210245171E+02  0.33600719418E+04  0.33591144325E+04 0.  0.
        1    1    3    3  502    0  0.97853609716E+03 -0.41756466924E+03 -0.12598880839E+04  0.16490030717E+04  0.50400001928E-02 0.  1.
       -1    1    3    3    0  502 -0.97853609716E+03  0.41756466924E+03  0.13400983291E+04  0.17110688701E+04  0.50400001928E-02 0. -1.
</event>
<event>
 5   0  0.3749685E-07  0.3282783E+04  0.7818609E-02  0.8167290E-01
       -1   -1    0    0    0  501  0.00000000000E+00  0.00000000000E+00  0.17171787256E+04  0.17171787256E+04  0.50400001928E-02 0. -1.
        1   -1    0    0  501    0  0.00000000000E+00  0.00000000000E+00 -0.15689494584E+04  0.15689494585E+04  0.50400001928E-02 0.  1.
    10030    2    1    2    0    0  0.00000000000E+00  0.00000000000E+00  0.14822926719E+03  0.32861281841E+04  0.32827833506E+04 0.  0.
        3    1    3    3  502    0  0.15843947510E+04  0.29969817382E+03  0.38108797726E+03  0.16569109146E+04  0.10100000352E+00 0.  1.
       -3    1    3    3    0  502 -0.15843947510E+04 -0.29969817382E+03 -0.23285871007E+03  0.16292172695E+04  0.10100000352E+00 0. -1.
</event>
<event>
 5   0  0.1120545E-06  0.3286452E+04  0.7818609E-02  0.8166351E-01
        2   -1    0    0  501    0  0.00000000000E+00  0.00000000000E+00  0.18348032282E+04  0.18348032282E+04  0.25500000920E-02 0.  1.
       -2   -1    0    0    0  501  0.00000000000E+00  0.00000000000E+00 -0.14716520803E+04  0.14716520803E+04  0.25500000920E-02 0. -1.
    10030    2    1    2    0    0  0.00000000000E+00  0.00000000000E+00  0.36315114790E+03  0.33064553084E+04  0.32864521829E+04 0.  0.
        4    1    3    3  502    0 -0.13284234269E+04  0.26884962188E+03  0.11163168506E+04  0.17558911824E+04  0.12699999809E+01 0.  1.
       -4    1    3    3    0  502  0.13284234269E+04 -0.26884962188E+03 -0.75316570273E+03  0.15505641261E+04  0.12699999809E+01 0. -1.
</event>
<event>
 5   0  0.1120545E-06  0.3309495E+04  0.7818609E-02  0.8160484E-01
        2   -1    0    0  501    0  0.00000000000E+00  0.00000000000E+00  0.18273806268E+04  0.18273806268E+04  0.25500000920E-02 0. -1.
       -2   -1    0    0    0  501  0.00000000000E+00  0.00000000000E+00 -0.14984231919E+04  0.14984231919E+04  0.25500000920E-02 0.  1.
    10030    2    1    2    0    0  0.00000000000E+00  0.00000000000E+00  0.32895743490E+03  0.33258038187E+04  0.33094951347E+04 0.  0.
        4    1    3    3  502    0 -0.12179223692E+04 -0.61825481037E+02  0.12884852852E+04  0.17740781355E+04  0.12699999809E+01 0. -1.
       -4    1    3    3    0  502  0.12179223692E+04  0.61825481037E+02 -0.95952785034E+03  0.15517256832E+04  0.12699999809E+01 0.  1.
</event>
<event>
 5   0  0.1120545E-06  0.3275410E+04  0.7818609E-02  0.8169181E-01
       -2   -1    0    0    0  501  0.00000000000E+00  0.00000000000E+00  0.99703983330E+03  0.99703983330E+03  0.25500000920E-02 0.  1.
        2   -1    0    0  501    0  0.00000000000E+00  0.00000000000E+00 -0.26900410768E+04  0.26900410768E+04  0.25500000920E-02 0. -1.
    10030    2    1    2    0    0  0.00000000000E+00  0.00000000000E+00 -0.16930012435E+04  0.36870809101E+04  0.32754102685E+04 0.  0.
        4    1    3    3  502    0  0.30777951106E+03 -0.10477863890E+02  0.96415222901E+03  0.10121408729E+04  0.12699999809E+01 0.  1.
       -4    1    3    3    0  502 -0.30777951106E+03  0.10477863890E+02 -0.26571534725E+04  0.26749400372E+04  0.12699999809E+01 0. -1.
</event>
<event>
 5   0  0.1116462E-06  0.3356181E+04  0.7818609E-02  0.8148745E-01
        2   -1    0    0  501    0  0.00000000000E+00  0.00000000000E+00  0.19961149600E+04  0.19961149600E+04  0.25500000920E-02 0.  1.
       -2   -1    0    0    0  501  0.00000000000E+00  0.00000000000E+00 -0.14107345081E+04  0.14107345081E+04  0.25500000920E-02 0. -1.
    10030    2    1    2    0    0  0.00000000000E+00  0.00000000000E+00  0.58538045190E+03  0.34068494681E+04  0.33561813159E+04 0.  0.
        1    1    3    3  502    0 -0.42842556174E+03 -0.11595294476E+04  0.14446939169E+04  0.19013672753E+04  0.50400001928E-02 0.  1.
       -1    1    3    3    0  502  0.42842556174E+03  0.11595294476E+04 -0.85931346503E+03  0.15054821929E+04  0.50400001928E-02 0. -1.
</event>
<event>
 5   0  0.3709747E-07  0.3302544E+04  0.7818609E-02  0.8162248E-01
        1   -1    0    0  501    0  0.00000000000E+00  0.00000000000E+00  0.17860290596E+04  0.17860290596E+04  0.50400001928E-02 0.  1.
       -1   -1    0    0    0  501  0.00000000000E+00  0.00000000000E+00 -0.15266827879E+04  0.15266827879E+04  0.50400001928E-02 0. -1.
    10030    2    1    2    0    0  0.00000000000E+00  0.00000000000E+00  0.25934627169E+03  0.33127118475E+04  0.33025443670E+04 0.  0.
        4    1    3    3  502    0 -0.82609889806E+03  0.14243892862E+04  0.52995371651E+01  0.16466189377E+04  0.12699999809E+01 0.  1.
       -4    1    3    3    0  502  0.82609889806E+03 -0.14243892862E+04  0.25404673452E+03  0.16660929098E+04  0.12699999809E+01 0. -1.
</event>
<event>
 5   0  0.3796529E-07  0.3177904E+04  0.7818609E-02  0.8194677E-01
       -1   -1    0    0    0  501  0.00000000000E+00  0.00000000000E+00  0.14497702958E+04  0.14497702958E+04  0.50400001928E-02 0.  1.
        1   -1    0    0  501    0  0.00000000000E+00  0.00000000000E+00 -0.17414958700E+04  0.17414958700E+04  0.50400001928E-02 0. -1.
    10030    2    1    2    0    0  0.00000000000E+00  0.00000000000E+00 -0.29172557415E+03  0.31912661658E+04  0.31779043300E+04 0.  0.
        5    1    3    3  502    0  0.10079410848E+04 -0.19383495134E+03  0.10721797268E+04  0.14842872618E+04  0.46999998093E+01 0.  1.
       -5    1    3    3    0  502 -0.10079410848E+04  0.19383495134E+03 -0.13639053010E+04  0.17069789041E+04  0.46999998093E+01 0. -1.
</event>
<event>
 5   0  0.1120545E-06  0.3354411E+04  0.7818609E-02  0.8149187E-01
       -2   -1    0    0    0  501  0.00000000000E+00  0.00000000000E+00  0.17529657416E+04  0.17529657416E+04  0.25500000920E-02 0. -1.
        2   -1    0    0  501    0  0.00000000000E+00  0.00000000000E+00 -0.16047191679E+04  0.16047191679E+04  0.25500000920E-02 0.  1.
    10030    2    1    2    0    0  0.00000000000E+00  0.00000000000E+00  0.14824657373E+03  0.33576849095E+04  0.33544106643E+04 0.  0.
        4    1    3    3  502    0  0.13941372576E+04 -0.70823808254E+03 -0.53293074851E+03  0.16520401540E+04  0.12699999809E+01 0. -1.
       -4    1    3    3    0  502 -0.13941372576E+04  0.70823808254E+03  0.68117732224E+03  0.17056447555E+04  0.12699999809E+01 0.  1.
</event>
<event>
 5   0  0.1116462E-06  0.3324196E+04  0.7818609E-02  0.8156766E-01
        2   -1    0    0  501    0  0.00000000000E+00  0.00000000000E+00  0.27068181828E+04  0.27068181829E+04  0.25500000920E-02 0. -1.
       -2   -1    0    0    0  501  0.00000000000E+00  0.00000000000E+00 -0.10205969418E+04  0.10205969418E+04  0.25500000920E-02 0.  1.
    10030    2    1    2    0    0  0.00000000000E+00  0.00000000000E+00  0.16862212410E+04  0.37274151247E+04  0.33241963597E+04 0.  0.
        1    1    3    3  502    0  0.74470464166E+03  0.51846175914E+03 -0.71834794477E+03  0.11573294124E+04  0.50400001928E-02 0.  1.
       -1    1    3    3    0  502 -0.74470464166E+03 -0.51846175914E+03  0.24045691858E+04  0.25700857123E+04  0.50400001928E-02 0. -1.
</event>
<event>
 5   0  0.1126221E-06  0.3306747E+04  0.7818609E-02  0.8161181E-01
        2   -1    0    0  501    0  0.00000000000E+00  0.00000000000E+00  0.17273584219E+04  0.17273584219E+04  0.25500000920E-02 0. -1.
       -2   -1    0    0    0  501  0.00000000000E+00  0.00000000000E+00 -0.15825575312E+04  0.15825575312E+04  0.25500000920E-02 0.  1.
    10030    2    1    2    0    0  0.00000000000E+00  0.00000000000E+00  0.14480089071E+03  0.33099159530E+04  0.33067470902E+04 0.  0.
        2    1    3    3  502    0 -0.46175386975E+03 -0.84160703881E+02  0.16592727824E+04  0.17243798383E+04  0.25500000920E-02 0. -1.
       -2    1    3    3    0  502  0.46175386975E+03  0.84160703881E+02 -0.15144718917E+04  0.15855361147E+04  0.25500000920E-02 0.  1.
</event>
<event>
 5   0  0.1146799E-06  0.3252166E+04  0.7818609E-02  0.8175174E-01
       -2   -1    0    0    0  501  0.00000000000E+00  0.00000000000E+00  0.12105156617E+04  0.12105156617E+04  0.25500000920E-02 0. -1.
        2   -1    0    0  501    0  0.00000000000E+00  0.00000000000E+00 -0.21843139644E+04  0.21843139644E+04  0.25500000920E-02 0.  1.
    10030    2    1    2    0    0  0.00000000000E+00  0.00000000000E+00 -0.97379830265E+03  0.33948296261E+04  0.32521662098E+04 0.  0.
        5    1    3    3  502    0  0.91814831636E+03  0.13123090693E+04 -0.19355064553E+03  0.16132685352E+04  0.46999998093E+01 0. -1.
       -5    1    3    3    0  502 -0.91814831636E+03 -0.13123090693E+04 -0.78024765712E+03  0.17815610909E+04  0.46999998093E+01 0.  1.
</event>
<event>
 5   0  0.1126221E-06  0.3272780E+04  0.7818609E-02  0.8169856E-01
       -2   -1    0    0    0  501  0.00000000000E+00  0.00000000000E+00  0.15548670797E+04  0.15548670797E+04  0.25500000920E-02 0.  1.
        2   -1    0    0  501    0  0.00000000000E+00  0.00000000000E+00 -0.17221875987E+04  0.17221875987E+04  0.25500000920E-02 0. -1.
    10030    2    1    2    0    0  0.00000000000E+00  0.00000000000E+00 -0.16732051902E+03  0.32770546785E+04  0.32727803485E+04 0.  0.
        2    1    3    3  502    0 -0.72435387822E+03 -0.31787192088E+03  0.13507055360E+04  0.15652912010E+04  0.25500000920E-02 0.  1.
       -2    1    3    3    0  502  0.72435387822E+03  0.31787192088E+03 -0.15180260550E+04  0.17117634775E+04  0.25500000920E-02 0. -1.
</event>
<event>
 5   0  0.3749685E-07  0.3302194E+04  0.7818609E-02  0.8162337E-01
       -1   -1    0    0    0  501  0.00000000000E+00  0.00000000000E+00  0.13617180758E+04  0.13617180758E+04  0.50400001928E-02 0.  1.
        1   -1    0    0  501    0  0.00000000000E+00  0.00000000000E+00 -0.20019715781E+04  0.20019715781E+04  0.50400001928E-02 0. -1.
    10030    2    1    2    0    0  0.00000000000E+00  0.00000000000E+00 -0.64025350234E+03  0.33636896539E+04  0.33021937467E+04 0.  0.
        3    1    3    3  502    0 -0.14265303668E+04 -0.56632948733E+03  0.29981453142E+03  0.15638435788E+04  0.10100000352E+00 0.  1.
       -3    1    3    3    0  502  0.14265303668E+04  0.56632948733E+03 -0.94006803376E+03  0.17998460751E+04  0.10100000352E+00 0. -1.
</event>
<event>
 5   0  0.1116462E-06  0.3314118E+04  0.7818609E-02  0.8159312E-01
        2   -1    0    0  501    0  0.00000000000E+00  0.00000000000E+00  0.11222347136E+04  0.11222347136E+04  0.25500000920E-02 0. -1.
       -2   -1    0    0    0  501  0.00000000000E+00  0.00000000000E+00 -0.24467649221E+04  0.24467649221E+04  0.25500000920E-02 0.  1.
    10030    2    1    2    0    0  0.00000000000E+00  0.00000000000E+00 -0.13245302085E+04  0.35689996357E+04  0.33141180013E+04 0.  0.
        1    1    3    3  502    0  0.10712560632E+04  0.55970112490E+03  0.55848943342E+03  0.13314523459E+04  0.50400001928E-02 0. -1.
       -1    1    3    3    0  502 -0.10712560632E+04 -0.55970112490E+03 -0.18830196420E+04  0.22375472898E+04  0.50400001928E-02 0.  1.
</event>
<event>
 5   0  0.3709747E-07  0.3276779E+04  0.7818609E-02  0.8168829E-01
       -1   -1    0    0    0  501  0.00000000000E+00  0.00000000000E+00  0.12086100127E+04  0.12086100127E+04  0.50400001928E-02 0. -1.
        1   -1    0    0  501    0  0.00000000000E+00  0.00000000000E+00 -0.22209972083E+04  0.22209972083E+04  0.50400001928E-02 0.  1.
    10030    2    1    2    0    0  0.00000000000E+00  0.00000000000E+00 -0.10123871956E+04  0.34296072210E+04  0.32767785791E+04 0.  0.
        4    1    3    3  502    0 -0.13878457493E+04 -0.53852096128E+03  0.20996909881E+03  0.15033992434E+04  0.12699999809E+01 0. -1.
       -4    1    3    3    0  502  0.13878457493E+04  0.53852096128E+03 -0.12223562944E+04  0.19262079776E+04  0.12699999809E+01 0.  1.
</event>
<event>
 5   0  0.3709747E-07  0.3349753E+04  0.7818609E-02  0.8150350E-01
       -1   -1    0    0    0  501  0.00000000000E+00  0.00000000000E+00  0.12457488582E+04  0.12457488582E+04  0.50400001928E-02 0. -1.
        1   -1    0    0  501    0  0.00000000000E+00  0.00000000000E+00 -0.22518271154E+04  0.22518271154E+04  0.50400001928E-02 0.  1.
    10030    2    1    2    0    0  0.00000000000E+00  0.00000000000E+00 -0.10060782572E+04  0.34975759736E+04  0.33497528612E+04 0.  0.
        4    1    3    3  502    0  0.51007258542E+03  0.10197953180E+04  0.77790525642E+03  0.13803241409E+04  0.12699999809E+01 0. -1.
       -4    1    3    3    0  502 -0.51007258542E+03 -0.10197953180E+04 -0.17839835137E+04  0.21172518327E+04  0.12699999809E+01 0.  1.
</event>
<event>
 5   0  0.1129434E-06  0.3198730E+04  0.7818609E-02  0.8189153E-01
        2   -1    0    0  501    0  0.00000000000E+00  0.00000000000E+00  0.21340850544E+04  0.21340850544E+04  0.25500000920E-02 0.  1.
       -2   -1    0    0    0  501  0.00000000000E+00  0.00000000000E+00 -0.11986250120E+04  0.11986250120E+04  0.25500000920E-02 0. -1.
    10030    2    1    2    0    0  0.00000000000E+00  0.00000000000E+00  0.93546004241E+03  0.33327100663E+04  0.31987295752E+04 0.  0.
        3    1    3    3  502    0 -0.91778397400E+03 -0.12142059328E+04 -0.44114995789E+02  0.15226850013E+04  0.10100000352E+00 0. -1.
       -3    1    3    3    0  502  0.91778397400E+03  0.12142059328E+04  0.97957503820E+03  0.18100250650E+04  0.10100000352E+00 0.  1.
</event>
<event>
 5   0  0.1146799E-06  0.3265022E+04  0.7818609E-02  0.8171853E-01
       -2   -1    0    0    0  501  0.00000000000E+00  0.00000000000E+00  0.15083806207E+04  0.15083806207E+04  0.25500000920E-02 0. -1.
        2   -1    0    0  501    0  0.00000000000E+00  0.00000000000E+00 -0.17668565201E+04  0.17668565201E+04  0.25500000920E-02 0.  1.
    10030    2    1    2    0    0  0.00000000000E+00  0.00000000000E+00 -0.25847589937E+03  0.32752371408E+04  0.32650219812E+04 0.  0.
        5    1    3    3  502    0 -0.92779382735E+03  0.51253170039E+03 -0.13747262789E+04  0.17359102977E+04  0.46999998093E+01 0.  1.
       -5    1    3    3    0  502  0.92779382735E+03 -0.51253170039E+03  0.11162503795E+04  0.15393268430E+04  0.46999998093E+01 0. -1.
</event>
<event>
 5   0  0.1146799E-06  0.3326411E+04  0.7818609E-02  0.8156207E-01
       -2   -1    0    0    0  501  0.00000000000E+00  0.00000000000E+00  0.12808931760E+04  0.12808931760E+04  0.25500000920E-02 0. -1.
        2   -1    0    0  501    0  0.00000000000E+00  0.00000000000E+00 -0.21596276472E+04  0.21596276472E+04  0.25500000920E-02 0.  1.
    10030    2    1    2    0    0  0.00000000000E+00  0.00000000000E+00 -0.87873447119E+03  0.34405208231E+04  0.33264108681E+04 0.  0.
        5    1    3    3  502    0 -0.78423360617E+03  0.13316444043E+04  0.19648264045E+03  0.15578596492E+04  0.46999998093E+01 0. -1.
       -5    1    3    3    0  502  0.78423360617E+03 -0.13316444043E+04 -0.10752171116E+04  0.18826611739E+04  0.46999998093E+01 0.  1.
</event>
<event>
 5   0  0.1116462E-06  0.3304435E+04  0.7818609E-02  0.8161768E-01
        2   -1    0    0  501    0  0.00000000000E+00  0.00000000000E+00  0.27812035869E+04  0.27812035869E+04  0.25500000920E-02 0.  1.
       -2   -1    0    0    0  501  0.00000000000E+00  0.00000000000E+00 -0.98152535663E+03  0.98152535664E+03  0.25500000920E-02 0. -1.
    10030    2    1    2    0    0  0.00000000000E+00  0.00000000000E+00  0.17996782303E+04  0.37627289435E+04  0.33044345008E+04 0.  0.
        1    1    3    3  502    0  0.21391076225E+03  0.78386194558E+03 -0.73830294953E+03  0.10978563700E+04  0.50400001928E-02 0. -1.
       -1    1    3    3    0  502 -0.21391076225E+03 -0.78386194558E+03  0.25379811798E+04  0.26648725735E+04  0.50400001928E-02 0.  1.
</event>
<event>
 5   0  0.3757406E-07  0.3273206E+04  0.7818609E-02  0.8169747E-01
       -1   -1    0    0    0  501  0.00000000000E+00  0.00000000000E+00  0.10974897886E+04  0.10974897886E+04  0.50400001928E-02 0.  1.
        1   -1    0    0  501    0  0.00000000000E+00  0.00000000000E+00 -0.24405414863E+04  0.24405414863E+04  0.50400001928E-02 0. -1.
    10030    2    1    2    0    0  0.00000000000E+00  0.00000000000E+00 -0.13430516977E+04  0.35380312750E+04  0.32732059880E+04 0.  0.
        1    1    3    3  502    0 -0.61045790532E+03  0.13324963836E+04  0.11558220964E+03  0.14702260757E+04  0.50400001928E-02 0.  1.
       -1    1    3    3    0  502  0.61045790532E+03 -0.13324963836E+04 -0.14586339074E+04  0.20678051993E+04  0.50400001928E-02 0. -1.
</event>
<event>
 5   0  0.3573375E-07  0.3272069E+04  0.7818609E-02  0.8170039E-01
       -3   -1    0    0    0  501  0.00000000000E+00  0.00000000000E+00  0.10484611693E+04  0.10484611742E+04  0.10100000352E+00 0. -1.
        3   -1    0    0  501    0  0.00000000000E+00  0.00000000000E+00 -0.25528928566E+04  0.25528928586E+04  0.10100000352E+00 0.  1.
    10030    2    1    2    0    0  0.00000000000E+00  0.00000000000E+00 -0.15044316873E+04  0.36013540327E+04  0.32720690958E+04 0.  0.
        3    1    3    3  502    0 -0.11518491103E+04 -0.11615241452E+04 -0.78163223566E+03  0.18129654367E+04  0.10100000352E+00 0. -1.
       -3    1    3    3    0  502  0.11518491103E+04  0.11615241452E+04 -0.72279945161E+03  0.17883885960E+04  0.10100000352E+00 0.  1.
</event>
<event>
 5   0  0.1146799E-06  0.3300010E+04  0.7818609E-02  0.8162893E-01
        2   -1    0    0  501    0  0.00000000000E+00  0.00000000000E+00  0.23668727608E+04  0.23668727609E+04  0.25500000920E-02 0.  1.
       -2   -1    0    0    0  501  0.00000000000E+00  0.00000000000E+00 -0.11502585876E+04  0.11502585877E+04  0.25500000920E-02 0. -1.
    10030    2    1    2    0    0  0.00000000000E+00  0.00000000000E+00  0.12166141732E+04  0.35171313485E+04  0.33000095267E+04 0.  0.
        5    1    3    3  502    0 -0.76326019928E+03 -0.10431763949E+04 -0.48469628114E+03  0.13804838636E+04  0.46999998093E+01 0. -1.
       -5    1    3    3    0  502  0.76326019928E+03  0.10431763949E+04  0.17013104543E+04  0.21366474849E+04  0.46999998093E+01 0.  1.
</event>
<event>
 5   0  0.1126221E-06  0.3305012E+04  0.7818609E-02  0.8161621E-01
        2   -1    0    0  501    0  0.00000000000E+00  0.00000000000E+00  0.14811375462E+04  0.14811375462E+04  0.25500000920E-02 0. -1.
       -2   -1    0    0    0  501  0.00000000000E+00  0.00000000000E+00 -0.18437023086E+04  0.18437023086E+04  0.25500000920E-02 0.  1.
    10030    2    1    2    0    0  0.00000000000E+00  0.00000000000E+00 -0.36256476241E+03  0.33248398548E+04  0.33050123832E+04 0.  0.
        2    1    3    3  502    0  0.27131985711E+03  0.11314169828E+04 -0.13618034297E+04  0.17911525437E+04  0.25500000920E-02 0.  1.
       -2    1    3    3    0  502 -0.27131985711E+03 -0.11314169828E+04  0.99923866728E+03  0.15336873110E+04  0.25500000920E-02 0. -1.
</event>
<event>
 5   0  0.1129434E-06  0.3183739E+04  0.7818609E-02  0.8193125E-01
        2   -1    0    0  501    0  0.00000000000E+00  0.00000000000E+00  0.18495427010E+04  0.18495427010E+04  0.25500000920E-02 0. -1.
       -2   -1    0    0    0  501  0.00000000000E+00  0.00000000000E+00 -0.13700947700E+04  0.13700947700E+04  0.25500000920E-02 0.  1.
    10030    2    1    2    0    0  0.00000000000E+00  0.00000000000E+00  0.47944793101E+03  0.32196374710E+04  0.31837391737E+04 0.  0.
        3    1    3    3  502    0 -0.86696395353E+03 -0.11474892502E+04  0.92983388884E+03  0.17125855153E+04  0.10100000352E+00 0. -1.
       -3    1    3    3    0  502  0.86696395353E+03  0.11474892502E+04 -0.45038595783E+03  0.15070519557E+04  0.10100000352E+00 0.  1.
</event>
<event>
 5   0  0.3757406E-07  0.3315076E+04  0.7818609E-02  0.8159070E-01
        1   -1    0    0  501    0  0.00000000000E+00  0.00000000000E+00  0.18141815780E+04  0.18141815780E+04  0.50400001928E-02 0.  1.
       -1   -1    0    0    0  501  0.00000000000E+00  0.00000000000E+00 -0.15144196864E+04  0.15144196864E+04  0.50400001928E-02 0. -1.
    10030    2    1    2    0    0  0.00000000000E+00  0.00000000000E+00  0.29976189163E+03  0.33286012644E+04  0.33150760452E+04 0.  0.
        1    1    3    3  502    0 -0.75943479873E+03 -0.78320987801E+03 -0.11031180043E+04  0.15514600407E+04  0.50400001928E-02 0. -1.
       -1    1    3    3    0  502  0.75943479873E+03  0.78320987801E+03  0.14028798959E+04  0.17771412237E+04  0.50400001928E-02 0.  1.
</event>
<event>
 5   0  0.1129434E-06  0.3264891E+04  0.7818609E-02  0.8171887E-01
        2   -1    0    0  501    0  0.00000000000E+00  0.00000000000E+00  0.14776285161E+04  0.14776285161E+04  0.25500000920E-02 0.  1.
       -2   -1    0    0    0  501  0.00000000000E+00  0.00000000000E+00 -0.18034832954E+04  0.18034832954E+04  0.25500000920E-02 0. -1.
    10030    2    1    2    0    0  0.00000000000E+00  0.00000000000E+00 -0.32585477930E+03  0.32811118115E+04  0.32648910215E+04 0.  0.
        3    1    3    3  502    0  0.85378417796E+03 -0.39595123933E+03 -0.15034034239E+04  0.17736816715E+04  0.10100000352E+00 0. -1.
       -3    1    3    3    0  502 -0.85378417796E+03  0.39595123933E+03  0.11775486446E+04  0.15074301400E+04  0.10100000352E+00 0.  1.
</event>
<event>
 5   0  0.1146799E-06  0.3323231E+04  0.7818609E-02  0.8157009E-01
        2   -1    0    0  501    0  0.00000000000E+00  0.00000000000E+00  0.23544508745E+04  0.23544508745E+04  0.25500000920E-02 0.  1.
       -2   -1    0    0    0  501  0.00000000000E+00  0.00000000000E+00 -0.11726584275E+04  0.11726584275E+04  0.25500000920E-02 0. -1.
    10030    2    1    2    0    0  0.00000000000E+00  0.00000000000E+00  0.11817924471E+04  0.35271093020E+04  0.33232313553E+04 0.  0.
        5    1    3    3  502    0 -0.69211481171E+02  0.13297124905E+04  0.16458683785E+04  0.21170333833E+04  0.46999998093E+01 0.  1.
       -5    1    3    3    0  502  0.69211481171E+02 -0.13297124905E+04 -0.46407593146E+03  0.14100759188E+04  0.46999998093E+01 0. -1.
</event>
<event>
 5   0  0.3757406E-07  0.3095390E+04  0.7818609E-02  0.8217004E-01
        1   -1    0    0  501    0  0.00000000000E+00  0.00000000000E+00  0.84881650331E+03  0.84881650332E+03  0.50400001928E-02 0.  1.
       -1   -1    0    0    0  501  0.00000000000E+00  0.00000000000E+00 -0.28219999539E+04  0.28219999539E+04  0.50400001928E-02 0. -1.
    10030    2    1    2    0    0  0.00000000000E+00  0.00000000000E+00 -0.19731834506E+04  0.36708164572E+04  0.30953902069E+04 0.  0.
        1    1    3    3  502    0  0.94282942893E+03 -0.12086011033E+04 -0.12401525792E+04  0.19717054493E+04  0.50400001928E-02 0. -1.
       -1    1    3    3    0  502 -0.94282942893E+03  0.12086011033E+04 -0.73303087134E+03  0.16991110079E+04  0.50400001928E-02 0.  1.
</event>
<event>
 5   0  0.3674967E-07  0.3288607E+04  0.7818609E-02  0.8165800E-01
        1   -1    0    0  501    0  0.00000000000E+00  0.00000000000E+00  0.23327663606E+04  0.23327663606E+04  0.50400001928E-02 0. -1.
       -1   -1    0    0    0  501  0.00000000000E+00  0.00000000000E+00 -0.11590248513E+04  0.11590248513E+04  0.50400001928E-02 0.  1.
    10030    2    1    2    0    0  0.00000000000E+00  0.00000000000E+00  0.11737415093E+04  0.34917912120E+04  0.32886071120E+04 0.  0.
        2    1    3    3  502    0 -0.95232492101E+03 -0.75671557548E+03 -0.58792188261E+03  0.13509971715E+04  0.25500000920E-02 0.  1.
       -2    1    3    3    0  502  0.95232492101E+03  0.75671557548E+03  0.17616633919E+04  0.21407940405E+04  0.25500000920E-02 0. -1.
</event>
<event>
 5   0  0.1120545E-06  0.3263462E+04  0.7818609E-02  0.8172255E-01
       -2   -1    0    0    0  501  0.00000000000E+00  0.00000000000E+00  0.17491097441E+04  0.17491097441E+04  0.25500000920E-02 0.  1.
        2   -1    0    0  501    0  0.00000000000E+00  0.00000000000E+00 -0.15222292067E+04  0.15222292067E+04  0.25500000920E-02 0. -1.
    10030    2    1    2    0    0  0.00000000000E+00  0.00000000000E+00  0.22688053738E+03  0.32713389508E+04  0.32634619276E+04 0.  0.
        4    1    3    3  502    0  0.61889940515E+03  0.15064245820E+04  0.12237033507E+02  0.16286506233E+04  0.12699999809E+01 0.  1.
       -4    1    3    3    0  502 -0.61889940515E+03 -0.15064245820E+04  0.21464350388E+03  0.16426883275E+04  0.12699999809E+01 0. -1.
</event>
<event>
 5   0  0.1120545E-06  0.3299206E+04  0.7818609E-02  0.8163097E-01
        2   -1    0    0  501    0  0.00000000000E+00  0.00000000000E+00  0.18196573263E+04  0.18196573263E+04  0.25500000920E-02 0. -1.
       -2   -1    0    0    0  501  0.00000000000E+00  0.00000000000E+00 -0.14954413401E+04  0.14954413401E+04  0.25500000920E-02 0.  1.
    10030    2    1    2    0    0  0.00000000000E+00  0.00000000000E+00  0.32421598622E+03  0.33150986665E+04  0.32992064444E+04 0.  0.
        4    1    3    3  502    0  0.63386047127E+03 -0.12822960837E+04  0.98772694208E+03  0.17382947012E+04  0.12699999809E+01 0. -1.
       -4    1    3    3    0  502 -0.63386047127E+03  0.12822960837E+04 -0.66351095586E+03  0.15768039652E+04  0.12699999809E+01 0.  1.
</event>
<event>
 5   0  0.1126221E-06  0.3240312E+04  0.7818609E-02  0.8178251E-01
       -2   -1    0    0    0  501  0.00000000000E+00  0.00000000000E+00  0.19246777660E+04  0.19246777660E+04  0.25500000920E-02 0.  1.
        2   -1    0    0  501    0  0.00000000000E+00  0.00000000000E+00 -0.13638158327E+04  0.13638158327E+04  0.25500000920E-02 0. -1.
    10030    2    1    2    0    0  0.00000000000E+00  0.00000000000E+00  0.56086193327E+03  0.32884935986E+04  0.32403123368E+04 0.  0.
        2    1    3    3  502    0 -0.70840920922E+03  0.66126653701E+03  0.15981163558E+04  0.18689817890E+04  0.25500000920E-02 0.  1.
       -2    1    3    3    0  502  0.70840920922E+03 -0.66126653701E+03 -0.10372544226E+04  0.14195118097E+04  0.25500000920E-02 0. -1.
</event>
<event>
 5   0  0.1116462E-06  0.3279000E+04  0.7818609E-02  0.8168260E-01
        2   -1    0    0  501    0  0.00000000000E+00  0.00000000000E+00  0.17980272866E+04  0.17980272866E+04  0.25500000920E-02 0.  1.
       -2   -1    0    0    0  501  0.00000000000E+00  0.00000000000E+00 -0.14949493438E+04  0.14949493438E+04  0.25500000920E-02 0. -1.
    10030    2    1    2    0    0  0.00000000000E+00  0.00000000000E+00  0.30307794279E+03  0.32929766303E+04  0.32789996719E+04 0.  0.
        1    1    3    3  502    0  0.45527044305E+03  0.87401093746E+03  0.14673886995E+04  0.17675960767E+04  0.50400001928E-02 0.  1.
       -1    1    3    3    0  502 -0.45527044305E+03 -0.87401093746E+03 -0.11643107567E+04  0.15253805536E+04  0.50400001928E-02 0. -1.
</event>
<event>
 5   0  0.1120545E-06  0.3322915E+04  0.7818609E-02  0.8157089E-01
       -2   -1    0    0    0  501  0.00000000000E+00  0.00000000000E+00  0.97184499973E+03  0.97184499973E+03  0.25500000920E-02 0. -1.
        2   -1    0    0  501    0  0.00000000000E+00  0.00000000000E+00 -0.28404126033E+04  0.28404126033E+04  0.25500000920E-02 0.  1.
    10030    2    1    2    0    0  0.00000000000E+00  0.00000000000E+00 -0.18685676036E+04  0.38122576031E+04  0.33229148564E+04 0.  0.
        4    1    3    3  502    0 -0.11285879397E+04  0.89227785431E+03  0.19097126960E+02  0.14388317553E+04  0.12699999809E+01 0. -1.
       -4    1    3    3    0  502  0.11285879397E+04 -0.89227785431E+03 -0.18876647306E+04  0.23734258478E+04  0.12699999809E+01 0.  1.
</event>
<event>
 5   0  0.1146799E-06  0.3297120E+04  0.7818609E-02  0.8163628E-01
       -2   -1    0    0    0  501  0.00000000000E+00  0.00000000000E+00  0.11309425091E+04  0.11309425091E+04  0.25500000920E-02 0. -1.
        2   -1    0    0  501    0  0.00000000000E+00  0.00000000000E+00 -0.24030848760E+04  0.24030848760E+04  0.25500000920E-02 0.  1.
    10030    2    1    2    0    0  0.00000000000E+00  0.00000000000E+00 -0.12721423669E+04  0.35340273850E+04  0.32971204644E+04 0.  0.
        5    1    3    3  502    0 -0.10065648488E+04 -0.84907048405E+03  0.42697502154E+03  0.13843493926E+04  0.46999998093E+01 0. -1.
       -5    1    3    3    0  502  0.10065648488E+04  0.84907048405E+03 -0.16991173884E+04  0.21496779925E+04  0.46999998093E+01 0.  1.
</event>
<event>
 5   0  0.3749685E-07  0.3293763E+04  0.7818609E-02  0.8164484E-01
        1   -1    0    0  501    0  0.00000000000E+00  0.00000000000E+00  0.14717200262E+04  0.14717200262E+04  0.50400001928E-02 0.  1.
       -1   -1    0    0    0  501  0.00000000000E+00  0.00000000000E+00 -0.18428906796E+04  0.18428906796E+04  0.50400001928E-02 0. -1.
    10030    2    1    2    0    0  0.00000000000E+00  0.00000000000E+00 -0.37117065341E+03  0.33146107058E+04  0.32937632697E+04 0.  0.
        3    1    3    3  502    0  0.10617265315E+04 -0.42878082268E+03  0.10055885503E+04  0.15239175057E+04  0.10100000352E+00 0.  1.
       -3    1    3    3    0  502 -0.10617265315E+04  0.42878082268E+03 -0.13767592037E+04  0.17906932001E+04  0.10100000352E+00 0. -1.
</event>
<event>
 5   0  0.3749685E-07  0.3253436E+04  0.7818609E-02  0.8174846E-01
        1   -1    0    0  501    0  0.00000000000E+00  0.00000000000E+00  0.29341112917E+04  0.29341112917E+04  0.50400001928E-02 0.  1.
       -1   -1    0    0    0  501  0.00000000000E+00  0.00000000000E+00 -0.90187859243E+03  0.90187859244E+03  0.50400001928E-02 0. -1.
    10030    2    1    2    0    0  0.00000000000E+00  0.00000000000E+00  0.20322326993E+04  0.38359898841E+04  0.32534364366E+04 0.  0.
        3    1    3    3  502    0 -0.45198782571E+02  0.14544559749E+04  0.18734520079E+04  0.23721946693E+04  0.10100000352E+00 0.  1.
       -3    1    3    3    0  502  0.45198782571E+02 -0.14544559749E+04  0.15878069132E+03  0.14637952148E+04  0.10100000352E+00 0. -1.
</event>
<event>
 5   0  0.3709747E-07  0.3292258E+04  0.7818609E-02  0.8164868E-01
       -1   -1    0    0    0  501  0.00000000000E+00  0.00000000000E+00  0.19974984020E+04  0.19974984020E+04  0.50400001928E-02 0. -1.
        1   -1    0    0  501    0  0.00000000000E+00  0.00000000000E+00 -0.13565672372E+04  0.13565672372E+04  0.50400001928E-02 0.  1.
    10030    2    1    2    0    0  0.00000000000E+00  0.00000000000E+00  0.64093116483E+03  0.33540656393E+04  0.32922581239E+04 0.  0.
        4    1    3    3  502    0  0.10083965601E+04 -0.11181336442E+04  0.99827764104E+03  0.18065564840E+04  0.12699999809E+01 0. -1.
       -4    1    3    3    0  502 -0.10083965601E+04  0.11181336442E+04 -0.35734647621E+03  0.15475091552E+04  0.12699999809E+01 0.  1.
</event>
<event>
 5   0  0.3757406E-07  0.3325247E+04  0.7818609E-02  0.8156501E-01
        1   -1    0    0  501    0  0.00000000000E+00  0.00000000000E+00  0.13490432594E+04  0.13490432594E+04  0.50400001928E-02 0. -1.
       -1   -1    0    0    0  501  0.00000000000E+00  0.00000000000E+00 -0.20490942526E+04  0.20490942526E+04  0.50400001928E-02 0.  1.
    10030    2    1    2    0    0  0.00000000000E+00  0.00000000000E+00 -0.70005099321E+03  0.33981375120E+04  0.33252469318E+04 0.  0.
        1    1    3    3  502    0 -0.11602556876E+04  0.17009463882E+03  0.85445031272E+03  0.14509344519E+04  0.50400001928E-02 0. -1.
       -1    1    3    3    0  502  0.11602556876E+04 -0.17009463882E+03 -0.15545013059E+04  0.19472030600E+04  0.50400001928E-02 0.  1.
</event>
<event>
 5   0  0.1116462E-06  0.3363617E+04  0.7818609E-02  0.8146894E-01
       -2   -1    0    0    0  501  0.00000000000E+00  0.00000000000E+00  0.15712875859E+04  0.15712875859E+04  0.25500000920E-02 0.  1.
        2   -1    0    0  501    0  0.00000000000E+00  0.00000000000E+00 -0.18001035372E+04  0.18001035372E+04  0.25500000920E-02 0. -1.
    10030    2    1    2    0    0  0.00000000000E+00  0.00000000000E+00 -0.22881595137E+03  0.33713911231E+04  0.33636173036E+04 0.  0.
        1    1    3    3  502    0 -0.39690427087E+02 -0.12806352755E+04  0.97754932496E+03  0.16115845375E+04  0.50400001928E-02 0.  1.
       -1    1    3    3    0  502  0.39690427087E+02  0.12806352755E+04 -0.12063652763E+04  0.17598065856E+04  0.50400001928E-02 0. -1.
</event>
<event>
 5   0  0.1120545E-06  0.3242508E+04  0.7818609E-02  0.8177680E-01
       -2   -1    0    0    0  501  0.00000000000E+00  0.00000000000E+00  0.19670046334E+04  0.19670046334E+04  0.25500000920E-02 0. -1.
        2   -1    0    0  501    0  0.00000000000E+00  0.00000000000E+00 -0.13362776959E+04  0.13362776959E+04  0.25500000920E-02 0.  1.
    10030    2    1    2    0    0  0.00000000000E+00  0.00000000000E+00  0.63072693747E+03  0.33032823293E+04  0.32425079302E+04 0.  0.
        4    1    3    3  502    0 -0.35625760565E+02  0.15612953991E+04 -0.12817048519E+03  0.15669530319E+04  0.12699999809E+01 0. -1.
       -4    1    3    3    0  502  0.35625760565E+02 -0.15612953991E+04  0.75889742266E+03  0.17363292974E+04  0.12699999809E+01 0.  1.
</event>
<event>
 5   0  0.1126221E-06  0.2926033E+04  0.7818609E-02  0.8265174E-01
       -2   -1    0    0    0  501  0.00000000000E+00  0.00000000000E+00  0.22285706089E+04  0.22285706089E+04  0.25500000920E-02 0.  1.
        2   -1    0    0  501    0  0.00000000000E+00  0.00000000000E+00 -0.96044398894E+03  0.96044398894E+03  0.25500000920E-02 0. -1.
    10030    2    1    2    0    0  0.00000000000E+00  0.00000000000E+00  0.12681266200E+04  0.31890145979E+04  0.29260329768E+04 0.  0.
        2    1    3    3  502    0 -0.35951574218E+03 -0.11246661847E+04  0.15755877154E+04  0.19689088971E+04  0.25500000920E-02 0.  1.
       -2    1    3    3    0  502  0.35951574218E+03  0.11246661847E+04 -0.30746109541E+03  0.12201057008E+04  0.25500000920E-02 0. -1.
</event>
<event>
 5   0  0.3573375E-07  0.3307931E+04  0.7818609E-02  0.8160880E-01
        3   -1    0    0  501    0  0.00000000000E+00  0.00000000000E+00  0.11234846201E+04  0.11234846247E+04  0.10100000352E+00 0.  1.
       -3   -1    0    0    0  501  0.00000000000E+00  0.00000000000E+00 -0.24349259047E+04  0.24349259068E+04  0.10100000352E+00 0. -1.
    10030    2    1    2    0    0  0.00000000000E+00  0.00000000000E+00 -0.13114412846E+04  0.35584105315E+04  0.33079309648E+04 0.  0.
        2    1    3    3  502    0 -0.62114294795E+03 -0.13462347069E+04 -0.14443314699E+04  0.20698453669E+04  0.25500000920E-02 0. -1.
       -2    1    3    3    0  502  0.62114294795E+03  0.13462347069E+04  0.13289018530E+03  0.14885651646E+04  0.25500000920E-02 0.  1.
</event>
<event>
 5   0  0.3749685E-07  0.3283191E+04  0.7818609E-02  0.8167186E-01
        1   -1    0    0  501    0  0.00000000000E+00  0.00000000000E+00  0.22789900652E+04  0.22789900652E+04  0.50400001928E-02 0. -1.
       -1   -1    0    0    0  501  0.00000000000E+00  0.00000000000E+00 -0.11824692252E+04  0.11824692252E+04  0.50400001928E-02 0.  1.
    10030    2    1    2    0    0  0.00000000000E+00  0.00000000000E+00  0.10965208400E+04  0.34614592904E+04  0.32831908971E+04 0.  0.
        3    1    3    3  502    0 -0.69190592293E+03 -0.78279970139E+03 -0.78671745758E+03  0.13078354434E+04  0.10100000352E+00 0.  1.
       -3    1    3    3    0  502  0.69190592293E+03  0.78279970139E+03  0.18832382976E+04  0.21536238470E+04  0.10100000352E+00 0. -1.
</event>
<event>
 5   0  0.1116462E-06  0.3247021E+04  0.7818609E-02  0.8176508E-01
        2   -1    0    0  501    0  0.00000000000E+00  0.00000000000E+00  0.90614817723E+03  0.90614817723E+03  0.25500000920E-02 0. -1.
       -2   -1    0    0    0  501  0.00000000000E+00  0.00000000000E+00 -0.29087809065E+04  0.29087809066E+04  0.25500000920E-02 0.  1.
    10030    2    1    2    0    0  0.00000000000E+00  0.00000000000E+00 -0.20026327293E+04  0.38149290838E+04  0.32470211065E+04 0.  0.
        1    1    3    3  502    0 -0.32789937423E+03 -0.15497310033E+04 -0.14193605760E+04  0.21269152843E+04  0.50400001928E-02 0.  1.
       -1    1    3    3    0  502  0.32789937423E+03  0.15497310033E+04 -0.58327215336E+03  0.16880137994E+04  0.50400001928E-02 0. -1.
</event>
<event>
 5   0  0.3709747E-07  0.3338145E+04  0.7818609E-02  0.8153257E-01
        1   -1    0    0  501    0  0.00000000000E+00  0.00000000000E+00  0.10922918361E+04  0.10922918361E+04  0.50400001928E-02 0.  1.
       -1   -1    0    0    0  501  0.00000000000E+00  0.00000000000E+00 -0.25504196291E+04  0.25504196291E+04  0.50400001928E-02 0. -1.
    10030    2    1    2    0    0  0.00000000000E+00  0.00000000000E+00 -0.14581277930E+04  0.36427114652E+04  0.33381447179E+04 0.  0.
        4    1    3    3  502    0 -0.63243645901E+03  0.48250213511E+03  0.87212774903E+03  0.11804205219E+04  0.12699999809E+01 0.  1.
       -4    1    3    3    0  502  0.63243645901E+03 -0.48250213511E+03 -0.23302555420E+04  0.24622909432E+04  0.12699999809E+01 0. -1.
</event>
<event>
 5   0  0.3749685E-07  0.3294532E+04  0.7818609E-02  0.8164288E-01
        1   -1    0    0  501    0  0.00000000000E+00  0.00000000000E+00  0.14157525778E+04  0.14157525778E+04  0.50400001928E-02 0.  1.
       -1   -1    0    0    0  501  0.00000000000E+00  0.00000000000E+00 -0.19166384459E+04  0.19166384459E+04  0.50400001928E-02 0. -1.
    10030    2    1    2    0    0  0.00000000000E+00  0.00000000000E+00 -0.50088586810E+03  0.33323910237E+04  0.32945323313E+04 0.  0.
        3    1    3    3  502    0 -0.13581631998E+04  0.55762908634E+03 -0.10059723731E+04  0.17797578208E+04  0.10100000352E+00 0. -1.
       -3    1    3    3    0  502  0.13581631998E+04 -0.55762908634E+03  0.50508650496E+03  0.15526332029E+04  0.10100000352E+00 0.  1.
</event>
<event>
 5   0  0.3757406E-07  0.3299304E+04  0.7818609E-02  0.8163073E-01
        1   -1    0    0  501    0  0.00000000000E+00  0.00000000000E+00  0.21663357799E+04  0.21663357799E+04  0.50400001928E-02 0.  1.
       -1   -1    0    0    0  501  0.00000000000E+00  0.00000000000E+00 -0.12562000830E+04  0.12562000830E+04  0.50400001928E-02 0. -1.
    10030    2    1    2    0    0  0.00000000000E+00  0.00000000000E+00  0.91013569686E+03  0.34225358629E+04  0.32993036759E+04 0.  0.
        1    1    3    3  502    0  0.12112027961E+04 -0.29162484731E+03  0.15767958537E+04  0.20095627458E+04  0.50400001928E-02 0.  1.
       -1    1    3    3    0  502 -0.12112027961E+04  0.29162484731E+03 -0.66666015686E+03  0.14129731171E+04  0.50400001928E-02 0. -1.
</event>
<event>
 5   0  0.3573375E-07  0.3309882E+04  0.7818609E-02  0.8160385E-01
       -3   -1    0    0    0  501  0.00000000000E+00  0.00000000000E+00  0.13541954600E+04  0.13541954637E+04  0.10100000352E+00 0. -1.
        3   -1    0    0  501    0  0.00000000000E+00  0.00000000000E+00 -0.20224777161E+04  0.20224777186E+04  0.10100000352E+00 0.  1.
    10030    2    1    2    0    0  0.00000000000E+00  0.00000000000E+00 -0.66828225614E+03  0.33766731824E+04  0.33098822648E+04 0.  0.
        2    1    3    3  502    0  0.15795044900E+04  0.11787990815E+03  0.15522604632E+03  0.15914852284E+04  0.25500000920E-02 0. -1.
       -2    1    3    3    0  502 -0.15795044900E+04 -0.11787990815E+03 -0.82350830246E+03  0.17851879540E+04  0.25500000920E-02 0.  1.
</event>
<event>
 5   0  0.3749685E-07  0.3255961E+04  0.7818609E-02  0.8174192E-01
       -1   -1    0    0    0  501  0.00000000000E+00  0.00000000000E+00  0.12716467343E+04  0.12716467343E+04  0.50400001928E-02 0. -1.
        1   -1    0    0  501    0  0.00000000000E+00  0.00000000000E+00 -0.20841646173E+04  0.20841646173E+04  0.50400001928E-02 0.  1.
    10030    2    1    2    0    0  0.00000000000E+00  0.00000000000E+00 -0.81251788301E+03  0.33558113516E+04  0.32559613814E+04 0.  0.
        3    1    3    3  502    0  0.10035277603E+04  0.12273436037E+04 -0.78757896561E+03  0.17702318844E+04  0.10100000352E+00 0. -1.
       -3    1    3    3    0  502 -0.10035277603E+04 -0.12273436037E+04 -0.24938917397E+02  0.15855794672E+04  0.10100000352E+00 0.  1.
</event>
<event>
 5   0  0.1120545E-06  0.3304167E+04  0.7818609E-02  0.8161836E-01
        2   -1    0    0  501    0  0.00000000000E+00  0.00000000000E+00  0.26112414306E+04  0.26112414306E+04  0.25500000920E-02 0.  1.
       -2   -1    0    0    0  501  0.00000000000E+00  0.00000000000E+00 -0.10452422194E+04  0.10452422194E+04  0.25500000920E-02 0. -1.
    10030    2    1    2    0    0  0.00000000000E+00  0.00000000000E+00  0.15659992112E+04  0.36564836500E+04  0.33041669379E+04 0.  0.
        4    1    3    3  502    0 -0.64831939867E+03 -0.11473531368E+04  0.18855482003E+04  0.23004414558E+04  0.12699999809E+01 0.  1.
       -4    1    3    3    0  502  0.64831939867E+03  0.11473531368E+04 -0.31954898911E+03  0.13560421942E+04  0.12699999809E+01 0. -1.
</event>
<event>
 5   0  0.1116462E-06  0.3281156E+04  0.7818609E-02  0.8167707E-01
        2   -1    0    0  501    0  0.00000000000E+00  0.00000000000E+00  0.18596444544E+04  0.18596444544E+04  0.25500000920E-02 0. -1.
       -2   -1    0    0    0  501  0.00000000000E+00  0.00000000000E+00 -0.14473173714E+04  0.14473173714E+04  0.25500000920E-02 0.  1.
    10030    2    1    2    0    0  0.00000000000E+00  0.00000000000E+00  0.41232708300E+03  0.33069618258E+04  0.32811557253E+04 0.  0.
        1    1    3    3  502    0 -0.83045394934E+03  0.10000045887E+04  0.12149516604E+04  0.17792612165E+04  0.50400001928E-02 0. -1.
       -1    1    3    3    0  502  0.83045394934E+03 -0.10000045887E+04 -0.80262457739E+03  0.15277006093E+04  0.50400001928E-02 0.  1.
</event>
<event>
 5   0  0.3709747E-07  0.3269251E+04  0.7818609E-02  0.8170764E-01
       -1   -1    0    0    0  501  0.00000000000E+00  0.00000000000E+00  0.12214329559E+04  0.12214329559E+04  0.50400001928E-02 0.  1.
        1   -1    0    0  501    0  0.00000000000E+00  0.00000000000E+00 -0.21875944875E+04  0.21875944875E+04  0.50400001928E-02 0. -1.
    10030    2    1    2    0    0  0.00000000000E+00  0.00000000000E+00 -0.96616153163E+03  0.34090274433E+04  0.32692506793E+04 0.  0.
        4    1    3    3  502    0 -0.11019902674E+04 -0.11025554998E+04 -0.99603483536E+03  0.18498913984E+04  0.12699999809E+01 0. -1.
       -4    1    3    3    0  502  0.11019902674E+04  0.11025554998E+04  0.29873303728E+02  0.15591360450E+04  0.12699999809E+01 0.  1.
</event>
<event>
 5   0  0.1146799E-06  0.3339990E+04  0.7818609E-02  0.8152794E-01
       -2   -1    0    0    0  501  0.00000000000E+00  0.00000000000E+00  0.13113411080E+04  0.13113411080E+04  0.25500000920E-02 0. -1.
        2   -1    0    0  501    0  0.00000000000E+00  0.00000000000E+00 -0.21267406886E+04  0.21267406886E+04  0.25500000920E-02 0.  1.
    10030    2    1    2    0    0  0.00000000000E+00  0.00000000000E+00 -0.81539958060E+03  0.34380817967E+04  0.33399895156E+04 0.  0.
        5    1    3    3  502    0 -0.37442936813E+03  0.33183102247E+03  0.12323765624E+04  0.13300688932E+04  0.46999998093E+01 0. -1.
       -5    1    3    3    0  502  0.37442936813E+03 -0.33183102247E+03 -0.20477761430E+04  0.21080129034E+04  0.46999998093E+01 0.  1.
</event>
<event>
 5   0  0.3709747E-07  0.3353771E+04  0.7818609E-02  0.8149347E-01
       -1   -1    0    0    0  501  0.00000000000E+00  0.00000000000E+00  0.10031430785E+04  0.10031430785E+04  0.50400001928E-02 0. -1.
        1   -1    0    0  501    0  0.00000000000E+00  0.00000000000E+00 -0.28031342173E+04  0.28031342173E+04  0.50400001928E-02 0.  1.
    10030    2    1    2    0    0  0.00000000000E+00  0.00000000000E+00 -0.17999911388E+04  0.38062772957E+04  0.33537708258E+04 0.  0.
        4    1    3    3  502    0  0.42427800562E+02 -0.12408213631E+04 -0.21792451485E+04  0.25080966495E+04  0.12699999809E+01 0.  1.
       -4    1    3    3    0  502 -0.42427800562E+02  0.12408213631E+04  0.37925400966E+03  0.12981806462E+04  0.12699999809E+01 0. -1.
</event>
<event>
 5   0  0.3757406E-07  0.3320157E+04  0.7818609E-02  0.8157785E-01
       -1   -1    0    0    0  501  0.00000000000E+00  0.00000000000E+00  0.15035481415E+04  0.15035481415E+04  0.50400001928E-02 0. -1.
        1   -1    0    0  501    0  0.00000000000E+00  0.00000000000E+00 -0.18329051459E+04  0.18329051459E+04  0.50400001928E-02 0.  1.
    10030    2    1    2    0    0  0.00000000000E+00  0.00000000000E+00 -0.32935700433E+03  0.33364532874E+04  0.33201573009E+04 0.  0.
        1    1    3    3  502    0 -0.90127427682E+03 -0.80415904250E+02 -0.15633067872E+04  0.18062918232E+04  0.50400001928E-02 0.  1.
       -1    1    3    3    0  502  0.90127427682E+03  0.80415904250E+02  0.12339497829E+04  0.15301614642E+04  0.50400001928E-02 0. -1.
</event>
<event>
 5   0  0.3749685E-07  0.3288700E+04  0.7818609E-02  0.8165777E-01
        1   -1    0    0  501    0  0.00000000000E+00  0.00000000000E+00  0.90410598787E+03  0.90410598788E+03  0.50400001928E-02 0.  1.
       -1   -1    0    0    0  501  0.00000000000E+00  0.00000000000E+00 -0.29906754925E+04  0.29906754925E+04  0.50400001928E-02 0. -1.
    10030    2    1    2    0    0  0.00000000000E+00  0.00000000000E+00 -0.20865695046E+04  0.38947814804E+04  0.32887004245E+04 0.  0.
        3    1    3    3  502    0  0.79256360556E+03  0.69754610173E+03  0.44965606318E+03  0.11475705722E+04  0.10100000352E+00 0.  1.
       -3    1    3    3    0  502 -0.79256360556E+03 -0.69754610173E+03 -0.25362255678E+04  0.27472109082E+04  0.10100000352E+00 0. -1.
</event>
<event>
 5   0  0.3749685E-07  0.3212022E+04  0.7818609E-02  0.8185650E-01
       -1   -1    0    0    0  501  0.00000000000E+00  0.00000000000E+00  0.12728205121E+04  0.12728205121E+04  0.50400001928E-02 0. -1.
        1   -1    0    0  501    0  0.00000000000E+00  0.00000000000E+00 -0.20264212867E+04  0.20264212867E+04  0.50400001928E-02 0.  1.
    10030    2    1    2    0    0  0.00000000000E+00  0.00000000000E+00 -0.75360077466E+03  0.32992417988E+04  0.32120215316E+04 0.  0.
        3    1    3    3  502    0 -0.55183467905E+03 -0.11998220422E+04  0.56189510628E+03  0.14352074995E+04  0.10100000352E+00 0. -1.
       -3    1    3    3    0  502  0.55183467905E+03  0.11998220422E+04 -0.13154958809E+04  0.18640342993E+04  0.10100000352E+00 0.  1.
</event>
<event>
 5   0  0.1146799E-06  0.3257605E+04  0.7818609E-02  0.8173767E-01
        2   -1    0    0  501    0  0.00000000000E+00  0.00000000000E+00  0.21519889616E+04  0.21519889616E+04  0.25500000920E-02 0.  1.
       -2   -1    0    0    0  501  0.00000000000E+00  0.00000000000E+00 -0.12328117988E+04  0.12328117988E+04  0.25500000920E-02 0. -1.
    10030    2    1    2    0    0  0.00000000000E+00  0.00000000000E+00  0.91917716278E+03  0.33848007604E+04  0.32576048765E+04 0.  0.
        5    1    3    3  502    0 -0.25887391724E+02 -0.87943588311E+03 -0.96466154479E+03  0.13056307348E+04  0.46999998093E+01 0. -1.
       -5    1    3    3    0  502  0.25887391724E+02  0.87943588311E+03  0.18838387076E+04  0.20791700257E+04  0.46999998093E+01 0.  1.
</event>
<event>
 5   0  0.1116462E-06  0.3308841E+04  0.7818609E-02  0.8160649E-01
       -2   -1    0    0    0  501  0.00000000000E+00  0.00000000000E+00  0.95582542957E+03  0.95582542958E+03  0.25500000920E-02 0.  1.
        2   -1    0    0  501    0  0.00000000000E+00  0.00000000000E+00 -0.28636053979E+04  0.28636053979E+04  0.25500000920E-02 0. -1.
    10030    2    1    2    0    0  0.00000000000E+00  0.00000000000E+00 -0.19077799683E+04  0.38194308274E+04  0.33088407998E+04 0.  0.
        1    1    3    3  502    0  0.66101130150E+03  0.83791559227E+03  0.50532894916E+03  0.11808453867E+04  0.50400001928E-02 0.  1.
       -1    1    3    3    0  502 -0.66101130150E+03 -0.83791559227E+03 -0.24131089174E+04  0.26385854407E+04  0.50400001928E-02 0. -1.
</event>
<event>
 5   0  0.3709747E-07  0.3251308E+04  0.7818609E-02  0.8175397E-01
       -1   -1    0    0    0  501  0.00000000000E+00  0.00000000000E+00  0.14065445523E+04  0.14065445523E+04  0.50400001928E-02 0.  1.
        1   -1    0    0  501    0  0.00000000000E+00  0.00000000000E+00 -0.18788962483E+04  0.18788962483E+04  0.50400001928E-02 0. -1.
    10030    2    1    2    0    0  0.00000000000E+00  0.00000000000E+00 -0.47235169603E+03  0.32854408007E+04  0.32513082182E+04 0.  0.
        4    1    3    3  502    0 -0.67222812058E+03  0.12213790866E+04 -0.10810708037E+04  0.17641919439E+04  0.12699999809E+01 0. -1.
       -4    1    3    3    0  502  0.67222812058E+03 -0.12213790866E+04  0.60871910766E+03  0.15212488568E+04  0.12699999809E+01 0.  1.
</event>
<event>
 5   0  0.3749685E-07  0.3302886E+04  0.7818609E-02  0.8162161E-01
        1   -1    0    0  501    0  0.00000000000E+00  0.00000000000E+00  0.21685030427E+04  0.21685030427E+04  0.50400001928E-02 0.  1.
       -1   -1    0    0    0  501  0.00000000000E+00  0.00000000000E+00 -0.12576711405E+04  0.12576711405E+04  0.50400001928E-02 0. -1.
    10030    2    1    2    0    0  0.00000000000E+00  0.00000000000E+00  0.91083190228E+03  0.34261741832E+04  0.33028858260E+04 0.  0.
        3    1    3    3  502    0  0.17892388052E+03  0.76068799153E+02  0.21565898147E+04  0.21653359685E+04  0.10100000352E+00 0.  1.
       -3    1    3    3    0  502 -0.17892388052E+03 -0.76068799153E+02 -0.12457579124E+04  0.12608382148E+04  0.10100000352E+00 0. -1.
</event>
<event>
 5   0  0.1146799E-06  0.3314191E+04  0.7818609E-02  0.8159294E-01
        2   -1    0    0  501    0  0.00000000000E+00  0.00000000000E+00  0.15256367230E+04  0.15256367230E+04  0.25500000920E-02 0.  1.
       -2   -1    0    0    0  501  0.00000000000E+00  0.00000000000E+00 -0.17998812719E+04  0.17998812719E+04  0.25500000920E-02 0. -1.
    10030    2    1    2    0    0  0.00000000000E+00  0.00000000000E+00 -0.27424454895E+03  0.33255179949E+04  0.33141906797E+04 0.  0.
        5    1    3    3  502    0 -0.39246365092E+03  0.71404436242E+03  0.13107424713E+04  0.15433583462E+04  0.46999998093E+01 0.  1.
       -5    1    3    3    0  502  0.39246365092E+03 -0.71404436242E+03 -0.15849870203E+04  0.17821596486E+04  0.46999998093E+01 0. -1.
</event>
<event>
 5   0  0.3796529E-07  0.3272050E+04  0.7818609E-02  0.8170044E-01
        1   -1    0    0  501    0  0.00000000000E+00  0.00000000000E+00  0.18069277318E+04  0.18069277318E+04  0.50400001928E-02 0. -1.
       -1   -1    0    0    0  501  0.00000000000E+00  0.00000000000E+00 -0.14812866569E+04  0.14812866569E+04  0.50400001928E-02 0.  1.
    10030    2    1    2    0    0  0.00000000000E+00  0.00000000000E+00  0.32564107488E+03  0.32882143886E+04  0.32720500846E+04 0.  0.
        5    1    3    3  502    0  0.92042968583E+03 -0.11238155340E+04 -0.59349534212E+03  0.15692071158E+04  0.46999998093E+01 0.  1.
       -5    1    3    3    0  502 -0.92042968583E+03  0.11238155340E+04  0.91913641700E+03  0.17190072729E+04  0.46999998093E+01 0. -1.
</event>
<event>
 5   0  0.3749685E-07  0.3289123E+04  0.7818609E-02  0.8165669E-01
        1   -1    0    0  501    0  0.00000000000E+00  0.00000000000E+00  0.22562540370E+04  0.22562540370E+04  0.50400001928E-02 0. -1.
       -1   -1    0    0    0  501  0.00000000000E+00  0.00000000000E+00 -0.11987047719E+04  0.11987047719E+04  0.50400001928E-02 0.  1.
    10030    2    1    2    0    0  0.00000000000E+00  0.00000000000E+00  0.10575492651E+04  0.34549588089E+04  0.32891229718E+04 0.  0.
        3    1    3    3  502    0  0.13840653855E+03 -0.16259767445E+04  0.74308524629E+03  0.17930790381E+04  0.10100000352E+00 0.  1.
       -3    1    3    3    0  502 -0.13840653855E+03  0.16259767445E+04  0.31446401878E+03  0.16618797708E+04  0.10100000352E+00 0. -1.
</event>
<event>
 5   0  0.1120545E-06  0.3298628E+04  0.7818609E-02  0.8163245E-01
       -2   -1    0    0    0  501  0.00000000000E+00  0.00000000000E+00  0.17611100822E+04  0.17611100822E+04  0.25500000920E-02 0.  1.
        2   -1    0    0  501    0  0.00000000000E+00  0.00000000000E+00 -0.15446146702E+04  0.15446146702E+04  0.25500000920E-02 0. -1.
    10030    2    1    2    0    0  0.00000000000E+00  0.00000000000E+00  0.21649541206E+03  0.33057247524E+04  0.32986278776E+04 0.  0.
        4    1    3    3  502    0 -0.14161161612E+04  0.67959706360E+03  0.61231863974E+03  0.16858745150E+04  0.12699999809E+01 0.  1.
       -4    1    3    3    0  502  0.14161161612E+04 -0.67959706360E+03 -0.39582322768E+03  0.16198502373E+04  0.12699999809E+01 0. -1.
</event>
<event>
 5   0  0.1126221E-06  0.3299481E+04  0.7818609E-02  0.8163027E-01
        2   -1    0    0  501    0  0.00000000000E+00  0.00000000000E+00  0.28884730271E+04  0.28884730271E+04  0.25500000920E-02 0.  1.
       -2   -1    0    0    0  501  0.00000000000E+00  0.00000000000E+00 -0.94224324053E+03  0.94224324053E+03  0.25500000920E-02 0. -1.
    10030    2    1    2    0    0  0.00000000000E+00  0.00000000000E+00  0.19462297866E+04  0.38307162676E+04  0.32994812836E+04 0.  0.
        2    1    3    3  502    0  0.42972303595E+03 -0.12480967798E+04 -0.17577435028E+03  0.13316546405E+04  0.25500000920E-02 0. -1.
       -2    1    3    3    0  502 -0.42972303595E+03  0.12480967798E+04  0.21220041369E+04  0.24990616271E+04  0.25500000920E-02 0.  1.
</event>
<event>
 5   0  0.3674967E-07  0.3295542E+04  0.7818609E-02  0.8164031E-01
        1   -1    0    0  501    0  0.00000000000E+00  0.00000000000E+00  0.24146178809E+04  0.24146178809E+04  0.50400001928E-02 0. -1.
       -1   -1    0    0    0  501  0.00000000000E+00  0.00000000000E+00 -0.11244635518E+04  0.11244635518E+04  0.50400001928E-02 0.  1.
    10030    2    1    2    0    0  0.00000000000E+00  0.00000000000E+00  0.12901543291E+04  0.35390814327E+04  0.32955423218E+04 0.  0.
        2    1    3    3  502    0  0.42348047692E+03 -0.12587667426E+04  0.16925121143E+04  0.21513778571E+04  0.25500000920E-02 0. -1.
       -2    1    3    3    0  502 -0.42348047692E+03  0.12587667426E+04 -0.40235778522E+03  0.13877035757E+04  0.25500000920E-02 0.  1.
</event>
<event>
 5   0  0.1126221E-06  0.3318233E+04  0.7818609E-02  0.8158272E-01
       -2   -1    0    0    0  501  0.00000000000E+00  0.00000000000E+00  0.83273434211E+03  0.83273434212E+03  0.25500000920E-02 0. -1.
        2   -1    0    0  501    0  0.00000000000E+00  0.00000000000E+00 -0.33055764398E+04  0.33055764398E+04  0.25500000920E-02 0.  1.
    10030    2    1    2    0    0  0.00000000000E+00  0.00000000000E+00 -0.24728420977E+04  0.41383107819E+04  0.33182326753E+04 0.  0.
        2    1    3    3  502    0  0.32328237973E+03 -0.86842843855E+03  0.47992490041E+03  0.10435551543E+04  0.25500000920E-02 0. -1.
       -2    1    3    3    0  502 -0.32328237973E+03  0.86842843855E+03 -0.29527669981E+04  0.30947556277E+04  0.25500000920E-02 0.  1.
</event>
<event>
 5   0  0.3674967E-07  0.3290488E+04  0.7818609E-02  0.8165320E-01
        1   -1    0    0  501    0  0.00000000000E+00  0.00000000000E+00  0.13891935942E+04  0.13891935943E+04  0.50400001928E-02 0. -1.
       -1   -1    0    0    0  501  0.00000000000E+00  0.00000000000E+00 -0.19484891092E+04  0.19484891092E+04  0.50400001928E-02 0.  1.
    10030    2    1    2    0    0  0.00000000000E+00  0.00000000000E+00 -0.55929551498E+03  0.33376827035E+04  0.32904884677E+04 0.  0.
        2    1    3    3  502    0  0.87443871742E+03 -0.12963238116E+04 -0.79858101613E+03  0.17557990017E+04  0.25500000920E-02 0.  1.
       -2    1    3    3    0  502 -0.87443871742E+03  0.12963238116E+04  0.23928550115E+03  0.15818837018E+04  0.25500000920E-02 0. -1.
</event>
<event>
 5   0  0.3757406E-07  0.3287116E+04  0.7818609E-02  0.8166181E-01
       -1   -1    0    0    0  501  0.00000000000E+00  0.00000000000E+00  0.14553518668E+04  0.14553518668E+04  0.50400001928E-02 0.  1.
        1   -1    0    0  501    0  0.00000000000E+00  0.00000000000E+00 -0.18561032610E+04  0.18561032610E+04  0.50400001928E-02 0. -1.
    10030    2    1    2    0    0  0.00000000000E+00  0.00000000000E+00 -0.40075139422E+03  0.33114551279E+04  0.32871162717E+04 0.  0.
        1    1    3    3  502    0  0.65065625284E+02  0.69241154023E+03  0.12998167970E+04  0.14741746784E+04  0.50400001928E-02 0.  1.
       -1    1    3    3    0  502 -0.65065625284E+02 -0.69241154023E+03 -0.17005681913E+04  0.18372804494E+04  0.50400001928E-02 0. -1.
</event>
<event>
 5   0  0.1126221E-06  0.3312802E+04  0.7818609E-02  0.8159646E-01
       -2   -1    0    0    0  501  0.00000000000E+00  0.00000000000E+00  0.13101238161E+04  0.13101238161E+04  0.25500000920E-02 0. -1.
        2   -1    0    0  501    0  0.00000000000E+00  0.00000000000E+00 -0.20942024273E+04  0.20942024273E+04  0.25500000920E-02 0.  1.
    10030    2    1    2    0    0  0.00000000000E+00  0.00000000000E+00 -0.78407861117E+03  0.34043262434E+04  0.33128021225E+04 0.  0.
        2    1    3    3  502    0 -0.14040513290E+04  0.62773371571E+03 -0.10240549912E+04  0.18477278959E+04  0.25500000920E-02 0.  1.
       -2    1    3    3    0  502  0.14040513290E+04 -0.62773371571E+03  0.23997638001E+03  0.15565983475E+04  0.25500000920E-02 0. -1.
</event>
<event>
 5   0  0.1120545E-06  0.3271268E+04  0.7818609E-02  0.8170245E-01
       -2   -1    0    0    0  501  0.00000000000E+00  0.00000000000E+00  0.14075962503E+04  0.14075962503E+04  0.25500000920E-02 0.  1.
        2   -1    0    0  501    0  0.00000000000E+00  0.00000000000E+00 -0.19006146714E+04  0.19006146714E+04  0.25500000920E-02 0. -1.
    10030    2    1    2    0    0  0.00000000000E+00  0.00000000000E+00 -0.49301842113E+03  0.33082109217E+04  0.32712676960E+04 0.  0.
        4    1    3    3  502    0 -0.51314822507E+03 -0.14800577200E+04 -0.72235950700E+03  0.17250208189E+04  0.12699999809E+01 0. -1.
       -4    1    3    3    0  502  0.51314822507E+03  0.14800577200E+04  0.22934108586E+03  0.15831901029E+04  0.12699999809E+01 0.  1.
</event>
<event>
 5   0  0.1116462E-06  0.3323250E+04  0.7818609E-02  0.8157004E-01
       -2   -1    0    0    0  501  0.00000000000E+00  0.00000000000E+00  0.25407878628E+04  0.25407878628E+04  0.25500000920E-02 0. -1.
        2   -1    0    0  501    0  0.00000000000E+00  0.00000000000E+00 -0.10866700462E+04  0.10866700463E+04  0.25500000920E-02 0.  1.
    10030    2    1    2    0    0  0.00000000000E+00  0.00000000000E+00  0.14541178165E+04  0.36274579090E+04  0.33232502550E+04 0.  0.
        1    1    3    3  502    0  0.58618447974E+03 -0.12415823649E+04 -0.29448360731E+03  0.14042291865E+04  0.50400001928E-02 0.  1.
       -1    1    3    3    0  502 -0.58618447974E+03  0.12415823649E+04  0.17486014238E+04  0.22232287225E+04  0.50400001928E-02 0. -1.
</event>
<event>
 5   0  0.1116462E-06  0.3282200E+04  0.7818609E-02  0.8167439E-01
       -2   -1    0    0    0  501  0.00000000000E+00  0.00000000000E+00  0.11971829198E+04  0.11971829198E+04  0.25500000920E-02 0. -1.
        2   -1    0    0  501    0  0.00000000000E+00  0.00000000000E+00 -0.22496220641E+04  0.22496220641E+04  0.25500000920E-02 0.  1.
    10030    2    1    2    0    0  0.00000000000E+00  0.00000000000E+00 -0.10524391443E+04  0.34468049840E+04  0.32821999398E+04 0.  0.
        1    1    3    3  502    0  0.15461996461E+04  0.53889277080E+03 -0.64159453129E+03  0.17586308045E+04  0.50400001928E-02 0.  1.
       -1    1    3    3    0  502 -0.15461996461E+04 -0.53889277080E+03 -0.41084461300E+03  0.16881741794E+04  0.50400001928E-02 0. -1.
</event>
<event>
 5   0  0.3674967E-07  0.3299773E+04  0.7818609E-02  0.8162953E-01
        1   -1    0    0  501    0  0.00000000000E+00  0.00000000000E+00  0.26091991615E+04  0.26091991615E+04  0.50400001928E-02 0. -1.
       -1   -1    0    0    0  501  0.00000000000E+00  0.00000000000E+00 -0.10432800146E+04  0.10432800146E+04  0.50400001928E-02 0.  1.
    10030    2    1    2    0    0  0.00000000000E+00  0.00000000000E+00  0.15659191469E+04  0.36524791761E+04  0.32997729251E+04 0.  0.
        2    1    3    3  502    0  0.30190060577E+03  0.32160796253E+03 -0.97680084162E+03  0.10717814803E+04  0.25500000920E-02 0.  1.
       -2    1    3    3    0  502 -0.30190060577E+03 -0.32160796253E+03  0.25427199885E+04  0.25806976958E+04  0.25500000920E-02 0. -1.
</event>
<event>
 5   0  0.3674967E-07  0.3283917E+04  0.7818609E-02  0.8167000E-01
       -1   -1    0    0    0  501  0.00000000000E+00  0.00000000000E+00  0.18459732739E+04  0.18459732739E+04  0.50400001928E-02 0. -1.
        1   -1    0    0  501    0  0.00000000000E+00  0.00000000000E+00 -0.14604910732E+04  0.14604910732E+04  0.50400001928E-02 0.  1.
    10030    2    1    2    0    0  0.00000000000E+00  0.00000000000E+00  0.38548220067E+03  0.33064643471E+04  0.32839168613E+04 0.  0.
        2    1    3    3  502    0  0.91218066011E+03 -0.10132715413E+04 -0.72854666614E+03  0.15458243813E+04  0.25500000920E-02 0.  1.
       -2    1    3    3    0  502 -0.91218066011E+03  0.10132715413E+04  0.11140288668E+04  0.17606399658E+04  0.25500000920E-02 0. -1.
</event>
<event>
 5   0  0.1116462E-06  0.3289865E+04  0.7818609E-02  0.8165479E-01
        2   -1    0    0  501    0  0.00000000000E+00  0.00000000000E+00  0.25270838125E+04  0.25270838125E+04  0.25500000920E-02 0. -1.
       -2   -1    0    0    0  501  0.00000000000E+00  0.00000000000E+00 -0.10707213153E+04  0.10707213153E+04  0.25500000920E-02 0.  1.
    10030    2    1    2    0    0  0.00000000000E+00  0.00000000000E+00  0.14563624972E+04  0.35978051278E+04  0.32898647411E+04 0.  0.
        1    1    3    3  502    0  0.37503620697E+02 -0.71334375039E+03 -0.89224750826E+03  0.11429660729E+04  0.50400001928E-02 0.  1.
       -1    1    3    3    0  502 -0.37503620697E+02  0.71334375039E+03  0.23486100055E+04  0.24548390549E+04  0.50400001928E-02 0. -1.
</event>
<event>
 5   0  0.1146799E-06  0.3318541E+04  0.7818609E-02  0.8158194E-01
        2   -1    0    0  501    0  0.00000000000E+00  0.00000000000E+00  0.18741440749E+04  0.18741440749E+04  0.25500000920E-02 0.  1.
       -2   -1    0    0    0  501  0.00000000000E+00  0.00000000000E+00 -0.14690323283E+04  0.14690323283E+04  0.25500000920E-02 0. -1.
    10030    2    1    2    0    0  0.00000000000E+00  0.00000000000E+00  0.40511174660E+03  0.33431764033E+04  0.33185407842E+04 0.  0.
        5    1    3    3  502    0  0.30634147441E+03 -0.15277726268E+04  0.77707168893E+03  0.17412055587E+04  0.46999998093E+01 0.  1.
       -5    1    3    3    0  502 -0.30634147441E+03  0.15277726268E+04 -0.37195994233E+03  0.16019708445E+04  0.46999998093E+01 0. -1.
</event>
<event>
 5   0  0.1120545E-06  0.3290179E+04  0.7818609E-02  0.8165399E-01
        2   -1    0    0  501    0  0.00000000000E+00  0.00000000000E+00  0.18255763054E+04  0.18255763054E+04  0.25500000920E-02 0.  1.
       -2   -1    0    0    0  501  0.00000000000E+00  0.00000000000E+00 -0.14824469448E+04  0.14824469448E+04  0.25500000920E-02 0. -1.
    10030    2    1    2    0    0  0.00000000000E+00  0.00000000000E+00  0.34312936055E+03  0.33080232502E+04  0.32901793364E+04 0.  0.
        4    1    3    3  502    0  0.11264779479E+04 -0.14257303809E+03 -0.10252856622E+04  0.15298666413E+04  0.12699999809E+01 0. -1.
       -4    1    3    3    0  502 -0.11264779479E+04  0.14257303809E+03  0.13684150227E+04  0.17781566089E+04  0.12699999809E+01 0.  1.
</event>
<event>
 5   0  0.3757406E-07  0.3297747E+04  0.7818609E-02  0.8163469E-01
        1   -1    0    0  501    0  0.00000000000E+00  0.00000000000E+00  0.21507271911E+04  0.21507271911E+04  0.50400001928E-02 0.  1.
       -1   -1    0    0    0  501  0.00000000000E+00  0.00000000000E+00 -0.12641227949E+04  0.12641227949E+04  0.50400001928E-02 0. -1.
    10030    2    1    2    0    0  0.00000000000E+00  0.00000000000E+00  0.88660439614E+03  0.34148499860E+04  0.32977466658E+04 0.  0.
        1    1    3    3  502    0  0.17579326564E+03 -0.34474412012E+03  0.21030383494E+04  0.21383456408E+04  0.50400001928E-02 0.  1.
       -1    1    3    3    0  502 -0.17579326564E+03  0.34474412012E+03 -0.12164339533E+04  0.12765043452E+04  0.50400001928E-02 0. -1.
</event>
<event>
 5   0  0.1129434E-06  0.3304508E+04  0.7818609E-02  0.8161749E-01
       -2   -1    0    0    0  501  0.00000000000E+00  0.00000000000E+00  0.11864165573E+04  0.11864165573E+04  0.25500000920E-02 0. -1.
        2   -1    0    0  501    0  0.00000000000E+00  0.00000000000E+00 -0.23009993539E+04  0.23009993539E+04  0.25500000920E-02 0.  1.
    10030    2    1    2    0    0  0.00000000000E+00  0.00000000000E+00 -0.11145827966E+04  0.34874159112E+04  0.33045082732E+04 0.  0.
        3    1    3    3  502    0 -0.10376058093E+04  0.39306417604E+03  0.73473509127E+03  0.13307745589E+04  0.10100000352E+00 0. -1.
       -3    1    3    3    0  502  0.10376058093E+04 -0.39306417604E+03 -0.18493178879E+04  0.21566413523E+04  0.10100000352E+00 0.  1.
</event>
<event>
 5   0  0.1116462E-06  0.3316921E+04  0.7818609E-02  0.8158603E-01
       -2   -1    0    0    0  501  0.00000000000E+00  0.00000000000E+00  0.11656821482E+04  0.11656821482E+04  0.25500000920E-02 0. -1.
        2   -1    0    0  501    0  0.00000000000E+00  0.00000000000E+00 -0.23595552091E+04  0.23595552091E+04  0.25500000920E-02 0.  1.
    10030    2    1    2    0    0  0.00000000000E+00  0.00000000000E+00 -0.11938730610E+04  0.35252373573E+04  0.33169210934E+04 0.  0.
        1    1    3    3  502    0  0.57477946541E+03  0.15255930281E+04 -0.27337269545E+03  0.16530390654E+04  0.50400001928E-02 0.  1.
       -1    1    3    3    0  502 -0.57477946541E+03 -0.15255930281E+04 -0.92050036553E+03  0.18721982919E+04  0.50400001928E-02 0. -1.
</event>
<event>
 5   0  0.3709747E-07  0.3230287E+04  0.7818609E-02  0.8180864E-01
        1   -1    0    0  501    0  0.00000000000E+00  0.00000000000E+00  0.20918302686E+04  0.20918302686E+04  0.50400001928E-02 0.  1.
       -1   -1    0    0    0  501  0.00000000000E+00  0.00000000000E+00 -0.12470839675E+04  0.12470839675E+04  0.50400001928E-02 0. -1.
    10030    2    1    2    0    0  0.00000000000E+00  0.00000000000E+00  0.84474630117E+03  0.33389142361E+04  0.32302866688E+04 0.  0.
        4    1    3    3  502    0  0.11878752844E+04 -0.97533851868E+03 -0.90657759642E+02  0.15396601442E+04  0.12699999809E+01 0. -1.
       -4    1    3    3    0  502 -0.11878752844E+04  0.97533851868E+03  0.93540406081E+03  0.17992540919E+04  0.12699999809E+01 0.  1.
</event>
<event>
 5   0  0.1129434E-06  0.3293465E+04  0.7818609E-02  0.8164560E-01
       -2   -1    0    0    0  501  0.00000000000E+00  0.00000000000E+00  0.15493405809E+04  0.15493405809E+04  0.25500000920E-02 0.  1.
        2   -1    0    0  501    0  0.00000000000E+00  0.00000000000E+00 -0.17502465862E+04  0.17502465862E+04  0.25500000920E-02 0. -1.
    10030    2    1    2    0    0  0.00000000000E+00  0.00000000000E+00 -0.20090600527E+03  0.32995871671E+04  0.32934650826E+04 0.  0.
        3    1    3    3  502    0 -0.90946899218E+03 -0.11373426891E+04 -0.87067712264E+03  0.16966911629E+04  0.10100000352E+00 0.  1.
       -3    1    3    3    0  502  0.90946899218E+03  0.11373426891E+04  0.66977111736E+03  0.16028960041E+04  0.10100000352E+00 0. -1.
</event>
<event>
 5   0  0.1116462E-06  0.3305484E+04  0.7818609E-02  0.8161501E-01
       -2   -1    0    0    0  501  0.00000000000E+00  0.00000000000E+00  0.11390632715E+04  0.11390632715E+04  0.25500000920E-02 0.  1.
        2   -1    0    0  501    0  0.00000000000E+00  0.00000000000E+00 -0.23980730583E+04  0.23980730583E+04  0.25500000920E-02 0. -1.
    10030    2    1    2    0    0  0.00000000000E+00  0.00000000000E+00 -0.12590097868E+04  0.35371363298E+04  0.33054844989E+04 0.  0.
        1    1    3    3  502    0  0.33451712485E+03  0.14619218338E+04 -0.13727605670E+04  0.20331229007E+04  0.50400001928E-02 0. -1.
       -1    1    3    3    0  502 -0.33451712485E+03 -0.14619218338E+04  0.11375078024E+03  0.15040134291E+04  0.50400001928E-02 0.  1.
</event>
<event>
 5   0  0.3674967E-07  0.3337444E+04  0.7818609E-02  0.8153433E-01
        1   -1    0    0  501    0  0.00000000000E+00  0.00000000000E+00  0.28812700317E+04  0.28812700317E+04  0.50400001928E-02 0.  1.
       -1   -1    0    0    0  501  0.00000000000E+00  0.00000000000E+00 -0.96646006230E+03  0.96646006231E+03  0.50400001928E-02 0. -1.
    10030    2    1    2    0    0  0.00000000000E+00  0.00000000000E+00  0.19148099694E+04  0.38477300940E+04  0.33374435811E+04 0.  0.
        2    1    3    3  502    0  0.10729415435E+04  0.37872140850E+03  0.23646951380E+04  0.26241982693E+04  0.25500000920E-02 0.  1.
       -2    1    3    3    0  502 -0.10729415435E+04 -0.37872140850E+03 -0.44988516860E+03  0.12235318247E+04  0.25500000920E-02 0. -1.
</event>
<event>
 5   0  0.1146799E-06  0.3231848E+04  0.7818609E-02  0.8180457E-01
       -2   -1    0    0    0  501  0.00000000000E+00  0.00000000000E+00  0.13661120632E+04  0.13661120632E+04  0.25500000920E-02 0. -1.
        2   -1    0    0  501    0  0.00000000000E+00  0.00000000000E+00 -0.19114170327E+04  0.19114170327E+04  0.25500000920E-02 0.  1.
    10030    2    1    2    0    0  0.00000000000E+00  0.00000000000E+00 -0.54530496952E+03  0.32775290959E+04  0.32318476859E+04 0.  0.
        5    1    3    3  502    0 -0.26865866495E+03  0.84336265572E+03 -0.16437048275E+04  0.18668759191E+04  0.46999998093E+01 0.  1.
       -5    1    3    3    0  502  0.26865866495E+03 -0.84336265572E+03  0.10983998580E+04  0.14106531768E+04  0.46999998093E+01 0. -1.
</event>
<event>
 5   0  0.3757406E-07  0.3294638E+04  0.7818609E-02  0.8164261E-01
       -1   -1    0    0    0  501  0.00000000000E+00  0.00000000000E+00  0.16211665587E+04  0.16211665587E+04  0.50400001928E-02 0. -1.
        1   -1    0    0  501    0  0.00000000000E+00  0.00000000000E+00 -0.16738932123E+04  0.16738932123E+04  0.50400001928E-02 0.  1.
    10030    2    1    2    0    0  0.00000000000E+00  0.00000000000E+00 -0.52726653563E+02  0.32950597711E+04  0.32946378852E+04 0.  0.
        1    1    3    3  502    0  0.14630496263E+03  0.16391632627E+04  0.47119579799E+02  0.16463540320E+04  0.50400001928E-02 0. -1.
       -1    1    3    3    0  502 -0.14630496263E+03 -0.16391632627E+04 -0.99846233362E+02  0.16487057391E+04  0.50400001928E-02 0.  1.
</event>
<event>
 5   0  0.1116462E-06  0.3318861E+04  0.7818609E-02  0.8158113E-01
        2   -1    0    0  501    0  0.00000000000E+00  0.00000000000E+00  0.30577033647E+04  0.30577033647E+04  0.25500000920E-02 0. -1.
       -2   -1    0    0    0  501  0.00000000000E+00  0.00000000000E+00 -0.90058078990E+03  0.90058078990E+03  0.25500000920E-02 0.  1.
    10030    2    1    2    0    0  0.00000000000E+00  0.00000000000E+00  0.21571225748E+04  0.39582841546E+04  0.33188605945E+04 0.  0.
        1    1    3    3  502    0  0.24095962977E+03 -0.13230495165E+04 -0.80955141277E+02  0.13472473051E+04  0.50400001928E-02 0.  1.
       -1    1    3    3    0  502 -0.24095962977E+03  0.13230495165E+04  0.22380777161E+04  0.26110368495E+04  0.50400001928E-02 0. -1.
</event>
<event>
 5   0  0.1126221E-06  0.3350637E+04  0.7818609E-02  0.8150129E-01
        2   -1    0    0  501    0  0.00000000000E+00  0.00000000000E+00  0.21968818462E+04  0.21968818462E+04  0.25500000920E-02 0. -1.
       -2   -1    0    0    0  501  0.00000000000E+00  0.00000000000E+00 -0.12775798510E+04  0.12775798510E+04  0.25500000920E-02 0.  1.
    10030    2    1    2    0    0  0.00000000000E+00  0.00000000000E+00  0.91930199519E+03  0.34744616973E+04  0.33506369435E+04 0.  0.
        2    1    3    3  502    0 -0.90585320164E+03 -0.10540792315E+03  0.19169374558E+04  0.21228118293E+04  0.25500000920E-02 0. -1.
       -2    1    3    3    0  502  0.90585320164E+03  0.10540792315E+03 -0.99763546063E+03  0.13516498679E+04  0.25500000920E-02 0.  1.
</event>
<event>
 5   0  0.3573375E-07  0.3332864E+04  0.7818609E-02  0.8154583E-01
        3   -1    0    0  501    0  0.00000000000E+00  0.00000000000E+00  0.10602486103E+04  0.10602486151E+04  0.10100000352E+00 0.  1.
       -3   -1    0    0    0  501  0.00000000000E+00  0.00000000000E+00 -0.26191927325E+04  0.26191927345E+04  0.10100000352E+00 0. -1.
    10030    2    1    2    0    0  0.00000000000E+00  0.00000000000E+00 -0.15589441222E+04  0.36794413496E+04  0.33328639139E+04 0.  0.
        4    1    3    3  502    0 -0.11147206369E+04 -0.19502985914E+03 -0.21299317936E+04  0.24118975523E+04  0.12699999809E+01 0. -1.
       -4    1    3    3    0  502  0.11147206369E+04  0.19502985914E+03  0.57098767141E+03  0.12675437973E+04  0.12699999809E+01 0.  1.
</event>
<event>
 5   0  0.3749685E-07  0.3315222E+04  0.7818609E-02  0.8159033E-01
       -1   -1    0    0    0  501  0.00000000000E+00  0.00000000000E+00  0.14150762486E+04  0.14150762486E+04  0.50400001928E-02 0. -1.
        1   -1    0    0  501    0  0.00000000000E+00  0.00000000000E+00 -0.19417146357E+04  0.19417146358E+04  0.50400001928E-02 0.  1.
    10030    2    1    2    0    0  0.00000000000E+00  0.00000000000E+00 -0.52663838713E+03  0.33567908844E+04  0.33152220213E+04 0.  0.
        3    1    3    3  502    0 -0.72681146795E+03 -0.11185353287E+04 -0.12596790003E+04  0.18347117990E+04  0.10100000352E+00 0.  1.
       -3    1    3    3    0  502  0.72681146795E+03  0.11185353287E+04  0.73304061317E+03  0.15220790854E+04  0.10100000352E+00 0. -1.
</event>
<event>
 5   0  0.1129434E-06  0.3294945E+04  0.7818609E-02  0.8164183E-01
        2   -1    0    0  501    0  0.00000000000E+00  0.00000000000E+00  0.15542940509E+04  0.15542940509E+04  0.25500000920E-02 0. -1.
       -2   -1    0    0    0  501  0.00000000000E+00  0.00000000000E+00 -0.17462372686E+04  0.17462372686E+04  0.25500000920E-02 0.  1.
    10030    2    1    2    0    0  0.00000000000E+00  0.00000000000E+00 -0.19194321769E+03  0.33005313194E+04  0.32949453397E+04 0.  0.
        3    1    3    3  502    0 -0.10999631736E+04 -0.11408984949E+04  0.35490015410E+03  0.16240451005E+04  0.10100000352E+00 0. -1.
       -3    1    3    3    0  502  0.10999631736E+04  0.11408984949E+04 -0.54684337178E+03  0.16764862189E+04  0.10100000352E+00 0.  1.
</event>
<event>
 5   0  0.1146799E-06  0.3318596E+04  0.7818609E-02  0.8158180E-01
        2   -1    0    0  501    0  0.00000000000E+00  0.00000000000E+00  0.15029173993E+04  0.15029173993E+04  0.25500000920E-02 0.  1.
       -2   -1    0    0    0  501  0.00000000000E+00  0.00000000000E+00 -0.18319506893E+04  0.18319506893E+04  0.25500000920E-02 0. -1.
    10030    2    1    2    0    0  0.00000000000E+00  0.00000000000E+00 -0.32903329000E+03  0.33348680886E+04  0.33185964296E+04 0.  0.
        5    1    3    3  502    0 -0.72689535122E+03 -0.39272509479E+03 -0.16105435505E+04  0.18101056515E+04  0.46999998093E+01 0. -1.
       -5    1    3    3    0  502  0.72689535122E+03  0.39272509479E+03  0.12815102605E+04  0.15247624371E+04  0.46999998093E+01 0.  1.
</event>
<event>
 5   0  0.3573375E-07  0.3326312E+04  0.7818609E-02  0.8156232E-01
       -3   -1    0    0    0  501  0.00000000000E+00  0.00000000000E+00  0.14125726592E+04  0.14125726628E+04  0.10100000352E+00 0. -1.
        3   -1    0    0  501    0  0.00000000000E+00  0.00000000000E+00 -0.19581913111E+04  0.19581913137E+04  0.10100000352E+00 0.  1.
    10030    2    1    2    0    0  0.00000000000E+00  0.00000000000E+00 -0.54561865195E+03  0.33707639765E+04  0.33263117822E+04 0.  0.
        2    1    3    3  502    0 -0.27823790145E+03 -0.89056598670E+02 -0.19319864303E+04  0.19539495834E+04  0.25500000920E-02 0.  1.
       -2    1    3    3    0  502  0.27823790145E+03  0.89056598670E+02  0.13863677784E+04  0.14168143931E+04  0.25500000920E-02 0. -1.
</event>
<event>
 5   0  0.1116462E-06  0.3539405E+04  0.7818609E-02  0.8104515E-01
       -2   -1    0    0    0  501  0.00000000000E+00  0.00000000000E+00  0.19650226747E+04  0.19650226747E+04  0.25500000920E-02 0.  1.
        2   -1    0    0  501    0  0.00000000000E+00  0.00000000000E+00 -0.15937964395E+04  0.15937964395E+04  0.25500000920E-02 0. -1.
    10030    2    1    2    0    0  0.00000000000E+00  0.00000000000E+00  0.37122623528E+03  0.35588191142E+04  0.35394045502E+04 0.  0.
        1    1    3    3  502    0 -0.75915835529E+03  0.31595489867E+03 -0.13900490963E+04  0.16150496576E+04  0.50400001928E-02 0. -1.
       -1    1    3    3    0  502  0.75915835529E+03 -0.31595489867E+03  0.17612753316E+04  0.19437694565E+04  0.50400001928E-02 0.  1.
</event>
<event>
 5   0  0.3757406E-07  0.3301728E+04  0.7818609E-02  0.8162456E-01
       -1   -1    0    0    0  501  0.00000000000E+00  0.00000000000E+00  0.12218751864E+04  0.12218751864E+04  0.50400001928E-02 0. -1.
        1   -1    0    0  501    0  0.00000000000E+00  0.00000000000E+00 -0.22304665863E+04  0.22304665864E+04  0.50400001928E-02 0.  1.
    10030    2    1    2    0    0  0.00000000000E+00  0.00000000000E+00 -0.10085914000E+04  0.34523417727E+04  0.33017278967E+04 0.  0.
        1    1    3    3  502    0  0.10820946160E+04  0.12464212928E+04 -0.53490529249E+03  0.17351133879E+04  0.50400001928E-02 0. -1.
       -1    1    3    3    0  502 -0.10820946160E+04 -0.12464212928E+04 -0.47368610749E+03  0.17172283848E+04  0.50400001928E-02 0.  1.
</event>
<event>
 5   0  0.1129434E-06  0.3292246E+04  0.7818609E-02  0.8164871E-01
        2   -1    0    0  501    0  0.00000000000E+00  0.00000000000E+00  0.26303206822E+04  0.26303206822E+04  0.25500000920E-02 0. -1.
       -2   -1    0    0    0  501  0.00000000000E+00  0.00000000000E+00 -0.10301866315E+04  0.10301866315E+04  0.25500000920E-02 0.  1.
    10030    2    1    2    0    0  0.00000000000E+00  0.00000000000E+00  0.16001340507E+04  0.36605073137E+04  0.32922461654E+04 0.  0.
        3    1    3    3  502    0 -0.71441348830E+03  0.99693538578E+03  0.20208103868E+04  0.23638827012E+04  0.10100000352E+00 0. -1.
       -3    1    3    3    0  502  0.71441348830E+03 -0.99693538578E+03 -0.42067633609E+03  0.12966246125E+04  0.10100000352E+00 0.  1.
</event>
<event>
 5   0  0.1120545E-06  0.3299668E+04  0.7818609E-02  0.8162980E-01
       -2   -1    0    0    0  501  0.00000000000E+00  0.00000000000E+00  0.14690305573E+04  0.14690305573E+04  0.25500000920E-02 0. -1.
        2   -1    0    0  501    0  0.00000000000E+00  0.00000000000E+00 -0.18528904193E+04  0.18528904193E+04  0.25500000920E-02 0.  1.
    10030    2    1    2    0    0  0.00000000000E+00  0.00000000000E+00 -0.38385986209E+03  0.33219209766E+04  0.32996682532E+04 0.  0.
        4    1    3    3  502    0  0.38977238631E+02 -0.10462622260E+04  0.10917247010E+04  0.15126295998E+04  0.12699999809E+01 0. -1.
       -4    1    3    3    0  502 -0.38977238631E+02  0.10462622260E+04 -0.14755845630E+04  0.18092913768E+04  0.12699999809E+01 0.  1.
</event>
<event>
 5   0  0.1126221E-06  0.3293579E+04  0.7818609E-02  0.8164531E-01
        2   -1    0    0  501    0  0.00000000000E+00  0.00000000000E+00  0.10973093636E+04  0.10973093636E+04  0.25500000920E-02 0. -1.
       -2   -1    0    0    0  501  0.00000000000E+00  0.00000000000E+00 -0.24714223846E+04  0.24714223846E+04  0.25500000920E-02 0.  1.
    10030    2    1    2    0    0  0.00000000000E+00  0.00000000000E+00 -0.13741130210E+04  0.35687317482E+04  0.32935785547E+04 0.  0.
        2    1    3    3  502    0 -0.13576341595E+03  0.57181805795E+03 -0.23539191210E+04  0.24261786465E+04  0.25500000920E-02 0.  1.
       -2    1    3    3    0  502  0.13576341595E+03 -0.57181805795E+03  0.97980610000E+03  0.11425531017E+04  0.25500000920E-02 0. -1.
</event>
<event>
 5   0  0.1126221E-06  0.3342500E+04  0.7818609E-02  0.8152165E-01
        2   -1    0    0  501    0  0.00000000000E+00  0.00000000000E+00  0.17009005745E+04  0.17009005745E+04  0.25500000920E-02 0.  1.
       -2   -1    0    0    0  501  0.00000000000E+00  0.00000000000E+00 -0.16421166744E+04  0.16421166744E+04  0.25500000920E-02 0. -1.
    10030    2    1    2    0    0  0.00000000000E+00  0.00000000000E+00  0.58783900096E+02  0.33430172489E+04  0.33425003783E+04 0.  0.
        2    1    3    3  502    0  0.81644221294E+03 -0.69690559838E+03  0.13105357335E+04  0.16940363659E+04  0.25500000920E-02 0.  1.
       -2    1    3    3    0  502 -0.81644221294E+03  0.69690559838E+03 -0.12517518334E+04  0.16489808830E+04  0.25500000920E-02 0. -1.
</event>
<event>
 5   0  0.1116462E-06  0.3310362E+04  0.7818609E-02  0.8160264E-01
       -2   -1    0    0    0  501  0.00000000000E+00  0.00000000000E+00  0.14089195722E+04  0.14089195722E+04  0.25500000920E-02 0.  1.
        2   -1    0    0  501    0  0.00000000000E+00  0.00000000000E+00 -0.19444862543E+04  0.19444862543E+04  0.25500000920E-02 0. -1.
    10030    2    1    2    0    0  0.00000000000E+00  0.00000000000E+00 -0.53556668218E+03  0.33534058265E+04  0.33103623618E+04 0.  0.
        1    1    3    3  502    0 -0.14103101169E+04 -0.66083685303E+03 -0.83537656862E+03  0.17673522523E+04  0.50400001928E-02 0. -1.
       -1    1    3    3    0  502  0.14103101169E+04  0.66083685303E+03  0.29980988644E+03  0.15860535742E+04  0.50400001928E-02 0.  1.
</event>
<event>
 5   0  0.3573375E-07  0.3303438E+04  0.7818609E-02  0.8162021E-01
       -3   -1    0    0    0  501  0.00000000000E+00  0.00000000000E+00  0.18877267694E+04  0.18877267721E+04  0.10100000352E+00 0.  1.
        3   -1    0    0  501    0  0.00000000000E+00  0.00000000000E+00 -0.14452173736E+04  0.14452173771E+04  0.10100000352E+00 0. -1.
    10030    2    1    2    0    0  0.00000000000E+00  0.00000000000E+00  0.44250939580E+03  0.33329441492E+04  0.33034379268E+04 0.  0.
        2    1    3    3  502    0  0.11908022097E+03 -0.14105242332E+04  0.10799837364E+04  0.17804840865E+04  0.25500000920E-02 0.  1.
       -2    1    3    3    0  502 -0.11908022097E+03  0.14105242332E+04 -0.63747434060E+03  0.15524600627E+04  0.25500000920E-02 0. -1.
</event>
<event>
 5   0  0.3757406E-07  0.3298371E+04  0.7818609E-02  0.8163310E-01
       -1   -1    0    0    0  501  0.00000000000E+00  0.00000000000E+00  0.19811323369E+04  0.19811323369E+04  0.50400001928E-02 0. -1.
        1   -1    0    0  501    0  0.00000000000E+00  0.00000000000E+00 -0.13728574047E+04  0.13728574047E+04  0.50400001928E-02 0.  1.
    10030    2    1    2    0    0  0.00000000000E+00  0.00000000000E+00  0.60827493221E+03  0.33539897416E+04  0.32983706271E+04 0.  0.
        1    1    3    3  502    0 -0.81449024923E+03  0.14337941559E+04  0.27816959604E+03  0.16722853739E+04  0.50400001928E-02 0. -1.
       -1    1    3    3    0  502  0.81449024923E+03 -0.14337941559E+04  0.33010533616E+03  0.16817043678E+04  0.50400001928E-02 0.  1.
</event>
<event>
 5   0  0.1116462E-06  0.3294690E+04  0.7818609E-02  0.8164248E-01
       -2   -1    0    0    0  501  0.00000000000E+00  0.00000000000E+00  0.12499160818E+04  0.12499160818E+04  0.25500000920E-02 0.  1.
        2   -1    0    0  501    0  0.00000000000E+00  0.00000000000E+00 -0.21711419296E+04  0.21711419296E+04  0.25500000920E-02 0. -1.
    10030    2    1    2    0    0  0.00000000000E+00  0.00000000000E+00 -0.92122584782E+03  0.34210580113E+04  0.32946897964E+04 0.  0.
        1    1    3    3  502    0  0.45112908511E+02 -0.13727149969E+04  0.48386999186E+03  0.14561977222E+04  0.50400001928E-02 0.  1.
       -1    1    3    3    0  502 -0.45112908511E+02  0.13727149969E+04 -0.14050958397E+04  0.19648602891E+04  0.50400001928E-02 0. -1.
</event>
<event>
 5   0  0.3674967E-07  0.3264748E+04  0.7818609E-02  0.8171924E-01
        1   -1    0    0  501    0  0.00000000000E+00  0.00000000000E+00  0.29619869180E+04  0.29619869180E+04  0.50400001928E-02 0.  1.
       -1   -1    0    0    0  501  0.00000000000E+00  0.00000000000E+00 -0.89961420202E+03  0.89961420204E+03  0.50400001928E-02 0. -1.
    10030    2    1    2    0    0  0.00000000000E+00  0.00000000000E+00  0.20623727160E+04  0.38616011201E+04  0.32647483809E+04 0.  0.
        2    1    3    3  502    0  0.22908974425E+03  0.13562445391E+03  0.29361354643E+04  0.29481803826E+04  0.25500000920E-02 0.  1.
       -2    1    3    3    0  502 -0.22908974425E+03 -0.13562445391E+03 -0.87376274829E+03  0.91342073751E+03  0.25500000920E-02 0. -1.
</event>
<event>
 5   0  0.3749685E-07  0.3324739E+04  0.7818609E-02  0.8156629E-01
       -1   -1    0    0    0  501  0.00000000000E+00  0.00000000000E+00  0.14916113389E+04  0.14916113389E+04  0.50400001928E-02 0.  1.
        1   -1    0    0  501    0  0.00000000000E+00  0.00000000000E+00 -0.18526759523E+04  0.18526759523E+04  0.50400001928E-02 0. -1.
    10030    2    1    2    0    0  0.00000000000E+00  0.00000000000E+00 -0.36106461334E+03  0.33442872912E+04  0.33247390621E+04 0.  0.
        3    1    3    3  502    0 -0.33204272970E+03 -0.83016200010E+03  0.12291537592E+04  0.15199474645E+04  0.10100000352E+00 0.  1.
       -3    1    3    3    0  502  0.33204272970E+03  0.83016200010E+03 -0.15902183726E+04  0.18243398267E+04  0.10100000352E+00 0. -1.
</event>
<event>
 5   0  0.3709747E-07  0.3306075E+04  0.7818609E-02  0.8161351E-01
       -1   -1    0    0    0  501  0.00000000000E+00  0.00000000000E+00  0.11485570852E+04  0.11485570852E+04  0.50400001928E-02 0.  1.
        1   -1    0    0  501    0  0.00000000000E+00  0.00000000000E+00 -0.23791003805E+04  0.23791003805E+04  0.50400001928E-02 0. -1.
    10030    2    1    2    0    0  0.00000000000E+00  0.00000000000E+00 -0.12305432953E+04  0.35276574657E+04  0.33060747714E+04 0.  0.
        4    1    3    3  502    0  0.97152667274E+02  0.15881093981E+04 -0.13689197054E+03  0.15969568327E+04  0.12699999809E+01 0.  1.
       -4    1    3    3    0  502 -0.97152667274E+02 -0.15881093981E+04 -0.10936513248E+04  0.19307006330E+04  0.12699999809E+01 0. -1.
</event>
<event>
 5   0  0.1116462E-06  0.3301720E+04  0.7818609E-02  0.8162458E-01
       -2   -1    0    0    0  501  0.00000000000E+00  0.00000000000E+00  0.87477487120E+03  0.87477487120E+03  0.25500000920E-02 0. -1.
        2   -1    0    0  501    0  0.00000000000E+00  0.00000000000E+00 -0.31154744526E+04  0.31154744526E+04  0.25500000920E-02 0.  1.
    10030    2    1    2    0    0  0.00000000000E+00  0.00000000000E+00 -0.22406995814E+04  0.39902493238E+04  0.33017200142E+04 0.  0.
        1    1    3    3  502    0 -0.13968544723E+04  0.81113232168E+03 -0.15323184405E+04  0.22264630837E+04  0.50400001928E-02 0.  1.
       -1    1    3    3    0  502  0.13968544723E+04 -0.81113232168E+03 -0.70838114091E+03  0.17637862401E+04  0.50400001928E-02 0. -1.
</event>
<event>
 5   0  0.3674967E-07  0.3323455E+04  0.7818609E-02  0.8156953E-01
       -1   -1    0    0    0  501  0.00000000000E+00  0.00000000000E+00  0.86861641421E+03  0.86861641423E+03  0.50400001928E-02 0.  1.
        1   -1    0    0  501    0  0.00000000000E+00  0.00000000000E+00 -0.31790078504E+04  0.31790078504E+04  0.50400001928E-02 0. -1.
    10030    2    1    2    0    0  0.00000000000E+00  0.00000000000E+00 -0.23103914362E+04  0.40476242646E+04  0.33234550695E+04 0.  0.
        2    1    3    3  502    0 -0.72838589765E+03 -0.13420463869E+04 -0.35684261793E+03  0.15681107023E+04  0.25500000920E-02 0.  1.
       -2    1    3    3    0  502  0.72838589765E+03  0.13420463869E+04 -0.19535488183E+04  0.24795135624E+04  0.25500000920E-02 0. -1.
</event>
<event>
 5   0  0.3796529E-07  0.3365136E+04  0.7818609E-02  0.8146517E-01
        1   -1    0    0  501    0  0.00000000000E+00  0.00000000000E+00  0.23408787838E+04  0.23408787838E+04  0.50400001928E-02 0. -1.
       -1   -1    0    0    0  501  0.00000000000E+00  0.00000000000E+00 -0.12093896385E+04  0.12093896385E+04  0.50400001928E-02 0.  1.
    10030    2    1    2    0    0  0.00000000000E+00  0.00000000000E+00  0.11314891453E+04  0.35502684223E+04  0.33651356858E+04 0.  0.
        5    1    3    3  502    0 -0.36475609094E+02  0.14191422358E+04 -0.38711400135E+03  0.14714531918E+04  0.46999998093E+01 0.  1.
       -5    1    3    3    0  502  0.36475609094E+02 -0.14191422358E+04  0.15186031467E+04  0.20788152305E+04  0.46999998093E+01 0. -1.
</event>
<event>
 5   0  0.3796529E-07  0.3147338E+04  0.7818609E-02  0.8202865E-01
       -1   -1    0    0    0  501  0.00000000000E+00  0.00000000000E+00  0.93963568416E+03  0.93963568417E+03  0.50400001928E-02 0.  1.
        1   -1    0    0  501    0  0.00000000000E+00  0.00000000000E+00 -0.26355256160E+04  0.26355256160E+04  0.50400001928E-02 0. -1.
    10030    2    1    2    0    0  0.00000000000E+00  0.00000000000E+00 -0.16958899318E+04  0.35751613002E+04  0.31473378690E+04 0.  0.
        5    1    3    3  502    0  0.15162514069E+04 -0.24936026618E+03 -0.12335146945E+04  0.19704769632E+04  0.46999998093E+01 0. -1.
       -5    1    3    3    0  502 -0.15162514069E+04  0.24936026618E+03 -0.46237523738E+03  0.16046843370E+04  0.46999998093E+01 0.  1.
</event>
<event>
 5   0  0.1116462E-06  0.3245920E+04  0.7818609E-02  0.8176794E-01
        2   -1    0    0  501    0  0.00000000000E+00  0.00000000000E+00  0.15682967811E+04  0.15682967811E+04  0.25500000920E-02 0. -1.
       -2   -1    0    0    0  501  0.00000000000E+00  0.00000000000E+00 -0.16795287573E+04  0.16795287573E+04  0.25500000920E-02 0.  1.
    10030    2    1    2    0    0  0.00000000000E+00  0.00000000000E+00 -0.11123197618E+03  0.32478255384E+04  0.32459202355E+04 0.  0.
        1    1    3    3  502    0 -0.15847294155E+04 -0.26860075613E+03 -0.28043845929E+03  0.16316125201E+04  0.50400001928E-02 0. -1.
       -1    1    3    3    0  502  0.15847294155E+04  0.26860075613E+03  0.16920648311E+03  0.16162130183E+04  0.50400001928E-02 0.  1.
</event>
<event>
 5   0  0.3796529E-07  0.3300795E+04  0.7818609E-02  0.8162693E-01
       -1   -1    0    0    0  501  0.00000000000E+00  0.00000000000E+00  0.14095670894E+04  0.14095670894E+04  0.50400001928E-02 0.  1.
        1   -1    0    0  501    0  0.00000000000E+00  0.00000000000E+00 -0.19323753480E+04  0.19323753480E+04  0.50400001928E-02 0. -1.
    10030    2    1    2    0    0  0.00000000000E+00  0.00000000000E+00 -0.52280825857E+03  0.33419424374E+04  0.33007954768E+04 0.  0.
        5    1    3    3  502    0 -0.19509130765E+03  0.14941080755E+04 -0.94312601997E+03  0.17776187272E+04  0.46999998093E+01 0. -1.
       -5    1    3    3    0  502  0.19509130765E+03 -0.14941080755E+04  0.42031776140E+03  0.15643237102E+04  0.46999998093E+01 0.  1.
</event>
<event>
 5   0  0.1126221E-06  0.3052331E+04  0.7818609E-02  0.8228943E-01
       -2   -1    0    0    0  501  0.00000000000E+00  0.00000000000E+00  0.14997740865E+04  0.14997740865E+04  0.25500000920E-02 0. -1.
        2   -1    0    0  501    0  0.00000000000E+00  0.00000000000E+00 -0.15530208268E+04  0.15530208268E+04  0.25500000920E-02 0.  1.
    10030    2    1    2    0    0  0.00000000000E+00  0.00000000000E+00 -0.53246740326E+02  0.30527949132E+04  0.30523305140E+04 0.  0.
        2    1    3    3  502    0 -0.26451531385E+03 -0.14488683034E+04 -0.42667507693E+03  0.15333751443E+04  0.25500000920E-02 0. -1.
       -2    1    3    3    0  502  0.26451531385E+03  0.14488683034E+04  0.37342833660E+03  0.15194197690E+04  0.25500000920E-02 0.  1.
</event>
<event>
 5   0  0.3674967E-07  0.3309959E+04  0.7818609E-02  0.8160366E-01
        1   -1    0    0  501    0  0.00000000000E+00  0.00000000000E+00  0.16952978077E+04  0.16952978077E+04  0.50400001928E-02 0.  1.
       -1   -1    0    0    0  501  0.00000000000E+00  0.00000000000E+00 -0.16156203899E+04  0.16156203899E+04  0.50400001928E-02 0. -1.
    10030    2    1    2    0    0  0.00000000000E+00  0.00000000000E+00  0.79677417870E+02  0.33109181976E+04  0.33099593382E+04 0.  0.
        2    1    3    3  502    0  0.10067772330E+04  0.12998599098E+04 -0.14921742679E+03  0.16509094531E+04  0.25500000920E-02 0. -1.
       -2    1    3    3    0  502 -0.10067772330E+04 -0.12998599098E+04  0.22889484466E+03  0.16600087445E+04  0.25500000920E-02 0.  1.
</event>
<event>
 5   0  0.1146799E-06  0.3308293E+04  0.7818609E-02  0.8160788E-01
        2   -1    0    0  501    0  0.00000000000E+00  0.00000000000E+00  0.26424197886E+04  0.26424197886E+04  0.25500000920E-02 0.  1.
       -2   -1    0    0    0  501  0.00000000000E+00  0.00000000000E+00 -0.10354907602E+04  0.10354907602E+04  0.25500000920E-02 0. -1.
    10030    2    1    2    0    0  0.00000000000E+00  0.00000000000E+00  0.16069290284E+04  0.36779105488E+04  0.33082933822E+04 0.  0.
        5    1    3    3  502    0  0.40224696953E+03  0.99539041444E+03 -0.59553123203E+03  0.12277150484E+04  0.46999998093E+01 0. -1.
       -5    1    3    3    0  502 -0.40224696953E+03 -0.99539041444E+03  0.22024602605E+04  0.24501955005E+04  0.46999998093E+01 0.  1.
</event>
<event>
 5   0  0.1120545E-06  0.3294838E+04  0.7818609E-02  0.8164210E-01
        2   -1    0    0  501    0  0.00000000000E+00  0.00000000000E+00  0.17602051929E+04  0.17602051929E+04  0.25500000920E-02 0. -1.
       -2   -1    0    0    0  501  0.00000000000E+00  0.00000000000E+00 -0.15418594677E+04  0.15418594677E+04  0.25500000920E-02 0.  1.
    10030    2    1    2    0    0  0.00000000000E+00  0.00000000000E+00  0.21834572527E+03  0.33020646606E+04  0.32948378059E+04 0.  0.
        4    1    3    3  502    0  0.12424228292E+04 -0.77646303827E+03 -0.64579085891E+03  0.16011111088E+04  0.12699999809E+01 0.  1.
       -4    1    3    3    0  502 -0.12424228292E+04  0.77646303827E+03  0.86413658419E+03  0.17009535518E+04  0.12699999809E+01 0. -1.
</event>
<event>
 5   0  0.1120545E-06  0.3289507E+04  0.7818609E-02  0.8165570E-01
        2   -1    0    0  501    0  0.00000000000E+00  0.00000000000E+00  0.18447308701E+04  0.18447308701E+04  0.25500000920E-02 0. -1.
       -2   -1    0    0    0  501  0.00000000000E+00  0.00000000000E+00 -0.14664545970E+04  0.14664545970E+04  0.25500000920E-02 0.  1.
    10030    2    1    2    0    0  0.00000000000E+00  0.00000000000E+00  0.37827627309E+03  0.33111854671E+04  0.32895069933E+04 0.  0.
        4    1    3    3  502    0  0.75735645790E+03  0.92796714890E+03 -0.94545495170E+03  0.15259746106E+04  0.12699999809E+01 0.  1.
       -4    1    3    3    0  502 -0.75735645790E+03 -0.92796714890E+03  0.13237312248E+04  0.17852108565E+04  0.12699999809E+01 0. -1.
</event>
<event>
 5   0  0.3573375E-07  0.3315803E+04  0.7818609E-02  0.8158886E-01
        3   -1    0    0  501    0  0.00000000000E+00  0.00000000000E+00  0.17818015971E+04  0.17818015999E+04  0.10100000352E+00 0.  1.
       -3   -1    0    0    0  501  0.00000000000E+00  0.00000000000E+00 -0.15426167953E+04  0.15426167986E+04  0.10100000352E+00 0. -1.
    10030    2    1    2    0    0  0.00000000000E+00  0.00000000000E+00  0.23918480177E+03  0.33244183985E+04  0.33158028167E+04 0.  0.
        4    1    3    3  502    0 -0.11188063223E+04 -0.73140763934E+02 -0.11048746378E+04  0.15741114117E+04  0.12699999809E+01 0. -1.
       -4    1    3    3    0  502  0.11188063223E+04  0.73140763934E+02  0.13440594396E+04  0.17503069869E+04  0.12699999809E+01 0.  1.
</event>
<event>
 5   0  0.3573375E-07  0.3310732E+04  0.7818609E-02  0.8160170E-01
       -3   -1    0    0    0  501  0.00000000000E+00  0.00000000000E+00  0.14701561379E+04  0.14701561413E+04  0.10100000352E+00 0. -1.
        3   -1    0    0  501    0  0.00000000000E+00  0.00000000000E+00 -0.18639079993E+04  0.18639080020E+04  0.10100000352E+00 0.  1.
    10030    2    1    2    0    0  0.00000000000E+00  0.00000000000E+00 -0.39375186144E+03  0.33340641434E+04  0.33107315179E+04 0.  0.
        5    1    3    3  502    0  0.56222094305E+03  0.54963598803E+02  0.13700785483E+04  0.14819752712E+04  0.46999998093E+01 0. -1.
       -5    1    3    3    0  502 -0.56222094305E+03 -0.54963598803E+02 -0.17638304097E+04  0.18520888721E+04  0.46999998093E+01 0.  1.
</event>
<event>
 5   0  0.3796529E-07  0.3045734E+04  0.7818609E-02  0.8230791E-01
       -1   -1    0    0    0  501  0.00000000000E+00  0.00000000000E+00  0.12062289816E+04  0.12062289817E+04  0.50400001928E-02 0.  1.
        1   -1    0    0  501    0  0.00000000000E+00  0.00000000000E+00 -0.19226229522E+04  0.19226229522E+04  0.50400001928E-02 0. -1.
    10030    2    1    2    0    0  0.00000000000E+00  0.00000000000E+00 -0.71639397060E+03  0.31288519339E+04  0.30457337545E+04 0.  0.
        5    1    3    3  502    0  0.57043929374E+03 -0.81769798065E+03  0.82433408770E+03  0.12936691051E+04  0.46999998093E+01 0.  1.
       -5    1    3    3    0  502 -0.57043929374E+03  0.81769798065E+03 -0.15407280583E+04  0.18351828288E+04  0.46999998093E+01 0. -1.
</event>
<event>
 5   0  0.1116462E-06  0.3300544E+04  0.7818609E-02  0.8162757E-01
        2   -1    0    0  501    0  0.00000000000E+00  0.00000000000E+00  0.13331605517E+04  0.13331605517E+04  0.25500000920E-02 0. -1.
       -2   -1    0    0    0  501  0.00000000000E+00  0.00000000000E+00 -0.20428134637E+04  0.20428134637E+04  0.25500000920E-02 0.  1.
    10030    2    1    2    0    0  0.00000000000E+00  0.00000000000E+00 -0.70965291194E+03  0.33759740154E+04  0.33005443941E+04 0.  0.
        1    1    3    3  502    0  0.61413347131E+03  0.14977348570E+04 -0.26510015711E+02  0.16189726383E+04  0.50400001928E-02 0.  1.
       -1    1    3    3    0  502 -0.61413347131E+03 -0.14977348570E+04 -0.68314289623E+03  0.17570013771E+04  0.50400001928E-02 0. -1.
</event>
<event>
 5   0  0.1146799E-06  0.3273560E+04  0.7818609E-02  0.8169656E-01
        2   -1    0    0  501    0  0.00000000000E+00  0.00000000000E+00  0.15242913353E+04  0.15242913353E+04  0.25500000920E-02 0.  1.
       -2   -1    0    0    0  501  0.00000000000E+00  0.00000000000E+00 -0.17575696340E+04  0.17575696340E+04  0.25500000920E-02 0. -1.
    10030    2    1    2    0    0  0.00000000000E+00  0.00000000000E+00 -0.23327829865E+03  0.32818609693E+04  0.32735596309E+04 0.  0.
        5    1    3    3  502    0  0.50706419821E+03 -0.25069276711E+03  0.14231806028E+04  0.15314783977E+04  0.46999998093E+01 0.  1.
       -5    1    3    3    0  502 -0.50706419821E+03  0.25069276711E+03 -0.16564589014E+04  0.17503825715E+04  0.46999998093E+01 0. -1.
</event>
<event>
 5   0  0.3796529E-07  0.3301691E+04  0.7818609E-02  0.8162465E-01
        1   -1    0    0  501    0  0.00000000000E+00  0.00000000000E+00  0.14053478940E+04  0.14053478940E+04  0.50400001928E-02 0.  1.
       -1   -1    0    0    0  501  0.00000000000E+00  0.00000000000E+00 -0.19392289832E+04  0.19392289832E+04  0.50400001928E-02 0. -1.
    10030    2    1    2    0    0  0.00000000000E+00  0.00000000000E+00 -0.53388108921E+03  0.33445768772E+04  0.33016913045E+04 0.  0.
        5    1    3    3  502    0  0.50527858135E+03  0.71001431517E+03 -0.16872372431E+04  0.18990045753E+04  0.46999998093E+01 0. -1.
       -5    1    3    3    0  502 -0.50527858135E+03 -0.71001431517E+03  0.11533561538E+04  0.14455723019E+04  0.46999998093E+01 0.  1.
</event>
<event>
 5   0  0.1120545E-06  0.3365525E+04  0.7818609E-02  0.8146420E-01
        2   -1    0    0  501    0  0.00000000000E+00  0.00000000000E+00  0.14628508972E+04  0.14628508972E+04  0.25500000920E-02 0.  1.
       -2   -1    0    0    0  501  0.00000000000E+00  0.00000000000E+00 -0.19357333296E+04  0.19357333296E+04  0.25500000920E-02 0. -1.
    10030    2    1    2    0    0  0.00000000000E+00  0.00000000000E+00 -0.47288243243E+03  0.33985842268E+04  0.33655247662E+04 0.  0.
        4    1    3    3  502    0 -0.14328222968E+04 -0.16087011459E+03 -0.11126212040E+04  0.18212046794E+04  0.12699999809E+01 0. -1.
       -4    1    3    3    0  502  0.14328222968E+04  0.16087011459E+03  0.63973877157E+03  0.15773795474E+04  0.12699999809E+01 0.  1.
</event>
<event>
 5   0  0.1116462E-06  0.3295368E+04  0.7818609E-02  0.8164075E-01
       -2   -1    0    0    0  501  0.00000000000E+00  0.00000000000E+00  0.19385680436E+04  0.19385680436E+04  0.25500000920E-02 0. -1.
        2   -1    0    0  501    0  0.00000000000E+00  0.00000000000E+00 -0.14004474028E+04  0.14004474028E+04  0.25500000920E-02 0.  1.
    10030    2    1    2    0    0  0.00000000000E+00  0.00000000000E+00  0.53812064086E+03  0.33390154464E+04  0.32953680109E+04 0.  0.
        1    1    3    3  502    0  0.60062845554E+03 -0.76102962441E+03 -0.10808551783E+04  0.14519533558E+04  0.50400001928E-02 0.  1.
       -1    1    3    3    0  502 -0.60062845554E+03  0.76102962441E+03  0.16189758191E+04  0.18870620906E+04  0.50400001928E-02 0. -1.
</event>
<event>
 5   0  0.3749685E-07  0.3322479E+04  0.7818609E-02  0.8157199E-01
        1   -1    0    0  501    0  0.00000000000E+00  0.00000000000E+00  0.20304974162E+04  0.20304974162E+04  0.50400001928E-02 0. -1.
       -1   -1    0    0    0  501  0.00000000000E+00  0.00000000000E+00 -0.13591335758E+04  0.13591335758E+04  0.50400001928E-02 0.  1.
    10030    2    1    2    0    0  0.00000000000E+00  0.00000000000E+00  0.67136384042E+03  0.33896309920E+04  0.33224793236E+04 0.  0.
        3    1    3    3  502    0  0.86966544229E+03 -0.73024875169E+03  0.15726796103E+04  0.19398201947E+04  0.10100000352E+00 0. -1.
       -3    1    3    3    0  502 -0.86966544229E+03  0.73024875169E+03 -0.90131576987E+03  0.14498107973E+04  0.10100000352E+00 0.  1.
</event>
<event>
 5   0  0.1129434E-06  0.3258193E+04  0.7818609E-02  0.8173615E-01
        2   -1    0    0  501    0  0.00000000000E+00  0.00000000000E+00  0.10320010567E+04  0.10320010567E+04  0.25500000920E-02 0.  1.
       -2   -1    0    0    0  501  0.00000000000E+00  0.00000000000E+00 -0.25716589103E+04  0.25716589103E+04  0.25500000920E-02 0. -1.
    10030    2    1    2    0    0  0.00000000000E+00  0.00000000000E+00 -0.15396578536E+04  0.36036599670E+04  0.32581925743E+04 0.  0.
        3    1    3    3  502    0 -0.15308901841E+04  0.41361251663E+02 -0.13842675705E+04  0.20643478936E+04  0.10100000352E+00 0.  1.
       -3    1    3    3    0  502  0.15308901841E+04 -0.41361251663E+02 -0.15539028305E+03  0.15393120733E+04  0.10100000352E+00 0. -1.
</event>
<event>
 5   0  0.3749685E-07  0.3256735E+04  0.7818609E-02  0.8173992E-01
        1   -1    0    0  501    0  0.00000000000E+00  0.00000000000E+00  0.13987858644E+04  0.13987858644E+04  0.50400001928E-02 0. -1.
       -1   -1    0    0    0  501  0.00000000000E+00  0.00000000000E+00 -0.18956303539E+04  0.18956303539E+04  0.50400001928E-02 0.  1.
    10030    2    1    2    0    0  0.00000000000E+00  0.00000000000E+00 -0.49684448947E+03  0.32944162183E+04  0.32567351401E+04 0.  0.
        3    1    3    3  502    0  0.31154315468E+03  0.16694720174E+03  0.13595131932E+04  0.14047087378E+04  0.10100000352E+00 0. -1.
       -3    1    3    3    0  502 -0.31154315468E+03 -0.16694720174E+03 -0.18563576827E+04  0.18897074805E+04  0.10100000352E+00 0.  1.
</event>
<event>
 5   0  0.3796529E-07  0.3312724E+04  0.7818609E-02  0.8159665E-01
       -1   -1    0    0    0  501  0.00000000000E+00  0.00000000000E+00  0.29015984182E+04  0.29015984182E+04  0.50400001928E-02 0.  1.
        1   -1    0    0  501    0  0.00000000000E+00  0.00000000000E+00 -0.94552545060E+03  0.94552545061E+03  0.50400001928E-02 0. -1.
    10030    2    1    2    0    0  0.00000000000E+00  0.00000000000E+00  0.19560729676E+04  0.38471238688E+04  0.33127240464E+04 0.  0.
        5    1    3    3  502    0  0.11299489050E+04 -0.12103927115E+04  0.93046472502E+03  0.18993740386E+04  0.46999998093E+01 0. -1.
       -5    1    3    3    0  502 -0.11299489050E+04  0.12103927115E+04  0.10256082426E+04  0.19477498302E+04  0.46999998093E+01 0.  1.
</event>
<event>
 5   0  0.3757406E-07  0.3305054E+04  0.7818609E-02  0.8161611E-01
        1   -1    0    0  501    0  0.00000000000E+00  0.00000000000E+00  0.12759204645E+04  0.12759204645E+04  0.50400001928E-02 0.  1.
       -1   -1    0    0    0  501  0.00000000000E+00  0.00000000000E+00 -0.21402942952E+04  0.21402942952E+04  0.50400001928E-02 0. -1.
    10030    2    1    2    0    0  0.00000000000E+00  0.00000000000E+00 -0.86437383074E+03  0.34162147597E+04  0.33050538823E+04 0.  0.
        1    1    3    3  502    0 -0.10605567587E+03  0.73531533581E+03  0.10935728249E+04  0.13220582335E+04  0.50400001928E-02 0.  1.
       -1    1    3    3    0  502  0.10605567587E+03 -0.73531533581E+03 -0.19579466557E+04  0.20941565261E+04  0.50400001928E-02 0. -1.
</event>
<event>
 5   0  0.3757406E-07  0.3278713E+04  0.7818609E-02  0.8168333E-01
        1   -1    0    0  501    0  0.00000000000E+00  0.00000000000E+00  0.21889864452E+04  0.21889864452E+04  0.50400001928E-02 0.  1.
       -1   -1    0    0    0  501  0.00000000000E+00  0.00000000000E+00 -0.12277325241E+04  0.12277325241E+04  0.50400001928E-02 0. -1.
    10030    2    1    2    0    0  0.00000000000E+00  0.00000000000E+00  0.96125392106E+03  0.34167189693E+04  0.32787130729E+04 0.  0.
        1    1    3    3  502    0 -0.91955493797E+01  0.96227011125E+03  0.18636835882E+04  0.20974662910E+04  0.50400001928E-02 0.  1.
       -1    1    3    3    0  502  0.91955493797E+01 -0.96227011125E+03 -0.90242966709E+03  0.13192526783E+04  0.50400001928E-02 0. -1.
</event>
<event>
 5   0  0.1129434E-06  0.3307988E+04  0.7818609E-02  0.8160866E-01
       -2   -1    0    0    0  501  0.00000000000E+00  0.00000000000E+00  0.96783982161E+03  0.96783982162E+03  0.25500000920E-02 0.  1.
        2   -1    0    0  501    0  0.00000000000E+00  0.00000000000E+00 -0.28266006509E+04  0.28266006509E+04  0.25500000920E-02 0. -1.
    10030    2    1    2    0    0  0.00000000000E+00  0.00000000000E+00 -0.18587608293E+04  0.37944404725E+04  0.33079883130E+04 0.  0.
        3    1    3    3  502    0  0.58235879656E+03  0.15471025277E+04 -0.86625429896E+03  0.18662970074E+04  0.10100000352E+00 0.  1.
       -3    1    3    3    0  502 -0.58235879656E+03 -0.15471025277E+04 -0.99250653033E+03  0.19281434651E+04  0.10100000352E+00 0. -1.
</event>
<event>
 5   0  0.3757406E-07  0.3293101E+04  0.7818609E-02  0.8164653E-01
       -1   -1    0    0    0  501  0.00000000000E+00  0.00000000000E+00  0.11160383449E+04  0.11160383449E+04  0.50400001928E-02 0. -1.
        1   -1    0    0  501    0  0.00000000000E+00  0.00000000000E+00 -0.24292436281E+04  0.24292436282E+04  0.50400001928E-02 0.  1.
    10030    2    1    2    0    0  0.00000000000E+00  0.00000000000E+00 -0.13132052833E+04  0.35452819730E+04  0.32931012970E+04 0.  0.
        1    1    3    3  502    0  0.69867855995E+03  0.14503743900E+04 -0.10285935125E+04  0.19104298509E+04  0.50400001928E-02 0.  1.
       -1    1    3    3    0  502 -0.69867855995E+03 -0.14503743900E+04 -0.28461177083E+03  0.16348521222E+04  0.50400001928E-02 0. -1.
</event>
<event>
 5   0  0.3674967E-07  0.3302990E+04  0.7818609E-02  0.8162135E-01
       -1   -1    0    0    0  501  0.00000000000E+00  0.00000000000E+00  0.14554188908E+04  0.14554188908E+04  0.50400001928E-02 0.  1.
        1   -1    0    0  501    0  0.00000000000E+00  0.00000000000E+00 -0.18739868429E+04  0.18739868429E+04  0.50400001928E-02 0. -1.
    10030    2    1    2    0    0  0.00000000000E+00  0.00000000000E+00 -0.41856795212E+03  0.33294057337E+04  0.33029900710E+04 0.  0.
        2    1    3    3  502    0 -0.72134797418E+03 -0.70710650551E+03 -0.15262909941E+04  0.18302750363E+04  0.25500000920E-02 0. -1.
       -2    1    3    3    0  502  0.72134797418E+03  0.70710650551E+03  0.11077230420E+04  0.14991306973E+04  0.25500000920E-02 0.  1.
</event>
<event>
 5   0  0.3796529E-07  0.3299117E+04  0.7818609E-02  0.8163120E-01
        1   -1    0    0  501    0  0.00000000000E+00  0.00000000000E+00  0.20594072866E+04  0.20594072866E+04  0.50400001928E-02 0.  1.
       -1   -1    0    0    0  501  0.00000000000E+00  0.00000000000E+00 -0.13212753201E+04  0.13212753201E+04  0.50400001928E-02 0. -1.
    10030    2    1    2    0    0  0.00000000000E+00  0.00000000000E+00  0.73813196642E+03  0.33806826067E+04  0.32991174710E+04 0.  0.
        5    1    3    3  502    0  0.13624885982E+04  0.88044229516E+03  0.67557324391E+03  0.17572635298E+04  0.46999998093E+01 0.  1.
       -5    1    3    3    0  502 -0.13624885982E+04 -0.88044229516E+03  0.62558722515E+02  0.16234190769E+04  0.46999998093E+01 0. -1.
</event>
<event>
 5   0  0.1116462E-06  0.3253376E+04  0.7818609E-02  0.8174861E-01
       -2   -1    0    0    0  501  0.00000000000E+00  0.00000000000E+00  0.21097988111E+04  0.21097988111E+04  0.25500000920E-02 0.  1.
        2   -1    0    0  501    0  0.00000000000E+00  0.00000000000E+00 -0.12542022438E+04  0.12542022438E+04  0.25500000920E-02 0. -1.
    10030    2    1    2    0    0  0.00000000000E+00  0.00000000000E+00  0.85559656729E+03  0.33640010550E+04  0.32533763404E+04 0.  0.
        1    1    3    3  502    0  0.54487662686E+03  0.49878163479E+03  0.19263682916E+04  0.20631452815E+04  0.50400001928E-02 0.  1.
       -1    1    3    3    0  502 -0.54487662686E+03 -0.49878163479E+03 -0.10707717243E+04  0.13008557735E+04  0.50400001928E-02 0. -1.
</event>
<event>
 5   0  0.1129434E-06  0.3295890E+04  0.7818609E-02  0.8163942E-01
        2   -1    0    0  501    0  0.00000000000E+00  0.00000000000E+00  0.20701822165E+04  0.20701822165E+04  0.25500000920E-02 0.  1.
       -2   -1    0    0    0  501  0.00000000000E+00  0.00000000000E+00 -0.13118278463E+04  0.13118278463E+04  0.25500000920E-02 0. -1.
    10030    2    1    2    0    0  0.00000000000E+00  0.00000000000E+00  0.75835437021E+03  0.33820100628E+04  0.32958899729E+04 0.  0.
        3    1    3    3  502    0 -0.14225040201E+04  0.17494016148E+03  0.12138191963E+04  0.18781583529E+04  0.10100000352E+00 0.  1.
       -3    1    3    3    0  502  0.14225040201E+04 -0.17494016148E+03 -0.45546482607E+03  0.15038517098E+04  0.10100000352E+00 0. -1.
</event>
<event>
 5   0  0.3757406E-07  0.3283700E+04  0.7818609E-02  0.8167055E-01
        1   -1    0    0  501    0  0.00000000000E+00  0.00000000000E+00  0.98787060859E+03  0.98787060860E+03  0.50400001928E-02 0. -1.
       -1   -1    0    0    0  501  0.00000000000E+00  0.00000000000E+00 -0.27287702297E+04  0.27287702297E+04  0.50400001928E-02 0.  1.
    10030    2    1    2    0    0  0.00000000000E+00  0.00000000000E+00 -0.17408996211E+04  0.37166408383E+04  0.32837002954E+04 0.  0.
        1    1    3    3  502    0 -0.98449859082E+03 -0.29299802218E+03  0.57927863827E+03  0.11792578417E+04  0.50400001928E-02 0. -1.
       -1    1    3    3    0  502  0.98449859082E+03  0.29299802218E+03 -0.23201782594E+04  0.25373829966E+04  0.50400001928E-02 0.  1.
</event>
<event>
 5   0  0.3674967E-07  0.3303993E+04  0.7818609E-02  0.8161880E-01
        1   -1    0    0  501    0  0.00000000000E+00  0.00000000000E+00  0.14755756929E+04  0.14755756929E+04  0.50400001928E-02 0.  1.
       -1   -1    0    0    0  501  0.00000000000E+00  0.00000000000E+00 -0.18495097808E+04  0.18495097808E+04  0.50400001928E-02 0. -1.
    10030    2    1    2    0    0  0.00000000000E+00  0.00000000000E+00 -0.37393408792E+03  0.33250854737E+04  0.33039925402E+04 0.  0.
        2    1    3    3  502    0  0.99638160865E+03  0.89807317057E+03 -0.11573738707E+04  0.17716732222E+04  0.25500000920E-02 0. -1.
       -2    1    3    3    0  502 -0.99638160865E+03 -0.89807317057E+03  0.78343978281E+03  0.15534122515E+04  0.25500000920E-02 0.  1.
</event>
<event>
 5   0  0.3709747E-07  0.3303015E+04  0.7818609E-02  0.8162129E-01
        1   -1    0    0  501    0  0.00000000000E+00  0.00000000000E+00  0.15109661334E+04  0.15109661334E+04  0.50400001928E-02 0. -1.
       -1   -1    0    0    0  501  0.00000000000E+00  0.00000000000E+00 -0.18051213376E+04  0.18051213376E+04  0.50400001928E-02 0.  1.
    10030    2    1    2    0    0  0.00000000000E+00  0.00000000000E+00 -0.29415520417E+03  0.33160874710E+04  0.33030151122E+04 0.  0.
        4    1    3    3  502    0  0.12209121088E+04  0.10577288819E+04 -0.49203435742E+03  0.16886432977E+04  0.12699999809E+01 0. -1.
       -4    1    3    3    0  502 -0.12209121088E+04 -0.10577288819E+04  0.19787915325E+03  0.16274441733E+04  0.12699999809E+01 0.  1.
</event>
<event>
 5   0  0.3749685E-07  0.3144068E+04  0.7818609E-02  0.8203747E-01
       -1   -1    0    0    0  501  0.00000000000E+00  0.00000000000E+00  0.88628601850E+03  0.88628601852E+03  0.50400001928E-02 0. -1.
        1   -1    0    0  501    0  0.00000000000E+00  0.00000000000E+00 -0.27883673977E+04  0.27883673977E+04  0.50400001928E-02 0.  1.
    10030    2    1    2    0    0  0.00000000000E+00  0.00000000000E+00 -0.19020813792E+04  0.36746534162E+04  0.31440680903E+04 0.  0.
        3    1    3    3  502    0  0.46054082506E+03  0.37310146538E+03  0.75069140931E+03  0.95647276868E+03  0.10100000352E+00 0. -1.
       -3    1    3    3    0  502 -0.46054082506E+03 -0.37310146538E+03 -0.26527727885E+04  0.27181806475E+04  0.10100000352E+00 0.  1.
</event>
<event>
 5   0  0.3757406E-07  0.3259592E+04  0.7818609E-02  0.8173254E-01
       -1   -1    0    0    0  501  0.00000000000E+00  0.00000000000E+00  0.15407168077E+04  0.15407168077E+04  0.50400001928E-02 0.  1.
        1   -1    0    0  501    0  0.00000000000E+00  0.00000000000E+00 -0.17240259829E+04  0.17240259829E+04  0.50400001928E-02 0. -1.
    10030    2    1    2    0    0  0.00000000000E+00  0.00000000000E+00 -0.18330917517E+03  0.32647427907E+04  0.32595924953E+04 0.  0.
        1    1    3    3  502    0 -0.14189329568E+04  0.43366901479E+02  0.71022542240E+03  0.15873473390E+04  0.50400001928E-02 0.  1.
       -1    1    3    3    0  502  0.14189329568E+04 -0.43366901479E+02 -0.89353459757E+03  0.16773954516E+04  0.50400001928E-02 0. -1.
</event>
<event>
 5   0  0.1120545E-06  0.3332812E+04  0.7818609E-02  0.8154596E-01
       -2   -1    0    0    0  501  0.00000000000E+00  0.00000000000E+00  0.84994734563E+03  0.84994734563E+03  0.25500000920E-02 0.  1.
        2   -1    0    0  501    0  0.00000000000E+00  0.00000000000E+00 -0.32671548411E+04  0.32671548411E+04  0.25500000920E-02 0. -1.
    10030    2    1    2    0    0  0.00000000000E+00  0.00000000000E+00 -0.24172074954E+04  0.41171021867E+04  0.33328123769E+04 0.  0.
        4    1    3    3  502    0 -0.15427631400E+04 -0.48139507646E+03 -0.17104685801E+04  0.23532028604E+04  0.12699999809E+01 0. -1.
       -4    1    3    3    0  502  0.15427631400E+04  0.48139507646E+03 -0.70673891534E+03  0.17638993263E+04  0.12699999809E+01 0.  1.
</event>
<event>
 5   0  0.1120545E-06  0.3308206E+04  0.7818609E-02  0.8160810E-01
        2   -1    0    0  501    0  0.00000000000E+00  0.00000000000E+00  0.14867300882E+04  0.14867300882E+04  0.25500000920E-02 0.  1.
       -2   -1    0    0    0  501  0.00000000000E+00  0.00000000000E+00 -0.18403188720E+04  0.18403188720E+04  0.25500000920E-02 0. -1.
    10030    2    1    2    0    0  0.00000000000E+00  0.00000000000E+00 -0.35358878379E+03  0.33270489601E+04  0.33082064257E+04 0.  0.
        4    1    3    3  502    0 -0.11433159714E+04 -0.25378862792E+03 -0.13515553410E+04  0.17883745500E+04  0.12699999809E+01 0. -1.
       -4    1    3    3    0  502  0.11433159714E+04  0.25378862792E+03  0.99796655725E+03  0.15386744102E+04  0.12699999809E+01 0.  1.
</event>
<event>
 5   0  0.3749685E-07  0.3152449E+04  0.7818609E-02  0.8201489E-01
       -1   -1    0    0    0  501  0.00000000000E+00  0.00000000000E+00  0.10595756933E+04  0.10595756933E+04  0.50400001928E-02 0.  1.
        1   -1    0    0  501    0  0.00000000000E+00  0.00000000000E+00 -0.23447910302E+04  0.23447910302E+04  0.50400001928E-02 0. -1.
    10030    2    1    2    0    0  0.00000000000E+00  0.00000000000E+00 -0.12852153369E+04  0.34043667235E+04  0.31524489410E+04 0.  0.
        3    1    3    3  502    0 -0.15699283392E+04  0.72065325152E+02 -0.77316167714E+03  0.17514700655E+04  0.10100000352E+00 0.  1.
       -3    1    3    3    0  502  0.15699283392E+04 -0.72065325152E+02 -0.51205365975E+03  0.16528966580E+04  0.10100000352E+00 0. -1.
</event>
<event>
 5   0  0.3709747E-07  0.3308564E+04  0.7818609E-02  0.8160720E-01
       -1   -1    0    0    0  501  0.00000000000E+00  0.00000000000E+00  0.12071798368E+04  0.12071798368E+04  0.50400001928E-02 0.  1.
        1   -1    0    0  501    0  0.00000000000E+00  0.00000000000E+00 -0.22669763587E+04  0.22669763587E+04  0.50400001928E-02 0. -1.
    10030    2    1    2    0    0  0.00000000000E+00  0.00000000000E+00 -0.10597965219E+04  0.34741561955E+04  0.33085635256E+04 0.  0.
        4    1    3    3  502    0  0.38743190184E+03  0.26904201095E+03 -0.21948677206E+04  0.22449795112E+04  0.12699999809E+01 0. -1.
       -4    1    3    3    0  502 -0.38743190184E+03 -0.26904201095E+03  0.11350711987E+04  0.12291766843E+04  0.12699999809E+01 0.  1.
</event>
<event>
 5   0  0.1120545E-06  0.3282466E+04  0.7818609E-02  0.8167371E-01
        2   -1    0    0  501    0  0.00000000000E+00  0.00000000000E+00  0.16417035370E+04  0.16417035370E+04  0.25500000920E-02 0. -1.
       -2   -1    0    0    0  501  0.00000000000E+00  0.00000000000E+00 -0.16407623989E+04  0.16407623989E+04  0.25500000920E-02 0.  1.
    10030    2    1    2    0    0  0.00000000000E+00  0.00000000000E+00  0.94113814709E+00  0.32824659359E+04  0.32824658009E+04 0.  0.
        4    1    3    3  502    0  0.12664852919E+04 -0.26046651022E+03  0.10113197701E+04  0.16415227954E+04  0.12699999809E+01 0. -1.
       -4    1    3    3    0  502 -0.12664852919E+04  0.26046651022E+03 -0.10103786320E+04  0.16409431405E+04  0.12699999809E+01 0.  1.
</event>
<event>
 5   0  0.1120545E-06  0.3246743E+04  0.7818609E-02  0.8176580E-01
        2   -1    0    0  501    0  0.00000000000E+00  0.00000000000E+00  0.21038190196E+04  0.21038190196E+04  0.25500000920E-02 0. -1.
       -2   -1    0    0    0  501  0.00000000000E+00  0.00000000000E+00 -0.12526437448E+04  0.12526437448E+04  0.25500000920E-02 0.  1.
    10030    2    1    2    0    0  0.00000000000E+00  0.00000000000E+00  0.85117527479E+03  0.33564627644E+04  0.32467434362E+04 0.  0.
        4    1    3    3  502    0  0.14269622505E+04 -0.52399708171E+03  0.10145233931E+04  0.18275813345E+04  0.12699999809E+01 0. -1.
       -4    1    3    3    0  502 -0.14269622505E+04  0.52399708171E+03 -0.16334811832E+03  0.15288814299E+04  0.12699999809E+01 0.  1.
</event>
<event>
 5   0  0.1146799E-06  0.3295812E+04  0.7818609E-02  0.8163962E-01
        2   -1    0    0  501    0  0.00000000000E+00  0.00000000000E+00  0.27792255336E+04  0.27792255336E+04  0.25500000920E-02 0. -1.
       -2   -1    0    0    0  501  0.00000000000E+00  0.00000000000E+00 -0.97710437302E+03  0.97710437302E+03  0.25500000920E-02 0.  1.
    10030    2    1    2    0    0  0.00000000000E+00  0.00000000000E+00  0.18021211606E+04  0.37563299067E+04  0.32958115374E+04 0.  0.
        5    1    3    3  502    0 -0.46547997439E+02 -0.35034735206E+03 -0.93339280784E+03  0.99807525112E+03  0.46999998093E+01 0.  1.
       -5    1    3    3    0  502  0.46547997439E+02  0.35034735206E+03  0.27355139685E+04  0.27582546555E+04  0.46999998093E+01 0. -1.
</event>
<event>
 5   0  0.1116462E-06  0.3305539E+04  0.7818609E-02  0.8161488E-01
       -2   -1    0    0    0  501  0.00000000000E+00  0.00000000000E+00  0.12502308283E+04  0.12502308283E+04  0.25500000920E-02 0.  1.
        2   -1    0    0  501    0  0.00000000000E+00  0.00000000000E+00 -0.21849136496E+04  0.21849136496E+04  0.25500000920E-02 0. -1.
    10030    2    1    2    0    0  0.00000000000E+00  0.00000000000E+00 -0.93468282132E+03  0.34351444779E+04  0.33055386259E+04 0.  0.
        1    1    3    3  502    0 -0.10915487735E+03  0.14604340164E+04  0.32876577232E+03  0.15009561075E+04  0.50400001928E-02 0.  1.
       -1    1    3    3    0  502  0.10915487735E+03 -0.14604340164E+04 -0.12634485936E+04  0.19341883704E+04  0.50400001928E-02 0. -1.
</event>
<event>
 5   0  0.3573375E-07  0.3297364E+04  0.7818609E-02  0.8163566E-01
        3   -1    0    0  501    0  0.00000000000E+00  0.00000000000E+00  0.16801073619E+04  0.16801073650E+04  0.10100000352E+00 0.  1.
       -3   -1    0    0    0  501  0.00000000000E+00  0.00000000000E+00 -0.16178442092E+04  0.16178442124E+04  0.10100000352E+00 0. -1.
    10030    2    1    2    0    0  0.00000000000E+00  0.00000000000E+00  0.62263152689E+02  0.32979515773E+04  0.32973637813E+04 0.  0.
        4    1    3    3  502    0  0.81474391468E+03 -0.11005812835E+04 -0.88721702601E+03  0.16316379722E+04  0.12699999809E+01 0. -1.
       -4    1    3    3    0  502 -0.81474391468E+03  0.11005812835E+04  0.94948017870E+03  0.16663136052E+04  0.12699999809E+01 0.  1.
</event>
<event>
 5   0  0.1146799E-06  0.3297518E+04  0.7818609E-02  0.8163527E-01
       -2   -1    0    0    0  501  0.00000000000E+00  0.00000000000E+00  0.14295813294E+04  0.14295813294E+04  0.25500000920E-02 0. -1.
        2   -1    0    0  501    0  0.00000000000E+00  0.00000000000E+00 -0.19015396022E+04  0.19015396022E+04  0.25500000920E-02 0.  1.
    10030    2    1    2    0    0  0.00000000000E+00  0.00000000000E+00 -0.47195827279E+03  0.33311209315E+04  0.32975175586E+04 0.  0.
        5    1    3    3  502    0 -0.47089456198E+03 -0.13568034487E+04  0.58204200800E+03  0.15496619876E+04  0.46999998093E+01 0. -1.
       -5    1    3    3    0  502  0.47089456198E+03  0.13568034487E+04 -0.10540002808E+04  0.17814589439E+04  0.46999998093E+01 0.  1.
</event>
<event>
 5   0  0.3674967E-07  0.3290911E+04  0.7818609E-02  0.8165212E-01
       -1   -1    0    0    0  501  0.00000000000E+00  0.00000000000E+00  0.13777787731E+04  0.13777787731E+04  0.50400001928E-02 0.  1.
        1   -1    0    0  501    0  0.00000000000E+00  0.00000000000E+00 -0.19651369601E+04  0.19651369601E+04  0.50400001928E-02 0. -1.
    10030    2    1    2    0    0  0.00000000000E+00  0.00000000000E+00 -0.58735818694E+03  0.33429157332E+04  0.32909111139E+04 0.  0.
        2    1    3    3  502    0  0.14011329560E+04  0.77172842501E+03  0.98143816422E+02  0.16026136562E+04  0.25500000920E-02 0.  1.
       -2    1    3    3    0  502 -0.14011329560E+04 -0.77172842501E+03 -0.68550200336E+03  0.17403020770E+04  0.25500000920E-02 0. -1.
</event>
<event>
 5   0  0.1146799E-06  0.3239499E+04  0.7818609E-02  0.8178463E-01
        2   -1    0    0  501    0  0.00000000000E+00  0.00000000000E+00  0.17899416184E+04  0.17899416184E+04  0.25500000920E-02 0.  1.
       -2   -1    0    0    0  501  0.00000000000E+00  0.00000000000E+00 -0.14657393636E+04  0.14657393636E+04  0.25500000920E-02 0. -1.
    10030    2    1    2    0    0  0.00000000000E+00  0.00000000000E+00  0.32420225487E+03  0.32556809820E+04  0.32394986579E+04 0.  0.
        5    1    3    3  502    0  0.73926779052E+03  0.10552275256E+04 -0.82440495950E+03  0.15296037474E+04  0.46999998093E+01 0. -1.
       -5    1    3    3    0  502 -0.73926779052E+03 -0.10552275256E+04  0.11486072144E+04  0.17260772346E+04  0.46999998093E+01 0.  1.
</event>
<event>
 5   0  0.3749685E-07  0.3306662E+04  0.7818609E-02  0.8161202E-01
       -1   -1    0    0    0  501  0.00000000000E+00  0.00000000000E+00  0.27567451995E+04  0.27567451995E+04  0.50400001928E-02 0.  1.
        1   -1    0    0  501    0  0.00000000000E+00  0.00000000000E+00 -0.99156934986E+03  0.99156934987E+03  0.50400001928E-02 0. -1.
    10030    2    1    2    0    0  0.00000000000E+00  0.00000000000E+00  0.17651758496E+04  0.37483145493E+04  0.33066623929E+04 0.  0.
        3    1    3    3  502    0 -0.32732279233E+03  0.15837814770E+04  0.49319569356E+03  0.16907826529E+04  0.10100000352E+00 0. -1.
       -3    1    3    3    0  502  0.32732279233E+03 -0.15837814770E+04  0.12719801560E+04  0.20575318964E+04  0.10100000352E+00 0.  1.
</event>
<event>
 5   0  0.3709747E-07  0.3262625E+04  0.7818609E-02  0.8172471E-01
       -1   -1    0    0    0  501  0.00000000000E+00  0.00000000000E+00  0.95697662329E+03  0.95697662330E+03  0.50400001928E-02 0.  1.
        1   -1    0    0  501    0  0.00000000000E+00  0.00000000000E+00 -0.27808200923E+04  0.27808200923E+04  0.50400001928E-02 0. -1.
    10030    2    1    2    0    0  0.00000000000E+00  0.00000000000E+00 -0.18238434690E+04  0.37377967156E+04  0.32626246011E+04 0.  0.
        4    1    3    3  502    0 -0.44841036673E+03 -0.27807585977E+03  0.85651920352E+03  0.10059944332E+04  0.12699999809E+01 0.  1.
       -4    1    3    3    0  502  0.44841036673E+03  0.27807585977E+03 -0.26803626726E+04  0.27318022824E+04  0.12699999809E+01 0. -1.
</event>
<event>
 5   0  0.3749685E-07  0.3306907E+04  0.7818609E-02  0.8161140E-01
        1   -1    0    0  501    0  0.00000000000E+00  0.00000000000E+00  0.24223626334E+04  0.24223626334E+04  0.50400001928E-02 0. -1.
       -1   -1    0    0    0  501  0.00000000000E+00  0.00000000000E+00 -0.11286125899E+04  0.11286125899E+04  0.50400001928E-02 0.  1.
    10030    2    1    2    0    0  0.00000000000E+00  0.00000000000E+00  0.12937500435E+04  0.35509752233E+04  0.33069072956E+04 0.  0.
        3    1    3    3  502    0 -0.17413968448E+03  0.77954412075E+03 -0.90769544394E+03  0.12091007795E+04  0.10100000352E+00 0.  1.
       -3    1    3    3    0  502  0.17413968448E+03 -0.77954412075E+03  0.22014454875E+04  0.23418744438E+04  0.10100000352E+00 0. -1.
</event>
<event>
 5   0  0.3749685E-07  0.3285089E+04  0.7818609E-02  0.8166700E-01
       -1   -1    0    0    0  501  0.00000000000E+00  0.00000000000E+00  0.17736263362E+04  0.17736263362E+04  0.50400001928E-02 0. -1.
        1   -1    0    0  501    0  0.00000000000E+00  0.00000000000E+00 -0.15211506450E+04  0.15211506450E+04  0.50400001928E-02 0.  1.
    10030    2    1    2    0    0  0.00000000000E+00  0.00000000000E+00  0.25247569128E+03  0.32947769812E+04  0.32850892501E+04 0.  0.
        3    1    3    3  502    0  0.21494929581E+03  0.94430263243E+03 -0.12043403039E+04  0.15454275263E+04  0.10100000352E+00 0.  1.
       -3    1    3    3    0  502 -0.21494929581E+03 -0.94430263243E+03  0.14568159952E+04  0.17493494549E+04  0.10100000352E+00 0. -1.
</event>
<event>
 5   0  0.1126221E-06  0.3316100E+04  0.7818609E-02  0.8158811E-01
       -2   -1    0    0    0  501  0.00000000000E+00  0.00000000000E+00  0.16178861270E+04  0.16178861270E+04  0.25500000920E-02 0.  1.
        2   -1    0    0  501    0  0.00000000000E+00  0.00000000000E+00 -0.16992107100E+04  0.16992107100E+04  0.25500000920E-02 0. -1.
    10030    2    1    2    0    0  0.00000000000E+00  0.00000000000E+00 -0.81324582986E+02  0.33170968369E+04  0.33160997780E+04 0.  0.
        2    1    3    3  502    0  0.50480818497E+02 -0.16515329256E+04  0.97292615432E+02  0.16551662063E+04  0.25500000920E-02 0.  1.
       -2    1    3    3    0  502 -0.50480818497E+02  0.16515329256E+04 -0.17861719842E+03  0.16619306306E+04  0.25500000920E-02 0. -1.
</event>
<event>
 5   0  0.3796529E-07  0.3312629E+04  0.7818609E-02  0.8159689E-01
        1   -1    0    0  501    0  0.00000000000E+00  0.00000000000E+00  0.14490455422E+04  0.14490455422E+04  0.50400001928E-02 0. -1.
       -1   -1    0    0    0  501  0.00000000000E+00  0.00000000000E+00 -0.18932302908E+04  0.18932302908E+04  0.50400001928E-02 0.  1.
    10030    2    1    2    0    0  0.00000000000E+00  0.00000000000E+00 -0.44418474861E+03  0.33422758330E+04  0.33126285112E+04 0.  0.
        5    1    3    3  502    0 -0.80968244276E+03  0.13957810052E+04 -0.59901925826E+03  0.17212310810E+04  0.46999998093E+01 0. -1.
       -5    1    3    3    0  502  0.80968244276E+03 -0.13957810052E+04  0.15483450965E+03  0.16210447520E+04  0.46999998093E+01 0.  1.
</event>
<event>
 5   0  0.3674967E-07  0.3287774E+04  0.7818609E-02  0.8166013E-01
        1   -1    0    0  501    0  0.00000000000E+00  0.00000000000E+00  0.20048899453E+04  0.20048899453E+04  0.50400001928E-02 0.  1.
       -1   -1    0    0    0  501  0.00000000000E+00  0.00000000000E+00 -0.13478869502E+04  0.13478869502E+04  0.50400001928E-02 0. -1.
    10030    2    1    2    0    0  0.00000000000E+00  0.00000000000E+00  0.65700299505E+03  0.33527768955E+04  0.32877743194E+04 0.  0.
        2    1    3    3  502    0  0.85922969531E+03  0.10181706784E+04 -0.65356380760E+03  0.14839450294E+04  0.25500000920E-02 0. -1.
       -2    1    3    3    0  502 -0.85922969531E+03 -0.10181706784E+04  0.13105668027E+04  0.18688318661E+04  0.25500000920E-02 0.  1.
</event>
<event>
 5   0  0.3749685E-07  0.3305174E+04  0.7818609E-02  0.8161580E-01
        1   -1    0    0  501    0  0.00000000000E+00  0.00000000000E+00  0.24612929357E+04  0.24612929357E+04  0.50400001928E-02 0.  1.
       -1   -1    0    0    0  501  0.00000000000E+00  0.00000000000E+00 -0.11095970256E+04  0.11095970256E+04  0.50400001928E-02 0. -1.
    10030    2    1    2    0    0  0.00000000000E+00  0.00000000000E+00  0.13516959101E+04  0.35708899613E+04  0.33051737144E+04 0.  0.
        3    1    3    3  502    0 -0.58267364134E+03  0.57794764625E+03  0.22255681307E+04  0.23720635676E+04  0.10100000352E+00 0.  1.
       -3    1    3    3    0  502  0.58267364134E+03 -0.57794764625E+03 -0.87387222062E+03  0.11988263937E+04  0.10100000352E+00 0. -1.
</event>
<event>
 5   0  0.1116462E-06  0.3325236E+04  0.7818609E-02  0.8156504E-01
        2   -1    0    0  501    0  0.00000000000E+00  0.00000000000E+00  0.12422755936E+04  0.12422755936E+04  0.25500000920E-02 0. -1.
       -2   -1    0    0    0  501  0.00000000000E+00  0.00000000000E+00 -0.22251894979E+04  0.22251894979E+04  0.25500000920E-02 0.  1.
    10030    2    1    2    0    0  0.00000000000E+00  0.00000000000E+00 -0.98291390430E+03  0.34674650916E+04  0.33252359943E+04 0.  0.
        1    1    3    3  502    0  0.38498462093E+03  0.15914330081E+04 -0.19026632955E+03  0.16483547718E+04  0.50400001928E-02 0.  1.
       -1    1    3    3    0  502 -0.38498462093E+03 -0.15914330081E+04 -0.79264757475E+03  0.18191103197E+04  0.50400001928E-02 0. -1.
</event>
<event>
 5   0  0.1126221E-06  0.3294722E+04  0.7818609E-02  0.8164240E-01
        2   -1    0    0  501    0  0.00000000000E+00  0.00000000000E+00  0.12418193020E+04  0.12418193020E+04  0.25500000920E-02 0. -1.
       -2   -1    0    0    0  501  0.00000000000E+00  0.00000000000E+00 -0.21853400676E+04  0.21853400676E+04  0.25500000920E-02 0.  1.
    10030    2    1    2    0    0  0.00000000000E+00  0.00000000000E+00 -0.94352076558E+03  0.34271593696E+04  0.32947215223E+04 0.  0.
        2    1    3    3  502    0  0.18338208320E+03 -0.96518276917E+03 -0.18472574573E+04  0.20922635780E+04  0.25500000920E-02 0.  1.
       -2    1    3    3    0  502 -0.18338208320E+03  0.96518276917E+03  0.90373669173E+03  0.13348957916E+04  0.25500000920E-02 0. -1.
</event>
<event>
 5   0  0.3749685E-07  0.3312472E+04  0.7818609E-02  0.8159729E-01
        1   -1    0    0  501    0  0.00000000000E+00  0.00000000000E+00  0.24480028311E+04  0.24480028311E+04  0.50400001928E-02 0.  1.
       -1   -1    0    0    0  501  0.00000000000E+00  0.00000000000E+00 -0.11205531191E+04  0.11205531192E+04  0.50400001928E-02 0. -1.
    10030    2    1    2    0    0  0.00000000000E+00  0.00000000000E+00  0.13274497120E+04  0.35685559503E+04  0.33124717104E+04 0.  0.
        3    1    3    3  502    0 -0.74079378533E+03 -0.14732679496E+04  0.49744431756E+03  0.17224240892E+04  0.10100000352E+00 0. -1.
       -3    1    3    3    0  502  0.74079378533E+03  0.14732679496E+04  0.83000539441E+03  0.18461318611E+04  0.10100000352E+00 0.  1.
</event>
<event>
 5   0  0.1116462E-06  0.3330390E+04  0.7818609E-02  0.8155205E-01
        2   -1    0    0  501    0  0.00000000000E+00  0.00000000000E+00  0.18885803359E+04  0.18885803359E+04  0.25500000920E-02 0. -1.
       -2   -1    0    0    0  501  0.00000000000E+00  0.00000000000E+00 -0.14682319803E+04  0.14682319803E+04  0.25500000920E-02 0.  1.
    10030    2    1    2    0    0  0.00000000000E+00  0.00000000000E+00  0.42034835561E+03  0.33568123163E+04  0.33303897950E+04 0.  0.
        1    1    3    3  502    0 -0.32472833978E+03  0.66555788501E+03 -0.12931205098E+04  0.14901598726E+04  0.50400001928E-02 0.  1.
       -1    1    3    3    0  502  0.32472833978E+03 -0.66555788501E+03  0.17134688654E+04  0.18666524437E+04  0.50400001928E-02 0. -1.
</event>
<event>
 5   0  0.3757406E-07  0.3279206E+04  0.7818609E-02  0.8168207E-01
        1   -1    0    0  501    0  0.00000000000E+00  0.00000000000E+00  0.20696944502E+04  0.20696944502E+04  0.50400001928E-02 0.  1.
       -1   -1    0    0    0  501  0.00000000000E+00  0.00000000000E+00 -0.12988866061E+04  0.12988866061E+04  0.50400001928E-02 0. -1.
    10030    2    1    2    0    0  0.00000000000E+00  0.00000000000E+00  0.77080784418E+03  0.33685810563E+04  0.32792062455E+04 0.  0.
        1    1    3    3  502    0  0.76581612200E+03 -0.93094083246E+03  0.15270781713E+04  0.19455315231E+04  0.50400001928E-02 0.  1.
       -1    1    3    3    0  502 -0.76581612200E+03  0.93094083246E+03 -0.75627032709E+03  0.14230495332E+04  0.50400001928E-02 0. -1.
</event>
<event>
 5   0  0.3749685E-07  0.3277259E+04  0.7818609E-02  0.8168706E-01
       -1   -1    0    0    0  501  0.00000000000E+00  0.00000000000E+00  0.31447932614E+04  0.31447932614E+04  0.50400001928E-02 0.  1.
        1   -1    0    0  501    0  0.00000000000E+00  0.00000000000E+00 -0.85382620967E+03  0.85382620969E+03  0.50400001928E-02 0. -1.
    10030    2    1    2    0    0  0.00000000000E+00  0.00000000000E+00  0.22909670517E+04  0.39986194711E+04  0.32772591662E+04 0.  0.
        3    1    3    3  502    0 -0.49646904953E+02  0.32385892968E+03 -0.81345278949E+03  0.87695773697E+03  0.10100000352E+00 0. -1.
       -3    1    3    3    0  502  0.49646904953E+02 -0.32385892968E+03  0.31044198412E+04  0.31216617341E+04  0.10100000352E+00 0.  1.
</event>
<event>
 5   0  0.1120545E-06  0.3301563E+04  0.7818609E-02  0.8162498E-01
        2   -1    0    0  501    0  0.00000000000E+00  0.00000000000E+00  0.21381541720E+04  0.21381541720E+04  0.25500000920E-02 0.  1.
       -2   -1    0    0    0  501  0.00000000000E+00  0.00000000000E+00 -0.12745006744E+04  0.12745006744E+04  0.25500000920E-02 0. -1.
    10030    2    1    2    0    0  0.00000000000E+00  0.00000000000E+00  0.86365349761E+03  0.34126548464E+04  0.33015626205E+04 0.  0.
        4    1    3    3  502    0 -0.78735615187E+03  0.98792845039E+02  0.19280796675E+04  0.20849898209E+04  0.12699999809E+01 0.  1.
       -4    1    3    3    0  502  0.78735615187E+03 -0.98792845039E+02 -0.10644261699E+04  0.13276650256E+04  0.12699999809E+01 0. -1.
</event>
<event>
 5   0  0.3674967E-07  0.3282850E+04  0.7818609E-02  0.8167273E-01
       -1   -1    0    0    0  501  0.00000000000E+00  0.00000000000E+00  0.16134953243E+04  0.16134953243E+04  0.50400001928E-02 0. -1.
        1   -1    0    0  501    0  0.00000000000E+00  0.00000000000E+00 -0.16698384936E+04  0.16698384936E+04  0.50400001928E-02 0.  1.
    10030    2    1    2    0    0  0.00000000000E+00  0.00000000000E+00 -0.56343169261E+02  0.32833338179E+04  0.32828503479E+04 0.  0.
        2    1    3    3  502    0  0.16476424371E+02  0.33980069752E+03  0.15778483908E+04  0.16141070383E+04  0.25500000920E-02 0. -1.
       -2    1    3    3    0  502 -0.16476424371E+02 -0.33980069752E+03 -0.16341915601E+04  0.16692267796E+04  0.25500000920E-02 0.  1.
</event>
<event>
 5   0  0.1116462E-06  0.3286497E+04  0.7818609E-02  0.8166340E-01
        2   -1    0    0  501    0  0.00000000000E+00  0.00000000000E+00  0.22237919192E+04  0.22237919192E+04  0.25500000920E-02 0.  1.
       -2   -1    0    0    0  501  0.00000000000E+00  0.00000000000E+00 -0.12142619478E+04  0.12142619478E+04  0.25500000920E-02 0. -1.
    10030    2    1    2    0    0  0.00000000000E+00  0.00000000000E+00  0.10095299715E+04  0.34380538670E+04  0.32864971671E+04 0.  0.
        1    1    3    3  502    0  0.15384723298E+04 -0.18288900745E+03  0.10776697374E+04  0.18872513244E+04  0.50400001928E-02 0.  1.
       -1    1    3    3    0  502 -0.15384723298E+04  0.18288900745E+03 -0.68139765958E+02  0.15508025426E+04  0.50400001928E-02 0. -1.
</event>
<event>
 5   0  0.1146799E-06  0.3260015E+04  0.7818609E-02  0.8173145E-01
        2   -1    0    0  501    0  0.00000000000E+00  0.00000000000E+00  0.23125145792E+04  0.23125145792E+04  0.25500000920E-02 0. -1.
       -2   -1    0    0    0  501  0.00000000000E+00  0.00000000000E+00 -0.11489329209E+04  0.11489329209E+04  0.25500000920E-02 0.  1.
    10030    2    1    2    0    0  0.00000000000E+00  0.00000000000E+00  0.11635816583E+04  0.34614475000E+04  0.32600148036E+04 0.  0.
        5    1    3    3  502    0 -0.27383785000E+03 -0.73955168318E+03  0.20964609391E+04  0.22398871443E+04  0.46999998093E+01 0. -1.
       -5    1    3    3    0  502  0.27383785000E+03  0.73955168318E+03 -0.93287928076E+03  0.12215603557E+04  0.46999998093E+01 0.  1.
</event>
<event>
 5   0  0.1120545E-06  0.3278048E+04  0.7818609E-02  0.8168504E-01
       -2   -1    0    0    0  501  0.00000000000E+00  0.00000000000E+00  0.14896318936E+04  0.14896318936E+04  0.25500000920E-02 0.  1.
        2   -1    0    0  501    0  0.00000000000E+00  0.00000000000E+00 -0.18033980610E+04  0.18033980610E+04  0.25500000920E-02 0. -1.
    10030    2    1    2    0    0  0.00000000000E+00  0.00000000000E+00 -0.31376616735E+03  0.32930299546E+04  0.32780477535E+04 0.  0.
        4    1    3    3  502    0  0.25936182596E+03  0.15881101218E+04 -0.46981176593E+03  0.16763314183E+04  0.12699999809E+01 0. -1.
       -4    1    3    3    0  502 -0.25936182596E+03 -0.15881101218E+04  0.15604559858E+03  0.16166985363E+04  0.12699999809E+01 0.  1.
</event>
<event>
 5   0  0.3749685E-07  0.3340690E+04  0.7818609E-02  0.8152618E-01
       -1   -1    0    0    0  501  0.00000000000E+00  0.00000000000E+00  0.13639754428E+04  0.13639754428E+04  0.50400001928E-02 0. -1.
        1   -1    0    0  501    0  0.00000000000E+00  0.00000000000E+00 -0.20455295995E+04  0.20455295995E+04  0.50400001928E-02 0.  1.
    10030    2    1    2    0    0  0.00000000000E+00  0.00000000000E+00 -0.68155415675E+03  0.34095050423E+04  0.33406898337E+04 0.  0.
        3    1    3    3  502    0  0.13948747804E+04 -0.37991715706E+03  0.51314144292E+03  0.15340556867E+04  0.10100000352E+00 0. -1.
       -3    1    3    3    0  502 -0.13948747804E+04  0.37991715706E+03 -0.11946955997E+04  0.18754493556E+04  0.10100000352E+00 0.  1.
</event>
<event>
 5   0  0.3749685E-07  0.3286398E+04  0.7818609E-02  0.8166365E-01
        1   -1    0    0  501    0  0.00000000000E+00  0.00000000000E+00  0.18827977410E+04  0.18827977410E+04  0.50400001928E-02 0. -1.
       -1   -1    0    0    0  501  0.00000000000E+00  0.00000000000E+00 -0.14340910329E+04  0.14340910329E+04  0.50400001928E-02 0.  1.
    10030    2    1    2    0    0  0.00000000000E+00  0.00000000000E+00  0.44870670807E+03  0.33168887739E+04  0.32863982456E+04 0.  0.
        3    1    3    3  502    0 -0.81375723849E+03 -0.30398726048E+03  0.16321038664E+04  0.18488840252E+04  0.10100000352E+00 0. -1.
       -3    1    3    3    0  502  0.81375723849E+03  0.30398726048E+03 -0.11833971583E+04  0.14680047487E+04  0.10100000352E+00 0.  1.
</event>
<event>
 5   0  0.1129434E-06  0.3287873E+04  0.7818609E-02  0.8165988E-01
        2   -1    0    0  501    0  0.00000000000E+00  0.00000000000E+00  0.12953571089E+04  0.12953571089E+04  0.25500000920E-02 0.  1.
       -2   -1    0    0    0  501  0.00000000000E+00  0.00000000000E+00 -0.20863185622E+04  0.20863185622E+04  0.25500000920E-02 0. -1.
    10030    2    1    2    0    0  0.00000000000E+00  0.00000000000E+00 -0.79096145329E+03  0.33816756711E+04  0.32878732220E+04 0.  0.
        3    1    3    3  502    0 -0.10548697784E+04  0.65493968082E+03  0.71267667486E+03  0.14316439110E+04  0.10100000352E+00 0.  1.
       -3    1    3    3    0  502  0.10548697784E+04 -0.65493968082E+03 -0.15036381281E+04  0.19500317601E+04  0.10100000352E+00 0. -1.
</event>
<event>
 5   0  0.1120545E-06  0.2884038E+04  0.7818609E-02  0.8277642E-01
       -2   -1    0    0    0  501  0.00000000000E+00  0.00000000000E+00  0.13366075508E+04  0.13366075508E+04  0.25500000920E-02 0.  1.
        2   -1    0    0  501    0  0.00000000000E+00  0.00000000000E+00 -0.15557441846E+04  0.15557441846E+04  0.25500000920E-02 0. -1.
    10030    2    1    2    0    0  0.00000000000E+00  0.00000000000E+00 -0.21913663380E+03  0.28923517355E+04  0.28840384355E+04 0.  0.
        4    1    3    3  502    0 -0.92930549945E+03  0.25866592374E+03 -0.11845260127E+04  0.15276191473E+04  0.12699999809E+01 0. -1.
       -4    1    3    3    0  502  0.92930549945E+03 -0.25866592374E+03  0.96538937892E+03  0.13647325882E+04  0.12699999809E+01 0.  1.
</event>
<event>
 5   0  0.3709747E-07  0.3334422E+04  0.7818609E-02  0.8154192E-01
        1   -1    0    0  501    0  0.00000000000E+00  0.00000000000E+00  0.16355030092E+04  0.16355030092E+04  0.50400001928E-02 0. -1.
       -1   -1    0    0    0  501  0.00000000000E+00  0.00000000000E+00 -0.16995338151E+04  0.16995338151E+04  0.50400001928E-02 0.  1.
    10030    2    1    2    0    0  0.00000000000E+00  0.00000000000E+00 -0.64030805824E+02  0.33350368243E+04  0.33344220902E+04 0.  0.
        4    1    3    3  502    0  0.20455009745E+03  0.16257173533E+04  0.27592672826E+03  0.16616060988E+04  0.12699999809E+01 0. -1.
       -4    1    3    3    0  502 -0.20455009745E+03 -0.16257173533E+04 -0.33995753409E+03  0.16734307255E+04  0.12699999809E+01 0.  1.
</event>
<event>
 5   0  0.3757406E-07  0.3330128E+04  0.7818609E-02  0.8155271E-01
        1   -1    0    0  501    0  0.00000000000E+00  0.00000000000E+00  0.19358259798E+04  0.19358259798E+04  0.50400001928E-02 0. -1.
       -1   -1    0    0    0  501  0.00000000000E+00  0.00000000000E+00 -0.14321731170E+04  0.14321731170E+04  0.50400001928E-02 0.  1.
    10030    2    1    2    0    0  0.00000000000E+00  0.00000000000E+00  0.50365286274E+03  0.33679990968E+04  0.33301278819E+04 0.  0.
        1    1    3    3  502    0  0.60963159936E+03 -0.98281927866E+03 -0.95964962904E+03  0.15028345990E+04  0.50400001928E-02 0.  1.
       -1    1    3    3    0  502 -0.60963159936E+03  0.98281927866E+03  0.14633024918E+04  0.18651644978E+04  0.50400001928E-02 0. -1.
</event>
<event>
 5   0  0.3674967E-07  0.3271733E+04  0.7818609E-02  0.8170126E-01
        1   -1    0    0  501    0  0.00000000000E+00  0.00000000000E+00  0.18998768126E+04  0.18998768126E+04  0.50400001928E-02 0. -1.
       -1   -1    0    0    0  501  0.00000000000E+00  0.00000000000E+00 -0.14085431086E+04  0.14085431086E+04  0.50400001928E-02 0.  1.
    10030    2    1    2    0    0  0.00000000000E+00  0.00000000000E+00  0.49133370400E+03  0.33084199211E+04  0.32717325022E+04 0.  0.
        2    1    3    3  502    0 -0.10013326859E+04 -0.38291704677E+03  0.14951460994E+04  0.18397702224E+04  0.25500000920E-02 0. -1.
       -2    1    3    3    0  502  0.10013326859E+04  0.38291704677E+03 -0.10038123954E+04  0.14686496988E+04  0.25500000920E-02 0.  1.
</event>
<event>
 5   0  0.1120545E-06  0.3295973E+04  0.7818609E-02  0.8163921E-01
       -2   -1    0    0    0  501  0.00000000000E+00  0.00000000000E+00  0.19229811076E+04  0.19229811076E+04  0.25500000920E-02 0. -1.
        2   -1    0    0  501    0  0.00000000000E+00  0.00000000000E+00 -0.14123173112E+04  0.14123173112E+04  0.25500000920E-02 0.  1.
    10030    2    1    2    0    0  0.00000000000E+00  0.00000000000E+00  0.51066379637E+03  0.33352984188E+04  0.32959730019E+04 0.  0.
        4    1    3    3  502    0 -0.41886356465E+03  0.69969073027E+02 -0.13559969780E+04  0.14209404542E+04  0.12699999809E+01 0.  1.
       -4    1    3    3    0  502  0.41886356465E+03 -0.69969073027E+02  0.18666607744E+04  0.19143579646E+04  0.12699999809E+01 0. -1.
</event>
<event>
 5   0  0.1120545E-06  0.3298316E+04  0.7818609E-02  0.8163324E-01
       -2   -1    0    0    0  501  0.00000000000E+00  0.00000000000E+00  0.12819368141E+04  0.12819368141E+04  0.25500000920E-02 0.  1.
        2   -1    0    0  501    0  0.00000000000E+00  0.00000000000E+00 -0.21215724878E+04  0.21215724878E+04  0.25500000920E-02 0. -1.
    10030    2    1    2    0    0  0.00000000000E+00  0.00000000000E+00 -0.83963567363E+03  0.34035093019E+04  0.32983158587E+04 0.  0.
        4    1    3    3  502    0  0.12631731115E+04  0.32437147814E+03 -0.14614151754E+04  0.19587136322E+04  0.12699999809E+01 0. -1.
       -4    1    3    3    0  502 -0.12631731115E+04 -0.32437147814E+03  0.62177950172E+03  0.14447956697E+04  0.12699999809E+01 0.  1.
</event>
<event>
 5   0  0.1146799E-06  0.3229013E+04  0.7818609E-02  0.8181197E-01
       -2   -1    0    0    0  501  0.00000000000E+00  0.00000000000E+00  0.92130706966E+03  0.92130706967E+03  0.25500000920E-02 0.  1.
        2   -1    0    0  501    0  0.00000000000E+00  0.00000000000E+00 -0.28292760406E+04  0.28292760406E+04  0.25500000920E-02 0. -1.
    10030    2    1    2    0    0  0.00000000000E+00  0.00000000000E+00 -0.19079689710E+04  0.37505831103E+04  0.32290134829E+04 0.  0.
        5    1    3    3  502    0  0.49252742318E+03 -0.15111455238E+04 -0.12834688382E+04  0.20429044044E+04  0.46999998093E+01 0. -1.
       -5    1    3    3    0  502 -0.49252742318E+03  0.15111455238E+04 -0.62450013280E+03  0.17076787059E+04  0.46999998093E+01 0.  1.
</event>
<event>
 5   0  0.3749685E-07  0.3353576E+04  0.7818609E-02  0.8149395E-01
        1   -1    0    0  501    0  0.00000000000E+00  0.00000000000E+00  0.23319957499E+04  0.23319957499E+04  0.50400001928E-02 0. -1.
       -1   -1    0    0    0  501  0.00000000000E+00  0.00000000000E+00 -0.12056706258E+04  0.12056706258E+04  0.50400001928E-02 0.  1.
    10030    2    1    2    0    0  0.00000000000E+00  0.00000000000E+00  0.11263251242E+04  0.35376663757E+04  0.33535764641E+04 0.  0.
        3    1    3    3  502    0  0.59805366994E+03 -0.10657907925E+04 -0.64791804028E+03  0.13832483517E+04  0.10100000352E+00 0.  1.
       -3    1    3    3    0  502 -0.59805366994E+03  0.10657907925E+04  0.17742431644E+04  0.21544180240E+04  0.10100000352E+00 0. -1.
</event>
<event>
 5   0  0.3674967E-07  0.3311120E+04  0.7818609E-02  0.8160072E-01
       -1   -1    0    0    0  501  0.00000000000E+00  0.00000000000E+00  0.13323947235E+04  0.13323947235E+04  0.50400001928E-02 0.  1.
        1   -1    0    0  501    0  0.00000000000E+00  0.00000000000E+00 -0.20571071448E+04  0.20571071448E+04  0.50400001928E-02 0. -1.
    10030    2    1    2    0    0  0.00000000000E+00  0.00000000000E+00 -0.72471242125E+03  0.33895018683E+04  0.33111198743E+04 0.  0.
        2    1    3    3  502    0 -0.64384194986E+03  0.12320659592E+04  0.55801559533E+03  0.14979654165E+04  0.25500000920E-02 0.  1.
       -2    1    3    3    0  502  0.64384194986E+03 -0.12320659592E+04 -0.12827280166E+04  0.18915364519E+04  0.25500000920E-02 0. -1.
</event>
<event>
 5   0  0.1116462E-06  0.3309535E+04  0.7818609E-02  0.8160473E-01
        2   -1    0    0  501    0  0.00000000000E+00  0.00000000000E+00  0.15232541568E+04  0.15232541568E+04  0.25500000920E-02 0. -1.
       -2   -1    0    0    0  501  0.00000000000E+00  0.00000000000E+00 -0.17976353374E+04  0.17976353374E+04  0.25500000920E-02 0.  1.
    10030    2    1    2    0    0  0.00000000000E+00  0.00000000000E+00 -0.27438118057E+03  0.33208894943E+04  0.33095350128E+04 0.  0.
        1    1    3    3  502    0  0.10123917240E+04  0.12973143005E+04 -0.31183974705E+03  0.16748747491E+04  0.50400001928E-02 0.  1.
       -1    1    3    3    0  502 -0.10123917240E+04 -0.12973143005E+04  0.37458566471E+02  0.16460147452E+04  0.50400001928E-02 0. -1.
</event>
<event>
 5   0  0.3709747E-07  0.3295372E+04  0.7818609E-02  0.8164074E-01
       -1   -1    0    0    0  501  0.00000000000E+00  0.00000000000E+00  0.13137263505E+04  0.13137263505E+04  0.50400001928E-02 0.  1.
        1   -1    0    0  501    0  0.00000000000E+00  0.00000000000E+00 -0.20665411214E+04  0.20665411214E+04  0.50400001928E-02 0. -1.
    10030    2    1    2    0    0  0.00000000000E+00  0.00000000000E+00 -0.75281477087E+03  0.33802674720E+04  0.32953722252E+04 0.  0.
        4    1    3    3  502    0  0.96848017970E+03 -0.91310113197E+03 -0.13725909287E+04  0.19119924179E+04  0.12699999809E+01 0. -1.
       -4    1    3    3    0  502 -0.96848017970E+03  0.91310113197E+03  0.61977615782E+03  0.14682750541E+04  0.12699999809E+01 0.  1.
</event>
<event>
 5   0  0.1116462E-06  0.3243253E+04  0.7818609E-02  0.8177487E-01
       -2   -1    0    0    0  501  0.00000000000E+00  0.00000000000E+00  0.17006313616E+04  0.17006313616E+04  0.25500000920E-02 0.  1.
        2   -1    0    0  501    0  0.00000000000E+00  0.00000000000E+00 -0.15462920931E+04  0.15462920931E+04  0.25500000920E-02 0. -1.
    10030    2    1    2    0    0  0.00000000000E+00  0.00000000000E+00  0.15433926858E+03  0.32469234547E+04  0.32432531987E+04 0.  0.
        1    1    3    3  502    0  0.17555927263E+03 -0.55169931050E+03 -0.14392985371E+04  0.15513779250E+04  0.50400001928E-02 0. -1.
       -1    1    3    3    0  502 -0.17555927263E+03  0.55169931050E+03  0.15936378057E+04  0.16955455296E+04  0.50400001928E-02 0.  1.
</event>
<event>
 5   0  0.1126221E-06  0.3305564E+04  0.7818609E-02  0.8161481E-01
       -2   -1    0    0    0  501  0.00000000000E+00  0.00000000000E+00  0.16162494824E+04  0.16162494824E+04  0.25500000920E-02 0. -1.
        2   -1    0    0  501    0  0.00000000000E+00  0.00000000000E+00 -0.16901400608E+04  0.16901400608E+04  0.25500000920E-02 0.  1.
    10030    2    1    2    0    0  0.00000000000E+00  0.00000000000E+00 -0.73890578382E+02  0.33063895433E+04  0.33055637937E+04 0.  0.
        2    1    3    3  502    0  0.37039675038E+03  0.20454453584E+03  0.15611571091E+04  0.16174806766E+04  0.25500000920E-02 0. -1.
       -2    1    3    3    0  502 -0.37039675038E+03 -0.20454453584E+03 -0.16350476874E+04  0.16889088667E+04  0.25500000920E-02 0.  1.
</event>
<event>
 5   0  0.3757406E-07  0.3303310E+04  0.7818609E-02  0.8162054E-01
       -1   -1    0    0    0  501  0.00000000000E+00  0.00000000000E+00  0.14594475832E+04  0.14594475832E+04  0.50400001928E-02 0. -1.
        1   -1    0    0  501    0  0.00000000000E+00  0.00000000000E+00 -0.18691759899E+04  0.18691759899E+04  0.50400001928E-02 0.  1.
    10030    2    1    2    0    0  0.00000000000E+00  0.00000000000E+00 -0.40972840668E+03  0.33286235731E+04  0.33033100860E+04 0.  0.
        1    1    3    3  502    0  0.77613882685E+03 -0.19777496267E+03  0.12506624450E+04  0.14851474559E+04  0.50400001928E-02 0. -1.
       -1    1    3    3    0  502 -0.77613882685E+03  0.19777496267E+03 -0.16603908517E+04  0.18434761172E+04  0.50400001928E-02 0.  1.
</event>
<event>
 5   0  0.1120545E-06  0.3267185E+04  0.7818609E-02  0.8171296E-01
        2   -1    0    0  501    0  0.00000000000E+00  0.00000000000E+00  0.23663516317E+04  0.23663516317E+04  0.25500000920E-02 0.  1.
       -2   -1    0    0    0  501  0.00000000000E+00  0.00000000000E+00 -0.11277378616E+04  0.11277378616E+04  0.25500000920E-02 0. -1.
    10030    2    1    2    0    0  0.00000000000E+00  0.00000000000E+00  0.12386137701E+04  0.34940894934E+04  0.32671849223E+04 0.  0.
        4    1    3    3  502    0  0.81736031896E+03  0.11995530292E+04 -0.18215074552E+03  0.14629374108E+04  0.12699999809E+01 0. -1.
       -4    1    3    3    0  502 -0.81736031896E+03 -0.11995530292E+04  0.14207645156E+04  0.20311520826E+04  0.12699999809E+01 0.  1.
</event>
<event>
 5   0  0.3749685E-07  0.3286451E+04  0.7818609E-02  0.8166352E-01
        1   -1    0    0  501    0  0.00000000000E+00  0.00000000000E+00  0.20240192391E+04  0.20240192391E+04  0.50400001928E-02 0. -1.
       -1   -1    0    0    0  501  0.00000000000E+00  0.00000000000E+00 -0.13340732727E+04  0.13340732727E+04  0.50400001928E-02 0.  1.
    10030    2    1    2    0    0  0.00000000000E+00  0.00000000000E+00  0.68994596634E+03  0.33580925118E+04  0.32864509553E+04 0.  0.
        3    1    3    3  502    0 -0.62634768852E+03 -0.11590633964E+04 -0.65849954923E+03  0.14728750966E+04  0.10100000352E+00 0.  1.
       -3    1    3    3    0  502  0.62634768852E+03  0.11590633964E+04  0.13484455156E+04  0.18852174152E+04  0.10100000352E+00 0. -1.
</event>
<event>
 5   0  0.1146799E-06  0.3350882E+04  0.7818609E-02  0.8150068E-01
       -2   -1    0    0    0  501  0.00000000000E+00  0.00000000000E+00  0.24767330276E+04  0.24767330276E+04  0.25500000920E-02 0.  1.
        2   -1    0    0  501    0  0.00000000000E+00  0.00000000000E+00 -0.11333895073E+04  0.11333895073E+04  0.25500000920E-02 0. -1.
    10030    2    1    2    0    0  0.00000000000E+00  0.00000000000E+00  0.13433435203E+04  0.36101225349E+04  0.33508824067E+04 0.  0.
        5    1    3    3  502    0 -0.12665203788E+04  0.42096415071E+02 -0.50912940506E+03  0.13656796180E+04  0.46999998093E+01 0. -1.
       -5    1    3    3    0  502  0.12665203788E+04 -0.42096415071E+02  0.18524729254E+04  0.22444429169E+04  0.46999998093E+01 0.  1.
</event>
<event>
 5   0  0.1146799E-06  0.2959516E+04  0.7818609E-02  0.8255387E-01
        2   -1    0    0  501    0  0.00000000000E+00  0.00000000000E+00  0.30039496609E+04  0.30039496609E+04  0.25500000920E-02 0. -1.
       -2   -1    0    0    0  501  0.00000000000E+00  0.00000000000E+00 -0.72893475334E+03  0.72893475335E+03  0.25500000920E-02 0.  1.
    10030    2    1    2    0    0  0.00000000000E+00  0.00000000000E+00  0.22750149076E+04  0.37328844143E+04  0.29595157071E+04 0.  0.
        5    1    3    3  502    0  0.95217161591E+03  0.24368196574E+03  0.25327586930E+04  0.27167812524E+04  0.46999998093E+01 0. -1.
       -5    1    3    3    0  502 -0.95217161591E+03 -0.24368196574E+03 -0.25774378542E+03  0.10161031618E+04  0.46999998093E+01 0.  1.
</event>
<event>
 5   0  0.1116462E-06  0.3249431E+04  0.7818609E-02  0.8175883E-01
       -2   -1    0    0    0  501  0.00000000000E+00  0.00000000000E+00  0.22200353803E+04  0.22200353803E+04  0.25500000920E-02 0.  1.
        2   -1    0    0  501    0  0.00000000000E+00  0.00000000000E+00 -0.11890355633E+04  0.11890355633E+04  0.25500000920E-02 0. -1.
    10030    2    1    2    0    0  0.00000000000E+00  0.00000000000E+00  0.10309998169E+04  0.34090709436E+04  0.32494313466E+04 0.  0.
        1    1    3    3  502    0  0.18495634843E+03 -0.14929830512E+04 -0.12823576166E+03  0.15098515333E+04  0.50400001928E-02 0. -1.
       -1    1    3    3    0  502 -0.18495634843E+03  0.14929830512E+04  0.11592355786E+04  0.18992194104E+04  0.50400001928E-02 0.  1.
</event>
<event>
 5   0  0.3709747E-07  0.3315909E+04  0.7818609E-02  0.8158859E-01
        1   -1    0    0  501    0  0.00000000000E+00  0.00000000000E+00  0.16661833881E+04  0.16661833881E+04  0.50400001928E-02 0. -1.
       -1   -1    0    0    0  501  0.00000000000E+00  0.00000000000E+00 -0.16497667132E+04  0.16497667132E+04  0.50400001928E-02 0.  1.
    10030    2    1    2    0    0  0.00000000000E+00  0.00000000000E+00  0.16416674916E+02  0.33159501013E+04  0.33159094630E+04 0.  0.
        4    1    3    3  502    0 -0.42075357302E+03  0.40568542410E+02  0.16113913901E+04  0.16659121227E+04  0.12699999809E+01 0. -1.
       -4    1    3    3    0  502  0.42075357302E+03 -0.40568542410E+02 -0.15949747151E+04  0.16500379786E+04  0.12699999809E+01 0.  1.
</event>
<event>
 5   0  0.3749685E-07  0.3290507E+04  0.7818609E-02  0.8165315E-01
       -1   -1    0    0    0  501  0.00000000000E+00  0.00000000000E+00  0.13089241129E+04  0.13089241129E+04  0.50400001928E-02 0. -1.
        1   -1    0    0  501    0  0.00000000000E+00  0.00000000000E+00 -0.20680027974E+04  0.20680027974E+04  0.50400001928E-02 0.  1.
    10030    2    1    2    0    0  0.00000000000E+00  0.00000000000E+00 -0.75907868449E+03  0.33769269104E+04  0.32905067860E+04 0.  0.
        3    1    3    3  502    0 -0.15253533549E+04 -0.57338202028E+03 -0.61218428121E+03  0.17407582839E+04  0.10100000352E+00 0. -1.
       -3    1    3    3    0  502  0.15253533549E+04  0.57338202028E+03 -0.14689440328E+03  0.16361686265E+04  0.10100000352E+00 0.  1.
</event>
<event>
 5   0  0.3749685E-07  0.3460266E+04  0.7818609E-02  0.8123271E-01
        1   -1    0    0  501    0  0.00000000000E+00  0.00000000000E+00  0.24302536529E+04  0.24302536530E+04  0.50400001928E-02 0.  1.
       -1   -1    0    0    0  501  0.00000000000E+00  0.00000000000E+00 -0.12317068670E+04  0.12317068670E+04  0.50400001928E-02 0. -1.
    10030    2    1    2    0    0  0.00000000000E+00  0.00000000000E+00  0.11985467860E+04  0.36619605199E+04  0.34602659509E+04 0.  0.
        3    1    3    3  502    0 -0.56590576188E+03 -0.11070082741E+04 -0.67403905174E+03  0.14142295796E+04  0.10100000352E+00 0. -1.
       -3    1    3    3    0  502  0.56590576188E+03  0.11070082741E+04  0.18725858377E+04  0.22477309403E+04  0.10100000352E+00 0.  1.
</event>
<event>
 5   0  0.1120545E-06  0.3293476E+04  0.7818609E-02  0.8164557E-01
       -2   -1    0    0    0  501  0.00000000000E+00  0.00000000000E+00  0.20991009059E+04  0.20991009059E+04  0.25500000920E-02 0. -1.
        2   -1    0    0  501    0  0.00000000000E+00  0.00000000000E+00 -0.12918608386E+04  0.12918608386E+04  0.25500000920E-02 0.  1.
    10030    2    1    2    0    0  0.00000000000E+00  0.00000000000E+00  0.80724006732E+03  0.33909617445E+04  0.32934761311E+04 0.  0.
        4    1    3    3  502    0  0.43455851175E+03  0.13066276370E+04 -0.52623312289E+03  0.14741233987E+04  0.12699999809E+01 0.  1.
       -4    1    3    3    0  502 -0.43455851175E+03 -0.13066276370E+04  0.13334731902E+04  0.19168383458E+04  0.12699999809E+01 0. -1.
</event>
<event>
 5   0  0.3796529E-07  0.3393333E+04  0.7818609E-02  0.8139545E-01
       -1   -1    0    0    0  501  0.00000000000E+00  0.00000000000E+00  0.10072982072E+04  0.10072982072E+04  0.50400001928E-02 0.  1.
        1   -1    0    0  501    0  0.00000000000E+00  0.00000000000E+00 -0.28578197252E+04  0.28578197252E+04  0.50400001928E-02 0. -1.
    10030    2    1    2    0    0  0.00000000000E+00  0.00000000000E+00 -0.18505215179E+04  0.38651179324E+04  0.33933326897E+04 0.  0.
        5    1    3    3  502    0 -0.59744158910E+03  0.34894697760E+03 -0.26898262480E+04  0.27773886621E+04  0.46999998093E+01 0. -1.
       -5    1    3    3    0  502  0.59744158910E+03 -0.34894697760E+03  0.83930473008E+03  0.10877292703E+04  0.46999998093E+01 0.  1.
</event>
<event>
 5   0  0.3757406E-07  0.3291283E+04  0.7818609E-02  0.8165117E-01
        1   -1    0    0  501    0  0.00000000000E+00  0.00000000000E+00  0.15486889610E+04  0.15486889610E+04  0.50400001928E-02 0.  1.
       -1   -1    0    0    0  501  0.00000000000E+00  0.00000000000E+00 -0.17486634802E+04  0.17486634802E+04  0.50400001928E-02 0. -1.
    10030    2    1    2    0    0  0.00000000000E+00  0.00000000000E+00 -0.19997451912E+03  0.32973524412E+04  0.32912829282E+04 0.  0.
        1    1    3    3  502    0 -0.79980272801E+03  0.14346542589E+04  0.12861589104E+01  0.16425342920E+04  0.50400001928E-02 0. -1.
       -1    1    3    3    0  502  0.79980272801E+03 -0.14346542589E+04 -0.20126067803E+03  0.16548181492E+04  0.50400001928E-02 0.  1.
</event>
<event>
 5   0  0.3674967E-07  0.3309163E+04  0.7818609E-02  0.8160568E-01
        1   -1    0    0  501    0  0.00000000000E+00  0.00000000000E+00  0.17574890653E+04  0.17574890653E+04  0.50400001928E-02 0.  1.
       -1   -1    0    0    0  501  0.00000000000E+00  0.00000000000E+00 -0.15576993855E+04  0.15576993855E+04  0.50400001928E-02 0. -1.
    10030    2    1    2    0    0  0.00000000000E+00  0.00000000000E+00  0.19978967979E+03  0.33151884508E+04  0.33091628169E+04 0.  0.
        2    1    3    3  502    0  0.86071673130E+03  0.13199900286E+04  0.60522651654E+03  0.16880480157E+04  0.25500000920E-02 0.  1.
       -2    1    3    3    0  502 -0.86071673130E+03 -0.13199900286E+04 -0.40543683674E+03  0.16271404351E+04  0.25500000920E-02 0. -1.
</event>
<event>
 5   0  0.1129434E-06  0.3296155E+04  0.7818609E-02  0.8163874E-01
       -2   -1    0    0    0  501  0.00000000000E+00  0.00000000000E+00  0.14451476795E+04  0.14451476795E+04  0.25500000920E-02 0. -1.
        2   -1    0    0  501    0  0.00000000000E+00  0.00000000000E+00 -0.18795030390E+04  0.18795030390E+04  0.25500000920E-02 0.  1.
    10030    2    1    2    0    0  0.00000000000E+00  0.00000000000E+00 -0.43435535953E+03  0.33246507184E+04  0.32961550057E+04 0.  0.
        3    1    3    3  502    0 -0.82075960448E+03  0.33492499077E+03 -0.16185551159E+04  0.18454109979E+04  0.10100000352E+00 0.  1.
       -3    1    3    3    0  502  0.82075960448E+03 -0.33492499077E+03  0.11841997563E+04  0.14792397206E+04  0.10100000352E+00 0. -1.
</event>
<event>
 5   0  0.1120545E-06  0.3296713E+04  0.7818609E-02  0.8163732E-01
       -2   -1    0    0    0  501  0.00000000000E+00  0.00000000000E+00  0.14203627993E+04  0.14203627993E+04  0.25500000920E-02 0.  1.
        2   -1    0    0  501    0  0.00000000000E+00  0.00000000000E+00 -0.19129470571E+04  0.19129470571E+04  0.25500000920E-02 0. -1.
    10030    2    1    2    0    0  0.00000000000E+00  0.00000000000E+00 -0.49258425789E+03  0.33333098564E+04  0.32967128094E+04 0.  0.
        4    1    3    3  502    0  0.93499331147E+02 -0.21103003972E+03 -0.18965259899E+04  0.19105204123E+04  0.12699999809E+01 0. -1.
       -4    1    3    3    0  502 -0.93499331147E+02  0.21103003972E+03  0.14039417320E+04  0.14227894441E+04  0.12699999809E+01 0.  1.
</event>
<event>
 5   0  0.1116462E-06  0.3295503E+04  0.7818609E-02  0.8164041E-01
       -2   -1    0    0    0  501  0.00000000000E+00  0.00000000000E+00  0.14087993643E+04  0.14087993643E+04  0.25500000920E-02 0.  1.
        2   -1    0    0  501    0  0.00000000000E+00  0.00000000000E+00 -0.19272334279E+04  0.19272334279E+04  0.25500000920E-02 0. -1.
    10030    2    1    2    0    0  0.00000000000E+00  0.00000000000E+00 -0.51843406359E+03  0.33360327923E+04  0.32955031350E+04 0.  0.
        1    1    3    3  502    0 -0.23137309820E+03 -0.13508778998E+04  0.66673488698E+03  0.15241194245E+04  0.50400001928E-02 0.  1.
       -1    1    3    3    0  502  0.23137309820E+03  0.13508778998E+04 -0.11851689506E+04  0.18119133677E+04  0.50400001928E-02 0. -1.
</event>
<event>
 5   0  0.1129434E-06  0.3288095E+04  0.7818609E-02  0.8165931E-01
        2   -1    0    0  501    0  0.00000000000E+00  0.00000000000E+00  0.20330615148E+04  0.20330615148E+04  0.25500000920E-02 0.  1.
       -2   -1    0    0    0  501  0.00000000000E+00  0.00000000000E+00 -0.13294686362E+04  0.13294686362E+04  0.25500000920E-02 0. -1.
    10030    2    1    2    0    0  0.00000000000E+00  0.00000000000E+00  0.70359287852E+03  0.33625301510E+04  0.32880945968E+04 0.  0.
        3    1    3    3  502    0 -0.16895058366E+03 -0.42137199595E+03 -0.12640985707E+04  0.13431470006E+04  0.10100000352E+00 0. -1.
       -3    1    3    3    0  502  0.16895058366E+03  0.42137199595E+03  0.19676914492E+04  0.20193831504E+04  0.10100000352E+00 0.  1.
</event>
<event>
 5   0  0.3796529E-07  0.3292344E+04  0.7818609E-02  0.8164846E-01
       -1   -1    0    0    0  501  0.00000000000E+00  0.00000000000E+00  0.11465728541E+04  0.11465728541E+04  0.50400001928E-02 0. -1.
        1   -1    0    0  501    0  0.00000000000E+00  0.00000000000E+00 -0.23634633857E+04  0.23634633857E+04  0.50400001928E-02 0.  1.
    10030    2    1    2    0    0  0.00000000000E+00  0.00000000000E+00 -0.12168905316E+04  0.35100362398E+04  0.32923444289E+04 0.  0.
        5    1    3    3  502    0  0.12125623832E+04 -0.10457371934E+04 -0.10157913231E+04  0.18962404681E+04  0.46999998093E+01 0. -1.
       -5    1    3    3    0  502 -0.12125623832E+04  0.10457371934E+04 -0.20109920849E+03  0.16137957716E+04  0.46999998093E+01 0.  1.
</event>
<event>
 5   0  0.3709747E-07  0.3282288E+04  0.7818609E-02  0.8167417E-01
        1   -1    0    0  501    0  0.00000000000E+00  0.00000000000E+00  0.19957817085E+04  0.19957817085E+04  0.50400001928E-02 0. -1.
       -1   -1    0    0    0  501  0.00000000000E+00  0.00000000000E+00 -0.13495228235E+04  0.13495228235E+04  0.50400001928E-02 0.  1.
    10030    2    1    2    0    0  0.00000000000E+00  0.00000000000E+00  0.64625888499E+03  0.33453045320E+04  0.32822875964E+04 0.  0.
        4    1    3    3  502    0 -0.65530699123E+03 -0.59870459303E+03  0.17300218071E+04  0.19444411815E+04  0.12699999809E+01 0. -1.
       -4    1    3    3    0  502  0.65530699123E+03  0.59870459303E+03 -0.10837629221E+04  0.14008633505E+04  0.12699999809E+01 0.  1.
</event>
<event>
 5   0  0.3796529E-07  0.2932431E+04  0.7818609E-02  0.8263293E-01
       -1   -1    0    0    0  501  0.00000000000E+00  0.00000000000E+00  0.15760629831E+04  0.15760629831E+04  0.50400001928E-02 0. -1.
        1   -1    0    0  501    0  0.00000000000E+00  0.00000000000E+00 -0.13640237586E+04  0.13640237586E+04  0.50400001928E-02 0.  1.
    10030    2    1    2    0    0  0.00000000000E+00  0.00000000000E+00  0.21203922448E+03  0.29400867417E+04  0.29324306328E+04 0.  0.
        5    1    3    3  502    0  0.45237762994E+03 -0.12826513904E+04  0.65510367930E+03  0.15096433453E+04  0.46999998093E+01 0. -1.
       -5    1    3    3    0  502 -0.45237762994E+03  0.12826513904E+04 -0.44306445482E+03  0.14304433965E+04  0.46999998093E+01 0.  1.
</event>
<event>
 5   0  0.3749685E-07  0.3287710E+04  0.7818609E-02  0.8166030E-01
       -1   -1    0    0    0  501  0.00000000000E+00  0.00000000000E+00  0.85655936566E+03  0.85655936567E+03  0.50400001928E-02 0. -1.
        1   -1    0    0  501    0  0.00000000000E+00  0.00000000000E+00 -0.31547842550E+04  0.31547842550E+04  0.50400001928E-02 0.  1.
    10030    2    1    2    0    0  0.00000000000E+00  0.00000000000E+00 -0.22982248893E+04  0.40113436206E+04  0.32877104497E+04 0.  0.
        3    1    3    3  502    0  0.14294220962E+04  0.44787393336E+02 -0.21380779728E+04  0.25722812575E+04  0.10100000352E+00 0.  1.
       -3    1    3    3    0  502 -0.14294220962E+04 -0.44787393336E+02 -0.16014691647E+03  0.14390623631E+04  0.10100000352E+00 0. -1.
</event>
<event>
 5   0  0.1120545E-06  0.3340644E+04  0.7818609E-02  0.8152630E-01
       -2   -1    0    0    0  501  0.00000000000E+00  0.00000000000E+00  0.13425483278E+04  0.13425483278E+04  0.25500000920E-02 0.  1.
        2   -1    0    0  501    0  0.00000000000E+00  0.00000000000E+00 -0.20781197070E+04  0.20781197070E+04  0.25500000920E-02 0. -1.
    10030    2    1    2    0    0  0.00000000000E+00  0.00000000000E+00 -0.73557137923E+03  0.34206680348E+04  0.33406443316E+04 0.  0.
        4    1    3    3  502    0  0.17627429323E+03  0.14464355242E+04 -0.12038784081E+04  0.18901251774E+04  0.12699999809E+01 0.  1.
       -4    1    3    3    0  502 -0.17627429323E+03 -0.14464355242E+04  0.46830702887E+03  0.15305428574E+04  0.12699999809E+01 0. -1.
</event>
<event>
 5   0  0.1116462E-06  0.3309861E+04  0.7818609E-02  0.8160391E-01
        2   -1    0    0  501    0  0.00000000000E+00  0.00000000000E+00  0.19949489733E+04  0.19949489733E+04  0.25500000920E-02 0.  1.
       -2   -1    0    0    0  501  0.00000000000E+00  0.00000000000E+00 -0.13728646043E+04  0.13728646043E+04  0.25500000920E-02 0. -1.
    10030    2    1    2    0    0  0.00000000000E+00  0.00000000000E+00  0.62208436896E+03  0.33678135776E+04  0.33098609232E+04 0.  0.
        1    1    3    3  502    0 -0.13193081152E+04 -0.83830346744E+03  0.86412948995E+03  0.17860700943E+04  0.50400001928E-02 0.  1.
       -1    1    3    3    0  502  0.13193081152E+04  0.83830346744E+03 -0.24204512099E+03  0.15817434833E+04  0.50400001928E-02 0. -1.
</event>
<event>
 5   0  0.1126221E-06  0.3307790E+04  0.7818609E-02  0.8160916E-01
        2   -1    0    0  501    0  0.00000000000E+00  0.00000000000E+00  0.10367830377E+04  0.10367830377E+04  0.25500000920E-02 0. -1.
       -2   -1    0    0    0  501  0.00000000000E+00  0.00000000000E+00 -0.26383229299E+04  0.26383229299E+04  0.25500000920E-02 0.  1.
    10030    2    1    2    0    0  0.00000000000E+00  0.00000000000E+00 -0.16015398923E+04  0.36751059676E+04  0.33077898734E+04 0.  0.
        2    1    3    3  502    0 -0.83825118679E+03  0.81654169965E+03  0.49775838799E+03  0.12716795242E+04  0.25500000920E-02 0. -1.
       -2    1    3    3    0  502  0.83825118679E+03 -0.81654169965E+03 -0.20992982803E+04  0.24034264434E+04  0.25500000920E-02 0.  1.
</event>
<event>
 5   0  0.3749685E-07  0.3334848E+04  0.7818609E-02  0.8154084E-01
       -1   -1    0    0    0  501  0.00000000000E+00  0.00000000000E+00  0.16390611225E+04  0.16390611225E+04  0.50400001928E-02 0.  1.
        1   -1    0    0  501    0  0.00000000000E+00  0.00000000000E+00 -0.16962778990E+04  0.16962778990E+04  0.50400001928E-02 0. -1.
    10030    2    1    2    0    0  0.00000000000E+00  0.00000000000E+00 -0.57216776525E+02  0.33353390215E+04  0.33348482168E+04 0.  0.
        3    1    3    3  502    0  0.37078587475E+03  0.51908416476E+03  0.15121937611E+04  0.16412374954E+04  0.10100000352E+00 0.  1.
       -3    1    3    3    0  502 -0.37078587475E+03 -0.51908416476E+03 -0.15694105376E+04  0.16941015261E+04  0.10100000352E+00 0. -1.
</event>
<event>
 5   0  0.1129434E-06  0.3276324E+04  0.7818609E-02  0.8168946E-01
       -2   -1    0    0    0  501  0.00000000000E+00  0.00000000000E+00  0.17561538450E+04  0.17561538450E+04  0.25500000920E-02 0. -1.
        2   -1    0    0  501    0  0.00000000000E+00  0.00000000000E+00 -0.15280980897E+04  0.15280980897E+04  0.25500000920E-02 0.  1.
    10030    2    1    2    0    0  0.00000000000E+00  0.00000000000E+00  0.22805575529E+03  0.32842519347E+04  0.32763243648E+04 0.  0.
        3    1    3    3  502    0  0.29477974887E+03 -0.80706212137E+03 -0.12840981542E+04  0.15450412447E+04  0.10100000352E+00 0.  1.
       -3    1    3    3    0  502 -0.29477974887E+03  0.80706212137E+03  0.15121539095E+04  0.17392106900E+04  0.10100000352E+00 0. -1.
</event>
<event>
 5   0  0.1146799E-06  0.3306005E+04  0.7818609E-02  0.8161369E-01
        2   -1    0    0  501    0  0.00000000000E+00  0.00000000000E+00  0.15535615796E+04  0.15535615796E+04  0.25500000920E-02 0. -1.
       -2   -1    0    0    0  501  0.00000000000E+00  0.00000000000E+00 -0.17588081073E+04  0.17588081073E+04  0.25500000920E-02 0.  1.
    10030    2    1    2    0    0  0.00000000000E+00  0.00000000000E+00 -0.20524652767E+03  0.33123696869E+04  0.33060046590E+04 0.  0.
        5    1    3    3  502    0 -0.10341923455E+03  0.11425843338E+04  0.10897099796E+04  0.15823035194E+04  0.46999998093E+01 0. -1.
       -5    1    3    3    0  502  0.10341923455E+03 -0.11425843338E+04 -0.12949565073E+04  0.17300661674E+04  0.46999998093E+01 0.  1.
</event>
<event>
 5   0  0.1116462E-06  0.3296646E+04  0.7818609E-02  0.8163749E-01
        2   -1    0    0  501    0  0.00000000000E+00  0.00000000000E+00  0.21748151347E+04  0.21748151347E+04  0.25500000920E-02 0.  1.
       -2   -1    0    0    0  501  0.00000000000E+00  0.00000000000E+00 -0.12492874617E+04  0.12492874617E+04  0.25500000920E-02 0. -1.
    10030    2    1    2    0    0  0.00000000000E+00  0.00000000000E+00  0.92552767300E+03  0.34241025964E+04  0.32966463440E+04 0.  0.
        1    1    3    3  502    0 -0.40921434266E+03 -0.27143323200E+03 -0.11715498782E+04  0.12702997657E+04  0.50400001928E-02 0. -1.
       -1    1    3    3    0  502  0.40921434266E+03  0.27143323200E+03  0.20970775512E+04  0.21538028307E+04  0.50400001928E-02 0.  1.
</event>
<event>
 5   0  0.3749685E-07  0.3284263E+04  0.7818609E-02  0.8166911E-01
       -1   -1    0    0    0  501  0.00000000000E+00  0.00000000000E+00  0.12950268333E+04  0.12950268333E+04  0.50400001928E-02 0.  1.
        1   -1    0    0  501    0  0.00000000000E+00  0.00000000000E+00 -0.20822707129E+04  0.20822707129E+04  0.50400001928E-02 0. -1.
    10030    2    1    2    0    0  0.00000000000E+00  0.00000000000E+00 -0.78724387964E+03  0.33772975462E+04  0.32842633557E+04 0.  0.
        3    1    3    3  502    0 -0.46909001950E+03  0.15949715280E+03  0.12163299447E+04  0.13133709806E+04  0.10100000352E+00 0.  1.
       -3    1    3    3    0  502  0.46909001950E+03 -0.15949715280E+03 -0.20035738244E+04  0.20639265655E+04  0.10100000352E+00 0. -1.
</event>
<event>
 5   0  0.3709747E-07  0.3023464E+04  0.7818609E-02  0.8237062E-01
       -1   -1    0    0    0  501  0.00000000000E+00  0.00000000000E+00  0.16723141453E+04  0.16723141453E+04  0.50400001928E-02 0.  1.
        1   -1    0    0  501    0  0.00000000000E+00  0.00000000000E+00 -0.13665699398E+04  0.13665699398E+04  0.50400001928E-02 0. -1.
    10030    2    1    2    0    0  0.00000000000E+00  0.00000000000E+00  0.30574420546E+03  0.30388840852E+04  0.30234643977E+04 0.  0.
        4    1    3    3  502    0 -0.14555775406E+03  0.12221096796E+04  0.10351836157E+04  0.16082120071E+04  0.12699999809E+01 0.  1.
       -4    1    3    3    0  502  0.14555775406E+03 -0.12221096796E+04 -0.72943941027E+03  0.14306720780E+04  0.12699999809E+01 0. -1.
</event>
<event>
 5   0  0.3749685E-07  0.3296438E+04  0.7818609E-02  0.8163802E-01
       -1   -1    0    0    0  501  0.00000000000E+00  0.00000000000E+00  0.15843226200E+04  0.15843226200E+04  0.50400001928E-02 0.  1.
        1   -1    0    0  501    0  0.00000000000E+00  0.00000000000E+00 -0.17146925224E+04  0.17146925224E+04  0.50400001928E-02 0. -1.
    10030    2    1    2    0    0  0.00000000000E+00  0.00000000000E+00 -0.13036990233E+03  0.32990151424E+04  0.32964381684E+04 0.  0.
        3    1    3    3  502    0 -0.54201164735E+03 -0.12234562714E+04 -0.10282283717E+04  0.16875649523E+04  0.10100000352E+00 0. -1.
       -3    1    3    3    0  502  0.54201164735E+03  0.12234562714E+04  0.89785846935E+03  0.16114501901E+04  0.10100000352E+00 0.  1.
</event>
<event>
 5   0  0.1116462E-06  0.3299277E+04  0.7818609E-02  0.8163079E-01
       -2   -1    0    0    0  501  0.00000000000E+00  0.00000000000E+00  0.13545068531E+04  0.13545068531E+04  0.25500000920E-02 0. -1.
        2   -1    0    0  501    0  0.00000000000E+00  0.00000000000E+00 -0.20090757063E+04  0.20090757063E+04  0.25500000920E-02 0.  1.
    10030    2    1    2    0    0  0.00000000000E+00  0.00000000000E+00 -0.65456885314E+03  0.33635825594E+04  0.32992767769E+04 0.  0.
        1    1    3    3  502    0 -0.33799060831E+03  0.25217297843E+03 -0.19531975271E+04  0.19982015520E+04  0.50400001928E-02 0.  1.
       -1    1    3    3    0  502  0.33799060831E+03 -0.25217297843E+03  0.12986286740E+04  0.13653810074E+04  0.50400001928E-02 0. -1.
</event>
<event>
 5   0  0.1146799E-06  0.3315798E+04  0.7818609E-02  0.8158887E-01
        2   -1    0    0  501    0  0.00000000000E+00  0.00000000000E+00  0.11640775679E+04  0.11640775679E+04  0.25500000920E-02 0. -1.
       -2   -1    0    0    0  501  0.00000000000E+00  0.00000000000E+00 -0.23612079670E+04  0.23612079670E+04  0.25500000920E-02 0.  1.
    10030    2    1    2    0    0  0.00000000000E+00  0.00000000000E+00 -0.11971303991E+04  0.35252855350E+04  0.33157980805E+04 0.  0.
        5    1    3    3  502    0 -0.37237105512E+03  0.41969806494E+03 -0.22571921142E+04  0.23258858525E+04  0.46999998093E+01 0.  1.
       -5    1    3    3    0  502  0.37237105512E+03 -0.41969806494E+03  0.10600617151E+04  0.11993996824E+04  0.46999998093E+01 0. -1.
</event>
<event>
 5   0  0.1126221E-06  0.3313346E+04  0.7818609E-02  0.8159508E-01
        2   -1    0    0  501    0  0.00000000000E+00  0.00000000000E+00  0.28193232847E+04  0.28193232847E+04  0.25500000920E-02 0. -1.
       -2   -1    0    0    0  501  0.00000000000E+00  0.00000000000E+00 -0.97348371021E+03  0.97348371021E+03  0.25500000920E-02 0.  1.
    10030    2    1    2    0    0  0.00000000000E+00  0.00000000000E+00  0.18458395745E+04  0.37928069949E+04  0.33133459170E+04 0.  0.
        2    1    3    3  502    0 -0.89864647042E+03 -0.12795175704E+04  0.15497282305E+04  0.22014514031E+04  0.25500000920E-02 0. -1.
       -2    1    3    3    0  502  0.89864647042E+03  0.12795175704E+04  0.29611134403E+03  0.15913555919E+04  0.25500000920E-02 0.  1.
</event>
<event>
 5   0  0.1129434E-06  0.3317793E+04  0.7818609E-02  0.8158383E-01
        2   -1    0    0  501    0  0.00000000000E+00  0.00000000000E+00  0.23676861940E+04  0.23676861941E+04  0.25500000920E-02 0.  1.
       -2   -1    0    0    0  501  0.00000000000E+00  0.00000000000E+00 -0.11622901685E+04  0.11622901685E+04  0.25500000920E-02 0. -1.
    10030    2    1    2    0    0  0.00000000000E+00  0.00000000000E+00  0.12053960255E+04  0.35299763626E+04  0.33177934749E+04 0.  0.
        3    1    3    3  502    0 -0.12609332158E+03  0.12971962599E+04  0.16946480332E+04  0.21378609939E+04  0.10100000352E+00 0.  1.
       -3    1    3    3    0  502  0.12609332158E+03 -0.12971962599E+04 -0.48925200770E+03  0.13921153687E+04  0.10100000352E+00 0. -1.
</event>
<event>
 5   0  0.1126221E-06  0.3324942E+04  0.7818609E-02  0.8156578E-01
       -2   -1    0    0    0  501  0.00000000000E+00  0.00000000000E+00  0.17957577332E+04  0.17957577332E+04  0.25500000920E-02 0. -1.
        2   -1    0    0  501    0  0.00000000000E+00  0.00000000000E+00 -0.15390773048E+04  0.15390773048E+04  0.25500000920E-02 0.  1.
    10030    2    1    2    0    0  0.00000000000E+00  0.00000000000E+00  0.25668042837E+03  0.33348350380E+04  0.33249420880E+04 0.  0.
        2    1    3    3  502    0 -0.59391672775E+03 -0.11677024279E+04  0.11548814353E+04  0.17464298352E+04  0.25500000920E-02 0. -1.
       -2    1    3    3    0  502  0.59391672775E+03  0.11677024279E+04 -0.89820100689E+03  0.15884052029E+04  0.25500000920E-02 0.  1.
</event>
<event>
 5   0  0.1129434E-06  0.3279315E+04  0.7818609E-02  0.8168179E-01
        2   -1    0    0  501    0  0.00000000000E+00  0.00000000000E+00  0.14900983821E+04  0.14900983821E+04  0.25500000920E-02 0. -1.
       -2   -1    0    0    0  501  0.00000000000E+00  0.00000000000E+00 -0.18042272504E+04  0.18042272504E+04  0.25500000920E-02 0.  1.
    10030    2    1    2    0    0  0.00000000000E+00  0.00000000000E+00 -0.31412886833E+03  0.32943256325E+04  0.32793146276E+04 0.  0.
        3    1    3    3  502    0  0.13333327108E+02 -0.45959934545E+03  0.14240099228E+04  0.14964002160E+04  0.10100000352E+00 0. -1.
       -3    1    3    3    0  502 -0.13333327108E+02  0.45959934545E+03 -0.17381387911E+04  0.17979254165E+04  0.10100000352E+00 0.  1.
</event>
<event>
 5   0  0.1129434E-06  0.3343275E+04  0.7818609E-02  0.8151970E-01
       -2   -1    0    0    0  501  0.00000000000E+00  0.00000000000E+00  0.14865930410E+04  0.14865930410E+04  0.25500000920E-02 0.  1.
        2   -1    0    0  501    0  0.00000000000E+00  0.00000000000E+00 -0.18797157809E+04  0.18797157809E+04  0.25500000920E-02 0. -1.
    10030    2    1    2    0    0  0.00000000000E+00  0.00000000000E+00 -0.39312273996E+03  0.33663088219E+04  0.33432752797E+04 0.  0.
        3    1    3    3  502    0 -0.98226581266E+03 -0.91778951492E+01  0.11653258489E+04  0.15241111195E+04  0.10100000352E+00 0.  1.
       -3    1    3    3    0  502  0.98226581266E+03  0.91778951492E+01 -0.15584485888E+04  0.18421977024E+04  0.10100000352E+00 0. -1.
</event>
<event>
 5   0  0.1120545E-06  0.3279901E+04  0.7818609E-02  0.8168028E-01
       -2   -1    0    0    0  501  0.00000000000E+00  0.00000000000E+00  0.12103213476E+04  0.12103213476E+04  0.25500000920E-02 0.  1.
        2   -1    0    0  501    0  0.00000000000E+00  0.00000000000E+00 -0.22220856538E+04  0.22220856538E+04  0.25500000920E-02 0. -1.
    10030    2    1    2    0    0  0.00000000000E+00  0.00000000000E+00 -0.10117643062E+04  0.34324070013E+04  0.32799010368E+04 0.  0.
        4    1    3    3  502    0 -0.94064725952E+03  0.13368014751E+04 -0.36712500336E+03  0.16753023105E+04  0.12699999809E+01 0.  1.
       -4    1    3    3    0  502  0.94064725952E+03 -0.13368014751E+04 -0.64463930287E+03  0.17571046908E+04  0.12699999809E+01 0. -1.
</event>
<event>
 5   0  0.3796529E-07  0.3308463E+04  0.7818609E-02  0.8160745E-01
        1   -1    0    0  501    0  0.00000000000E+00  0.00000000000E+00  0.16330165413E+04  0.16330165413E+04  0.50400001928E-02 0.  1.
       -1   -1    0    0    0  501  0.00000000000E+00  0.00000000000E+00 -0.16757216277E+04  0.16757216277E+04  0.50400001928E-02 0. -1.
    10030    2    1    2    0    0  0.00000000000E+00  0.00000000000E+00 -0.42705086450E+02  0.33087381690E+04  0.33084625654E+04 0.  0.
        5    1    3    3  502    0 -0.87081208266E+03 -0.67653153360E+03  0.12118156419E+04  0.16384528798E+04  0.46999998093E+01 0.  1.
       -5    1    3    3    0  502  0.87081208266E+03  0.67653153360E+03 -0.12545207284E+04  0.16702852892E+04  0.46999998093E+01 0. -1.
</event>
<event>
 5   0  0.3674967E-07  0.3283294E+04  0.7818609E-02  0.8167159E-01
        1   -1    0    0  501    0  0.00000000000E+00  0.00000000000E+00  0.99064233202E+03  0.99064233203E+03  0.50400001928E-02 0.  1.
       -1   -1    0    0    0  501  0.00000000000E+00  0.00000000000E+00 -0.27204622106E+04  0.27204622106E+04  0.50400001928E-02 0. -1.
    10030    2    1    2    0    0  0.00000000000E+00  0.00000000000E+00 -0.17298198786E+04  0.37111045426E+04  0.32832940950E+04 0.  0.
        2    1    3    3  502    0 -0.77740272302E+03 -0.36052545588E+03 -0.24475997756E+04  0.25932755849E+04  0.25500000920E-02 0. -1.
       -2    1    3    3    0  502  0.77740272302E+03  0.36052545588E+03  0.71777989700E+03  0.11178289577E+04  0.25500000920E-02 0.  1.
</event>
<event>
 5   0  0.3674967E-07  0.3304421E+04  0.7818609E-02  0.8161771E-01
        1   -1    0    0  501    0  0.00000000000E+00  0.00000000000E+00  0.15789558291E+04  0.15789558291E+04  0.50400001928E-02 0.  1.
       -1   -1    0    0    0  501  0.00000000000E+00  0.00000000000E+00 -0.17288638305E+04  0.17288638305E+04  0.50400001928E-02 0. -1.
    10030    2    1    2    0    0  0.00000000000E+00  0.00000000000E+00 -0.14990800144E+03  0.33078196596E+04  0.33044210524E+04 0.  0.
        2    1    3    3  502    0 -0.14832350420E+04 -0.46206796163E+03 -0.63794388604E+03  0.16794241254E+04  0.25500000920E-02 0. -1.
       -2    1    3    3    0  502  0.14832350420E+04  0.46206796163E+03  0.48803588460E+03  0.16283955342E+04  0.25500000920E-02 0.  1.
</event>
<event>
 5   0  0.3749685E-07  0.3307355E+04  0.7818609E-02  0.8161026E-01
       -1   -1    0    0    0  501  0.00000000000E+00  0.00000000000E+00  0.15603515058E+04  0.15603515058E+04  0.50400001928E-02 0.  1.
        1   -1    0    0  501    0  0.00000000000E+00  0.00000000000E+00 -0.17525854485E+04  0.17525854485E+04  0.50400001928E-02 0. -1.
    10030    2    1    2    0    0  0.00000000000E+00  0.00000000000E+00 -0.19223394277E+03  0.33129369543E+04  0.33073550421E+04 0.  0.
        3    1    3    3  502    0  0.47525945178E+03  0.52919819748E+03  0.13992948008E+04  0.15696968588E+04  0.10100000352E+00 0.  1.
       -3    1    3    3    0  502 -0.47525945178E+03 -0.52919819748E+03 -0.15915287436E+04  0.17432400955E+04  0.10100000352E+00 0. -1.
</event>
<event>
 5   0  0.1116462E-06  0.3490899E+04  0.7818609E-02  0.8115950E-01
        2   -1    0    0  501    0  0.00000000000E+00  0.00000000000E+00  0.26028320745E+04  0.26028320745E+04  0.25500000920E-02 0.  1.
       -2   -1    0    0    0  501  0.00000000000E+00  0.00000000000E+00 -0.11704916443E+04  0.11704916443E+04  0.25500000920E-02 0. -1.
    10030    2    1    2    0    0  0.00000000000E+00  0.00000000000E+00  0.14323404302E+04  0.37733237188E+04  0.34908985632E+04 0.  0.
        1    1    3    3  502    0 -0.14962769513E+04  0.70167814175E+03  0.13232071398E+04  0.21170909439E+04  0.50400001928E-02 0.  1.
       -1    1    3    3    0  502  0.14962769513E+04 -0.70167814175E+03  0.10913329039E+03  0.16562327749E+04  0.50400001928E-02 0. -1.
</event>
<event>
 5   0  0.3749685E-07  0.3337057E+04  0.7818609E-02  0.8153530E-01
       -1   -1    0    0    0  501  0.00000000000E+00  0.00000000000E+00  0.22704496141E+04  0.22704496141E+04  0.50400001928E-02 0.  1.
        1   -1    0    0  501    0  0.00000000000E+00  0.00000000000E+00 -0.12261834382E+04  0.12261834382E+04  0.50400001928E-02 0. -1.
    10030    2    1    2    0    0  0.00000000000E+00  0.00000000000E+00  0.10442661759E+04  0.34966330523E+04  0.33370572150E+04 0.  0.
        3    1    3    3  502    0  0.79121093456E+03  0.58258230059E+03 -0.89089734417E+03  0.13263163152E+04  0.10100000352E+00 0. -1.
       -3    1    3    3    0  502 -0.79121093456E+03 -0.58258230059E+03  0.19351635200E+04  0.21703167371E+04  0.10100000352E+00 0.  1.
</event>
<event>
 5   0  0.1129434E-06  0.3309712E+04  0.7818609E-02  0.8160429E-01
        2   -1    0    0  501    0  0.00000000000E+00  0.00000000000E+00  0.19018838184E+04  0.19018838184E+04  0.25500000920E-02 0. -1.
       -2   -1    0    0    0  501  0.00000000000E+00  0.00000000000E+00 -0.14399133643E+04  0.14399133643E+04  0.25500000920E-02 0.  1.
    10030    2    1    2    0    0  0.00000000000E+00  0.00000000000E+00  0.46197045410E+03  0.33417971827E+04  0.33097117261E+04 0.  0.
        3    1    3    3  502    0  0.82162030403E+03  0.57702018611E+03  0.15592363788E+04  0.18545161942E+04  0.10100000352E+00 0. -1.
       -3    1    3    3    0  502 -0.82162030403E+03 -0.57702018611E+03 -0.10972659247E+04  0.14872809885E+04  0.10100000352E+00 0.  1.
</event>
<event>
 5   0  0.3757406E-07  0.3227977E+04  0.7818609E-02  0.8181467E-01
        1   -1    0    0  501    0  0.00000000000E+00  0.00000000000E+00  0.85425096175E+03  0.85425096177E+03  0.50400001928E-02 0.  1.
       -1   -1    0    0    0  501  0.00000000000E+00  0.00000000000E+00 -0.30494064532E+04  0.30494064532E+04  0.50400001928E-02 0. -1.
    10030    2    1    2    0    0  0.00000000000E+00  0.00000000000E+00 -0.21951554915E+04  0.39036574150E+04  0.32279767010E+04 0.  0.
        1    1    3    3  502    0  0.32273424596E+02  0.28343982274E+03 -0.30186766804E+04  0.30321260870E+04  0.50400001928E-02 0. -1.
       -1    1    3    3    0  502 -0.32273424596E+02 -0.28343982274E+03  0.82352118889E+03  0.87153132797E+03  0.50400001928E-02 0.  1.
</event>
<event>
 5   0  0.1120545E-06  0.3337681E+04  0.7818609E-02  0.8153373E-01
        2   -1    0    0  501    0  0.00000000000E+00  0.00000000000E+00  0.10635371771E+04  0.10635371771E+04  0.25500000920E-02 0. -1.
       -2   -1    0    0    0  501  0.00000000000E+00  0.00000000000E+00 -0.26186478728E+04  0.26186478728E+04  0.25500000920E-02 0.  1.
    10030    2    1    2    0    0  0.00000000000E+00  0.00000000000E+00 -0.15551106956E+04  0.36821850499E+04  0.33376814506E+04 0.  0.
        4    1    3    3  502    0  0.12651069991E+04 -0.70638170106E+03 -0.16910005245E+04  0.22268711713E+04  0.12699999809E+01 0.  1.
       -4    1    3    3    0  502 -0.12651069991E+04  0.70638170106E+03  0.13588982889E+03  0.14553138786E+04  0.12699999809E+01 0. -1.
</event>
<event>
 5   0  0.1120545E-06  0.3160159E+04  0.7818609E-02  0.8199419E-01
        2   -1    0    0  501    0  0.00000000000E+00  0.00000000000E+00  0.24920505786E+04  0.24920505786E+04  0.25500000920E-02 0.  1.
       -2   -1    0    0    0  501  0.00000000000E+00  0.00000000000E+00 -0.10018463602E+04  0.10018463602E+04  0.25500000920E-02 0. -1.
    10030    2    1    2    0    0  0.00000000000E+00  0.00000000000E+00  0.14902042184E+04  0.34938969388E+04  0.31601593641E+04 0.  0.
        4    1    3    3  502    0 -0.30744145749E+03  0.15347174527E+03 -0.96003637095E+03  0.10196790048E+04  0.12699999809E+01 0. -1.
       -4    1    3    3    0  502  0.30744145749E+03 -0.15347174527E+03  0.24502405893E+04  0.24742179340E+04  0.12699999809E+01 0.  1.
</event>
<event>
 5   0  0.3796529E-07  0.3345961E+04  0.7818609E-02  0.8151298E-01
       -1   -1    0    0    0  501  0.00000000000E+00  0.00000000000E+00  0.18175032456E+04  0.18175032456E+04  0.50400001928E-02 0.  1.
        1   -1    0    0  501    0  0.00000000000E+00  0.00000000000E+00 -0.15399502257E+04  0.15399502257E+04  0.50400001928E-02 0. -1.
    10030    2    1    2    0    0  0.00000000000E+00  0.00000000000E+00  0.27755301985E+03  0.33574534713E+04  0.33459614662E+04 0.  0.
        5    1    3    3  502    0 -0.32062724020E+03  0.15876809203E+04  0.55891483799E+03  0.17134586129E+04  0.46999998093E+01 0.  1.
       -5    1    3    3    0  502  0.32062724020E+03 -0.15876809203E+04 -0.28136181814E+03  0.16439948584E+04  0.46999998093E+01 0. -1.
</event>
<event>
 5   0  0.3749685E-07  0.3329744E+04  0.7818609E-02  0.8155368E-01
       -1   -1    0    0    0  501  0.00000000000E+00  0.00000000000E+00  0.15504812420E+04  0.15504812420E+04  0.50400001928E-02 0. -1.
        1   -1    0    0  501    0  0.00000000000E+00  0.00000000000E+00 -0.17877017042E+04  0.17877017042E+04  0.50400001928E-02 0.  1.
    10030    2    1    2    0    0  0.00000000000E+00  0.00000000000E+00 -0.23722046223E+03  0.33381829462E+04  0.33297435088E+04 0.  0.
        3    1    3    3  502    0  0.11924176000E+04 -0.66961089295E+03 -0.10705216629E+04  0.17367369178E+04  0.10100000352E+00 0. -1.
       -3    1    3    3    0  502 -0.11924176000E+04  0.66961089295E+03  0.83330120070E+03  0.16014460284E+04  0.10100000352E+00 0.  1.
</event>
<event>
 5   0  0.3674967E-07  0.3252646E+04  0.7818609E-02  0.8175050E-01
        1   -1    0    0  501    0  0.00000000000E+00  0.00000000000E+00  0.13666387863E+04  0.13666387863E+04  0.50400001928E-02 0.  1.
       -1   -1    0    0    0  501  0.00000000000E+00  0.00000000000E+00 -0.19353513627E+04  0.19353513627E+04  0.50400001928E-02 0. -1.
    10030    2    1    2    0    0  0.00000000000E+00  0.00000000000E+00 -0.56871257635E+03  0.33019901490E+04  0.32526458383E+04 0.  0.
        2    1    3    3  502    0  0.13998324071E+04  0.68031925316E+03  0.19456451925E+03  0.15685089755E+04  0.25500000920E-02 0.  1.
       -2    1    3    3    0  502 -0.13998324071E+04 -0.68031925316E+03 -0.76327709560E+03  0.17334811735E+04  0.25500000920E-02 0. -1.
</event>
<event>
 5   0  0.1120545E-06  0.3083340E+04  0.7818609E-02  0.8220325E-01
        2   -1    0    0  501    0  0.00000000000E+00  0.00000000000E+00  0.22153274247E+04  0.22153274247E+04  0.25500000920E-02 0.  1.
       -2   -1    0    0    0  501  0.00000000000E+00  0.00000000000E+00 -0.10728647300E+04  0.10728647300E+04  0.25500000920E-02 0. -1.
    10030    2    1    2    0    0  0.00000000000E+00  0.00000000000E+00  0.11424626947E+04  0.32881921546E+04  0.30833401754E+04 0.  0.
        4    1    3    3  502    0  0.10682364628E+04  0.59283345742E+03  0.15740034858E+04  0.19925032584E+04  0.12699999809E+01 0.  1.
       -4    1    3    3    0  502 -0.10682364628E+04 -0.59283345742E+03 -0.43154079106E+03  0.12956888963E+04  0.12699999809E+01 0. -1.
</event>
<event>
 5   0  0.3749685E-07  0.3347348E+04  0.7818609E-02  0.8150951E-01
       -1   -1    0    0    0  501  0.00000000000E+00  0.00000000000E+00  0.10321967493E+04  0.10321967493E+04  0.50400001928E-02 0. -1.
        1   -1    0    0  501    0  0.00000000000E+00  0.00000000000E+00 -0.27138088603E+04  0.27138088603E+04  0.50400001928E-02 0.  1.
    10030    2    1    2    0    0  0.00000000000E+00  0.00000000000E+00 -0.16816121110E+04  0.37460056095E+04  0.33473480152E+04 0.  0.
        3    1    3    3  502    0 -0.84509683279E+03 -0.13548278158E+04 -0.27965126735E+03  0.16210958974E+04  0.10100000352E+00 0. -1.
       -3    1    3    3    0  502  0.84509683279E+03  0.13548278158E+04 -0.14019608436E+04  0.21249097121E+04  0.10100000352E+00 0.  1.
</event>
<event>
 5   0  0.1126221E-06  0.3290745E+04  0.7818609E-02  0.8165254E-01
       -2   -1    0    0    0  501  0.00000000000E+00  0.00000000000E+00  0.11430227028E+04  0.11430227028E+04  0.25500000920E-02 0. -1.
        2   -1    0    0  501    0  0.00000000000E+00  0.00000000000E+00 -0.23685009679E+04  0.23685009679E+04  0.25500000920E-02 0.  1.
    10030    2    1    2    0    0  0.00000000000E+00  0.00000000000E+00 -0.12254782652E+04  0.35115236707E+04  0.32907448263E+04 0.  0.
        2    1    3    3  502    0  0.36454218734E+03 -0.10153538315E+04 -0.19384319025E+04  0.22184121912E+04  0.25500000920E-02 0.  1.
       -2    1    3    3    0  502 -0.36454218734E+03  0.10153538315E+04  0.71295363737E+03  0.12931114795E+04  0.25500000920E-02 0. -1.
</event>
<event>
 5   0  0.1120545E-06  0.3294967E+04  0.7818609E-02  0.8164177E-01
        2   -1    0    0  501    0  0.00000000000E+00  0.00000000000E+00  0.16710197017E+04  0.16710197017E+04  0.25500000920E-02 0.  1.
       -2   -1    0    0    0  501  0.00000000000E+00  0.00000000000E+00 -0.16242786535E+04  0.16242786535E+04  0.25500000920E-02 0. -1.
    10030    2    1    2    0    0  0.00000000000E+00  0.00000000000E+00  0.46741048222E+02  0.32952983552E+04  0.32949668473E+04 0.  0.
        4    1    3    3  502    0  0.94619091810E+03  0.92755297068E+03  0.10025340165E+04  0.16615377920E+04  0.12699999809E+01 0.  1.
       -4    1    3    3    0  502 -0.94619091810E+03 -0.92755297068E+03 -0.95579296833E+03  0.16337605633E+04  0.12699999809E+01 0. -1.
</event>
<event>
 5   0  0.3796529E-07  0.3308825E+04  0.7818609E-02  0.8160654E-01
       -1   -1    0    0    0  501  0.00000000000E+00  0.00000000000E+00  0.13641340098E+04  0.13641340098E+04  0.50400001928E-02 0.  1.
        1   -1    0    0  501    0  0.00000000000E+00  0.00000000000E+00 -0.20064598962E+04  0.20064598963E+04  0.50400001928E-02 0. -1.
    10030    2    1    2    0    0  0.00000000000E+00  0.00000000000E+00 -0.64232588648E+03  0.33705939060E+04  0.33088246758E+04 0.  0.
        5    1    3    3  502    0 -0.10360997634E+04 -0.11578680590E+04  0.25768518672E+03  0.15749872721E+04  0.46999998093E+01 0. -1.
       -5    1    3    3    0  502  0.10360997634E+04  0.11578680590E+04 -0.90001107321E+03  0.17956066339E+04  0.46999998093E+01 0.  1.
</event>
<event>
 5   0  0.3674967E-07  0.3125818E+04  0.7818609E-02  0.8208688E-01
       -1   -1    0    0    0  501  0.00000000000E+00  0.00000000000E+00  0.11655531138E+04  0.11655531138E+04  0.50400001928E-02 0.  1.
        1   -1    0    0  501    0  0.00000000000E+00  0.00000000000E+00 -0.20957302237E+04  0.20957302237E+04  0.50400001928E-02 0. -1.
    10030    2    1    2    0    0  0.00000000000E+00  0.00000000000E+00 -0.93017710990E+03  0.32612833375E+04  0.31258182212E+04 0.  0.
        2    1    3    3  502    0 -0.57109762644E+03 -0.46897519878E+03 -0.19019406777E+04  0.20404579333E+04  0.25500000920E-02 0. -1.
       -2    1    3    3    0  502  0.57109762644E+03  0.46897519878E+03  0.97176356779E+03  0.12208254043E+04  0.25500000920E-02 0.  1.
</event>
<event>
 5   0  0.1126221E-06  0.3265800E+04  0.7818609E-02  0.8171652E-01
       -2   -1    0    0    0  501  0.00000000000E+00  0.00000000000E+00  0.11873439551E+04  0.11873439551E+04  0.25500000920E-02 0. -1.
        2   -1    0    0  501    0  0.00000000000E+00  0.00000000000E+00 -0.22456529476E+04  0.22456529476E+04  0.25500000920E-02 0.  1.
    10030    2    1    2    0    0  0.00000000000E+00  0.00000000000E+00 -0.10583089926E+04  0.34329969027E+04  0.32658000261E+04 0.  0.
        2    1    3    3  502    0 -0.40292670620E+02  0.16208947066E+04 -0.73255297668E+03  0.17792012288E+04  0.25500000920E-02 0. -1.
       -2    1    3    3    0  502  0.40292670620E+02 -0.16208947066E+04 -0.32575601588E+03  0.16537956739E+04  0.25500000920E-02 0.  1.
</event>
<event>
 5   0  0.1129434E-06  0.3312300E+04  0.7818609E-02  0.8159773E-01
        2   -1    0    0  501    0  0.00000000000E+00  0.00000000000E+00  0.17940933070E+04  0.17940933070E+04  0.25500000920E-02 0. -1.
       -2   -1    0    0    0  501  0.00000000000E+00  0.00000000000E+00 -0.15288128637E+04  0.15288128637E+04  0.25500000920E-02 0.  1.
    10030    2    1    2    0    0  0.00000000000E+00  0.00000000000E+00  0.26528044330E+03  0.33229061706E+04  0.33123000627E+04 0.  0.
        3    1    3    3  502    0  0.63601461210E+02 -0.15140813592E+04 -0.53758989821E+03  0.16079460243E+04  0.10100000352E+00 0.  1.
       -3    1    3    3    0  502 -0.63601461210E+02  0.15140813592E+04  0.80287034152E+03  0.17149601464E+04  0.10100000352E+00 0. -1.
</event>
<event>
 5   0  0.1146799E-06  0.3081260E+04  0.7818609E-02  0.8220900E-01
       -2   -1    0    0    0  501  0.00000000000E+00  0.00000000000E+00  0.16686844736E+04  0.16686844736E+04  0.25500000920E-02 0. -1.
        2   -1    0    0  501    0  0.00000000000E+00  0.00000000000E+00 -0.14224019550E+04  0.14224019550E+04  0.25500000920E-02 0.  1.
    10030    2    1    2    0    0  0.00000000000E+00  0.00000000000E+00  0.24628251855E+03  0.30910864286E+04  0.30812595200E+04 0.  0.
        5    1    3    3  502    0 -0.32352211485E+03 -0.84203418143E+03  0.13760558963E+04  0.16453692720E+04  0.46999998093E+01 0. -1.
       -5    1    3    3    0  502  0.32352211485E+03  0.84203418143E+03 -0.11297733778E+04  0.14457171565E+04  0.46999998093E+01 0.  1.
</event>
<event>
 5   0  0.3674967E-07  0.3416255E+04  0.7818609E-02  0.8133928E-01
        1   -1    0    0  501    0  0.00000000000E+00  0.00000000000E+00  0.23396281722E+04  0.23396281722E+04  0.50400001928E-02 0. -1.
       -1   -1    0    0    0  501  0.00000000000E+00  0.00000000000E+00 -0.12470785876E+04  0.12470785876E+04  0.50400001928E-02 0.  1.
    10030    2    1    2    0    0  0.00000000000E+00  0.00000000000E+00  0.10925495845E+04  0.35867067598E+04  0.34162553748E+04 0.  0.
        2    1    3    3  502    0 -0.17034267127E+04 -0.32752323464E+02  0.41783999977E+03  0.17542307561E+04  0.25500000920E-02 0.  1.
       -2    1    3    3    0  502  0.17034267127E+04  0.32752323464E+02  0.67470958477E+03  0.18324760037E+04  0.25500000920E-02 0. -1.
</event>
<event>
 5   0  0.1126221E-06  0.3285952E+04  0.7818609E-02  0.8166479E-01
       -2   -1    0    0    0  501  0.00000000000E+00  0.00000000000E+00  0.14695090751E+04  0.14695090751E+04  0.25500000920E-02 0.  1.
        2   -1    0    0  501    0  0.00000000000E+00  0.00000000000E+00 -0.18369198470E+04  0.18369198470E+04  0.25500000920E-02 0. -1.
    10030    2    1    2    0    0  0.00000000000E+00  0.00000000000E+00 -0.36741077196E+03  0.33064289221E+04  0.32859521514E+04 0.  0.
        2    1    3    3  502    0  0.85770848888E+03  0.10270235201E+04  0.77561348847E+03  0.15466148345E+04  0.25500000920E-02 0.  1.
       -2    1    3    3    0  502 -0.85770848888E+03 -0.10270235201E+04 -0.11430242604E+04  0.17598140876E+04  0.25500000920E-02 0. -1.
</event>
<event>
 5   0  0.3674967E-07  0.3309194E+04  0.7818609E-02  0.8160560E-01
       -1   -1    0    0    0  501  0.00000000000E+00  0.00000000000E+00  0.12567824439E+04  0.12567824439E+04  0.50400001928E-02 0. -1.
        1   -1    0    0  501    0  0.00000000000E+00  0.00000000000E+00 -0.21783336806E+04  0.21783336806E+04  0.50400001928E-02 0.  1.
    10030    2    1    2    0    0  0.00000000000E+00  0.00000000000E+00 -0.92155123668E+03  0.34351161245E+04  0.33091941778E+04 0.  0.
        2    1    3    3  502    0 -0.13995837526E+04  0.82198014770E+03 -0.12729503199E+03  0.16280939988E+04  0.25500000920E-02 0.  1.
       -2    1    3    3    0  502  0.13995837526E+04 -0.82198014770E+03 -0.79425620469E+03  0.18070221256E+04  0.25500000920E-02 0. -1.
</event>
<event>
 5   0  0.1146799E-06  0.3434478E+04  0.7818609E-02  0.8129496E-01
        2   -1    0    0  501    0  0.00000000000E+00  0.00000000000E+00  0.21615953194E+04  0.21615953194E+04  0.25500000920E-02 0.  1.
       -2   -1    0    0    0  501  0.00000000000E+00  0.00000000000E+00 -0.13642287598E+04  0.13642287598E+04  0.25500000920E-02 0. -1.
    10030    2    1    2    0    0  0.00000000000E+00  0.00000000000E+00  0.79736655958E+03  0.35258240792E+04  0.34344784185E+04 0.  0.
        5    1    3    3  502    0  0.11776133647E+04  0.12310228636E+04  0.62052766950E+03  0.18130822392E+04  0.46999998093E+01 0.  1.
       -5    1    3    3    0  502 -0.11776133647E+04 -0.12310228636E+04  0.17683889008E+03  0.17127418400E+04  0.46999998093E+01 0. -1.
</event>
<event>
 5   0  0.3757406E-07  0.3289926E+04  0.7818609E-02  0.8165463E-01
        1   -1    0    0  501    0  0.00000000000E+00  0.00000000000E+00  0.12136447565E+04  0.12136447565E+04  0.50400001928E-02 0.  1.
       -1   -1    0    0    0  501  0.00000000000E+00  0.00000000000E+00 -0.22295681658E+04  0.22295681658E+04  0.50400001928E-02 0. -1.
    10030    2    1    2    0    0  0.00000000000E+00  0.00000000000E+00 -0.10159234093E+04  0.34432129222E+04  0.32899262688E+04 0.  0.
        1    1    3    3  502    0  0.52796081483E+03 -0.13354865924E+04 -0.13476113298E+04  0.19693459211E+04  0.50400001928E-02 0. -1.
       -1    1    3    3    0  502 -0.52796081483E+03  0.13354865924E+04  0.33168792049E+03  0.14738670012E+04  0.50400001928E-02 0.  1.
</event>
<event>
 5   0  0.3709747E-07  0.3316385E+04  0.7818609E-02  0.8158739E-01
       -1   -1    0    0    0  501  0.00000000000E+00  0.00000000000E+00  0.10190438707E+04  0.10190438707E+04  0.50400001928E-02 0.  1.
        1   -1    0    0  501    0  0.00000000000E+00  0.00000000000E+00 -0.26982178676E+04  0.26982178676E+04  0.50400001928E-02 0. -1.
    10030    2    1    2    0    0  0.00000000000E+00  0.00000000000E+00 -0.16791739969E+04  0.37172617383E+04  0.33163850077E+04 0.  0.
        4    1    3    3  502    0  0.11955415287E+04  0.60753006519E+03  0.25359250450E+03  0.13648161408E+04  0.12699999809E+01 0.  1.
       -4    1    3    3    0  502 -0.11955415287E+04 -0.60753006519E+03 -0.19327665015E+04  0.23524455975E+04  0.12699999809E+01 0. -1.
</event>
<event>
 5   0  0.3757406E-07  0.3330393E+04  0.7818609E-02  0.8155205E-01
        1   -1    0    0  501    0  0.00000000000E+00  0.00000000000E+00  0.23665923951E+04  0.23665923951E+04  0.50400001928E-02 0. -1.
       -1   -1    0    0    0  501  0.00000000000E+00  0.00000000000E+00 -0.11716762312E+04  0.11716762312E+04  0.50400001928E-02 0.  1.
    10030    2    1    2    0    0  0.00000000000E+00  0.00000000000E+00  0.11949161639E+04  0.35382686263E+04  0.33303934052E+04 0.  0.
        1    1    3    3  502    0 -0.73482119519E+03 -0.11579483344E+04  0.16009077388E+04  0.21080114141E+04  0.50400001928E-02 0. -1.
       -1    1    3    3    0  502  0.73482119519E+03  0.11579483344E+04 -0.40599157489E+03  0.14302572122E+04  0.50400001928E-02 0.  1.
</event>
<event>
 5   0  0.1146799E-06  0.3343157E+04  0.7818609E-02  0.8152000E-01
       -2   -1    0    0    0  501  0.00000000000E+00  0.00000000000E+00  0.14680633203E+04  0.14680633204E+04  0.25500000920E-02 0.  1.
        2   -1    0    0  501    0  0.00000000000E+00  0.00000000000E+00 -0.19033069900E+04  0.19033069900E+04  0.25500000920E-02 0. -1.
    10030    2    1    2    0    0  0.00000000000E+00  0.00000000000E+00 -0.43524366968E+03  0.33713703104E+04  0.33431572978E+04 0.  0.
        5    1    3    3  502    0 -0.15456468015E+04 -0.14887291006E+03  0.40644299224E+03  0.16051184300E+04  0.46999998093E+01 0.  1.
       -5    1    3    3    0  502  0.15456468015E+04  0.14887291006E+03 -0.84168666192E+03  0.17662518804E+04  0.46999998093E+01 0. -1.
</event>
<event>
 5   0  0.3796529E-07  0.3286898E+04  0.7818609E-02  0.8166237E-01
        1   -1    0    0  501    0  0.00000000000E+00  0.00000000000E+00  0.24098753969E+04  0.24098753969E+04  0.50400001928E-02 0. -1.
       -1   -1    0    0    0  501  0.00000000000E+00  0.00000000000E+00 -0.11207738377E+04  0.11207738377E+04  0.50400001928E-02 0.  1.
    10030    2    1    2    0    0  0.00000000000E+00  0.00000000000E+00  0.12891015592E+04  0.35306492346E+04  0.32868984146E+04 0.  0.
        5    1    3    3  502    0 -0.11455034924E+04 -0.11784393455E+04  0.64199414652E+03  0.17643911460E+04  0.46999998093E+01 0.  1.
       -5    1    3    3    0  502  0.11455034924E+04  0.11784393455E+04  0.64710741267E+03  0.17662580886E+04  0.46999998093E+01 0. -1.
</event>
<event>
 5   0  0.3749685E-07  0.3292847E+04  0.7818609E-02  0.8164718E-01
        1   -1    0    0  501    0  0.00000000000E+00  0.00000000000E+00  0.26364950563E+04  0.26364950563E+04  0.50400001928E-02 0.  1.
       -1   -1    0    0    0  501  0.00000000000E+00  0.00000000000E+00 -0.10281494312E+04  0.10281494313E+04  0.50400001928E-02 0. -1.
    10030    2    1    2    0    0  0.00000000000E+00  0.00000000000E+00  0.16083456250E+04  0.36646444875E+04  0.32928473348E+04 0.  0.
        3    1    3    3  502    0  0.99754321926E+03  0.83755007425E+03  0.19249175297E+04  0.23241966586E+04  0.10100000352E+00 0.  1.
       -3    1    3    3    0  502 -0.99754321926E+03 -0.83755007425E+03 -0.31657190469E+03  0.13404478290E+04  0.10100000352E+00 0. -1.
</event>
<event>
 5   0  0.1116462E-06  0.3418663E+04  0.7818609E-02  0.8133341E-01
        2   -1    0    0  501    0  0.00000000000E+00  0.00000000000E+00  0.25480126885E+04  0.25480126885E+04  0.25500000920E-02 0. -1.
       -2   -1    0    0    0  501  0.00000000000E+00  0.00000000000E+00 -0.11467030447E+04  0.11467030447E+04  0.25500000920E-02 0.  1.
    10030    2    1    2    0    0  0.00000000000E+00  0.00000000000E+00  0.14013096439E+04  0.36947157332E+04  0.34186628426E+04 0.  0.
        1    1    3    3  502    0 -0.32445317528E+03  0.11273831272E+03 -0.11090215510E+04  0.11609946558E+04  0.50400001928E-02 0.  1.
       -1    1    3    3    0  502  0.32445317528E+03 -0.11273831272E+03  0.25103311949E+04  0.25337210774E+04  0.50400001928E-02 0. -1.
</event>
<event>
 5   0  0.3749685E-07  0.3295411E+04  0.7818609E-02  0.8164064E-01
        1   -1    0    0  501    0  0.00000000000E+00  0.00000000000E+00  0.22455585116E+04  0.22455585116E+04  0.50400001928E-02 0.  1.
       -1   -1    0    0    0  501  0.00000000000E+00  0.00000000000E+00 -0.12090233368E+04  0.12090233368E+04  0.50400001928E-02 0. -1.
    10030    2    1    2    0    0  0.00000000000E+00  0.00000000000E+00  0.10365351748E+04  0.34545818485E+04  0.32954105327E+04 0.  0.
        3    1    3    3  502    0  0.92082859138E+02 -0.14725921280E+04  0.12871273816E+04  0.19579846105E+04  0.10100000352E+00 0.  1.
       -3    1    3    3    0  502 -0.92082859138E+02  0.14725921280E+04 -0.25059220685E+03  0.14965972379E+04  0.10100000352E+00 0. -1.
</event>
<event>
 5   0  0.1129434E-06  0.3396245E+04  0.7818609E-02  0.8138829E-01
        2   -1    0    0  501    0  0.00000000000E+00  0.00000000000E+00  0.15378148882E+04  0.15378148882E+04  0.25500000920E-02 0. -1.
       -2   -1    0    0    0  501  0.00000000000E+00  0.00000000000E+00 -0.18751408794E+04  0.18751408794E+04  0.25500000920E-02 0.  1.
    10030    2    1    2    0    0  0.00000000000E+00  0.00000000000E+00 -0.33732599125E+03  0.34129557676E+04  0.33962447272E+04 0.  0.
        3    1    3    3  502    0  0.10890277398E+04  0.12551591554E+04 -0.51997379573E+03  0.17412003566E+04  0.10100000352E+00 0. -1.
       -3    1    3    3    0  502 -0.10890277398E+04 -0.12551591554E+04  0.18264780448E+03  0.16717554110E+04  0.10100000352E+00 0.  1.
</event>
<event>
 5   0  0.3757406E-07  0.3298244E+04  0.7818609E-02  0.8163342E-01
        1   -1    0    0  501    0  0.00000000000E+00  0.00000000000E+00  0.13897371368E+04  0.13897371369E+04  0.50400001928E-02 0.  1.
       -1   -1    0    0    0  501  0.00000000000E+00  0.00000000000E+00 -0.19569195646E+04  0.19569195646E+04  0.50400001928E-02 0. -1.
    10030    2    1    2    0    0  0.00000000000E+00  0.00000000000E+00 -0.56718242775E+03  0.33466567015E+04  0.32982442558E+04 0.  0.
        1    1    3    3  502    0 -0.78867913000E+03 -0.11672895406E+04  0.58632846374E+03  0.15258966902E+04  0.50400001928E-02 0.  1.
       -1    1    3    3    0  502  0.78867913000E+03  0.11672895406E+04 -0.11535108915E+04  0.18207600112E+04  0.50400001928E-02 0. -1.
</event>
<event>
 5   0  0.3757406E-07  0.3224619E+04  0.7818609E-02  0.8182345E-01
        1   -1    0    0  501    0  0.00000000000E+00  0.00000000000E+00  0.11175760988E+04  0.11175760988E+04  0.50400001928E-02 0. -1.
       -1   -1    0    0    0  501  0.00000000000E+00  0.00000000000E+00 -0.23260539334E+04  0.23260539334E+04  0.50400001928E-02 0.  1.
    10030    2    1    2    0    0  0.00000000000E+00  0.00000000000E+00 -0.12084778346E+04  0.34436300322E+04  0.32246192212E+04 0.  0.
        1    1    3    3  502    0 -0.15317248240E+04  0.50178759776E+03 -0.64656070598E+03  0.17366670597E+04  0.50400001928E-02 0.  1.
       -1    1    3    3    0  502  0.15317248240E+04 -0.50178759776E+03 -0.56191712858E+03  0.17069629724E+04  0.50400001928E-02 0. -1.
</event>
<event>
 5   0  0.1116462E-06  0.3343382E+04  0.7818609E-02  0.8151944E-01
        2   -1    0    0  501    0  0.00000000000E+00  0.00000000000E+00  0.19446705218E+04  0.19446705218E+04  0.25500000920E-02 0. -1.
       -2   -1    0    0    0  501  0.00000000000E+00  0.00000000000E+00 -0.14370301638E+04  0.14370301638E+04  0.25500000920E-02 0.  1.
    10030    2    1    2    0    0  0.00000000000E+00  0.00000000000E+00  0.50764035800E+03  0.33817006856E+04  0.33433816405E+04 0.  0.
        1    1    3    3  502    0 -0.10908046425E+04  0.57307201197E+03  0.13964955257E+04  0.18623818224E+04  0.50400001928E-02 0. -1.
       -1    1    3    3    0  502  0.10908046425E+04 -0.57307201197E+03 -0.88885516766E+03  0.15193188632E+04  0.50400001928E-02 0.  1.
</event>
<event>
 5   0  0.3749685E-07  0.3293540E+04  0.7818609E-02  0.8164541E-01
       -1   -1    0    0    0  501  0.00000000000E+00  0.00000000000E+00  0.12624471915E+04  0.12624471915E+04  0.50400001928E-02 0.  1.
        1   -1    0    0  501    0  0.00000000000E+00  0.00000000000E+00 -0.21480903366E+04  0.21480903366E+04  0.50400001928E-02 0. -1.
    10030    2    1    2    0    0  0.00000000000E+00  0.00000000000E+00 -0.88564314506E+03  0.34105375281E+04  0.32935395019E+04 0.  0.
        3    1    3    3  502    0  0.75637903123E+03  0.29372772918E+03 -0.19267182049E+04  0.20906047616E+04  0.10100000352E+00 0. -1.
       -3    1    3    3    0  502 -0.75637903123E+03 -0.29372772918E+03  0.10410750599E+04  0.13199327666E+04  0.10100000352E+00 0.  1.
</event>
<event>
 5   0  0.3749685E-07  0.3293669E+04  0.7818609E-02  0.8164508E-01
        1   -1    0    0  501    0  0.00000000000E+00  0.00000000000E+00  0.13173539821E+04  0.13173539821E+04  0.50400001928E-02 0.  1.
       -1   -1    0    0    0  501  0.00000000000E+00  0.00000000000E+00 -0.20587206892E+04  0.20587206892E+04  0.50400001928E-02 0. -1.
    10030    2    1    2    0    0  0.00000000000E+00  0.00000000000E+00 -0.74136670713E+03  0.33760746714E+04  0.32936690168E+04 0.  0.
        3    1    3    3  502    0 -0.99678561803E+02  0.75266401518E+03  0.11272572136E+04  0.13590981463E+04  0.10100000352E+00 0.  1.
       -3    1    3    3    0  502  0.99678561803E+02 -0.75266401518E+03 -0.18686239207E+04  0.20169765251E+04  0.10100000352E+00 0. -1.
</event>
<event>
 5   0  0.1129434E-06  0.3324031E+04  0.7818609E-02  0.8156808E-01
       -2   -1    0    0    0  501  0.00000000000E+00  0.00000000000E+00  0.13402537045E+04  0.13402537045E+04  0.25500000920E-02 0. -1.
        2   -1    0    0  501    0  0.00000000000E+00  0.00000000000E+00 -0.20610242228E+04  0.20610242228E+04  0.25500000920E-02 0.  1.
    10030    2    1    2    0    0  0.00000000000E+00  0.00000000000E+00 -0.72077051833E+03  0.34012779273E+04  0.33240308962E+04 0.  0.
        3    1    3    3  502    0  0.87900094022E+03 -0.14027751150E+04 -0.51172317778E+03  0.17327092362E+04  0.10100000352E+00 0.  1.
       -3    1    3    3    0  502 -0.87900094022E+03  0.14027751150E+04 -0.20904734054E+03  0.16685686911E+04  0.10100000352E+00 0. -1.
</event>
<event>
 5   0  0.1146799E-06  0.3340978E+04  0.7818609E-02  0.8152546E-01
        2   -1    0    0  501    0  0.00000000000E+00  0.00000000000E+00  0.25273451028E+04  0.25273451028E+04  0.25500000920E-02 0.  1.
       -2   -1    0    0    0  501  0.00000000000E+00  0.00000000000E+00 -0.11041362672E+04  0.11041362673E+04  0.25500000920E-02 0. -1.
    10030    2    1    2    0    0  0.00000000000E+00  0.00000000000E+00  0.14232088356E+04  0.36314813701E+04  0.33409779334E+04 0.  0.
        5    1    3    3  502    0  0.11568785770E+04 -0.13778190050E+03 -0.58963575348E+03  0.13057734512E+04  0.46999998093E+01 0. -1.
       -5    1    3    3    0  502 -0.11568785770E+04  0.13778190050E+03  0.20128445891E+04  0.23257079189E+04  0.46999998093E+01 0.  1.
</event>
<event>
 5   0  0.1126221E-06  0.3304303E+04  0.7818609E-02  0.8161801E-01
        2   -1    0    0  501    0  0.00000000000E+00  0.00000000000E+00  0.26123967462E+04  0.26123967462E+04  0.25500000920E-02 0. -1.
       -2   -1    0    0    0  501  0.00000000000E+00  0.00000000000E+00 -0.10448662098E+04  0.10448662098E+04  0.25500000920E-02 0.  1.
    10030    2    1    2    0    0  0.00000000000E+00  0.00000000000E+00  0.15675305364E+04  0.36572629560E+04  0.33043033073E+04 0.  0.
        2    1    3    3  502    0 -0.15255216303E+04 -0.58737304540E+03  0.10488978908E+04  0.19422693233E+04  0.25500000920E-02 0.  1.
       -2    1    3    3    0  502  0.15255216303E+04  0.58737304540E+03  0.51863264565E+03  0.17149936327E+04  0.25500000920E-02 0. -1.
</event>
<event>
 5   0  0.1126221E-06  0.3224553E+04  0.7818609E-02  0.8182363E-01
       -2   -1    0    0    0  501  0.00000000000E+00  0.00000000000E+00  0.14242082722E+04  0.14242082722E+04  0.25500000920E-02 0. -1.
        2   -1    0    0  501    0  0.00000000000E+00  0.00000000000E+00 -0.18251795188E+04  0.18251795188E+04  0.25500000920E-02 0.  1.
    10030    2    1    2    0    0  0.00000000000E+00  0.00000000000E+00 -0.40097124656E+03  0.32493877910E+04  0.32245531590E+04 0.  0.
        2    1    3    3  502    0  0.10483496167E+04 -0.81175537990E+02  0.10311424932E+04  0.14727122014E+04  0.25500000920E-02 0. -1.
       -2    1    3    3    0  502 -0.10483496167E+04  0.81175537990E+02 -0.14321137398E+04  0.17766755896E+04  0.25500000920E-02 0.  1.
</event>
<event>
 5   0  0.1129434E-06  0.3321261E+04  0.7818609E-02  0.8157506E-01
        2   -1    0    0  501    0  0.00000000000E+00  0.00000000000E+00  0.20948407078E+04  0.20948407078E+04  0.25500000920E-02 0.  1.
       -2   -1    0    0    0  501  0.00000000000E+00  0.00000000000E+00 -0.13164217685E+04  0.13164217685E+04  0.25500000920E-02 0. -1.
    10030    2    1    2    0    0  0.00000000000E+00  0.00000000000E+00  0.77841893933E+03  0.34112624763E+04  0.33212611516E+04 0.  0.
        3    1    3    3  502    0 -0.46496014572E+03  0.15678491065E+04  0.92672867587E+02  0.16379642941E+04  0.10100000352E+00 0.  1.
       -3    1    3    3    0  502  0.46496014572E+03 -0.15678491065E+04  0.68574607174E+03  0.17732981822E+04  0.10100000352E+00 0. -1.
</event>
<event>
 5   0  0.3674967E-07  0.3316320E+04  0.7818609E-02  0.8158755E-01
       -1   -1    0    0    0  501  0.00000000000E+00  0.00000000000E+00  0.15971849073E+04  0.15971849073E+04  0.50400001928E-02 0. -1.
        1   -1    0    0  501    0  0.00000000000E+00  0.00000000000E+00 -0.17214631934E+04  0.17214631935E+04  0.50400001928E-02 0.  1.
    10030    2    1    2    0    0  0.00000000000E+00  0.00000000000E+00 -0.12427828615E+03  0.33186481008E+04  0.33163202687E+04 0.  0.
        2    1    3    3  502    0 -0.53812133297E+03  0.72870686348E+03 -0.14519649031E+04  0.17113708954E+04  0.25500000920E-02 0.  1.
       -2    1    3    3    0  502  0.53812133297E+03 -0.72870686348E+03  0.13276866170E+04  0.16072772053E+04  0.25500000920E-02 0. -1.
</event>
<event>
 5   0  0.1116462E-06  0.3321278E+04  0.7818609E-02  0.8157502E-01
       -2   -1    0    0    0  501  0.00000000000E+00  0.00000000000E+00  0.22477211477E+04  0.22477211477E+04  0.25500000920E-02 0. -1.
        2   -1    0    0  501    0  0.00000000000E+00  0.00000000000E+00 -0.12268968880E+04  0.12268968880E+04  0.25500000920E-02 0.  1.
    10030    2    1    2    0    0  0.00000000000E+00  0.00000000000E+00  0.10208242597E+04  0.34746180357E+04  0.33212781162E+04 0.  0.
        1    1    3    3  502    0 -0.97408404878E+03 -0.97252881095E+03  0.14823194452E+04  0.20228502070E+04  0.50400001928E-02 0. -1.
       -1    1    3    3    0  502  0.97408404878E+03  0.97252881095E+03 -0.46149518553E+03  0.14517678287E+04  0.50400001928E-02 0.  1.
</event>
<event>
 5   0  0.3749685E-07  0.3095574E+04  0.7818609E-02  0.8216954E-01
        1   -1    0    0  501    0  0.00000000000E+00  0.00000000000E+00  0.12854436241E+04  0.12854436241E+04  0.50400001928E-02 0.  1.
       -1   -1    0    0    0  501  0.00000000000E+00  0.00000000000E+00 -0.18636709098E+04  0.18636709099E+04  0.50400001928E-02 0. -1.
    10030    2    1    2    0    0  0.00000000000E+00  0.00000000000E+00 -0.57822728571E+03  0.31491145340E+04  0.30955735421E+04 0.  0.
        3    1    3    3  502    0  0.27511218477E+03  0.42872144618E+03  0.11977245895E+04  0.13015502277E+04  0.10100000352E+00 0.  1.
       -3    1    3    3    0  502 -0.27511218477E+03 -0.42872144618E+03 -0.17759518752E+04  0.18475643063E+04  0.10100000352E+00 0. -1.
</event>
<event>
 5   0  0.3749685E-07  0.3285513E+04  0.7818609E-02  0.8166592E-01
       -1   -1    0    0    0  501  0.00000000000E+00  0.00000000000E+00  0.87922541529E+03  0.87922541531E+03  0.50400001928E-02 0.  1.
        1   -1    0    0  501    0  0.00000000000E+00  0.00000000000E+00 -0.30693473918E+04  0.30693473918E+04  0.50400001928E-02 0. -1.
    10030    2    1    2    0    0  0.00000000000E+00  0.00000000000E+00 -0.21901219765E+04  0.39485728071E+04  0.32855125842E+04 0.  0.
        3    1    3    3  502    0  0.10128513745E+03 -0.15991984390E+04 -0.15299678216E+04  0.22155125529E+04  0.10100000352E+00 0. -1.
       -3    1    3    3    0  502 -0.10128513745E+03  0.15991984390E+04 -0.66015415483E+03  0.17330602542E+04  0.10100000352E+00 0.  1.
</event>
<event>
 5   0  0.3709747E-07  0.3295928E+04  0.7818609E-02  0.8163932E-01
       -1   -1    0    0    0  501  0.00000000000E+00  0.00000000000E+00  0.15984365085E+04  0.15984365085E+04  0.50400001928E-02 0. -1.
        1   -1    0    0  501    0  0.00000000000E+00  0.00000000000E+00 -0.16990265696E+04  0.16990265696E+04  0.50400001928E-02 0.  1.
    10030    2    1    2    0    0  0.00000000000E+00  0.00000000000E+00 -0.10059006115E+03  0.32974630781E+04  0.32959284566E+04 0.  0.
        4    1    3    3  502    0 -0.12911196329E+04  0.43939544370E+03 -0.97578045970E+03  0.16769637387E+04  0.12699999809E+01 0.  1.
       -4    1    3    3    0  502  0.12911196329E+04 -0.43939544370E+03  0.87519039855E+03  0.16204993394E+04  0.12699999809E+01 0. -1.
</event>
<event>
 5   0  0.1120545E-06  0.3298457E+04  0.7818609E-02  0.8163288E-01
        2   -1    0    0  501    0  0.00000000000E+00  0.00000000000E+00  0.19542988100E+04  0.19542988100E+04  0.25500000920E-02 0. -1.
       -2   -1    0    0    0  501  0.00000000000E+00  0.00000000000E+00 -0.13917804552E+04  0.13917804552E+04  0.25500000920E-02 0.  1.
    10030    2    1    2    0    0  0.00000000000E+00  0.00000000000E+00  0.56251835475E+03  0.33460792652E+04  0.32984571469E+04 0.  0.
        4    1    3    3  502    0  0.15239547117E+04  0.11831292834E+03 -0.34696969699E+03  0.15674263925E+04  0.12699999809E+01 0.  1.
       -4    1    3    3    0  502 -0.15239547117E+04 -0.11831292834E+03  0.90948805174E+03  0.17786528727E+04  0.12699999809E+01 0. -1.
</event>
<event>
 5   0  0.3749685E-07  0.3308787E+04  0.7818609E-02  0.8160663E-01
       -1   -1    0    0    0  501  0.00000000000E+00  0.00000000000E+00  0.11220431472E+04  0.11220431472E+04  0.50400001928E-02 0.  1.
        1   -1    0    0  501    0  0.00000000000E+00  0.00000000000E+00 -0.24393158669E+04  0.24393158669E+04  0.50400001928E-02 0. -1.
    10030    2    1    2    0    0  0.00000000000E+00  0.00000000000E+00 -0.13172727197E+04  0.35613590141E+04  0.33087868788E+04 0.  0.
        3    1    3    3  502    0 -0.53567247575E+03 -0.88006265939E+03  0.73460788854E+03  0.12653474012E+04  0.10100000352E+00 0.  1.
       -3    1    3    3    0  502  0.53567247575E+03  0.88006265939E+03 -0.20518806082E+04  0.22960116128E+04  0.10100000352E+00 0. -1.
</event>
<event>
 5   0  0.1146799E-06  0.3352414E+04  0.7818609E-02  0.8149685E-01
        2   -1    0    0  501    0  0.00000000000E+00  0.00000000000E+00  0.17385367812E+04  0.17385367812E+04  0.25500000920E-02 0.  1.
       -2   -1    0    0    0  501  0.00000000000E+00  0.00000000000E+00 -0.16161117700E+04  0.16161117700E+04  0.25500000920E-02 0. -1.
    10030    2    1    2    0    0  0.00000000000E+00  0.00000000000E+00  0.12242501112E+03  0.33546485512E+04  0.33524139092E+04 0.  0.
        5    1    3    3  502    0 -0.13413935334E+04 -0.44198663622E+03  0.96456498077E+03  0.17102913466E+04  0.46999998093E+01 0. -1.
       -5    1    3    3    0  502  0.13413935334E+04  0.44198663622E+03 -0.84213996965E+03  0.16443572046E+04  0.46999998093E+01 0.  1.
</event>
<event>
 5   0  0.3749685E-07  0.3299325E+04  0.7818609E-02  0.8163067E-01
       -1   -1    0    0    0  501  0.00000000000E+00  0.00000000000E+00  0.12697789611E+04  0.12697789612E+04  0.50400001928E-02 0.  1.
        1   -1    0    0  501    0  0.00000000000E+00  0.00000000000E+00 -0.21431966675E+04  0.21431966675E+04  0.50400001928E-02 0. -1.
    10030    2    1    2    0    0  0.00000000000E+00  0.00000000000E+00 -0.87341770636E+03  0.34129756287E+04  0.32993248025E+04 0.  0.
        3    1    3    3  502    0 -0.28627319766E+03  0.15992530183E+04 -0.73261027722E+03  0.17822122177E+04  0.10100000352E+00 0. -1.
       -3    1    3    3    0  502  0.28627319766E+03 -0.15992530183E+04 -0.14080742914E+03  0.16307634110E+04  0.10100000352E+00 0.  1.
</event>
<event>
 5   0  0.1116462E-06  0.3288685E+04  0.7818609E-02  0.8165780E-01
        2   -1    0    0  501    0  0.00000000000E+00  0.00000000000E+00  0.19899456672E+04  0.19899456672E+04  0.25500000920E-02 0. -1.
       -2   -1    0    0    0  501  0.00000000000E+00  0.00000000000E+00 -0.13587621490E+04  0.13587621490E+04  0.25500000920E-02 0.  1.
    10030    2    1    2    0    0  0.00000000000E+00  0.00000000000E+00  0.63118351820E+03  0.33487078162E+04  0.32886853612E+04 0.  0.
        1    1    3    3  502    0  0.11625571997E+04  0.60212143463E+03  0.13286229486E+04  0.18652957953E+04  0.50400001928E-02 0. -1.
       -1    1    3    3    0  502 -0.11625571997E+04 -0.60212143463E+03 -0.69743943037E+03  0.14834120209E+04  0.50400001928E-02 0.  1.
</event>
<event>
 5   0  0.3749685E-07  0.3242442E+04  0.7818609E-02  0.8177697E-01
        1   -1    0    0  501    0  0.00000000000E+00  0.00000000000E+00  0.16809200774E+04  0.16809200774E+04  0.50400001928E-02 0. -1.
       -1   -1    0    0    0  501  0.00000000000E+00  0.00000000000E+00 -0.15636419737E+04  0.15636419737E+04  0.50400001928E-02 0.  1.
    10030    2    1    2    0    0  0.00000000000E+00  0.00000000000E+00  0.11727810366E+03  0.32445620511E+04  0.32424417882E+04 0.  0.
        3    1    3    3  502    0  0.11883413065E+04 -0.35752922738E+03 -0.98529525190E+03  0.15845469235E+04  0.10100000352E+00 0.  1.
       -3    1    3    3    0  502 -0.11883413065E+04  0.35752922738E+03  0.11025733556E+04  0.16600151276E+04  0.10100000352E+00 0. -1.
</event>
<event>
 5   0  0.1146799E-06  0.3312927E+04  0.7818609E-02  0.8159614E-01
        2   -1    0    0  501    0  0.00000000000E+00  0.00000000000E+00  0.17093473235E+04  0.17093473235E+04  0.25500000920E-02 0. -1.
       -2   -1    0    0    0  501  0.00000000000E+00  0.00000000000E+00 -0.16052161001E+04  0.16052161001E+04  0.25500000920E-02 0.  1.
    10030    2    1    2    0    0  0.00000000000E+00  0.00000000000E+00  0.10413122339E+03  0.33145634236E+04  0.33129273124E+04 0.  0.
        5    1    3    3  502    0  0.15858588115E+04  0.14659908307E+02 -0.42638250875E+03  0.16422506559E+04  0.46999998093E+01 0.  1.
       -5    1    3    3    0  502 -0.15858588115E+04 -0.14659908307E+02  0.53051373214E+03  0.16723127677E+04  0.46999998093E+01 0. -1.
</event>
<event>
 5   0  0.1129434E-06  0.3301785E+04  0.7818609E-02  0.8162441E-01
        2   -1    0    0  501    0  0.00000000000E+00  0.00000000000E+00  0.22737086141E+04  0.22737086141E+04  0.25500000920E-02 0.  1.
       -2   -1    0    0    0  501  0.00000000000E+00  0.00000000000E+00 -0.11986786739E+04  0.11986786739E+04  0.25500000920E-02 0. -1.
    10030    2    1    2    0    0  0.00000000000E+00  0.00000000000E+00  0.10750299402E+04  0.34723872880E+04  0.33017849878E+04 0.  0.
        3    1    3    3  502    0  0.11342826859E+04  0.59027127560E+03  0.16357062504E+04  0.20761869709E+04  0.10100000352E+00 0.  1.
       -3    1    3    3    0  502 -0.11342826859E+04 -0.59027127560E+03 -0.56067631022E+03  0.13962003171E+04  0.10100000352E+00 0. -1.
</event>
<event>
 5   0  0.1129434E-06  0.3340877E+04  0.7818609E-02  0.8152571E-01
        2   -1    0    0  501    0  0.00000000000E+00  0.00000000000E+00  0.19986544735E+04  0.19986544735E+04  0.25500000920E-02 0.  1.
       -2   -1    0    0    0  501  0.00000000000E+00  0.00000000000E+00 -0.13961217872E+04  0.13961217872E+04  0.25500000920E-02 0. -1.
    10030    2    1    2    0    0  0.00000000000E+00  0.00000000000E+00  0.60253268630E+03  0.33947762606E+04  0.33408771635E+04 0.  0.
        3    1    3    3  502    0  0.44549545306E+03  0.17617111989E+03  0.19273533737E+04  0.19859993705E+04  0.10100000352E+00 0.  1.
       -3    1    3    3    0  502 -0.44549545306E+03 -0.17617111989E+03 -0.13248206874E+04  0.14087768901E+04  0.10100000352E+00 0. -1.
</event>
<event>
 5   0  0.3757406E-07  0.3388022E+04  0.7818609E-02  0.8140852E-01
       -1   -1    0    0    0  501  0.00000000000E+00  0.00000000000E+00  0.90680003115E+03  0.90680003116E+03  0.50400001928E-02 0.  1.
        1   -1    0    0  501    0  0.00000000000E+00  0.00000000000E+00 -0.31646158264E+04  0.31646158264E+04  0.50400001928E-02 0. -1.
    10030    2    1    2    0    0  0.00000000000E+00  0.00000000000E+00 -0.22578157953E+04  0.40714158576E+04  0.33880222727E+04 0.  0.
        1    1    3    3  502    0  0.44571388185E+03  0.94706053293E+03  0.47170729464E+03  0.11480820046E+04  0.50400001928E-02 0.  1.
       -1    1    3    3    0  502 -0.44571388185E+03 -0.94706053293E+03 -0.27295230899E+04  0.29233338530E+04  0.50400001928E-02 0. -1.
</event>
<event>
 5   0  0.3709747E-07  0.3296445E+04  0.7818609E-02  0.8163801E-01
        1   -1    0    0  501    0  0.00000000000E+00  0.00000000000E+00  0.20759958811E+04  0.20759958811E+04  0.50400001928E-02 0.  1.
       -1   -1    0    0    0  501  0.00000000000E+00  0.00000000000E+00 -0.13085947875E+04  0.13085947875E+04  0.50400001928E-02 0. -1.
    10030    2    1    2    0    0  0.00000000000E+00  0.00000000000E+00  0.76740109359E+03  0.33845906686E+04  0.32964449875E+04 0.  0.
        4    1    3    3  502    0 -0.90990045140E+03 -0.33199545255E+03  0.17529631981E+04  0.20027534543E+04  0.12699999809E+01 0.  1.
       -4    1    3    3    0  502  0.90990045140E+03  0.33199545255E+03 -0.98556210453E+03  0.13818372143E+04  0.12699999809E+01 0. -1.
</event>
<event>
 5   0  0.3757406E-07  0.3296977E+04  0.7818609E-02  0.8163665E-01
        1   -1    0    0  501    0  0.00000000000E+00  0.00000000000E+00  0.14262488269E+04  0.14262488269E+04  0.50400001928E-02 0.  1.
       -1   -1    0    0    0  501  0.00000000000E+00  0.00000000000E+00 -0.19053579477E+04  0.19053579477E+04  0.50400001928E-02 0. -1.
    10030    2    1    2    0    0  0.00000000000E+00  0.00000000000E+00 -0.47910912083E+03  0.33316067746E+04  0.32969771232E+04 0.  0.
        1    1    3    3  502    0  0.16263741246E+04  0.26459712755E+03 -0.18994609831E+03  0.16586693321E+04  0.50400001928E-02 0.  1.
       -1    1    3    3    0  502 -0.16263741246E+04 -0.26459712755E+03 -0.28916302252E+03  0.16729374425E+04  0.50400001928E-02 0. -1.
</event>
<event>
 5   0  0.3573375E-07  0.3326341E+04  0.7818609E-02  0.8156225E-01
       -3   -1    0    0    0  501  0.00000000000E+00  0.00000000000E+00  0.13616057446E+04  0.13616057484E+04  0.10100000352E+00 0. -1.
        3   -1    0    0  501    0  0.00000000000E+00  0.00000000000E+00 -0.20315249870E+04  0.20315249895E+04  0.10100000352E+00 0.  1.
    10030    2    1    2    0    0  0.00000000000E+00  0.00000000000E+00 -0.66991924241E+03  0.33931307379E+04  0.33263409947E+04 0.  0.
        5    1    3    3  502    0  0.30529417662E+03 -0.66253613124E+03 -0.18596128222E+04  0.19975836898E+04  0.46999998093E+01 0.  1.
       -5    1    3    3    0  502 -0.30529417662E+03  0.66253613124E+03  0.11896935798E+04  0.13955470480E+04  0.46999998093E+01 0. -1.
</event>
<event>
 5   0  0.3796529E-07  0.3276175E+04  0.7818609E-02  0.8168984E-01
       -1   -1    0    0    0  501  0.00000000000E+00  0.00000000000E+00  0.10265756112E+04  0.10265756113E+04  0.50400001928E-02 0. -1.
        1   -1    0    0  501    0  0.00000000000E+00  0.00000000000E+00 -0.26138663116E+04  0.26138663116E+04  0.50400001928E-02 0.  1.
    10030    2    1    2    0    0  0.00000000000E+00  0.00000000000E+00 -0.15872907004E+04  0.36404419229E+04  0.32761754572E+04 0.  0.
        5    1    3    3  502    0  0.53072494788E+02 -0.16205269038E+04 -0.10527810478E+04  0.19332082557E+04  0.46999998093E+01 0. -1.
       -5    1    3    3    0  502 -0.53072494788E+02  0.16205269038E+04 -0.53450965262E+03  0.17072336672E+04  0.46999998093E+01 0.  1.
</event>
<event>
 5   0  0.3709747E-07  0.3084978E+04  0.7818609E-02  0.8219873E-01
       -1   -1    0    0    0  501  0.00000000000E+00  0.00000000000E+00  0.10096211394E+04  0.10096211394E+04  0.50400001928E-02 0. -1.
        1   -1    0    0  501    0  0.00000000000E+00  0.00000000000E+00 -0.23565995289E+04  0.23565995289E+04  0.50400001928E-02 0.  1.
    10030    2    1    2    0    0  0.00000000000E+00  0.00000000000E+00 -0.13469783895E+04  0.33662206683E+04  0.30849782505E+04 0.  0.
        4    1    3    3  502    0  0.31002686368E+03  0.14101658395E+04 -0.12657282874E+04  0.19200922013E+04  0.12699999809E+01 0.  1.
       -4    1    3    3    0  502 -0.31002686368E+03 -0.14101658395E+04 -0.81250102059E+02  0.14461284670E+04  0.12699999809E+01 0. -1.
</event>
<event>
 5   0  0.3674967E-07  0.2963608E+04  0.7818609E-02  0.8254200E-01
        1   -1    0    0  501    0  0.00000000000E+00  0.00000000000E+00  0.14692212811E+04  0.14692212811E+04  0.50400001928E-02 0. -1.
       -1   -1    0    0    0  501  0.00000000000E+00  0.00000000000E+00 -0.14944942590E+04  0.14944942590E+04  0.50400001928E-02 0.  1.
    10030    2    1    2    0    0  0.00000000000E+00  0.00000000000E+00 -0.25272977908E+02  0.29637155401E+04  0.29636077809E+04 0.  0.
        2    1    3    3  502    0 -0.22205904822E+03 -0.64319172966E+02 -0.14763479998E+04  0.14943395174E+04  0.25500000920E-02 0.  1.
       -2    1    3    3    0  502  0.22205904822E+03  0.64319172966E+02  0.14510750219E+04  0.14693760227E+04  0.25500000920E-02 0. -1.
</event>
<event>
 5   0  0.1126221E-06  0.3175849E+04  0.7818609E-02  0.8195225E-01
       -2   -1    0    0    0  501  0.00000000000E+00  0.00000000000E+00  0.15531616350E+04  0.15531616350E+04  0.25500000920E-02 0.  1.
        2   -1    0    0  501    0  0.00000000000E+00  0.00000000000E+00 -0.16234650171E+04  0.16234650171E+04  0.25500000920E-02 0. -1.
    10030    2    1    2    0    0  0.00000000000E+00  0.00000000000E+00 -0.70303382154E+02  0.31766266521E+04  0.31758485986E+04 0.  0.
        2    1    3    3  502    0 -0.10513836178E+04  0.76340305992E+03  0.87793110580E+03  0.15681054717E+04  0.25500000920E-02 0.  1.
       -2    1    3    3    0  502  0.10513836178E+04 -0.76340305992E+03 -0.94823448795E+03  0.16085211804E+04  0.25500000920E-02 0. -1.
</event>
<event>
 5   0  0.3796529E-07  0.3304671E+04  0.7818609E-02  0.8161708E-01
       -1   -1    0    0    0  501  0.00000000000E+00  0.00000000000E+00  0.15023961119E+04  0.15023961119E+04  0.50400001928E-02 0.  1.
        1   -1    0    0  501    0  0.00000000000E+00  0.00000000000E+00 -0.18172392097E+04  0.18172392097E+04  0.50400001928E-02 0. -1.
    10030    2    1    2    0    0  0.00000000000E+00  0.00000000000E+00 -0.31484309784E+03  0.33196353217E+04  0.33046713138E+04 0.  0.
        5    1    3    3  502    0 -0.35519193054E+02  0.27740648177E+03 -0.17932841527E+04  0.18149672480E+04  0.46999998093E+01 0. -1.
       -5    1    3    3    0  502  0.35519193054E+02 -0.27740648177E+03  0.14784410548E+04  0.15046680736E+04  0.46999998093E+01 0.  1.
</event>
<event>
 5   0  0.3749685E-07  0.3291428E+04  0.7818609E-02  0.8165080E-01
       -1   -1    0    0    0  501  0.00000000000E+00  0.00000000000E+00  0.21381715304E+04  0.21381715304E+04  0.50400001928E-02 0. -1.
        1   -1    0    0  501    0  0.00000000000E+00  0.00000000000E+00 -0.12666776624E+04  0.12666776624E+04  0.50400001928E-02 0.  1.
    10030    2    1    2    0    0  0.00000000000E+00  0.00000000000E+00  0.87149386803E+03  0.34048491928E+04  0.32914277242E+04 0.  0.
        3    1    3    3  502    0 -0.69618873845E+03  0.12949144204E+04 -0.32925818156E+03  0.15066164330E+04  0.10100000352E+00 0. -1.
       -3    1    3    3    0  502  0.69618873845E+03 -0.12949144204E+04  0.12007520496E+04  0.18982327598E+04  0.10100000352E+00 0.  1.
</event>
<event>
 5   0  0.1126221E-06  0.3338573E+04  0.7818609E-02  0.8153149E-01
       -2   -1    0    0    0  501  0.00000000000E+00  0.00000000000E+00  0.17983691625E+04  0.17983691625E+04  0.25500000920E-02 0.  1.
        2   -1    0    0  501    0  0.00000000000E+00  0.00000000000E+00 -0.15494688007E+04  0.15494688007E+04  0.25500000920E-02 0. -1.
    10030    2    1    2    0    0  0.00000000000E+00  0.00000000000E+00  0.24890036181E+03  0.33478379632E+04  0.33385726947E+04 0.  0.
        2    1    3    3  502    0 -0.86573200694E+03  0.23232568189E+03  0.15365662685E+04  0.17789050081E+04  0.25500000920E-02 0.  1.
       -2    1    3    3    0  502  0.86573200694E+03 -0.23232568189E+03 -0.12876659067E+04  0.15689329551E+04  0.25500000920E-02 0. -1.
</event>
<event>
 5   0  0.3674967E-07  0.3277151E+04  0.7818609E-02  0.8168734E-01
        1   -1    0    0  501    0  0.00000000000E+00  0.00000000000E+00  0.15439703970E+04  0.15439703970E+04  0.50400001928E-02 0.  1.
       -1   -1    0    0    0  501  0.00000000000E+00  0.00000000000E+00 -0.17389769076E+04  0.17389769076E+04  0.50400001928E-02 0. -1.
    10030    2    1    2    0    0  0.00000000000E+00  0.00000000000E+00 -0.19500651065E+03  0.32829473046E+04  0.32771505101E+04 0.  0.
        2    1    3    3  502    0  0.42605572419E+02  0.96449924326E+03  0.12287928684E+04  0.15626918885E+04  0.25500000920E-02 0.  1.
       -2    1    3    3    0  502 -0.42605572419E+02 -0.96449924326E+03 -0.14237993790E+04  0.17202554161E+04  0.25500000920E-02 0. -1.
</event>
<event>
 5   0  0.3796529E-07  0.3307294E+04  0.7818609E-02  0.8161042E-01
       -1   -1    0    0    0  501  0.00000000000E+00  0.00000000000E+00  0.14519890417E+04  0.14519890417E+04  0.50400001928E-02 0. -1.
        1   -1    0    0  501    0  0.00000000000E+00  0.00000000000E+00 -0.18833117927E+04  0.18833117927E+04  0.50400001928E-02 0.  1.
    10030    2    1    2    0    0  0.00000000000E+00  0.00000000000E+00 -0.43132275099E+03  0.33353008345E+04  0.33072938093E+04 0.  0.
        5    1    3    3  502    0  0.35431714371E+03 -0.14669473147E+04 -0.89744181023E+03  0.17558185997E+04  0.46999998093E+01 0.  1.
       -5    1    3    3    0  502 -0.35431714371E+03  0.14669473147E+04  0.46611905924E+03  0.15794822347E+04  0.46999998093E+01 0. -1.
</event>
<event>
 5   0  0.1116462E-06  0.3300637E+04  0.7818609E-02  0.8162733E-01
        2   -1    0    0  501    0  0.00000000000E+00  0.00000000000E+00  0.14451062990E+04  0.14451062990E+04  0.25500000920E-02 0.  1.
       -2   -1    0    0    0  501  0.00000000000E+00  0.00000000000E+00 -0.18846721761E+04  0.18846721761E+04  0.25500000920E-02 0. -1.
    10030    2    1    2    0    0  0.00000000000E+00  0.00000000000E+00 -0.43956587714E+03  0.33297784751E+04  0.33006372920E+04 0.  0.
        1    1    3    3  502    0 -0.11077772470E+04 -0.24131914006E+03  0.99003235435E+03  0.15051808592E+04  0.50400001928E-02 0.  1.
       -1    1    3    3    0  502  0.11077772470E+04  0.24131914006E+03 -0.14295982315E+04  0.18245976159E+04  0.50400001928E-02 0. -1.
</event>
<event>
 5   0  0.1126221E-06  0.3289834E+04  0.7818609E-02  0.8165487E-01
        2   -1    0    0  501    0  0.00000000000E+00  0.00000000000E+00  0.26656816017E+04  0.26656816017E+04  0.25500000920E-02 0. -1.
       -2   -1    0    0    0  501  0.00000000000E+00  0.00000000000E+00 -0.10150321865E+04  0.10150321865E+04  0.25500000920E-02 0.  1.
    10030    2    1    2    0    0  0.00000000000E+00  0.00000000000E+00  0.16506494152E+04  0.36807137882E+04  0.32898344181E+04 0.  0.
        2    1    3    3  502    0  0.20612476295E+03  0.15908779144E+04  0.41826588719E+03  0.16578076815E+04  0.25500000920E-02 0.  1.
       -2    1    3    3    0  502 -0.20612476295E+03 -0.15908779144E+04  0.12323835280E+04  0.20229061067E+04  0.25500000920E-02 0. -1.
</event>
<event>
 5   0  0.1120545E-06  0.3323963E+04  0.7818609E-02  0.8156825E-01
       -2   -1    0    0    0  501  0.00000000000E+00  0.00000000000E+00  0.12433666343E+04  0.12433666343E+04  0.25500000920E-02 0. -1.
        2   -1    0    0  501    0  0.00000000000E+00  0.00000000000E+00 -0.22215344003E+04  0.22215344003E+04  0.25500000920E-02 0.  1.
    10030    2    1    2    0    0  0.00000000000E+00  0.00000000000E+00 -0.97816776600E+03  0.34649010346E+04  0.33239625451E+04 0.  0.
        4    1    3    3  502    0 -0.15825513976E+04  0.10908731574E+03  0.27731604039E+02  0.15865495968E+04  0.12699999809E+01 0. -1.
       -4    1    3    3    0  502  0.15825513976E+04 -0.10908731574E+03 -0.10058993700E+04  0.18783514378E+04  0.12699999809E+01 0.  1.
</event>
<event>
 5   0  0.1146799E-06  0.3293095E+04  0.7818609E-02  0.8164654E-01
       -2   -1    0    0    0  501  0.00000000000E+00  0.00000000000E+00  0.17028778517E+04  0.17028778517E+04  0.25500000920E-02 0.  1.
        2   -1    0    0  501    0  0.00000000000E+00  0.00000000000E+00 -0.15920809372E+04  0.15920809372E+04  0.25500000920E-02 0. -1.
    10030    2    1    2    0    0  0.00000000000E+00  0.00000000000E+00  0.11079691454E+03  0.32949587889E+04  0.32930954229E+04 0.  0.
        5    1    3    3  502    0  0.13954019451E+04 -0.43020601399E+02 -0.81807885389E+03  0.16181076793E+04  0.46999998093E+01 0. -1.
       -5    1    3    3    0  502 -0.13954019451E+04  0.43020601399E+02  0.92887576843E+03  0.16768511096E+04  0.46999998093E+01 0.  1.
</event>
<event>
 5   0  0.1120545E-06  0.3301926E+04  0.7818609E-02  0.8162405E-01
       -2   -1    0    0    0  501  0.00000000000E+00  0.00000000000E+00  0.28948109236E+04  0.28948109236E+04  0.25500000920E-02 0. -1.
        2   -1    0    0  501    0  0.00000000000E+00  0.00000000000E+00 -0.94157405910E+03  0.94157405910E+03  0.25500000920E-02 0.  1.
    10030    2    1    2    0    0  0.00000000000E+00  0.00000000000E+00  0.19532368645E+04  0.38363849827E+04  0.33019260268E+04 0.  0.
        4    1    3    3  502    0 -0.49579005849E+03 -0.67524683869E+03  0.26295336112E+04  0.27597490285E+04  0.12699999809E+01 0. -1.
       -4    1    3    3    0  502  0.49579005849E+03  0.67524683869E+03 -0.67629674670E+03  0.10766359541E+04  0.12699999809E+01 0.  1.
</event>
<event>
 5   0  0.1116462E-06  0.3299370E+04  0.7818609E-02  0.8163056E-01
       -2   -1    0    0    0  501  0.00000000000E+00  0.00000000000E+00  0.15128882105E+04  0.15128882105E+04  0.25500000920E-02 0.  1.
        2   -1    0    0  501    0  0.00000000000E+00  0.00000000000E+00 -0.17988510611E+04  0.17988510611E+04  0.25500000920E-02 0. -1.
    10030    2    1    2    0    0  0.00000000000E+00  0.00000000000E+00 -0.28596285065E+03  0.33117392716E+04  0.32993699779E+04 0.  0.
        1    1    3    3  502    0  0.14432678830E+03  0.36841036455E+03 -0.17505173584E+04  0.17946775311E+04  0.50400001928E-02 0. -1.
       -1    1    3    3    0  502 -0.14432678830E+03 -0.36841036455E+03  0.14645545077E+04  0.15170617405E+04  0.50400001928E-02 0.  1.
</event>
<event>
 5   0  0.3709747E-07  0.3113805E+04  0.7818609E-02  0.8211959E-01
        1   -1    0    0  501    0  0.00000000000E+00  0.00000000000E+00  0.87680197572E+03  0.87680197573E+03  0.50400001928E-02 0. -1.
       -1   -1    0    0    0  501  0.00000000000E+00  0.00000000000E+00 -0.27645297466E+04  0.27645297466E+04  0.50400001928E-02 0.  1.
    10030    2    1    2    0    0  0.00000000000E+00  0.00000000000E+00 -0.18877277709E+04  0.36413317224E+04  0.31138048390E+04 0.  0.
        4    1    3    3  502    0  0.10202805124E+03 -0.64398039763E+03  0.70945273046E+03  0.96355864659E+03  0.12699999809E+01 0. -1.
       -4    1    3    3    0  502 -0.10202805124E+03  0.64398039763E+03 -0.25971805014E+04  0.26777730758E+04  0.12699999809E+01 0.  1.
</event>
<event>
 5   0  0.1126221E-06  0.3287542E+04  0.7818609E-02  0.8166073E-01
       -2   -1    0    0    0  501  0.00000000000E+00  0.00000000000E+00  0.12210951299E+04  0.12210951299E+04  0.25500000920E-02 0.  1.
        2   -1    0    0  501    0  0.00000000000E+00  0.00000000000E+00 -0.22127533390E+04  0.22127533390E+04  0.25500000920E-02 0. -1.
    10030    2    1    2    0    0  0.00000000000E+00  0.00000000000E+00 -0.99165820909E+03  0.34338484689E+04  0.32875415288E+04 0.  0.
        2    1    3    3  502    0  0.69213999192E+03 -0.11507929317E+04 -0.14859611825E+04  0.20028636438E+04  0.25500000920E-02 0. -1.
       -2    1    3    3    0  502 -0.69213999192E+03  0.11507929317E+04  0.49430297336E+03  0.14309848251E+04  0.25500000920E-02 0.  1.
</event>
<event>
 5   0  0.1129434E-06  0.3302578E+04  0.7818609E-02  0.8162240E-01
       -2   -1    0    0    0  501  0.00000000000E+00  0.00000000000E+00  0.11942191329E+04  0.11942191329E+04  0.25500000920E-02 0. -1.
        2   -1    0    0  501    0  0.00000000000E+00  0.00000000000E+00 -0.22832959576E+04  0.22832959576E+04  0.25500000920E-02 0.  1.
    10030    2    1    2    0    0  0.00000000000E+00  0.00000000000E+00 -0.10890768247E+04  0.34775150905E+04  0.33025782163E+04 0.  0.
        3    1    3    3  502    0  0.81052908931E+03 -0.57129124209E+03  0.84579032240E+03  0.13033389304E+04  0.10100000352E+00 0. -1.
       -3    1    3    3    0  502 -0.81052908931E+03  0.57129124209E+03 -0.19348671471E+04  0.21741761601E+04  0.10100000352E+00 0.  1.
</event>
<event>
 5   0  0.3674967E-07  0.3252836E+04  0.7818609E-02  0.8175001E-01
        1   -1    0    0  501    0  0.00000000000E+00  0.00000000000E+00  0.18026798002E+04  0.18026798002E+04  0.50400001928E-02 0. -1.
       -1   -1    0    0    0  501  0.00000000000E+00  0.00000000000E+00 -0.14673904559E+04  0.14673904559E+04  0.50400001928E-02 0.  1.
    10030    2    1    2    0    0  0.00000000000E+00  0.00000000000E+00  0.33528934430E+03  0.32700702561E+04  0.32528357683E+04 0.  0.
        2    1    3    3  502    0  0.94177959620E+03  0.25935813851E+03 -0.11396373169E+04  0.15009958914E+04  0.25500000920E-02 0.  1.
       -2    1    3    3    0  502 -0.94177959620E+03 -0.25935813851E+03  0.14749266612E+04  0.17690743647E+04  0.25500000920E-02 0. -1.
</event>
<event>
 5   0  0.1116462E-06  0.3289276E+04  0.7818609E-02  0.8165630E-01
       -2   -1    0    0    0  501  0.00000000000E+00  0.00000000000E+00  0.14816384303E+04  0.14816384303E+04  0.25500000920E-02 0. -1.
        2   -1    0    0  501    0  0.00000000000E+00  0.00000000000E+00 -0.18255693840E+04  0.18255693840E+04  0.25500000920E-02 0.  1.
    10030    2    1    2    0    0  0.00000000000E+00  0.00000000000E+00 -0.34393095369E+03  0.33072078144E+04  0.32892757602E+04 0.  0.
        1    1    3    3  502    0  0.74974783462E+02  0.15080572583E+04 -0.82742114495E+03  0.17217675986E+04  0.50400001928E-02 0.  1.
       -1    1    3    3    0  502 -0.74974783462E+02 -0.15080572583E+04  0.48349019126E+03  0.15854402157E+04  0.50400001928E-02 0. -1.
</event>
<event>
 5   0  0.3757406E-07  0.3299471E+04  0.7818609E-02  0.8163030E-01
        1   -1    0    0  501    0  0.00000000000E+00  0.00000000000E+00  0.17486539754E+04  0.17486539754E+04  0.50400001928E-02 0.  1.
       -1   -1    0    0    0  501  0.00000000000E+00  0.00000000000E+00 -0.15564124816E+04  0.15564124816E+04  0.50400001928E-02 0. -1.
    10030    2    1    2    0    0  0.00000000000E+00  0.00000000000E+00  0.19224149382E+03  0.33050664570E+04  0.32994707899E+04 0.  0.
        1    1    3    3  502    0  0.81627422839E+03 -0.12190996183E+04  0.85180016743E+03  0.16964878486E+04  0.50400001928E-02 0.  1.
       -1    1    3    3    0  502 -0.81627422839E+03  0.12190996183E+04 -0.65955867361E+03  0.16085786084E+04  0.50400001928E-02 0. -1.
</event>
<event>
 5   0  0.1126221E-06  0.3295178E+04  0.7818609E-02  0.8164124E-01
       -2   -1    0    0    0  501  0.00000000000E+00  0.00000000000E+00  0.12451781311E+04  0.12451781311E+04  0.25500000920E-02 0.  1.
        2   -1    0    0  501    0  0.00000000000E+00  0.00000000000E+00 -0.21800486356E+04  0.21800486356E+04  0.25500000920E-02 0. -1.
    10030    2    1    2    0    0  0.00000000000E+00  0.00000000000E+00 -0.93487050453E+03  0.34252267667E+04  0.32951776193E+04 0.  0.
        2    1    3    3  502    0 -0.59742626951E+03 -0.11003132903E+04  0.64578504158E+03  0.14087745754E+04  0.25500000920E-02 0.  1.
       -2    1    3    3    0  502  0.59742626951E+03  0.11003132903E+04 -0.15806555461E+04  0.20164521913E+04  0.25500000920E-02 0. -1.
</event>
<event>
 5   0  0.3796529E-07  0.3295834E+04  0.7818609E-02  0.8163956E-01
        1   -1    0    0  501    0  0.00000000000E+00  0.00000000000E+00  0.16802347462E+04  0.16802347462E+04  0.50400001928E-02 0.  1.
       -1   -1    0    0    0  501  0.00000000000E+00  0.00000000000E+00 -0.16162210450E+04  0.16162210450E+04  0.50400001928E-02 0. -1.
    10030    2    1    2    0    0  0.00000000000E+00  0.00000000000E+00  0.64013701221E+02  0.32964557913E+04  0.32958341933E+04 0.  0.
        5    1    3    3  502    0 -0.68048887882E+03 -0.13814460799E+04  0.61876072416E+03  0.16596220382E+04  0.46999998093E+01 0. -1.
       -5    1    3    3    0  502  0.68048887882E+03  0.13814460799E+04 -0.55474702293E+03  0.16368337531E+04  0.46999998093E+01 0.  1.
</event>
<event>
 5   0  0.1146799E-06  0.3229212E+04  0.7818609E-02  0.8181145E-01
       -2   -1    0    0    0  501  0.00000000000E+00  0.00000000000E+00  0.18521723960E+04  0.18521723961E+04  0.25500000920E-02 0. -1.
        2   -1    0    0  501    0  0.00000000000E+00  0.00000000000E+00 -0.14075104676E+04  0.14075104676E+04  0.25500000920E-02 0.  1.
    10030    2    1    2    0    0  0.00000000000E+00  0.00000000000E+00  0.44466192841E+03  0.32596828637E+04  0.32292116904E+04 0.  0.
        5    1    3    3  502    0 -0.10683042503E+04 -0.78086106062E+03 -0.71155400476E+03  0.15024477225E+04  0.46999998093E+01 0.  1.
       -5    1    3    3    0  502  0.10683042503E+04  0.78086106062E+03  0.11562159332E+04  0.17572351412E+04  0.46999998093E+01 0. -1.
</event>
<event>
 5   0  0.3709747E-07  0.3292121E+04  0.7818609E-02  0.8164903E-01
       -1   -1    0    0    0  501  0.00000000000E+00  0.00000000000E+00  0.15443431927E+04  0.15443431927E+04  0.50400001928E-02 0. -1.
        1   -1    0    0  501    0  0.00000000000E+00  0.00000000000E+00 -0.17544774166E+04  0.17544774166E+04  0.50400001928E-02 0.  1.
    10030    2    1    2    0    0  0.00000000000E+00  0.00000000000E+00 -0.21013422389E+03  0.32988206093E+04  0.32921210519E+04 0.  0.
        4    1    3    3  502    0  0.53225693263E+03  0.31204774834E+03 -0.16342271966E+04  0.17468175012E+04  0.12699999809E+01 0.  1.
       -4    1    3    3    0  502 -0.53225693263E+03 -0.31204774834E+03  0.14240929727E+04  0.15520031081E+04  0.12699999809E+01 0. -1.
</event>
<event>
 5   0  0.1120545E-06  0.3248346E+04  0.7818609E-02  0.8176164E-01
        2   -1    0    0  501    0  0.00000000000E+00  0.00000000000E+00  0.15708143254E+04  0.15708143255E+04  0.25500000920E-02 0.  1.
       -2   -1    0    0    0  501  0.00000000000E+00  0.00000000000E+00 -0.16793445072E+04  0.16793445072E+04  0.25500000920E-02 0. -1.
    10030    2    1    2    0    0  0.00000000000E+00  0.00000000000E+00 -0.10853018177E+03  0.32501588327E+04  0.32483462927E+04 0.  0.
        4    1    3    3  502    0  0.29488103009E+03 -0.47203932924E+03 -0.15809476856E+04  0.16760588140E+04  0.12699999809E+01 0. -1.
       -4    1    3    3    0  502 -0.29488103009E+03  0.47203932924E+03  0.14724175039E+04  0.15741000187E+04  0.12699999809E+01 0.  1.
</event>
<event>
 5   0  0.3757406E-07  0.3318716E+04  0.7818609E-02  0.8158149E-01
        1   -1    0    0  501    0  0.00000000000E+00  0.00000000000E+00  0.24992740380E+04  0.24992740380E+04  0.50400001928E-02 0. -1.
       -1   -1    0    0    0  501  0.00000000000E+00  0.00000000000E+00 -0.11017075907E+04  0.11017075907E+04  0.50400001928E-02 0.  1.
    10030    2    1    2    0    0  0.00000000000E+00  0.00000000000E+00  0.13975664473E+04  0.36009816287E+04  0.33187161246E+04 0.  0.
        1    1    3    3  502    0 -0.16566101941E+04 -0.79505397219E+02  0.75610374504E+03  0.18227373143E+04  0.50400001928E-02 0. -1.
       -1    1    3    3    0  502  0.16566101941E+04  0.79505397219E+02  0.64146270229E+03  0.17782443145E+04  0.50400001928E-02 0.  1.
</event>
<event>
 5   0  0.1116462E-06  0.3298830E+04  0.7818609E-02  0.8163193E-01
        2   -1    0    0  501    0  0.00000000000E+00  0.00000000000E+00  0.19961824350E+04  0.19961824350E+04  0.25500000920E-02 0. -1.
       -2   -1    0    0    0  501  0.00000000000E+00  0.00000000000E+00 -0.13628865135E+04  0.13628865135E+04  0.25500000920E-02 0.  1.
    10030    2    1    2    0    0  0.00000000000E+00  0.00000000000E+00  0.63329592151E+03  0.33590689485E+04  0.32988301679E+04 0.  0.
        1    1    3    3  502    0 -0.12217562309E+03 -0.11277680633E+04 -0.90262400417E+03  0.14496612640E+04  0.50400001928E-02 0.  1.
       -1    1    3    3    0  502  0.12217562309E+03  0.11277680633E+04  0.15359199257E+04  0.19094076845E+04  0.50400001928E-02 0. -1.
</event>
<event>
 5   0  0.3709747E-07  0.3294840E+04  0.7818609E-02  0.8164209E-01
        1   -1    0    0  501    0  0.00000000000E+00  0.00000000000E+00  0.17057565671E+04  0.17057565671E+04  0.50400001928E-02 0. -1.
       -1   -1    0    0    0  501  0.00000000000E+00  0.00000000000E+00 -0.15910789346E+04  0.15910789346E+04  0.50400001928E-02 0.  1.
    10030    2    1    2    0    0  0.00000000000E+00  0.00000000000E+00  0.11467763253E+03  0.32968355017E+04  0.32948404158E+04 0.  0.
        4    1    3    3  502    0  0.35541226453E+03  0.10119877933E+03  0.16637494013E+04  0.17042953834E+04  0.12699999809E+01 0. -1.
       -4    1    3    3    0  502 -0.35541226453E+03 -0.10119877933E+03 -0.15490717687E+04  0.15925401183E+04  0.12699999809E+01 0.  1.
</event>
<event>
 5   0  0.1129434E-06  0.3267327E+04  0.7818609E-02  0.8171259E-01
        2   -1    0    0  501    0  0.00000000000E+00  0.00000000000E+00  0.17491819139E+04  0.17491819139E+04  0.25500000920E-02 0. -1.
       -2   -1    0    0    0  501  0.00000000000E+00  0.00000000000E+00 -0.15257737199E+04  0.15257737199E+04  0.25500000920E-02 0.  1.
    10030    2    1    2    0    0  0.00000000000E+00  0.00000000000E+00  0.22340819402E+03  0.32749556337E+04  0.32673266108E+04 0.  0.
        3    1    3    3  502    0  0.65802271436E+03 -0.15462192175E+03  0.16024406895E+04  0.17391716433E+04  0.10100000352E+00 0. -1.
       -3    1    3    3    0  502 -0.65802271436E+03  0.15462192175E+03 -0.13790324955E+04  0.15357839904E+04  0.10100000352E+00 0.  1.
</event>
<event>
 5   0  0.3749685E-07  0.3317871E+04  0.7818609E-02  0.8158363E-01
       -1   -1    0    0    0  501  0.00000000000E+00  0.00000000000E+00  0.14130762524E+04  0.14130762525E+04  0.50400001928E-02 0. -1.
        1   -1    0    0  501    0  0.00000000000E+00  0.00000000000E+00 -0.19475709534E+04  0.19475709534E+04  0.50400001928E-02 0.  1.
    10030    2    1    2    0    0  0.00000000000E+00  0.00000000000E+00 -0.53449470094E+03  0.33606472059E+04  0.33178705606E+04 0.  0.
        3    1    3    3  502    0  0.15270604420E+04  0.18963331508E+03  0.36057614932E+03  0.15804713086E+04  0.10100000352E+00 0.  1.
       -3    1    3    3    0  502 -0.15270604420E+04 -0.18963331508E+03 -0.89507085027E+03  0.17801758972E+04  0.10100000352E+00 0. -1.
</event>
<event>
 5   0  0.1116462E-06  0.3211451E+04  0.7818609E-02  0.8185799E-01
       -2   -1    0    0    0  501  0.00000000000E+00  0.00000000000E+00  0.24030386692E+04  0.24030386692E+04  0.25500000920E-02 0.  1.
        2   -1    0    0  501    0  0.00000000000E+00  0.00000000000E+00 -0.10729559590E+04  0.10729559590E+04  0.25500000920E-02 0. -1.
    10030    2    1    2    0    0  0.00000000000E+00  0.00000000000E+00  0.13300827102E+04  0.34759946282E+04  0.32114511734E+04 0.  0.
        1    1    3    3  502    0 -0.15146186381E+04  0.36284513963E+03  0.10879002922E+04  0.18998034793E+04  0.50400001928E-02 0.  1.
       -1    1    3    3    0  502  0.15146186381E+04 -0.36284513963E+03  0.24218241796E+03  0.15761911489E+04  0.50400001928E-02 0. -1.
</event>
<event>
 5   0  0.3709747E-07  0.3300811E+04  0.7818609E-02  0.8162689E-01
        1   -1    0    0  501    0  0.00000000000E+00  0.00000000000E+00  0.20064798746E+04  0.20064798746E+04  0.50400001928E-02 0. -1.
       -1   -1    0    0    0  501  0.00000000000E+00  0.00000000000E+00 -0.13575207029E+04  0.13575207029E+04  0.50400001928E-02 0.  1.
    10030    2    1    2    0    0  0.00000000000E+00  0.00000000000E+00  0.64895917170E+03  0.33640005774E+04  0.33008107911E+04 0.  0.
        4    1    3    3  502    0 -0.82463089880E+03 -0.43945180057E+03 -0.10619688423E+04  0.14145364751E+04  0.12699999809E+01 0.  1.
       -4    1    3    3    0  502  0.82463089880E+03  0.43945180057E+03  0.17109280140E+04  0.19494641024E+04  0.12699999809E+01 0. -1.
</event>
<event>
 5   0  0.1129434E-06  0.3228300E+04  0.7818609E-02  0.8181383E-01
        2   -1    0    0  501    0  0.00000000000E+00  0.00000000000E+00  0.18835984227E+04  0.18835984227E+04  0.25500000920E-02 0.  1.
       -2   -1    0    0    0  501  0.00000000000E+00  0.00000000000E+00 -0.13832464581E+04  0.13832464581E+04  0.25500000920E-02 0. -1.
    10030    2    1    2    0    0  0.00000000000E+00  0.00000000000E+00  0.50035196456E+03  0.32668448808E+04  0.32283003867E+04 0.  0.
        3    1    3    3  502    0  0.10602844517E+04  0.11133549931E+04  0.74769468392E+03  0.17096227097E+04  0.10100000352E+00 0.  1.
       -3    1    3    3    0  502 -0.10602844517E+04 -0.11133549931E+04 -0.24734271936E+03  0.15572221711E+04  0.10100000352E+00 0. -1.
</event>
<event>
 5   0  0.3709747E-07  0.3297612E+04  0.7818609E-02  0.8163503E-01
       -1   -1    0    0    0  501  0.00000000000E+00  0.00000000000E+00  0.32001854938E+04  0.32001854938E+04  0.50400001928E-02 0.  1.
        1   -1    0    0  501    0  0.00000000000E+00  0.00000000000E+00 -0.84950107552E+03  0.84950107553E+03  0.50400001928E-02 0. -1.
    10030    2    1    2    0    0  0.00000000000E+00  0.00000000000E+00  0.23506844183E+04  0.40496865694E+04  0.32976118746E+04 0.  0.
        4    1    3    3  502    0  0.85704750465E+03  0.20983880688E+03 -0.53515497695E+03  0.10319666721E+04  0.12699999809E+01 0. -1.
       -4    1    3    3    0  502 -0.85704750465E+03 -0.20983880688E+03  0.28858393953E+04  0.30177198972E+04  0.12699999809E+01 0.  1.
</event>
<event>
 5   0  0.3573375E-07  0.3306750E+04  0.7818609E-02  0.8161180E-01
       -3   -1    0    0    0  501  0.00000000000E+00  0.00000000000E+00  0.21960773589E+04  0.21960773612E+04  0.10100000352E+00 0.  1.
        3   -1    0    0  501    0  0.00000000000E+00  0.00000000000E+00 -0.12447870951E+04  0.12447870992E+04  0.10100000352E+00 0. -1.
    10030    2    1    2    0    0  0.00000000000E+00  0.00000000000E+00  0.95129026379E+03  0.34408644604E+04  0.33067499254E+04 0.  0.
        5    1    3    3  502    0 -0.14286497261E+04  0.43529689193E+03 -0.26242014858E+03  0.15163805091E+04  0.46999998093E+01 0. -1.
       -5    1    3    3    0  502  0.14286497261E+04 -0.43529689193E+03  0.12137104124E+04  0.19244839514E+04  0.46999998093E+01 0.  1.
</event>
<event>
 5   0  0.3709747E-07  0.3276629E+04  0.7818609E-02  0.8168868E-01
        1   -1    0    0  501    0  0.00000000000E+00  0.00000000000E+00  0.91838244790E+03  0.91838244792E+03  0.50400001928E-02 0.  1.
       -1   -1    0    0    0  501  0.00000000000E+00  0.00000000000E+00 -0.29226111275E+04  0.29226111275E+04  0.50400001928E-02 0. -1.
    10030    2    1    2    0    0  0.00000000000E+00  0.00000000000E+00 -0.20042286796E+04  0.38409935754E+04  0.32766292201E+04 0.  0.
        4    1    3    3  502    0  0.16862240877E+03  0.13318254217E+04  0.98718037920E+02  0.13460829597E+04  0.12699999809E+01 0.  1.
       -4    1    3    3    0  502 -0.16862240877E+03 -0.13318254217E+04 -0.21029467175E+04  0.24949106157E+04  0.12699999809E+01 0. -1.
</event>
<event>
 5   0  0.3796529E-07  0.3311822E+04  0.7818609E-02  0.8159894E-01
        1   -1    0    0  501    0  0.00000000000E+00  0.00000000000E+00  0.26628234172E+04  0.26628234172E+04  0.50400001928E-02 0.  1.
       -1   -1    0    0    0  501  0.00000000000E+00  0.00000000000E+00 -0.10297498261E+04  0.10297498261E+04  0.50400001928E-02 0. -1.
    10030    2    1    2    0    0  0.00000000000E+00  0.00000000000E+00  0.16330735911E+04  0.36925732433E+04  0.33118224293E+04 0.  0.
        5    1    3    3  502    0 -0.11440484888E+04  0.11891457599E+04  0.66242398022E+03  0.17781288487E+04  0.46999998093E+01 0. -1.
       -5    1    3    3    0  502  0.11440484888E+04 -0.11891457599E+04  0.97064961090E+03  0.19144443946E+04  0.46999998093E+01 0.  1.
</event>
<event>
 5   0  0.1126221E-06  0.3268742E+04  0.7818609E-02  0.8170895E-01
        2   -1    0    0  501    0  0.00000000000E+00  0.00000000000E+00  0.16681970382E+04  0.16681970382E+04  0.25500000920E-02 0. -1.
       -2   -1    0    0    0  501  0.00000000000E+00  0.00000000000E+00 -0.16012308458E+04  0.16012308458E+04  0.25500000920E-02 0.  1.
    10030    2    1    2    0    0  0.00000000000E+00  0.00000000000E+00  0.66966192378E+02  0.32694278841E+04  0.32687419932E+04 0.  0.
        2    1    3    3  502    0 -0.74354000685E+03  0.13516991663E+04 -0.50628389729E+03  0.16236581422E+04  0.25500000920E-02 0.  1.
       -2    1    3    3    0  502  0.74354000685E+03 -0.13516991663E+04  0.57325008967E+03  0.16457697419E+04  0.25500000920E-02 0. -1.
</event>
<event>
 5   0  0.1120545E-06  0.3277434E+04  0.7818609E-02  0.8168661E-01
       -2   -1    0    0    0  501  0.00000000000E+00  0.00000000000E+00  0.17281204807E+04  0.17281204807E+04  0.25500000920E-02 0.  1.
        2   -1    0    0  501    0  0.00000000000E+00  0.00000000000E+00 -0.15539387298E+04  0.15539387298E+04  0.25500000920E-02 0. -1.
    10030    2    1    2    0    0  0.00000000000E+00  0.00000000000E+00  0.17418175090E+03  0.32820592104E+04  0.32774339625E+04 0.  0.
        4    1    3    3  502    0 -0.23489342761E+03  0.48193493861E+03 -0.14636278239E+04  0.15587316085E+04  0.12699999809E+01 0. -1.
       -4    1    3    3    0  502  0.23489342761E+03 -0.48193493861E+03  0.16378095748E+04  0.17233276020E+04  0.12699999809E+01 0.  1.
</event>
<event>
 5   0  0.1146799E-06  0.3318336E+04  0.7818609E-02  0.8158245E-01
        2   -1    0    0  501    0  0.00000000000E+00  0.00000000000E+00  0.17918638650E+04  0.17918638650E+04  0.25500000920E-02 0. -1.
       -2   -1    0    0    0  501  0.00000000000E+00  0.00000000000E+00 -0.15362985643E+04  0.15362985643E+04  0.25500000920E-02 0.  1.
    10030    2    1    2    0    0  0.00000000000E+00  0.00000000000E+00  0.25556530069E+03  0.33281624293E+04  0.33183356570E+04 0.  0.
        5    1    3    3  502    0 -0.11547701544E+04  0.11899167729E+04  0.69130782352E+02  0.16595774133E+04  0.46999998093E+01 0. -1.
       -5    1    3    3    0  502  0.11547701544E+04 -0.11899167729E+04  0.18643451834E+03  0.16685850159E+04  0.46999998093E+01 0.  1.
</event>
<event>
 5   0  0.3573375E-07  0.3255570E+04  0.7818609E-02  0.8174293E-01
       -4   -1    0    0    0  501  0.00000000000E+00  0.00000000000E+00  0.15925641612E+04  0.15925646676E+04  0.12699999809E+01 0.  1.
        4   -1    0    0  501    0  0.00000000000E+00  0.00000000000E+00 -0.16637842221E+04  0.16637847068E+04  0.12699999809E+01 0. -1.
    10030    2    1    2    0    0  0.00000000000E+00  0.00000000000E+00 -0.71220060915E+02  0.32563493744E+04  0.32555704494E+04 0.  0.
        5    1    3    3  502    0  0.13330677795E+04 -0.92887880825E+03 -0.13451292051E+03  0.16303378058E+04  0.46999998093E+01 0. -1.
       -5    1    3    3    0  502 -0.13330677795E+04  0.92887880825E+03  0.63292859592E+02  0.16260115686E+04  0.46999998093E+01 0.  1.
</event>
<event>
 5   0  0.3709747E-07  0.3304733E+04  0.7818609E-02  0.8161692E-01
       -1   -1    0    0    0  501  0.00000000000E+00  0.00000000000E+00  0.15695013159E+04  0.15695013159E+04  0.50400001928E-02 0. -1.
        1   -1    0    0  501    0  0.00000000000E+00  0.00000000000E+00 -0.17396063614E+04  0.17396063614E+04  0.50400001928E-02 0.  1.
    10030    2    1    2    0    0  0.00000000000E+00  0.00000000000E+00 -0.17010504551E+03  0.33091076773E+04  0.33047326508E+04 0.  0.
        4    1    3    3  502    0  0.89306542589E+03  0.11984360141E+04 -0.79061158538E+03  0.16908231802E+04  0.12699999809E+01 0.  1.
       -4    1    3    3    0  502 -0.89306542589E+03 -0.11984360141E+04  0.62050653988E+03  0.16182844971E+04  0.12699999809E+01 0. -1.
</event>
<event>
 5   0  0.3757406E-07  0.3331814E+04  0.7818609E-02  0.8154847E-01
        1   -1    0    0  501    0  0.00000000000E+00  0.00000000000E+00  0.17441295020E+04  0.17441295021E+04  0.50400001928E-02 0. -1.
       -1   -1    0    0    0  501  0.00000000000E+00  0.00000000000E+00 -0.15911927647E+04  0.15911927647E+04  0.50400001928E-02 0.  1.
    10030    2    1    2    0    0  0.00000000000E+00  0.00000000000E+00  0.15293673738E+03  0.33353222667E+04  0.33318140670E+04 0.  0.
        1    1    3    3  502    0 -0.11497347302E+03 -0.16213467962E+04  0.44190330474E+03  0.16844176631E+04  0.50400001928E-02 0. -1.
       -1    1    3    3    0  502  0.11497347302E+03  0.16213467962E+04 -0.28896656736E+03  0.16509046036E+04  0.50400001928E-02 0.  1.
</event>
<event>
 5   0  0.1129434E-06  0.3217520E+04  0.7818609E-02  0.8184205E-01
        2   -1    0    0  501    0  0.00000000000E+00  0.00000000000E+00  0.20363407086E+04  0.20363407086E+04  0.25500000920E-02 0. -1.
       -2   -1    0    0    0  501  0.00000000000E+00  0.00000000000E+00 -0.12709607672E+04  0.12709607672E+04  0.25500000920E-02 0.  1.
    10030    2    1    2    0    0  0.00000000000E+00  0.00000000000E+00  0.76537994141E+03  0.33073014759E+04  0.32175202560E+04 0.  0.
        3    1    3    3  502    0  0.13059092166E+04  0.20566853398E+03 -0.55962975960E+03  0.14355778996E+04  0.10100000352E+00 0. -1.
       -3    1    3    3    0  502 -0.13059092166E+04 -0.20566853398E+03  0.13250097010E+04  0.18717235762E+04  0.10100000352E+00 0.  1.
</event>
<event>
 5   0  0.1116462E-06  0.3298352E+04  0.7818609E-02  0.8163315E-01
        2   -1    0    0  501    0  0.00000000000E+00  0.00000000000E+00  0.19196077203E+04  0.19196077203E+04  0.25500000920E-02 0. -1.
       -2   -1    0    0    0  501  0.00000000000E+00  0.00000000000E+00 -0.14168420231E+04  0.14168420231E+04  0.25500000920E-02 0.  1.
    10030    2    1    2    0    0  0.00000000000E+00  0.00000000000E+00  0.50276569723E+03  0.33364497435E+04  0.32983516405E+04 0.  0.
        1    1    3    3  502    0  0.50661007854E+03 -0.13503931799E+04 -0.55758284522E+03  0.15463227805E+04  0.50400001928E-02 0.  1.
       -1    1    3    3    0  502 -0.50661007854E+03  0.13503931799E+04  0.10603485424E+04  0.17901269630E+04  0.50400001928E-02 0. -1.
</event>
<event>
 5   0  0.1146799E-06  0.3277502E+04  0.7818609E-02  0.8168644E-01
        2   -1    0    0  501    0  0.00000000000E+00  0.00000000000E+00  0.15081834255E+04  0.15081834255E+04  0.25500000920E-02 0.  1.
       -2   -1    0    0    0  501  0.00000000000E+00  0.00000000000E+00 -0.17806224500E+04  0.17806224500E+04  0.25500000920E-02 0. -1.
    10030    2    1    2    0    0  0.00000000000E+00  0.00000000000E+00 -0.27243902447E+03  0.32888058755E+04  0.32775022601E+04 0.  0.
        5    1    3    3  502    0 -0.93609919213E+02 -0.12047066409E+04 -0.12470162096E+04  0.17364194265E+04  0.46999998093E+01 0. -1.
       -5    1    3    3    0  502  0.93609919213E+02  0.12047066409E+04  0.97457718511E+03  0.15523864491E+04  0.46999998093E+01 0.  1.
</event>
<event>
 5   0  0.3749685E-07  0.3299949E+04  0.7818609E-02  0.8162908E-01
        1   -1    0    0  501    0  0.00000000000E+00  0.00000000000E+00  0.13647926449E+04  0.13647926449E+04  0.50400001928E-02 0. -1.
       -1   -1    0    0    0  501  0.00000000000E+00  0.00000000000E+00 -0.19947462905E+04  0.19947462905E+04  0.50400001928E-02 0.  1.
    10030    2    1    2    0    0  0.00000000000E+00  0.00000000000E+00 -0.62995364562E+03  0.33595389355E+04  0.32999485243E+04 0.  0.
        3    1    3    3  502    0 -0.31695292253E+02 -0.13284328568E+04  0.68078412768E+03  0.14930524054E+04  0.10100000352E+00 0. -1.
       -3    1    3    3    0  502  0.31695292253E+02  0.13284328568E+04 -0.13107377733E+04  0.18664865301E+04  0.10100000352E+00 0.  1.
</event>
<event>
 5   0  0.1126221E-06  0.3318143E+04  0.7818609E-02  0.8158294E-01
        2   -1    0    0  501    0  0.00000000000E+00  0.00000000000E+00  0.11795481801E+04  0.11795481801E+04  0.25500000920E-02 0. -1.
       -2   -1    0    0    0  501  0.00000000000E+00  0.00000000000E+00 -0.23335366440E+04  0.23335366440E+04  0.25500000920E-02 0.  1.
    10030    2    1    2    0    0  0.00000000000E+00  0.00000000000E+00 -0.11539884639E+04  0.35130848240E+04  0.33181433975E+04 0.  0.
        2    1    3    3  502    0 -0.15729447550E+04  0.37398089389E+03 -0.97101715848E+03  0.18859722250E+04  0.25500000920E-02 0.  1.
       -2    1    3    3    0  502  0.15729447550E+04 -0.37398089389E+03 -0.18297130539E+03  0.16271125991E+04  0.25500000920E-02 0. -1.
</event>
<event>
 5   0  0.3757406E-07  0.3294649E+04  0.7818609E-02  0.8164258E-01
        1   -1    0    0  501    0  0.00000000000E+00  0.00000000000E+00  0.97756455335E+03  0.97756455336E+03  0.50400001928E-02 0. -1.
       -1   -1    0    0    0  501  0.00000000000E+00  0.00000000000E+00 -0.27759580017E+04  0.27759580017E+04  0.50400001928E-02 0.  1.
    10030    2    1    2    0    0  0.00000000000E+00  0.00000000000E+00 -0.17983934484E+04  0.37535225551E+04  0.32946490824E+04 0.  0.
        1    1    3    3  502    0  0.61061139422E+02 -0.50029629710E+02  0.97540850886E+03  0.97859756068E+03  0.50400001928E-02 0. -1.
       -1    1    3    3    0  502 -0.61061139422E+02  0.50029629710E+02 -0.27738019572E+04  0.27749249944E+04  0.50400001928E-02 0.  1.
</event>
<event>
 5   0  0.1129434E-06  0.3311076E+04  0.7818609E-02  0.8160083E-01
       -2   -1    0    0    0  501  0.00000000000E+00  0.00000000000E+00  0.11384654004E+04  0.11384654004E+04  0.25500000920E-02 0.  1.
        2   -1    0    0  501    0  0.00000000000E+00  0.00000000000E+00 -0.24074564498E+04  0.24074564499E+04  0.25500000920E-02 0. -1.
    10030    2    1    2    0    0  0.00000000000E+00  0.00000000000E+00 -0.12689910494E+04  0.35459218503E+04  0.33110758802E+04 0.  0.
        3    1    3    3  502    0 -0.18063089089E+03 -0.16149359100E+04 -0.29556714103E+03  0.16516674778E+04  0.10100000352E+00 0. -1.
       -3    1    3    3    0  502  0.18063089089E+03  0.16149359100E+04 -0.97342390841E+03  0.18942543725E+04  0.10100000352E+00 0.  1.
</event>
<event>
 5   0  0.1126221E-06  0.3292196E+04  0.7818609E-02  0.8164884E-01
        2   -1    0    0  501    0  0.00000000000E+00  0.00000000000E+00  0.23506619977E+04  0.23506619977E+04  0.25500000920E-02 0. -1.
       -2   -1    0    0    0  501  0.00000000000E+00  0.00000000000E+00 -0.11527129598E+04  0.11527129598E+04  0.25500000920E-02 0.  1.
    10030    2    1    2    0    0  0.00000000000E+00  0.00000000000E+00  0.11979490379E+04  0.35033749575E+04  0.32921959534E+04 0.  0.
        2    1    3    3  502    0 -0.12879824852E+04  0.10167703903E+04  0.46056344587E+03  0.17043589987E+04  0.25500000920E-02 0. -1.
       -2    1    3    3    0  502  0.12879824852E+04 -0.10167703903E+04  0.73738559206E+03  0.17990159588E+04  0.25500000920E-02 0.  1.
</event>
<event>
 5   0  0.3749685E-07  0.3297400E+04  0.7818609E-02  0.8163557E-01
       -1   -1    0    0    0  501  0.00000000000E+00  0.00000000000E+00  0.10462314243E+04  0.10462314243E+04  0.50400001928E-02 0.  1.
        1   -1    0    0  501    0  0.00000000000E+00  0.00000000000E+00 -0.25980975748E+04  0.25980975748E+04  0.50400001928E-02 0. -1.
    10030    2    1    2    0    0  0.00000000000E+00  0.00000000000E+00 -0.15518661505E+04  0.36443289991E+04  0.32973997793E+04 0.  0.
        3    1    3    3  502    0 -0.56169864195E+03  0.10784883717E+03  0.93306877748E+03  0.10944195218E+04  0.10100000352E+00 0.  1.
       -3    1    3    3    0  502  0.56169864195E+03 -0.10784883717E+03 -0.24849349279E+04  0.25499094773E+04  0.10100000352E+00 0. -1.
</event>
<event>
 5   0  0.1146799E-06  0.3403668E+04  0.7818609E-02  0.8137007E-01
       -2   -1    0    0    0  501  0.00000000000E+00  0.00000000000E+00  0.18193686727E+04  0.18193686727E+04  0.25500000920E-02 0.  1.
        2   -1    0    0  501    0  0.00000000000E+00  0.00000000000E+00 -0.15918923855E+04  0.15918923855E+04  0.25500000920E-02 0. -1.
    10030    2    1    2    0    0  0.00000000000E+00  0.00000000000E+00  0.22747628717E+03  0.34112610582E+04  0.34036681016E+04 0.  0.
        5    1    3    3  502    0  0.27499265746E+03 -0.12268296644E+04  0.12632427393E+04  0.17822840109E+04  0.46999998093E+01 0.  1.
       -5    1    3    3    0  502 -0.27499265746E+03  0.12268296644E+04 -0.10357664522E+04  0.16289770473E+04  0.46999998093E+01 0. -1.
</event>
<event>
 5   0  0.1126221E-06  0.3380500E+04  0.7818609E-02  0.8142709E-01
       -2   -1    0    0    0  501  0.00000000000E+00  0.00000000000E+00  0.17315918817E+04  0.17315918818E+04  0.25500000920E-02 0.  1.
        2   -1    0    0  501    0  0.00000000000E+00  0.00000000000E+00 -0.16498948332E+04  0.16498948332E+04  0.25500000920E-02 0. -1.
    10030    2    1    2    0    0  0.00000000000E+00  0.00000000000E+00  0.81697048507E+02  0.33814867150E+04  0.33804996666E+04 0.  0.
        2    1    3    3  502    0 -0.71980584967E+03  0.53709516833E+03 -0.13914748781E+04  0.16561382845E+04  0.25500000920E-02 0. -1.
       -2    1    3    3    0  502  0.71980584967E+03 -0.53709516833E+03  0.14731719266E+04  0.17253484305E+04  0.25500000920E-02 0.  1.
</event>
<event>
 5   0  0.1146799E-06  0.3303446E+04  0.7818609E-02  0.8162019E-01
       -2   -1    0    0    0  501  0.00000000000E+00  0.00000000000E+00  0.14969931186E+04  0.14969931186E+04  0.25500000920E-02 0. -1.
        2   -1    0    0  501    0  0.00000000000E+00  0.00000000000E+00 -0.18224454996E+04  0.18224454996E+04  0.25500000920E-02 0.  1.
    10030    2    1    2    0    0  0.00000000000E+00  0.00000000000E+00 -0.32545238105E+03  0.33194386182E+04  0.33034456993E+04 0.  0.
        5    1    3    3  502    0  0.93436349752E+03  0.12071633066E+04  0.47111116241E+03  0.15975751036E+04  0.46999998093E+01 0. -1.
       -5    1    3    3    0  502 -0.93436349752E+03 -0.12071633066E+04 -0.79656354347E+03  0.17218635146E+04  0.46999998093E+01 0.  1.
</event>
<event>
 5   0  0.3757406E-07  0.3233762E+04  0.7818609E-02  0.8179957E-01
        1   -1    0    0  501    0  0.00000000000E+00  0.00000000000E+00  0.11601050572E+04  0.11601050572E+04  0.50400001928E-02 0. -1.
       -1   -1    0    0    0  501  0.00000000000E+00  0.00000000000E+00 -0.22535061423E+04  0.22535061424E+04  0.50400001928E-02 0.  1.
    10030    2    1    2    0    0  0.00000000000E+00  0.00000000000E+00 -0.10934010852E+04  0.34136111995E+04  0.32337618169E+04 0.  0.
        1    1    3    3  502    0  0.61590410967E+03 -0.33174849067E+02 -0.21244372487E+04  0.22121645659E+04  0.50400001928E-02 0.  1.
       -1    1    3    3    0  502 -0.61590410967E+03  0.33174849067E+02  0.10310361635E+04  0.12014466336E+04  0.50400001928E-02 0. -1.
</event>
<event>
 5   0  0.1120545E-06  0.3321551E+04  0.7818609E-02  0.8157433E-01
       -2   -1    0    0    0  501  0.00000000000E+00  0.00000000000E+00  0.18618069106E+04  0.18618069106E+04  0.25500000920E-02 0. -1.
        2   -1    0    0  501    0  0.00000000000E+00  0.00000000000E+00 -0.14814509378E+04  0.14814509378E+04  0.25500000920E-02 0.  1.
    10030    2    1    2    0    0  0.00000000000E+00  0.00000000000E+00  0.38035597282E+03  0.33432578485E+04  0.33215512001E+04 0.  0.
        4    1    3    3  502    0 -0.48487439433E+03 -0.71938804661E+03  0.16156078264E+04  0.18337973175E+04  0.12699999809E+01 0. -1.
       -4    1    3    3    0  502  0.48487439433E+03  0.71938804661E+03 -0.12352518536E+04  0.15094605310E+04  0.12699999809E+01 0.  1.
</event>
<event>
 5   0  0.1129434E-06  0.3074867E+04  0.7818609E-02  0.8222669E-01
        2   -1    0    0  501    0  0.00000000000E+00  0.00000000000E+00  0.18846824168E+04  0.18846824168E+04  0.25500000920E-02 0. -1.
       -2   -1    0    0    0  501  0.00000000000E+00  0.00000000000E+00 -0.12541644488E+04  0.12541644488E+04  0.25500000920E-02 0.  1.
    10030    2    1    2    0    0  0.00000000000E+00  0.00000000000E+00  0.63051796798E+03  0.31388468656E+04  0.30748669464E+04 0.  0.
        3    1    3    3  502    0 -0.11050717884E+04 -0.27867171847E+03 -0.73813316099E+03  0.13578225796E+04  0.10100000352E+00 0.  1.
       -3    1    3    3    0  502  0.11050717884E+04  0.27867171847E+03  0.13686511290E+04  0.17810242860E+04  0.10100000352E+00 0. -1.
</event>
<event>
 5   0  0.3573375E-07  0.3305533E+04  0.7818609E-02  0.8161489E-01
        4   -1    0    0  501    0  0.00000000000E+00  0.00000000000E+00  0.14977139231E+04  0.14977144615E+04  0.12699999809E+01 0. -1.
       -4   -1    0    0    0  501  0.00000000000E+00  0.00000000000E+00 -0.18238700295E+04  0.18238704717E+04  0.12699999809E+01 0.  1.
    10030    2    1    2    0    0  0.00000000000E+00  0.00000000000E+00 -0.32615610640E+03  0.33215849332E+04  0.33055330376E+04 0.  0.
        1    1    3    3  502    0 -0.11582746400E+04  0.11510739233E+04 -0.41939681938E+03  0.16859611534E+04  0.50400001928E-02 0.  1.
       -1    1    3    3    0  502  0.11582746400E+04 -0.11510739233E+04  0.93240712976E+02  0.16356237798E+04  0.50400001928E-02 0. -1.
</event>
<event>
 5   0  0.1129434E-06  0.3304063E+04  0.7818609E-02  0.8161862E-01
        2   -1    0    0  501    0  0.00000000000E+00  0.00000000000E+00  0.15969409322E+04  0.15969409322E+04  0.25500000920E-02 0. -1.
       -2   -1    0    0    0  501  0.00000000000E+00  0.00000000000E+00 -0.17090224404E+04  0.17090224404E+04  0.25500000920E-02 0.  1.
    10030    2    1    2    0    0  0.00000000000E+00  0.00000000000E+00 -0.11208150814E+03  0.33059633726E+04  0.33040628863E+04 0.  0.
        3    1    3    3  502    0  0.16181651779E+04 -0.28024041397E+03 -0.23562838351E+03  0.16590702148E+04  0.10100000352E+00 0.  1.
       -3    1    3    3    0  502 -0.16181651779E+04  0.28024041397E+03  0.12354687538E+03  0.16468931578E+04  0.10100000352E+00 0. -1.
</event>
<event>
 5   0  0.3749685E-07  0.3273807E+04  0.7818609E-02  0.8169592E-01
       -1   -1    0    0    0  501  0.00000000000E+00  0.00000000000E+00  0.31220986256E+04  0.31220986256E+04  0.50400001928E-02 0.  1.
        1   -1    0    0  501    0  0.00000000000E+00  0.00000000000E+00 -0.85822197320E+03  0.85822197322E+03  0.50400001928E-02 0. -1.
    10030    2    1    2    0    0  0.00000000000E+00  0.00000000000E+00  0.22638766524E+04  0.39803205988E+04  0.32738073511E+04 0.  0.
        3    1    3    3  502    0  0.13276800492E+04  0.95733307607E+03  0.11133917235E+04  0.19796115962E+04  0.10100000352E+00 0. -1.
       -3    1    3    3    0  502 -0.13276800492E+04 -0.95733307607E+03  0.11504849289E+04  0.20007090027E+04  0.10100000352E+00 0.  1.
</event>
<event>
 5   0  0.3749685E-07  0.3240738E+04  0.7818609E-02  0.8178141E-01
        1   -1    0    0  501    0  0.00000000000E+00  0.00000000000E+00  0.26980774226E+04  0.26980774226E+04  0.50400001928E-02 0. -1.
       -1   -1    0    0    0  501  0.00000000000E+00  0.00000000000E+00 -0.97313552909E+03  0.97313552911E+03  0.50400001928E-02 0.  1.
    10030    2    1    2    0    0  0.00000000000E+00  0.00000000000E+00  0.17249418935E+04  0.36712129518E+04  0.32407375705E+04 0.  0.
        3    1    3    3  502    0  0.48799531814E+03 -0.15451324429E+04  0.85724350631E+03  0.18331503310E+04  0.10100000352E+00 0.  1.
       -3    1    3    3    0  502 -0.48799531814E+03  0.15451324429E+04  0.86769838723E+03  0.18380626208E+04  0.10100000352E+00 0. -1.
</event>
<event>
 5   0  0.1120545E-06  0.3296283E+04  0.7818609E-02  0.8163842E-01
        2   -1    0    0  501    0  0.00000000000E+00  0.00000000000E+00  0.95850467388E+03  0.95850467388E+03  0.25500000920E-02 0.  1.
       -2   -1    0    0    0  501  0.00000000000E+00  0.00000000000E+00 -0.28339663979E+04  0.28339663979E+04  0.25500000920E-02 0. -1.
    10030    2    1    2    0    0  0.00000000000E+00  0.00000000000E+00 -0.18754617241E+04  0.37924710718E+04  0.32962827779E+04 0.  0.
        4    1    3    3  502    0 -0.91760031674E+03  0.54917063092E+03  0.50515887311E+03  0.11826943067E+04  0.12699999809E+01 0.  1.
       -4    1    3    3    0  502  0.91760031674E+03 -0.54917063092E+03 -0.23806205972E+04  0.26097767651E+04  0.12699999809E+01 0. -1.
</event>
<event>
 5   0  0.3796529E-07  0.3286136E+04  0.7818609E-02  0.8166432E-01
        1   -1    0    0  501    0  0.00000000000E+00  0.00000000000E+00  0.21885730165E+04  0.21885730166E+04  0.50400001928E-02 0. -1.
       -1   -1    0    0    0  501  0.00000000000E+00  0.00000000000E+00 -0.12335312780E+04  0.12335312780E+04  0.50400001928E-02 0.  1.
    10030    2    1    2    0    0  0.00000000000E+00  0.00000000000E+00  0.95504173853E+03  0.34221042946E+04  0.32861364976E+04 0.  0.
        5    1    3    3  502    0 -0.14010342577E+04  0.36206084426E+03 -0.33292551237E+03  0.14848725646E+04  0.46999998093E+01 0.  1.
       -5    1    3    3    0  502  0.14010342577E+04 -0.36206084426E+03  0.12879672509E+04  0.19372317300E+04  0.46999998093E+01 0. -1.
</event>
<event>
 5   0  0.3796529E-07  0.3318474E+04  0.7818609E-02  0.8158211E-01
        1   -1    0    0  501    0  0.00000000000E+00  0.00000000000E+00  0.13980459380E+04  0.13980459380E+04  0.50400001928E-02 0. -1.
       -1   -1    0    0    0  501  0.00000000000E+00  0.00000000000E+00 -0.19692247632E+04  0.19692247632E+04  0.50400001928E-02 0.  1.
    10030    2    1    2    0    0  0.00000000000E+00  0.00000000000E+00 -0.57117882516E+03  0.33672707013E+04  0.33184735535E+04 0.  0.
        5    1    3    3  502    0 -0.81951220830E+03 -0.10789942293E+04  0.68620731152E+03  0.15187927346E+04  0.46999998093E+01 0. -1.
       -5    1    3    3    0  502  0.81951220830E+03  0.10789942293E+04 -0.12573861367E+04  0.18484779666E+04  0.46999998093E+01 0.  1.
</event>
<event>
 5   0  0.3749685E-07  0.3325667E+04  0.7818609E-02  0.8156395E-01
        1   -1    0    0  501    0  0.00000000000E+00  0.00000000000E+00  0.14326503612E+04  0.14326503612E+04  0.50400001928E-02 0.  1.
       -1   -1    0    0    0  501  0.00000000000E+00  0.00000000000E+00 -0.19300000013E+04  0.19300000013E+04  0.50400001928E-02 0. -1.
    10030    2    1    2    0    0  0.00000000000E+00  0.00000000000E+00 -0.49734964014E+03  0.33626503625E+04  0.33256669701E+04 0.  0.
        3    1    3    3  502    0  0.65090023461E+03  0.90024903815E+03  0.10023783383E+04  0.14962893402E+04  0.10100000352E+00 0.  1.
       -3    1    3    3    0  502 -0.65090023461E+03 -0.90024903815E+03 -0.14997279785E+04  0.18663610223E+04  0.10100000352E+00 0. -1.
</event>
<event>
 5   0  0.1116462E-06  0.3189065E+04  0.7818609E-02  0.8191711E-01
        2   -1    0    0  501    0  0.00000000000E+00  0.00000000000E+00  0.15470615634E+04  0.15470615634E+04  0.25500000920E-02 0.  1.
       -2   -1    0    0    0  501  0.00000000000E+00  0.00000000000E+00 -0.16434604770E+04  0.16434604770E+04  0.25500000920E-02 0. -1.
    10030    2    1    2    0    0  0.00000000000E+00  0.00000000000E+00 -0.96398913682E+02  0.31905220404E+04  0.31890654022E+04 0.  0.
        1    1    3    3  502    0 -0.61524419680E+03 -0.11327907407E+04 -0.98713452286E+03  0.16236301458E+04  0.50400001928E-02 0. -1.
       -1    1    3    3    0  502  0.61524419680E+03  0.11327907407E+04  0.89073560918E+03  0.15668918946E+04  0.50400001928E-02 0.  1.
</event>
<event>
 5   0  0.3674967E-07  0.3300422E+04  0.7818609E-02  0.8162788E-01
       -1   -1    0    0    0  501  0.00000000000E+00  0.00000000000E+00  0.13333630349E+04  0.13333630349E+04  0.50400001928E-02 0.  1.
        1   -1    0    0  501    0  0.00000000000E+00  0.00000000000E+00 -0.20423512744E+04  0.20423512744E+04  0.50400001928E-02 0. -1.
    10030    2    1    2    0    0  0.00000000000E+00  0.00000000000E+00 -0.70898823956E+03  0.33757143093E+04  0.33004216055E+04 0.  0.
        2    1    3    3  502    0  0.14251135412E+04  0.13463296680E+03 -0.11942735028E+04  0.18642327753E+04  0.25500000920E-02 0. -1.
       -2    1    3    3    0  502 -0.14251135412E+04 -0.13463296680E+03  0.48528526327E+03  0.15114815340E+04  0.25500000920E-02 0.  1.
</event>
<event>
 5   0  0.3749685E-07  0.3301862E+04  0.7818609E-02  0.8162422E-01
        1   -1    0    0  501    0  0.00000000000E+00  0.00000000000E+00  0.24401033014E+04  0.24401033015E+04  0.50400001928E-02 0. -1.
       -1   -1    0    0    0  501  0.00000000000E+00  0.00000000000E+00 -0.11169909905E+04  0.11169909905E+04  0.50400001928E-02 0.  1.
    10030    2    1    2    0    0  0.00000000000E+00  0.00000000000E+00  0.13231123110E+04  0.35570942920E+04  0.33018621435E+04 0.  0.
        3    1    3    3  502    0  0.18167786421E+03  0.58832368584E+03  0.23117742046E+04  0.23923694507E+04  0.10100000352E+00 0. -1.
       -3    1    3    3    0  502 -0.18167786421E+03 -0.58832368584E+03 -0.98866189362E+03  0.11647248412E+04  0.10100000352E+00 0.  1.
</event>
<event>
 5   0  0.3674967E-07  0.3296810E+04  0.7818609E-02  0.8163708E-01
        1   -1    0    0  501    0  0.00000000000E+00  0.00000000000E+00  0.23426180879E+04  0.23426180879E+04  0.50400001928E-02 0.  1.
       -1   -1    0    0    0  501  0.00000000000E+00  0.00000000000E+00 -0.11599156245E+04  0.11599156245E+04  0.50400001928E-02 0. -1.
    10030    2    1    2    0    0  0.00000000000E+00  0.00000000000E+00  0.11827024633E+04  0.35025337124E+04  0.32968101689E+04 0.  0.
        2    1    3    3  502    0 -0.56150719760E+03 -0.86382774688E+03 -0.77570332026E+03  0.12896528022E+04  0.25500000920E-02 0. -1.
       -2    1    3    3    0  502  0.56150719760E+03  0.86382774688E+03  0.19584057836E+04  0.22128809101E+04  0.25500000920E-02 0.  1.
</event>
<event>
 5   0  0.3749685E-07  0.3305740E+04  0.7818609E-02  0.8161436E-01
        1   -1    0    0  501    0  0.00000000000E+00  0.00000000000E+00  0.18299519682E+04  0.18299519682E+04  0.50400001928E-02 0. -1.
       -1   -1    0    0    0  501  0.00000000000E+00  0.00000000000E+00 -0.14929242078E+04  0.14929242078E+04  0.50400001928E-02 0.  1.
    10030    2    1    2    0    0  0.00000000000E+00  0.00000000000E+00  0.33702776035E+03  0.33228761760E+04  0.33057402151E+04 0.  0.
        3    1    3    3  502    0  0.86842379719E+03 -0.14020332593E+04  0.27918652478E+03  0.16726632290E+04  0.10100000352E+00 0. -1.
       -3    1    3    3    0  502 -0.86842379719E+03  0.14020332593E+04  0.57841235567E+02  0.16502129470E+04  0.10100000352E+00 0.  1.
</event>
<event>
 5   0  0.1146799E-06  0.3338871E+04  0.7818609E-02  0.8153074E-01
       -2   -1    0    0    0  501  0.00000000000E+00  0.00000000000E+00  0.13089951902E+04  0.13089951902E+04  0.25500000920E-02 0. -1.
        2   -1    0    0  501    0  0.00000000000E+00  0.00000000000E+00 -0.21291255595E+04  0.21291255595E+04  0.25500000920E-02 0.  1.
    10030    2    1    2    0    0  0.00000000000E+00  0.00000000000E+00 -0.82013036929E+03  0.34381207498E+04  0.33388711367E+04 0.  0.
        5    1    3    3  502    0 -0.27280726670E+02 -0.15342159583E+04  0.26707637100E+03  0.15575348223E+04  0.46999998093E+01 0. -1.
       -5    1    3    3    0  502  0.27280726670E+02  0.15342159583E+04 -0.10872067403E+04  0.18805859275E+04  0.46999998093E+01 0.  1.
</event>
<event>
 5   0  0.1116462E-06  0.3259836E+04  0.7818609E-02  0.8173191E-01
       -2   -1    0    0    0  501  0.00000000000E+00  0.00000000000E+00  0.15535622812E+04  0.15535622812E+04  0.25500000920E-02 0.  1.
        2   -1    0    0  501    0  0.00000000000E+00  0.00000000000E+00 -0.17100265184E+04  0.17100265184E+04  0.25500000920E-02 0. -1.
    10030    2    1    2    0    0  0.00000000000E+00  0.00000000000E+00 -0.15646423723E+03  0.32635887996E+04  0.32598360074E+04 0.  0.
        1    1    3    3  502    0  0.72115354078E+03 -0.11893750218E+04 -0.92889100963E+03  0.16725770175E+04  0.50400001928E-02 0. -1.
       -1    1    3    3    0  502 -0.72115354078E+03  0.11893750218E+04  0.77242677241E+03  0.15910117820E+04  0.50400001928E-02 0.  1.
</event>
<event>
 5   0  0.3757406E-07  0.3283119E+04  0.7818609E-02  0.8167204E-01
        1   -1    0    0  501    0  0.00000000000E+00  0.00000000000E+00  0.32684776625E+04  0.32684776625E+04  0.50400001928E-02 0. -1.
       -1   -1    0    0    0  501  0.00000000000E+00  0.00000000000E+00 -0.82445652051E+03  0.82445652053E+03  0.50400001928E-02 0.  1.
    10030    2    1    2    0    0  0.00000000000E+00  0.00000000000E+00  0.24440211419E+04  0.40929341830E+04  0.32831190786E+04 0.  0.
        1    1    3    3  502    0 -0.27011766157E+03  0.10583784419E+04  0.27496599942E+04  0.29586751361E+04  0.50400001928E-02 0. -1.
       -1    1    3    3    0  502  0.27011766157E+03 -0.10583784419E+04 -0.30563885222E+03  0.11342590469E+04  0.50400001928E-02 0.  1.
</event>
<event>
 5   0  0.1126221E-06  0.3303055E+04  0.7818609E-02  0.8162119E-01
        2   -1    0    0  501    0  0.00000000000E+00  0.00000000000E+00  0.22379469082E+04  0.22379469082E+04  0.25500000920E-02 0.  1.
       -2   -1    0    0    0  501  0.00000000000E+00  0.00000000000E+00 -0.12187699003E+04  0.12187699003E+04  0.25500000920E-02 0. -1.
    10030    2    1    2    0    0  0.00000000000E+00  0.00000000000E+00  0.10191770079E+04  0.34567168085E+04  0.33030545441E+04 0.  0.
        2    1    3    3  502    0  0.36733296677E+02  0.71542407014E+03 -0.10477115792E+04  0.12692046676E+04  0.25500000920E-02 0. -1.
       -2    1    3    3    0  502 -0.36733296677E+02 -0.71542407014E+03  0.20668885871E+04  0.21875121409E+04  0.25500000920E-02 0.  1.
</event>
<event>
 5   0  0.1146799E-06  0.3177116E+04  0.7818609E-02  0.8194887E-01
        2   -1    0    0  501    0  0.00000000000E+00  0.00000000000E+00  0.14018300552E+04  0.14018300552E+04  0.25500000920E-02 0.  1.
       -2   -1    0    0    0  501  0.00000000000E+00  0.00000000000E+00 -0.18001582067E+04  0.18001582067E+04  0.25500000920E-02 0. -1.
    10030    2    1    2    0    0  0.00000000000E+00  0.00000000000E+00 -0.39832815152E+03  0.32019882619E+04  0.31771155964E+04 0.  0.
        5    1    3    3  502    0 -0.27309130586E+03  0.87205720531E+03  0.11104049603E+04  0.14380834109E+04  0.46999998093E+01 0.  1.
       -5    1    3    3    0  502  0.27309130586E+03 -0.87205720531E+03 -0.15087331118E+04  0.17639048510E+04  0.46999998093E+01 0. -1.
</event>
<event>
 5   0  0.3674967E-07  0.3256814E+04  0.7818609E-02  0.8173972E-01
       -1   -1    0    0    0  501  0.00000000000E+00  0.00000000000E+00  0.17419250530E+04  0.17419250531E+04  0.50400001928E-02 0. -1.
        1   -1    0    0  501    0  0.00000000000E+00  0.00000000000E+00 -0.15222871402E+04  0.15222871402E+04  0.50400001928E-02 0.  1.
    10030    2    1    2    0    0  0.00000000000E+00  0.00000000000E+00  0.21963791284E+03  0.32642121933E+04  0.32568144605E+04 0.  0.
        2    1    3    3  502    0 -0.86828563230E+02  0.81424622068E+03 -0.13009200514E+04  0.15371821907E+04  0.25500000920E-02 0.  1.
       -2    1    3    3    0  502  0.86828563230E+02 -0.81424622068E+03  0.15205579642E+04  0.17270300026E+04  0.25500000920E-02 0. -1.
</event>
<event>
 5   0  0.1126221E-06  0.3287766E+04  0.7818609E-02  0.8166015E-01
        2   -1    0    0  501    0  0.00000000000E+00  0.00000000000E+00  0.15333229696E+04  0.15333229696E+04  0.25500000920E-02 0. -1.
       -2   -1    0    0    0  501  0.00000000000E+00  0.00000000000E+00 -0.17624144560E+04  0.17624144560E+04  0.25500000920E-02 0.  1.
    10030    2    1    2    0    0  0.00000000000E+00  0.00000000000E+00 -0.22909148636E+03  0.32957374256E+04  0.32877655435E+04 0.  0.
        2    1    3    3  502    0  0.15744591491E+04  0.32981462313E+03  0.22487720242E+03  0.16242749318E+04  0.25500000920E-02 0. -1.
       -2    1    3    3    0  502 -0.15744591491E+04 -0.32981462313E+03 -0.45396868878E+03  0.16714624938E+04  0.25500000920E-02 0.  1.
</event>
<event>
 5   0  0.1129434E-06  0.3307333E+04  0.7818609E-02  0.8161032E-01
       -2   -1    0    0    0  501  0.00000000000E+00  0.00000000000E+00  0.16384059945E+04  0.16384059945E+04  0.25500000920E-02 0. -1.
        2   -1    0    0  501    0  0.00000000000E+00  0.00000000000E+00 -0.16690695100E+04  0.16690695100E+04  0.25500000920E-02 0.  1.
    10030    2    1    2    0    0  0.00000000000E+00  0.00000000000E+00 -0.30663515539E+02  0.33074755045E+04  0.33073333612E+04 0.  0.
        3    1    3    3  502    0  0.58533878086E+02  0.43615922896E+03  0.15787732602E+04  0.16389588480E+04  0.10100000352E+00 0. -1.
       -3    1    3    3    0  502 -0.58533878086E+02 -0.43615922896E+03 -0.16094367758E+04  0.16685166566E+04  0.10100000352E+00 0.  1.
</event>
<event>
 5   0  0.3573375E-07  0.3307874E+04  0.7818609E-02  0.8160895E-01
        3   -1    0    0  501    0  0.00000000000E+00  0.00000000000E+00  0.16205678008E+04  0.16205678039E+04  0.10100000352E+00 0.  1.
       -3   -1    0    0    0  501  0.00000000000E+00  0.00000000000E+00 -0.16879930658E+04  0.16879930689E+04  0.10100000352E+00 0. -1.
    10030    2    1    2    0    0  0.00000000000E+00  0.00000000000E+00 -0.67425265067E+02  0.33085608728E+04  0.33078737706E+04 0.  0.
        5    1    3    3  502    0 -0.63469138219E+03 -0.10048954141E+04 -0.11840981313E+04  0.16777241783E+04  0.46999998093E+01 0. -1.
       -5    1    3    3    0  502  0.63469138219E+03  0.10048954141E+04  0.11166728662E+04  0.16308366945E+04  0.46999998093E+01 0.  1.
</event>
<event>
 5   0  0.3796529E-07  0.3299257E+04  0.7818609E-02  0.8163085E-01
        1   -1    0    0  501    0  0.00000000000E+00  0.00000000000E+00  0.15895076061E+04  0.15895076061E+04  0.50400001928E-02 0.  1.
       -1   -1    0    0    0  501  0.00000000000E+00  0.00000000000E+00 -0.17120229010E+04  0.17120229010E+04  0.50400001928E-02 0. -1.
    10030    2    1    2    0    0  0.00000000000E+00  0.00000000000E+00 -0.12251529485E+03  0.33015305071E+04  0.32992565363E+04 0.  0.
        5    1    3    3  502    0  0.16139239807E+04 -0.13749675313E+03  0.25136023370E+03  0.16391644303E+04  0.46999998093E+01 0.  1.
       -5    1    3    3    0  502 -0.16139239807E+04  0.13749675313E+03 -0.37387552855E+03  0.16623660768E+04  0.46999998093E+01 0. -1.
</event>
<event>
 5   0  0.1116462E-06  0.3241339E+04  0.7818609E-02  0.8177984E-01
        2   -1    0    0  501    0  0.00000000000E+00  0.00000000000E+00  0.22163579647E+04  0.22163579647E+04  0.25500000920E-02 0. -1.
       -2   -1    0    0    0  501  0.00000000000E+00  0.00000000000E+00 -0.11850833038E+04  0.11850833038E+04  0.25500000920E-02 0.  1.
    10030    2    1    2    0    0  0.00000000000E+00  0.00000000000E+00  0.10312746609E+04  0.34014412685E+04  0.32413385008E+04 0.  0.
        1    1    3    3  502    0 -0.21946537148E+03 -0.22805120359E+03  0.21836115630E+04  0.22064296632E+04  0.50400001928E-02 0. -1.
       -1    1    3    3    0  502  0.21946537148E+03  0.22805120359E+03 -0.11523369021E+04  0.11950116052E+04  0.50400001928E-02 0.  1.
</event>
<event>
 5   0  0.3709747E-07  0.3211484E+04  0.7818609E-02  0.8185791E-01
        1   -1    0    0  501    0  0.00000000000E+00  0.00000000000E+00  0.16663240765E+04  0.16663240765E+04  0.50400001928E-02 0.  1.
       -1   -1    0    0    0  501  0.00000000000E+00  0.00000000000E+00 -0.15473621237E+04  0.15473621237E+04  0.50400001928E-02 0. -1.
    10030    2    1    2    0    0  0.00000000000E+00  0.00000000000E+00  0.11896195280E+03  0.32136862002E+04  0.32114836208E+04 0.  0.
        4    1    3    3  502    0  0.32912331048E+02 -0.10790505484E+04  0.12489811507E+04  0.16508751725E+04  0.12699999809E+01 0.  1.
       -4    1    3    3    0  502 -0.32912331048E+02  0.10790505484E+04 -0.11300191979E+04  0.15628110276E+04  0.12699999809E+01 0. -1.
</event>
<event>
 5   0  0.3674967E-07  0.3318513E+04  0.7818609E-02  0.8158201E-01
        1   -1    0    0  501    0  0.00000000000E+00  0.00000000000E+00  0.20058527244E+04  0.20058527244E+04  0.50400001928E-02 0. -1.
       -1   -1    0    0    0  501  0.00000000000E+00  0.00000000000E+00 -0.13725497360E+04  0.13725497360E+04  0.50400001928E-02 0.  1.
    10030    2    1    2    0    0  0.00000000000E+00  0.00000000000E+00  0.63330298840E+03  0.33784024603E+04  0.33185132980E+04 0.  0.
        2    1    3    3  502    0  0.10632229085E+04 -0.73178778156E+03  0.13781461548E+04  0.18881851430E+04  0.25500000920E-02 0. -1.
       -2    1    3    3    0  502 -0.10632229085E+04  0.73178778156E+03 -0.74484316638E+03  0.14902173173E+04  0.25500000920E-02 0.  1.
</event>
<event>
 5   0  0.1120545E-06  0.3338980E+04  0.7818609E-02  0.8153047E-01
        2   -1    0    0  501    0  0.00000000000E+00  0.00000000000E+00  0.23665986393E+04  0.23665986393E+04  0.25500000920E-02 0. -1.
       -2   -1    0    0    0  501  0.00000000000E+00  0.00000000000E+00 -0.11777227530E+04  0.11777227530E+04  0.25500000920E-02 0.  1.
    10030    2    1    2    0    0  0.00000000000E+00  0.00000000000E+00  0.11888758863E+04  0.35443213923E+04  0.33389801226E+04 0.  0.
        4    1    3    3  502    0 -0.14836412593E+04  0.76550822473E+03  0.59326384362E+03  0.17717668666E+04  0.12699999809E+01 0.  1.
       -4    1    3    3    0  502  0.14836412593E+04 -0.76550822473E+03  0.59561204270E+03  0.17725545257E+04  0.12699999809E+01 0. -1.
</event>
<event>
 5   0  0.1126221E-06  0.3308946E+04  0.7818609E-02  0.8160623E-01
       -2   -1    0    0    0  501  0.00000000000E+00  0.00000000000E+00  0.12333052266E+04  0.12333052266E+04  0.25500000920E-02 0. -1.
        2   -1    0    0  501    0  0.00000000000E+00  0.00000000000E+00 -0.22194671556E+04  0.22194671556E+04  0.25500000920E-02 0.  1.
    10030    2    1    2    0    0  0.00000000000E+00  0.00000000000E+00 -0.98616192902E+03  0.34527723822E+04  0.33089457193E+04 0.  0.
        2    1    3    3  502    0  0.42015701397E+03 -0.70591407835E+03  0.10054589644E+04  0.12983814276E+04  0.25500000920E-02 0. -1.
       -2    1    3    3    0  502 -0.42015701397E+03  0.70591407835E+03 -0.19916208934E+04  0.21543909546E+04  0.25500000920E-02 0.  1.
</event>
<event>
 5   0  0.1146799E-06  0.3264306E+04  0.7818609E-02  0.8172038E-01
       -2   -1    0    0    0  501  0.00000000000E+00  0.00000000000E+00  0.17904910178E+04  0.17904910178E+04  0.25500000920E-02 0.  1.
        2   -1    0    0  501    0  0.00000000000E+00  0.00000000000E+00 -0.14878174326E+04  0.14878174326E+04  0.25500000920E-02 0. -1.
    10030    2    1    2    0    0  0.00000000000E+00  0.00000000000E+00  0.30267358520E+03  0.32783084504E+04  0.32643062045E+04 0.  0.
        5    1    3    3  502    0  0.40803666024E+03  0.15458319914E+04 -0.17841780343E+03  0.16087092541E+04  0.46999998093E+01 0.  1.
       -5    1    3    3    0  502 -0.40803666024E+03 -0.15458319914E+04  0.48109138863E+03  0.16695991962E+04  0.46999998093E+01 0. -1.
</event>
<event>
 5   0  0.3674967E-07  0.3278783E+04  0.7818609E-02  0.8168315E-01
        1   -1    0    0  501    0  0.00000000000E+00  0.00000000000E+00  0.16250322283E+04  0.16250322283E+04  0.50400001928E-02 0.  1.
       -1   -1    0    0    0  501  0.00000000000E+00  0.00000000000E+00 -0.16538774899E+04  0.16538774899E+04  0.50400001928E-02 0. -1.
    10030    2    1    2    0    0  0.00000000000E+00  0.00000000000E+00 -0.28845261592E+02  0.32789097183E+04  0.32787828369E+04 0.  0.
        2    1    3    3  502    0  0.15349508989E+04  0.42881308441E+03 -0.39868911009E+03  0.16428353325E+04  0.25500000920E-02 0. -1.
       -2    1    3    3    0  502 -0.15349508989E+04 -0.42881308441E+03  0.36984384850E+03  0.16360743857E+04  0.25500000920E-02 0.  1.
</event>
<event>
 5   0  0.1120545E-06  0.3273984E+04  0.7818609E-02  0.8169547E-01
       -2   -1    0    0    0  501  0.00000000000E+00  0.00000000000E+00  0.97682185719E+03  0.97682185719E+03  0.25500000920E-02 0.  1.
        2   -1    0    0  501    0  0.00000000000E+00  0.00000000000E+00 -0.27433283965E+04  0.27433283965E+04  0.25500000920E-02 0. -1.
    10030    2    1    2    0    0  0.00000000000E+00  0.00000000000E+00 -0.17665065393E+04  0.37201502537E+04  0.32739842022E+04 0.  0.
        4    1    3    3  502    0 -0.47503575110E+03  0.15886942979E+01 -0.26632871267E+04  0.27053209460E+04  0.12699999809E+01 0. -1.
       -4    1    3    3    0  502  0.47503575110E+03 -0.15886942979E+01  0.89678058743E+03  0.10148293076E+04  0.12699999809E+01 0.  1.
</event>
<event>
 5   0  0.1129434E-06  0.3241739E+04  0.7818609E-02  0.8177880E-01
       -2   -1    0    0    0  501  0.00000000000E+00  0.00000000000E+00  0.13562593242E+04  0.13562593242E+04  0.25500000920E-02 0. -1.
        2   -1    0    0  501    0  0.00000000000E+00  0.00000000000E+00 -0.19371064925E+04  0.19371064925E+04  0.25500000920E-02 0.  1.
    10030    2    1    2    0    0  0.00000000000E+00  0.00000000000E+00 -0.58084716830E+03  0.32933658166E+04  0.32417394974E+04 0.  0.
        3    1    3    3  502    0 -0.19421594275E+03 -0.15652393523E+04  0.89055079637E+02  0.15797546897E+04  0.10100000352E+00 0.  1.
       -3    1    3    3    0  502  0.19421594275E+03  0.15652393523E+04 -0.66990224794E+03  0.17136111269E+04  0.10100000352E+00 0. -1.
</event>
<event>
 5   0  0.3749685E-07  0.3296224E+04  0.7818609E-02  0.8163857E-01
       -1   -1    0    0    0  501  0.00000000000E+00  0.00000000000E+00  0.12923438216E+04  0.12923438216E+04  0.50400001928E-02 0.  1.
        1   -1    0    0  501    0  0.00000000000E+00  0.00000000000E+00 -0.21018189170E+04  0.21018189170E+04  0.50400001928E-02 0. -1.
    10030    2    1    2    0    0  0.00000000000E+00  0.00000000000E+00 -0.80947509532E+03  0.33941627386E+04  0.32962237130E+04 0.  0.
        3    1    3    3  502    0  0.21435826538E+03 -0.80634315479E+03 -0.18682824920E+04  0.20461227308E+04  0.10100000352E+00 0. -1.
       -3    1    3    3    0  502 -0.21435826538E+03  0.80634315479E+03  0.10588073967E+04  0.13480400078E+04  0.10100000352E+00 0.  1.
</event>
<event>
 5   0  0.1129434E-06  0.3304795E+04  0.7818609E-02  0.8161676E-01
        2   -1    0    0  501    0  0.00000000000E+00  0.00000000000E+00  0.12266601164E+04  0.12266601164E+04  0.25500000920E-02 0. -1.
       -2   -1    0    0    0  501  0.00000000000E+00  0.00000000000E+00 -0.22258959743E+04  0.22258959743E+04  0.25500000920E-02 0.  1.
    10030    2    1    2    0    0  0.00000000000E+00  0.00000000000E+00 -0.99923585787E+03  0.34525560907E+04  0.33047951918E+04 0.  0.
        3    1    3    3  502    0 -0.43799391383E+03 -0.13106603236E+04  0.44683993051E+03  0.14523550138E+04  0.10100000352E+00 0. -1.
       -3    1    3    3    0  502  0.43799391383E+03  0.13106603236E+04 -0.14460757884E+04  0.20002010770E+04  0.10100000352E+00 0.  1.
</event>
<event>
 5   0  0.3674967E-07  0.3304551E+04  0.7818609E-02  0.8161738E-01
       -1   -1    0    0    0  501  0.00000000000E+00  0.00000000000E+00  0.12718886687E+04  0.12718886687E+04  0.50400001928E-02 0. -1.
        1   -1    0    0  501    0  0.00000000000E+00  0.00000000000E+00 -0.21464255645E+04  0.21464255645E+04  0.50400001928E-02 0.  1.
    10030    2    1    2    0    0  0.00000000000E+00  0.00000000000E+00 -0.87453689576E+03  0.34183142332E+04  0.33045510156E+04 0.  0.
        2    1    3    3  502    0  0.13784231105E+03  0.32717377332E+03  0.12319670372E+04  0.12821021650E+04  0.25500000920E-02 0. -1.
       -2    1    3    3    0  502 -0.13784231105E+03 -0.32717377332E+03 -0.21065039330E+04  0.21362120682E+04  0.25500000920E-02 0.  1.
</event>
<event>
 5   0  0.3757406E-07  0.3244178E+04  0.7818609E-02  0.8177246E-01
       -1   -1    0    0    0  501  0.00000000000E+00  0.00000000000E+00  0.17862807170E+04  0.17862807170E+04  0.50400001928E-02 0. -1.
        1   -1    0    0  501    0  0.00000000000E+00  0.00000000000E+00 -0.14729891180E+04  0.14729891180E+04  0.50400001928E-02 0.  1.
    10030    2    1    2    0    0  0.00000000000E+00  0.00000000000E+00  0.31329159904E+03  0.32592698350E+04  0.32441775893E+04 0.  0.
        1    1    3    3  502    0  0.48484147438E+03  0.10174408136E+04 -0.10153638752E+04  0.15169775422E+04  0.50400001928E-02 0.  1.
       -1    1    3    3    0  502 -0.48484147438E+03 -0.10174408136E+04  0.13286554742E+04  0.17422922928E+04  0.50400001928E-02 0. -1.
</event>
<event>
 5   0  0.1120545E-06  0.3283603E+04  0.7818609E-02  0.8167080E-01
       -2   -1    0    0    0  501  0.00000000000E+00  0.00000000000E+00  0.10841900078E+04  0.10841900078E+04  0.25500000920E-02 0. -1.
        2   -1    0    0  501    0  0.00000000000E+00  0.00000000000E+00 -0.24861997758E+04  0.24861997758E+04  0.25500000920E-02 0.  1.
    10030    2    1    2    0    0  0.00000000000E+00  0.00000000000E+00 -0.14020097680E+04  0.35703897836E+04  0.32836034805E+04 0.  0.
        4    1    3    3  502    0  0.58256007727E+03  0.10369866783E+04 -0.19315697738E+04  0.22684093586E+04  0.12699999809E+01 0.  1.
       -4    1    3    3    0  502 -0.58256007727E+03 -0.10369866783E+04  0.52956000573E+03  0.13019804250E+04  0.12699999809E+01 0. -1.
</event>
<event>
 5   0  0.1120545E-06  0.3302096E+04  0.7818609E-02  0.8162362E-01
       -2   -1    0    0    0  501  0.00000000000E+00  0.00000000000E+00  0.11588634020E+04  0.11588634020E+04  0.25500000920E-02 0. -1.
        2   -1    0    0  501    0  0.00000000000E+00  0.00000000000E+00 -0.23522694128E+04  0.23522694128E+04  0.25500000920E-02 0.  1.
    10030    2    1    2    0    0  0.00000000000E+00  0.00000000000E+00 -0.11934060108E+04  0.35111328148E+04  0.33020956583E+04 0.  0.
        4    1    3    3  502    0  0.14026419762E+04 -0.83095513398E+03 -0.87411415555E+03  0.18498562425E+04  0.12699999809E+01 0.  1.
       -4    1    3    3    0  502 -0.14026419762E+04  0.83095513398E+03 -0.31929185521E+03  0.16612765723E+04  0.12699999809E+01 0. -1.
</event>
<event>
 5   0  0.1120545E-06  0.3320605E+04  0.7818609E-02  0.8157672E-01
        2   -1    0    0  501    0  0.00000000000E+00  0.00000000000E+00  0.23973122167E+04  0.23973122167E+04  0.25500000920E-02 0. -1.
       -2   -1    0    0    0  501  0.00000000000E+00  0.00000000000E+00 -0.11498725896E+04  0.11498725896E+04  0.25500000920E-02 0.  1.
    10030    2    1    2    0    0  0.00000000000E+00  0.00000000000E+00  0.12474396271E+04  0.35471848064E+04  0.33206045274E+04 0.  0.
        4    1    3    3  502    0  0.59034009732E+03 -0.34560850855E+03  0.22397774870E+04  0.23419119274E+04  0.12699999809E+01 0. -1.
       -4    1    3    3    0  502 -0.59034009732E+03  0.34560850855E+03 -0.99233785987E+03  0.12052728789E+04  0.12699999809E+01 0.  1.
</event>
<event>
 5   0  0.3749685E-07  0.3201968E+04  0.7818609E-02  0.8188298E-01
       -1   -1    0    0    0  501  0.00000000000E+00  0.00000000000E+00  0.12412107000E+04  0.12412107000E+04  0.50400001928E-02 0.  1.
        1   -1    0    0  501    0  0.00000000000E+00  0.00000000000E+00 -0.20650394234E+04  0.20650394234E+04  0.50400001928E-02 0. -1.
    10030    2    1    2    0    0  0.00000000000E+00  0.00000000000E+00 -0.82382872347E+03  0.33062501234E+04  0.32019675378E+04 0.  0.
        3    1    3    3  502    0  0.25308142772E+03  0.37510174602E+03 -0.19976372063E+04  0.20482446014E+04  0.10100000352E+00 0. -1.
       -3    1    3    3    0  502 -0.25308142772E+03 -0.37510174602E+03  0.11738084828E+04  0.12580055220E+04  0.10100000352E+00 0.  1.
</event>
<event>
 5   0  0.1129434E-06  0.3311180E+04  0.7818609E-02  0.8160056E-01
        2   -1    0    0  501    0  0.00000000000E+00  0.00000000000E+00  0.19902841302E+04  0.19902841302E+04  0.25500000920E-02 0. -1.
       -2   -1    0    0    0  501  0.00000000000E+00  0.00000000000E+00 -0.13771797123E+04  0.13771797123E+04  0.25500000920E-02 0.  1.
    10030    2    1    2    0    0  0.00000000000E+00  0.00000000000E+00  0.61310441784E+03  0.33674638425E+04  0.33111804094E+04 0.  0.
        3    1    3    3  502    0  0.10584315426E+03  0.92320057246E+03  0.17000535538E+04  0.19374426872E+04  0.10100000352E+00 0. -1.
       -3    1    3    3    0  502 -0.10584315426E+03 -0.92320057246E+03 -0.10869491359E+04  0.14300211553E+04  0.10100000352E+00 0.  1.
</event>
<event>
 5   0  0.1116462E-06  0.3320421E+04  0.7818609E-02  0.8157719E-01
        2   -1    0    0  501    0  0.00000000000E+00  0.00000000000E+00  0.16775904070E+04  0.16775904070E+04  0.25500000920E-02 0. -1.
       -2   -1    0    0    0  501  0.00000000000E+00  0.00000000000E+00 -0.16430111263E+04  0.16430111263E+04  0.25500000920E-02 0.  1.
    10030    2    1    2    0    0  0.00000000000E+00  0.00000000000E+00  0.34579280734E+02  0.33206015333E+04  0.33204214818E+04 0.  0.
        1    1    3    3  502    0  0.95459246431E+03 -0.85994429547E+03 -0.10342181537E+04  0.16493508280E+04  0.50400001928E-02 0.  1.
       -1    1    3    3    0  502 -0.95459246431E+03  0.85994429547E+03  0.10687974345E+04  0.16712507054E+04  0.50400001928E-02 0. -1.
</event>
<event>
 5   0  0.3674967E-07  0.3320015E+04  0.7818609E-02  0.8157821E-01
       -1   -1    0    0    0  501  0.00000000000E+00  0.00000000000E+00  0.16259988863E+04  0.16259988863E+04  0.50400001928E-02 0. -1.
        1   -1    0    0  501    0  0.00000000000E+00  0.00000000000E+00 -0.16947271344E+04  0.16947271344E+04  0.50400001928E-02 0.  1.
    10030    2    1    2    0    0  0.00000000000E+00  0.00000000000E+00 -0.68728248081E+02  0.33207260207E+04  0.33200147187E+04 0.  0.
        2    1    3    3  502    0  0.33420061415E+03  0.77281315788E+03  0.13965695901E+04  0.16307473279E+04  0.25500000920E-02 0. -1.
       -2    1    3    3    0  502 -0.33420061415E+03 -0.77281315788E+03 -0.14652978382E+04  0.16899786928E+04  0.25500000920E-02 0.  1.
</event>
<event>
 5   0  0.3757406E-07  0.3301667E+04  0.7818609E-02  0.8162471E-01
        1   -1    0    0  501    0  0.00000000000E+00  0.00000000000E+00  0.13919067296E+04  0.13919067296E+04  0.50400001928E-02 0.  1.
       -1   -1    0    0    0  501  0.00000000000E+00  0.00000000000E+00 -0.19579264511E+04  0.19579264511E+04  0.50400001928E-02 0. -1.
    10030    2    1    2    0    0  0.00000000000E+00  0.00000000000E+00 -0.56601972153E+03  0.33498331808E+04  0.33016668538E+04 0.  0.
        1    1    3    3  502    0 -0.17851467949E+03  0.13598420777E+04  0.64920486151E+03  0.15174007115E+04  0.50400001928E-02 0.  1.
       -1    1    3    3    0  502  0.17851467949E+03 -0.13598420777E+04 -0.12152245830E+04  0.18324324692E+04  0.50400001928E-02 0. -1.
</event>
<event>
 5   0  0.3674967E-07  0.3198187E+04  0.7818609E-02  0.8189296E-01
        1   -1    0    0  501    0  0.00000000000E+00  0.00000000000E+00  0.19769606257E+04  0.19769606257E+04  0.50400001928E-02 0.  1.
       -1   -1    0    0    0  501  0.00000000000E+00  0.00000000000E+00 -0.12934504776E+04  0.12934504776E+04  0.50400001928E-02 0. -1.
    10030    2    1    2    0    0  0.00000000000E+00  0.00000000000E+00  0.68351014805E+03  0.32704111033E+04  0.31981874026E+04 0.  0.
        2    1    3    3  502    0  0.46611362794E+03  0.10346898765E+04  0.14938094721E+04  0.18759828874E+04  0.25500000920E-02 0.  1.
       -2    1    3    3    0  502 -0.46611362794E+03 -0.10346898765E+04 -0.81029932410E+03  0.13944282159E+04  0.25500000920E-02 0. -1.
</event>
<event>
 5   0  0.1129434E-06  0.3300161E+04  0.7818609E-02  0.8162854E-01
        2   -1    0    0  501    0  0.00000000000E+00  0.00000000000E+00  0.13836705686E+04  0.13836705686E+04  0.25500000920E-02 0. -1.
       -2   -1    0    0    0  501  0.00000000000E+00  0.00000000000E+00 -0.19677850380E+04  0.19677850380E+04  0.25500000920E-02 0.  1.
    10030    2    1    2    0    0  0.00000000000E+00  0.00000000000E+00 -0.58411446940E+03  0.33514556066E+04  0.33001613551E+04 0.  0.
        3    1    3    3  502    0 -0.77963513128E+03  0.14533351693E+04 -0.34533385960E+03  0.16850132157E+04  0.10100000352E+00 0. -1.
       -3    1    3    3    0  502  0.77963513128E+03 -0.14533351693E+04 -0.23878060980E+03  0.16664423909E+04  0.10100000352E+00 0.  1.
</event>
<event>
 5   0  0.3674967E-07  0.3301606E+04  0.7818609E-02  0.8162487E-01
       -1   -1    0    0    0  501  0.00000000000E+00  0.00000000000E+00  0.26084892402E+04  0.26084892402E+04  0.50400001928E-02 0. -1.
        1   -1    0    0  501    0  0.00000000000E+00  0.00000000000E+00 -0.10447236784E+04  0.10447236784E+04  0.50400001928E-02 0.  1.
    10030    2    1    2    0    0  0.00000000000E+00  0.00000000000E+00  0.15637655619E+04  0.36532129186E+04  0.33016059571E+04 0.  0.
        2    1    3    3  502    0 -0.47235058500E+03  0.12335689905E+04  0.18774493190E+04  0.22955660467E+04  0.25500000920E-02 0. -1.
       -2    1    3    3    0  502  0.47235058500E+03 -0.12335689905E+04 -0.31368375709E+03  0.13576468719E+04  0.25500000920E-02 0.  1.
</event>
<event>
 5   0  0.1120545E-06  0.3363752E+04  0.7818609E-02  0.8146860E-01
        2   -1    0    0  501    0  0.00000000000E+00  0.00000000000E+00  0.27375464469E+04  0.27375464469E+04  0.25500000920E-02 0.  1.
       -2   -1    0    0    0  501  0.00000000000E+00  0.00000000000E+00 -0.10333002154E+04  0.10333002154E+04  0.25500000920E-02 0. -1.
    10030    2    1    2    0    0  0.00000000000E+00  0.00000000000E+00  0.17042462315E+04  0.37708466622E+04  0.33637522698E+04 0.  0.
        4    1    3    3  502    0  0.91412479216E+03  0.93161314021E+03  0.20412428575E+04  0.24228498085E+04  0.12699999809E+01 0.  1.
       -4    1    3    3    0  502 -0.91412479216E+03 -0.93161314021E+03 -0.33699662598E+03  0.13479968537E+04  0.12699999809E+01 0. -1.
</event>
<event>
 5   0  0.3749685E-07  0.3297114E+04  0.7818609E-02  0.8163630E-01
        1   -1    0    0  501    0  0.00000000000E+00  0.00000000000E+00  0.13011123314E+04  0.13011123314E+04  0.50400001928E-02 0. -1.
       -1   -1    0    0    0  501  0.00000000000E+00  0.00000000000E+00 -0.20887822778E+04  0.20887822778E+04  0.50400001928E-02 0.  1.
    10030    2    1    2    0    0  0.00000000000E+00  0.00000000000E+00 -0.78766994641E+03  0.33898946091E+04  0.32971141194E+04 0.  0.
        3    1    3    3  502    0  0.84779772490E+02 -0.13816648469E+04 -0.13143245681E+04  0.19088306471E+04  0.10100000352E+00 0.  1.
       -3    1    3    3    0  502 -0.84779772490E+02  0.13816648469E+04  0.52665462165E+03  0.14810639620E+04  0.10100000352E+00 0. -1.
</event>
<event>
 5   0  0.3757406E-07  0.3287694E+04  0.7818609E-02  0.8166034E-01
       -1   -1    0    0    0  501  0.00000000000E+00  0.00000000000E+00  0.18381661108E+04  0.18381661108E+04  0.50400001928E-02 0. -1.
        1   -1    0    0  501    0  0.00000000000E+00  0.00000000000E+00 -0.14700699339E+04  0.14700699339E+04  0.50400001928E-02 0.  1.
    10030    2    1    2    0    0  0.00000000000E+00  0.00000000000E+00  0.36809617693E+03  0.33082360448E+04  0.32876938623E+04 0.  0.
        1    1    3    3  502    0  0.60346722931E+02 -0.39481450337E+03  0.17885999123E+04  0.18326510485E+04  0.50400001928E-02 0. -1.
       -1    1    3    3    0  502 -0.60346722931E+02  0.39481450337E+03 -0.14205037354E+04  0.14755849963E+04  0.50400001928E-02 0.  1.
</event>
<event>
 5   0  0.1120545E-06  0.3307515E+04  0.7818609E-02  0.8160986E-01
        2   -1    0    0  501    0  0.00000000000E+00  0.00000000000E+00  0.13985861204E+04  0.13985861204E+04  0.25500000920E-02 0.  1.
       -2   -1    0    0    0  501  0.00000000000E+00  0.00000000000E+00 -0.19554848579E+04  0.19554848579E+04  0.25500000920E-02 0. -1.
    10030    2    1    2    0    0  0.00000000000E+00  0.00000000000E+00 -0.55689873755E+03  0.33540709783E+04  0.33075150677E+04 0.  0.
        4    1    3    3  502    0  0.12254499160E+04  0.55325943674E+03 -0.12548568547E+04  0.18391549254E+04  0.12699999809E+01 0. -1.
       -4    1    3    3    0  502 -0.12254499160E+04 -0.55325943674E+03  0.69795811711E+03  0.15149160529E+04  0.12699999809E+01 0.  1.
</event>
<event>
 5   0  0.1146799E-06  0.3288688E+04  0.7818609E-02  0.8165780E-01
       -2   -1    0    0    0  501  0.00000000000E+00  0.00000000000E+00  0.15504488858E+04  0.15504488858E+04  0.25500000920E-02 0.  1.
        2   -1    0    0  501    0  0.00000000000E+00  0.00000000000E+00 -0.17439252955E+04  0.17439252955E+04  0.25500000920E-02 0. -1.
    10030    2    1    2    0    0  0.00000000000E+00  0.00000000000E+00 -0.19347640970E+03  0.32943741812E+04  0.32886879032E+04 0.  0.
        5    1    3    3  502    0 -0.56546298564E+03  0.15061748690E+04  0.24375215914E+03  0.16271903175E+04  0.46999998093E+01 0. -1.
       -5    1    3    3    0  502  0.56546298564E+03 -0.15061748690E+04 -0.43722856884E+03  0.16671838638E+04  0.46999998093E+01 0.  1.
</event>
<event>
 5   0  0.3674967E-07  0.3639639E+04  0.7818609E-02  0.8081472E-01
        1   -1    0    0  501    0  0.00000000000E+00  0.00000000000E+00  0.21816468821E+04  0.21816468821E+04  0.50400001928E-02 0.  1.
       -1   -1    0    0    0  501  0.00000000000E+00  0.00000000000E+00 -0.15180013839E+04  0.15180013839E+04  0.50400001928E-02 0. -1.
    10030    2    1    2    0    0  0.00000000000E+00  0.00000000000E+00  0.66364549821E+03  0.36996482660E+04  0.36396389855E+04 0.  0.
        2    1    3    3  502    0 -0.51590743701E+03 -0.12280144849E+04  0.15922523036E+04  0.20759208696E+04  0.25500000920E-02 0.  1.
       -2    1    3    3    0  502  0.51590743701E+03  0.12280144849E+04 -0.92860680540E+03  0.16237273963E+04  0.25500000920E-02 0. -1.
</event>
<event>
 5   0  0.3709747E-07  0.3256992E+04  0.7818609E-02  0.8173926E-01
       -1   -1    0    0    0  501  0.00000000000E+00  0.00000000000E+00  0.11420491807E+04  0.11420491807E+04  0.50400001928E-02 0. -1.
        1   -1    0    0  501    0  0.00000000000E+00  0.00000000000E+00 -0.23221416174E+04  0.23221416174E+04  0.50400001928E-02 0.  1.
    10030    2    1    2    0    0  0.00000000000E+00  0.00000000000E+00 -0.11800924367E+04  0.34641907982E+04  0.32569924358E+04 0.  0.
        4    1    3    3  502    0 -0.15362342524E+04  0.53448469561E+03 -0.50556566790E+03  0.17033167132E+04  0.12699999809E+01 0. -1.
       -4    1    3    3    0  502  0.15362342524E+04 -0.53448469561E+03 -0.67452676885E+03  0.17608740849E+04  0.12699999809E+01 0.  1.
</event>
<event>
 5   0  0.3757406E-07  0.3397750E+04  0.7818609E-02  0.8138459E-01
       -1   -1    0    0    0  501  0.00000000000E+00  0.00000000000E+00  0.18090944934E+04  0.18090944934E+04  0.50400001928E-02 0. -1.
        1   -1    0    0  501    0  0.00000000000E+00  0.00000000000E+00 -0.15953705358E+04  0.15953705358E+04  0.50400001928E-02 0.  1.
    10030    2    1    2    0    0  0.00000000000E+00  0.00000000000E+00  0.21372395760E+03  0.34044650292E+04  0.33977498738E+04 0.  0.
        1    1    3    3  502    0  0.42449559988E+03 -0.13734673262E+04  0.10139505911E+04  0.17591773110E+04  0.50400001928E-02 0.  1.
       -1    1    3    3    0  502 -0.42449559988E+03  0.13734673262E+04 -0.80022663347E+03  0.16452877181E+04  0.50400001928E-02 0. -1.
</event>
<event>
 5   0  0.3796529E-07  0.3300975E+04  0.7818609E-02  0.8162647E-01
        1   -1    0    0  501    0  0.00000000000E+00  0.00000000000E+00  0.22658673173E+04  0.22658673173E+04  0.50400001928E-02 0. -1.
       -1   -1    0    0    0  501  0.00000000000E+00  0.00000000000E+00 -0.12022368762E+04  0.12022368762E+04  0.50400001928E-02 0.  1.
    10030    2    1    2    0    0  0.00000000000E+00  0.00000000000E+00  0.10636304412E+04  0.34681041935E+04  0.33009751562E+04 0.  0.
        5    1    3    3  502    0  0.69136060162E+03  0.13555541446E+04 -0.13975088743E+03  0.15280899584E+04  0.46999998093E+01 0.  1.
       -5    1    3    3    0  502 -0.69136060162E+03 -0.13555541446E+04  0.12033813286E+04  0.19400142351E+04  0.46999998093E+01 0. -1.
</event>
<event>
 5   0  0.3749685E-07  0.3176680E+04  0.7818609E-02  0.8195003E-01
        1   -1    0    0  501    0  0.00000000000E+00  0.00000000000E+00  0.14296133421E+04  0.14296133421E+04  0.50400001928E-02 0. -1.
       -1   -1    0    0    0  501  0.00000000000E+00  0.00000000000E+00 -0.17646898367E+04  0.17646898367E+04  0.50400001928E-02 0.  1.
    10030    2    1    2    0    0  0.00000000000E+00  0.00000000000E+00 -0.33507649467E+03  0.31943031788E+04  0.31766801131E+04 0.  0.
        3    1    3    3  502    0 -0.70732586112E+03  0.13913839052E+04 -0.46338991113E+03  0.16281858817E+04  0.10100000352E+00 0.  1.
       -3    1    3    3    0  502  0.70732586112E+03 -0.13913839052E+04  0.12831341646E+03  0.15661172971E+04  0.10100000352E+00 0. -1.
</event>
<event>
 5   0  0.1116462E-06  0.3345318E+04  0.7818609E-02  0.8151459E-01
       -2   -1    0    0    0  501  0.00000000000E+00  0.00000000000E+00  0.11864202046E+04  0.11864202046E+04  0.25500000920E-02 0. -1.
        2   -1    0    0  501    0  0.00000000000E+00  0.00000000000E+00 -0.23581765207E+04  0.23581765207E+04  0.25500000920E-02 0.  1.
    10030    2    1    2    0    0  0.00000000000E+00  0.00000000000E+00 -0.11717563161E+04  0.35445967253E+04  0.33453180836E+04 0.  0.
        1    1    3    3  502    0  0.10721737763E+04  0.11349469861E+03 -0.19408642994E+04  0.22202233856E+04  0.50400001928E-02 0.  1.
       -1    1    3    3    0  502 -0.10721737763E+04 -0.11349469861E+03  0.76910798323E+03  0.13243733398E+04  0.50400001928E-02 0. -1.
</event>
<event>
 5   0  0.3796529E-07  0.3298746E+04  0.7818609E-02  0.8163214E-01
        1   -1    0    0  501    0  0.00000000000E+00  0.00000000000E+00  0.14947587604E+04  0.14947587604E+04  0.50400001928E-02 0. -1.
       -1   -1    0    0    0  501  0.00000000000E+00  0.00000000000E+00 -0.18199805468E+04  0.18199805469E+04  0.50400001928E-02 0.  1.
    10030    2    1    2    0    0  0.00000000000E+00  0.00000000000E+00 -0.32522178646E+03  0.33147393072E+04  0.32987463474E+04 0.  0.
        5    1    3    3  502    0 -0.10682153825E+04  0.14545715120E+03  0.10917068945E+04  0.15343037248E+04  0.46999998093E+01 0. -1.
       -5    1    3    3    0  502  0.10682153825E+04 -0.14545715120E+03 -0.14169286810E+04  0.17804355825E+04  0.46999998093E+01 0.  1.
</event>
<event>
 5   0  0.3757406E-07  0.3299081E+04  0.7818609E-02  0.8163129E-01
        1   -1    0    0  501    0  0.00000000000E+00  0.00000000000E+00  0.19220306855E+04  0.19220306855E+04  0.50400001928E-02 0. -1.
       -1   -1    0    0    0  501  0.00000000000E+00  0.00000000000E+00 -0.14156822198E+04  0.14156822198E+04  0.50400001928E-02 0.  1.
    10030    2    1    2    0    0  0.00000000000E+00  0.00000000000E+00  0.50634846569E+03  0.33377129054E+04  0.32990814888E+04 0.  0.
        1    1    3    3  502    0 -0.20033130707E+03 -0.16131286132E+04 -0.30588461612E+02  0.16258081711E+04  0.50400001928E-02 0. -1.
       -1    1    3    3    0  502  0.20033130707E+03  0.16131286132E+04  0.53693692730E+03  0.17119047343E+04  0.50400001928E-02 0.  1.
</event>
<event>
 5   0  0.3749685E-07  0.3284499E+04  0.7818609E-02  0.8166851E-01
        1   -1    0    0  501    0  0.00000000000E+00  0.00000000000E+00  0.24046237340E+04  0.24046237340E+04  0.50400001928E-02 0.  1.
       -1   -1    0    0    0  501  0.00000000000E+00  0.00000000000E+00 -0.11215822236E+04  0.11215822237E+04  0.50400001928E-02 0. -1.
    10030    2    1    2    0    0  0.00000000000E+00  0.00000000000E+00  0.12830415103E+04  0.35262059576E+04  0.32844988870E+04 0.  0.
        3    1    3    3  502    0  0.14638263799E+04  0.42313157287E+03 -0.16052371011E+02  0.15238391278E+04  0.10100000352E+00 0.  1.
       -3    1    3    3    0  502 -0.14638263799E+04 -0.42313157287E+03  0.12990938813E+04  0.20023668298E+04  0.10100000352E+00 0. -1.
</event>
<event>
 5   0  0.3709747E-07  0.3295264E+04  0.7818609E-02  0.8164102E-01
        1   -1    0    0  501    0  0.00000000000E+00  0.00000000000E+00  0.21239414688E+04  0.21239414688E+04  0.50400001928E-02 0.  1.
       -1   -1    0    0    0  501  0.00000000000E+00  0.00000000000E+00 -0.12781384267E+04  0.12781384267E+04  0.50400001928E-02 0. -1.
    10030    2    1    2    0    0  0.00000000000E+00  0.00000000000E+00  0.84580304212E+03  0.34020798955E+04  0.32952639999E+04 0.  0.
        4    1    3    3  502    0  0.23943285005E+02  0.15629535086E+04  0.96064271035E+03  0.18347296751E+04  0.12699999809E+01 0.  1.
       -4    1    3    3    0  502 -0.23943285005E+02 -0.15629535086E+04 -0.11483966823E+03  0.15673502204E+04  0.12699999809E+01 0. -1.
</event>
<event>
 5   0  0.3749685E-07  0.3267550E+04  0.7818609E-02  0.8171202E-01
       -1   -1    0    0    0  501  0.00000000000E+00  0.00000000000E+00  0.19210342346E+04  0.19210342346E+04  0.50400001928E-02 0.  1.
        1   -1    0    0  501    0  0.00000000000E+00  0.00000000000E+00 -0.13894705062E+04  0.13894705062E+04  0.50400001928E-02 0. -1.
    10030    2    1    2    0    0  0.00000000000E+00  0.00000000000E+00  0.53156372838E+03  0.33105047408E+04  0.32675497917E+04 0.  0.
        3    1    3    3  502    0  0.12551050373E+03  0.64788872762E+03  0.17799885924E+04  0.18983867070E+04  0.10100000352E+00 0.  1.
       -3    1    3    3    0  502 -0.12551050373E+03 -0.64788872762E+03 -0.12484248641E+04  0.14121180338E+04  0.10100000352E+00 0. -1.
</event>
<event>
 5   0  0.1116462E-06  0.3320014E+04  0.7818609E-02  0.8157821E-01
       -2   -1    0    0    0  501  0.00000000000E+00  0.00000000000E+00  0.14411179456E+04  0.14411179456E+04  0.25500000920E-02 0.  1.
        2   -1    0    0  501    0  0.00000000000E+00  0.00000000000E+00 -0.19121428073E+04  0.19121428073E+04  0.25500000920E-02 0. -1.
    10030    2    1    2    0    0  0.00000000000E+00  0.00000000000E+00 -0.47102486169E+03  0.33532607529E+04  0.33200140446E+04 0.  0.
        1    1    3    3  502    0 -0.18870896621E+03  0.57601658772E+03  0.13253488576E+04  0.14573797644E+04  0.50400001928E-02 0.  1.
       -1    1    3    3    0  502  0.18870896621E+03 -0.57601658772E+03 -0.17963737193E+04  0.18958809885E+04  0.50400001928E-02 0. -1.
</event>
<event>
 5   0  0.1129434E-06  0.3303985E+04  0.7818609E-02  0.8161882E-01
        2   -1    0    0  501    0  0.00000000000E+00  0.00000000000E+00  0.22530696676E+04  0.22530696676E+04  0.25500000920E-02 0. -1.
       -2   -1    0    0    0  501  0.00000000000E+00  0.00000000000E+00 -0.12112716948E+04  0.12112716948E+04  0.25500000920E-02 0.  1.
    10030    2    1    2    0    0  0.00000000000E+00  0.00000000000E+00  0.10417979728E+04  0.34643413625E+04  0.33039851785E+04 0.  0.
        3    1    3    3  502    0 -0.92270134311E+03  0.10831918346E+04 -0.35911868809E+03  0.14675314516E+04  0.10100000352E+00 0.  1.
       -3    1    3    3    0  502  0.92270134311E+03 -0.10831918346E+04  0.14009166609E+04  0.19968099109E+04  0.10100000352E+00 0. -1.
</event>
<event>
 5   0  0.3749685E-07  0.3065583E+04  0.7818609E-02  0.8225247E-01
       -1   -1    0    0    0  501  0.00000000000E+00  0.00000000000E+00  0.13664658479E+04  0.13664658479E+04  0.50400001928E-02 0.  1.
        1   -1    0    0  501    0  0.00000000000E+00  0.00000000000E+00 -0.17193617026E+04  0.17193617026E+04  0.50400001928E-02 0. -1.
    10030    2    1    2    0    0  0.00000000000E+00  0.00000000000E+00 -0.35289585467E+03  0.30858275505E+04  0.30655825201E+04 0.  0.
        3    1    3    3  502    0 -0.13172311927E+04 -0.77760618921E+03 -0.27548280234E+03  0.15542394233E+04  0.10100000352E+00 0. -1.
       -3    1    3    3    0  502  0.13172311927E+04  0.77760618921E+03 -0.77413052332E+02  0.15315881272E+04  0.10100000352E+00 0.  1.
</event>
<event>
 5   0  0.3674967E-07  0.3297868E+04  0.7818609E-02  0.8163438E-01
       -1   -1    0    0    0  501  0.00000000000E+00  0.00000000000E+00  0.12126315236E+04  0.12126315236E+04  0.50400001928E-02 0.  1.
        1   -1    0    0  501    0  0.00000000000E+00  0.00000000000E+00 -0.22422177025E+04  0.22422177025E+04  0.50400001928E-02 0. -1.
    10030    2    1    2    0    0  0.00000000000E+00  0.00000000000E+00 -0.10295861789E+04  0.34548492262E+04  0.32978683230E+04 0.  0.
        2    1    3    3  502    0  0.12060134802E+04  0.28012139622E+03 -0.16556910480E+04  0.20674257803E+04  0.25500000920E-02 0. -1.
       -2    1    3    3    0  502 -0.12060134802E+04 -0.28012139622E+03  0.62610486907E+03  0.13874234458E+04  0.25500000920E-02 0.  1.
</event>
<event>
 5   0  0.3709747E-07  0.3262832E+04  0.7818609E-02  0.8172418E-01
       -1   -1    0    0    0  501  0.00000000000E+00  0.00000000000E+00  0.10777768447E+04  0.10777768447E+04  0.50400001928E-02 0.  1.
        1   -1    0    0  501    0  0.00000000000E+00  0.00000000000E+00 -0.24694519244E+04  0.24694519244E+04  0.50400001928E-02 0. -1.
    10030    2    1    2    0    0  0.00000000000E+00  0.00000000000E+00 -0.13916750797E+04  0.35472287691E+04  0.32628319621E+04 0.  0.
        4    1    3    3  502    0  0.65792439046E+03  0.65016907815E+03 -0.21568206851E+04  0.23467981197E+04  0.12699999809E+01 0. -1.
       -4    1    3    3    0  502 -0.65792439046E+03 -0.65016907815E+03  0.76514560543E+03  0.12004306495E+04  0.12699999809E+01 0.  1.
</event>
<event>
 5   0  0.3674967E-07  0.3289227E+04  0.7818609E-02  0.8165642E-01
       -1   -1    0    0    0  501  0.00000000000E+00  0.00000000000E+00  0.12957915008E+04  0.12957915008E+04  0.50400001928E-02 0.  1.
        1   -1    0    0  501    0  0.00000000000E+00  0.00000000000E+00 -0.20873370934E+04  0.20873370934E+04  0.50400001928E-02 0. -1.
    10030    2    1    2    0    0  0.00000000000E+00  0.00000000000E+00 -0.79154559263E+03  0.33831285942E+04  0.32892270611E+04 0.  0.
        2    1    3    3  502    0  0.87519890150E+02 -0.24791260650E+03 -0.20655831209E+04  0.20822473486E+04  0.25500000920E-02 0. -1.
       -2    1    3    3    0  502 -0.87519890150E+02  0.24791260650E+03  0.12740375282E+04  0.13008812455E+04  0.25500000920E-02 0.  1.
</event>
<event>
 5   0  0.3757406E-07  0.3284067E+04  0.7818609E-02  0.8166961E-01
        1   -1    0    0  501    0  0.00000000000E+00  0.00000000000E+00  0.21662858834E+04  0.21662858834E+04  0.50400001928E-02 0. -1.
       -1   -1    0    0    0  501  0.00000000000E+00  0.00000000000E+00 -0.12446531262E+04  0.12446531262E+04  0.50400001928E-02 0.  1.
    10030    2    1    2    0    0  0.00000000000E+00  0.00000000000E+00  0.92163275726E+03  0.34109390096E+04  0.32840672935E+04 0.  0.
        1    1    3    3  502    0 -0.14269262479E+04  0.44555245269E+03 -0.24487229712E+03  0.15147930377E+04  0.50400001928E-02 0.  1.
       -1    1    3    3    0  502  0.14269262479E+04 -0.44555245269E+03  0.11665050544E+04  0.18961459719E+04  0.50400001928E-02 0. -1.
</event>
<event>
 5   0  0.3796529E-07  0.3263792E+04  0.7818609E-02  0.8172170E-01
       -1   -1    0    0    0  501  0.00000000000E+00  0.00000000000E+00  0.16203660555E+04  0.16203660555E+04  0.50400001928E-02 0. -1.
        1   -1    0    0  501    0  0.00000000000E+00  0.00000000000E+00 -0.16435078486E+04  0.16435078486E+04  0.50400001928E-02 0.  1.
    10030    2    1    2    0    0  0.00000000000E+00  0.00000000000E+00 -0.23141793152E+02  0.32638739041E+04  0.32637918622E+04 0.  0.
        5    1    3    3  502    0  0.14515281680E+03 -0.17116794983E+03  0.16048528675E+04  0.16204760484E+04  0.46999998093E+01 0. -1.
       -5    1    3    3    0  502 -0.14515281680E+03  0.17116794983E+03 -0.16279946606E+04  0.16433978557E+04  0.46999998093E+01 0.  1.
</event>
<event>
 5   0  0.1146799E-06  0.3309144E+04  0.7818609E-02  0.8160573E-01
        2   -1    0    0  501    0  0.00000000000E+00  0.00000000000E+00  0.20129540538E+04  0.20129540538E+04  0.25500000920E-02 0. -1.
       -2   -1    0    0    0  501  0.00000000000E+00  0.00000000000E+00 -0.13599954426E+04  0.13599954426E+04  0.25500000920E-02 0.  1.
    10030    2    1    2    0    0  0.00000000000E+00  0.00000000000E+00  0.65295861125E+03  0.33729494964E+04  0.33091439009E+04 0.  0.
        5    1    3    3  502    0  0.17430583519E+03  0.92504591609E+03  0.17134117693E+04  0.19549666116E+04  0.46999998093E+01 0. -1.
       -5    1    3    3    0  502 -0.17430583519E+03 -0.92504591609E+03 -0.10604531581E+04  0.14179828848E+04  0.46999998093E+01 0.  1.
</event>
<event>
 5   0  0.1120545E-06  0.3295418E+04  0.7818609E-02  0.8164062E-01
        2   -1    0    0  501    0  0.00000000000E+00  0.00000000000E+00  0.15331233048E+04  0.15331233048E+04  0.25500000920E-02 0.  1.
       -2   -1    0    0    0  501  0.00000000000E+00  0.00000000000E+00 -0.17708587330E+04  0.17708587330E+04  0.25500000920E-02 0. -1.
    10030    2    1    2    0    0  0.00000000000E+00  0.00000000000E+00 -0.23773542822E+03  0.33039820378E+04  0.32954179056E+04 0.  0.
        4    1    3    3  502    0 -0.19844486209E+03  0.60208360123E+03 -0.16436943033E+04  0.17617087165E+04  0.12699999809E+01 0. -1.
       -4    1    3    3    0  502  0.19844486209E+03 -0.60208360123E+03  0.14059588751E+04  0.15422733213E+04  0.12699999809E+01 0.  1.
</event>
<event>
 5   0  0.3796529E-07  0.3262089E+04  0.7818609E-02  0.8172609E-01
        1   -1    0    0  501    0  0.00000000000E+00  0.00000000000E+00  0.90802118923E+03  0.90802118924E+03  0.50400001928E-02 0. -1.
       -1   -1    0    0    0  501  0.00000000000E+00  0.00000000000E+00 -0.29297849154E+04  0.29297849154E+04  0.50400001928E-02 0.  1.
    10030    2    1    2    0    0  0.00000000000E+00  0.00000000000E+00 -0.20217637262E+04  0.38378061046E+04  0.32620893814E+04 0.  0.
        5    1    3    3  502    0  0.61764376309E+03 -0.13565698091E+04 -0.17899608543E+04  0.23293233814E+04  0.46999998093E+01 0. -1.
       -5    1    3    3    0  502 -0.61764376309E+03  0.13565698091E+04 -0.23180287185E+03  0.15084827233E+04  0.46999998093E+01 0.  1.
</event>
<event>
 5   0  0.1129434E-06  0.3299834E+04  0.7818609E-02  0.8162938E-01
        2   -1    0    0  501    0  0.00000000000E+00  0.00000000000E+00  0.28289952229E+04  0.28289952229E+04  0.25500000920E-02 0. -1.
       -2   -1    0    0    0  501  0.00000000000E+00  0.00000000000E+00 -0.96225922755E+03  0.96225922756E+03  0.25500000920E-02 0.  1.
    10030    2    1    2    0    0  0.00000000000E+00  0.00000000000E+00  0.18667359953E+04  0.37912544504E+04  0.32998343946E+04 0.  0.
        3    1    3    3  502    0 -0.11603899221E+04 -0.10023416945E+04  0.23353064589E+03  0.15510416553E+04  0.10100000352E+00 0.  1.
       -3    1    3    3    0  502  0.11603899221E+04  0.10023416945E+04  0.16332053494E+04  0.22402127951E+04  0.10100000352E+00 0. -1.
</event>
<event>
 5   0  0.1120545E-06  0.3279519E+04  0.7818609E-02  0.8168126E-01
        2   -1    0    0  501    0  0.00000000000E+00  0.00000000000E+00  0.24980490663E+04  0.24980490663E+04  0.25500000920E-02 0.  1.
       -2   -1    0    0    0  501  0.00000000000E+00  0.00000000000E+00 -0.10763643822E+04  0.10763643822E+04  0.25500000920E-02 0. -1.
    10030    2    1    2    0    0  0.00000000000E+00  0.00000000000E+00  0.14216846840E+04  0.35744134485E+04  0.32795188915E+04 0.  0.
        4    1    3    3  502    0 -0.40962182506E+03 -0.12956092144E+04 -0.28952151150E+03  0.13893227107E+04  0.12699999809E+01 0. -1.
       -4    1    3    3    0  502  0.40962182506E+03  0.12956092144E+04  0.17112061955E+04  0.21850907378E+04  0.12699999809E+01 0.  1.
</event>
<event>
 5   0  0.1120545E-06  0.3277130E+04  0.7818609E-02  0.8168739E-01
       -2   -1    0    0    0  501  0.00000000000E+00  0.00000000000E+00  0.11853596572E+04  0.11853596572E+04  0.25500000920E-02 0.  1.
        2   -1    0    0  501    0  0.00000000000E+00  0.00000000000E+00 -0.22650471147E+04  0.22650471147E+04  0.25500000920E-02 0. -1.
    10030    2    1    2    0    0  0.00000000000E+00  0.00000000000E+00 -0.10796874575E+04  0.34504067719E+04  0.32771301295E+04 0.  0.
        4    1    3    3  502    0  0.14493964187E+04  0.51790023215E+03 -0.11316334134E+04  0.19103838421E+04  0.12699999809E+01 0.  1.
       -4    1    3    3    0  502 -0.14493964187E+04 -0.51790023215E+03  0.51945955815E+02  0.15400229298E+04  0.12699999809E+01 0. -1.
</event>
<event>
 5   0  0.3757406E-07  0.3117355E+04  0.7818609E-02  0.8210991E-01
       -1   -1    0    0    0  501  0.00000000000E+00  0.00000000000E+00  0.15301161740E+04  0.15301161740E+04  0.50400001928E-02 0. -1.
        1   -1    0    0  501    0  0.00000000000E+00  0.00000000000E+00 -0.15877719756E+04  0.15877719756E+04  0.50400001928E-02 0.  1.
    10030    2    1    2    0    0  0.00000000000E+00  0.00000000000E+00 -0.57655801658E+02  0.31178881496E+04  0.31173550202E+04 0.  0.
        1    1    3    3  502    0  0.61269037202E+02  0.45125584820E+03 -0.15197504182E+04  0.15865141250E+04  0.50400001928E-02 0.  1.
       -1    1    3    3    0  502 -0.61269037202E+02 -0.45125584820E+03  0.14620946165E+04  0.15313740245E+04  0.50400001928E-02 0. -1.
</event>
<event>
 5   0  0.3796529E-07  0.3303967E+04  0.7818609E-02  0.8161887E-01
        1   -1    0    0  501    0  0.00000000000E+00  0.00000000000E+00  0.28869140768E+04  0.28869140768E+04  0.50400001928E-02 0.  1.
       -1   -1    0    0    0  501  0.00000000000E+00  0.00000000000E+00 -0.94531711798E+03  0.94531711799E+03  0.50400001928E-02 0. -1.
    10030    2    1    2    0    0  0.00000000000E+00  0.00000000000E+00  0.19415969588E+04  0.38322311948E+04  0.33039668854E+04 0.  0.
        5    1    3    3  502    0 -0.74008938276E+03  0.14529675462E+04  0.12780707564E+04  0.20717948579E+04  0.46999998093E+01 0. -1.
       -5    1    3    3    0  502  0.74008938276E+03 -0.14529675462E+04  0.66352620242E+03  0.17604363369E+04  0.46999998093E+01 0.  1.
</event>
<event>
 5   0  0.3749685E-07  0.3309997E+04  0.7818609E-02  0.8160356E-01
       -1   -1    0    0    0  501  0.00000000000E+00  0.00000000000E+00  0.15000546825E+04  0.15000546825E+04  0.50400001928E-02 0.  1.
        1   -1    0    0  501    0  0.00000000000E+00  0.00000000000E+00 -0.18259464758E+04  0.18259464758E+04  0.50400001928E-02 0. -1.
    10030    2    1    2    0    0  0.00000000000E+00  0.00000000000E+00 -0.32589179330E+03  0.33260011582E+04  0.33099967135E+04 0.  0.
        3    1    3    3  502    0  0.30384816382E+03  0.36401657268E+03  0.14303399162E+04  0.15068855491E+04  0.10100000352E+00 0.  1.
       -3    1    3    3    0  502 -0.30384816382E+03 -0.36401657268E+03 -0.17562317095E+04  0.18191156092E+04  0.10100000352E+00 0. -1.
</event>
<event>
 5   0  0.1116462E-06  0.3099949E+04  0.7818609E-02  0.8215752E-01
        2   -1    0    0  501    0  0.00000000000E+00  0.00000000000E+00  0.13778943354E+04  0.13778943354E+04  0.25500000920E-02 0. -1.
       -2   -1    0    0    0  501  0.00000000000E+00  0.00000000000E+00 -0.17435445841E+04  0.17435445841E+04  0.25500000920E-02 0.  1.
    10030    2    1    2    0    0  0.00000000000E+00  0.00000000000E+00 -0.36565024878E+03  0.31214389195E+04  0.30999485195E+04 0.  0.
        1    1    3    3  502    0 -0.61244977113E+03  0.12965400185E+04  0.40973515946E+03  0.14913060191E+04  0.50400001928E-02 0. -1.
       -1    1    3    3    0  502  0.61244977113E+03 -0.12965400185E+04 -0.77538540825E+03  0.16301329004E+04  0.50400001928E-02 0.  1.
</event>
<event>
 5   0  0.3709747E-07  0.3079786E+04  0.7818609E-02  0.8221308E-01
        1   -1    0    0  501    0  0.00000000000E+00  0.00000000000E+00  0.18594691973E+04  0.18594691973E+04  0.50400001928E-02 0. -1.
       -1   -1    0    0    0  501  0.00000000000E+00  0.00000000000E+00 -0.12752403107E+04  0.12752403107E+04  0.50400001928E-02 0.  1.
    10030    2    1    2    0    0  0.00000000000E+00  0.00000000000E+00  0.58422888660E+03  0.31347095080E+04  0.30797857568E+04 0.  0.
        4    1    3    3  502    0 -0.15178435074E+04  0.27397847307E+02  0.55492237550E+03  0.16163353646E+04  0.12699999809E+01 0. -1.
       -4    1    3    3    0  502  0.15178435074E+04 -0.27397847307E+02  0.29306511105E+02  0.15183741435E+04  0.12699999809E+01 0.  1.
</event>
<event>
 5   0  0.1129434E-06  0.3309799E+04  0.7818609E-02  0.8160406E-01
       -2   -1    0    0    0  501  0.00000000000E+00  0.00000000000E+00  0.16995710131E+04  0.16995710131E+04  0.25500000920E-02 0. -1.
        2   -1    0    0  501    0  0.00000000000E+00  0.00000000000E+00 -0.16114021905E+04  0.16114021905E+04  0.25500000920E-02 0.  1.
    10030    2    1    2    0    0  0.00000000000E+00  0.00000000000E+00  0.88168822595E+02  0.33109732036E+04  0.33097990595E+04 0.  0.
        3    1    3    3  502    0  0.10076033920E+04 -0.12205718470E+04 -0.43944222152E+03  0.16426106372E+04  0.10100000352E+00 0. -1.
       -3    1    3    3    0  502 -0.10076033920E+04  0.12205718470E+04  0.52761104411E+03  0.16683625665E+04  0.10100000352E+00 0.  1.
</event>
<event>
 5   0  0.3796529E-07  0.3236195E+04  0.7818609E-02  0.8179323E-01
        1   -1    0    0  501    0  0.00000000000E+00  0.00000000000E+00  0.18445797363E+04  0.18445797363E+04  0.50400001928E-02 0.  1.
       -1   -1    0    0    0  501  0.00000000000E+00  0.00000000000E+00 -0.14194236111E+04  0.14194236111E+04  0.50400001928E-02 0. -1.
    10030    2    1    2    0    0  0.00000000000E+00  0.00000000000E+00  0.42515612519E+03  0.32640033474E+04  0.32361953156E+04 0.  0.
        5    1    3    3  502    0  0.75077880452E+03  0.49805029166E+03 -0.11430303539E+04  0.14554255001E+04  0.46999998093E+01 0. -1.
       -5    1    3    3    0  502 -0.75077880452E+03 -0.49805029166E+03  0.15681864791E+04  0.18085778473E+04  0.46999998093E+01 0.  1.
</event>
<event>
 5   0  0.1129434E-06  0.3197451E+04  0.7818609E-02  0.8189491E-01
       -2   -1    0    0    0  501  0.00000000000E+00  0.00000000000E+00  0.11308908443E+04  0.11308908443E+04  0.25500000920E-02 0.  1.
        2   -1    0    0  501    0  0.00000000000E+00  0.00000000000E+00 -0.22600975891E+04  0.22600975891E+04  0.25500000920E-02 0. -1.
    10030    2    1    2    0    0  0.00000000000E+00  0.00000000000E+00 -0.11292067448E+04  0.33909884335E+04  0.31974512793E+04 0.  0.
        3    1    3    3  502    0  0.96714471516E+02 -0.79568347817E+03  0.90240237089E+03  0.12069780179E+04  0.10100000352E+00 0.  1.
       -3    1    3    3    0  502 -0.96714471516E+02  0.79568347817E+03 -0.20316091157E+04  0.21840104156E+04  0.10100000352E+00 0. -1.
</event>
<event>
 5   0  0.1116462E-06  0.3294334E+04  0.7818609E-02  0.8164339E-01
        2   -1    0    0  501    0  0.00000000000E+00  0.00000000000E+00  0.25760324923E+04  0.25760324923E+04  0.25500000920E-02 0.  1.
       -2   -1    0    0    0  501  0.00000000000E+00  0.00000000000E+00 -0.10532314958E+04  0.10532314958E+04  0.25500000920E-02 0. -1.
    10030    2    1    2    0    0  0.00000000000E+00  0.00000000000E+00  0.15228009965E+04  0.36292639881E+04  0.32943336534E+04 0.  0.
        1    1    3    3  502    0 -0.15810286071E+04 -0.34401806454E+03  0.11012410171E+04  0.19572255013E+04  0.50400001928E-02 0.  1.
       -1    1    3    3    0  502  0.15810286071E+04  0.34401806454E+03  0.42155997941E+03  0.16720384868E+04  0.50400001928E-02 0. -1.
</event>
<event>
 5   0  0.3796529E-07  0.3279303E+04  0.7818609E-02  0.8168182E-01
       -1   -1    0    0    0  501  0.00000000000E+00  0.00000000000E+00  0.18903598600E+04  0.18903598600E+04  0.50400001928E-02 0.  1.
        1   -1    0    0  501    0  0.00000000000E+00  0.00000000000E+00 -0.14221935752E+04  0.14221935752E+04  0.50400001928E-02 0. -1.
    10030    2    1    2    0    0  0.00000000000E+00  0.00000000000E+00  0.46816628479E+03  0.33125534352E+04  0.32793033698E+04 0.  0.
        5    1    3    3  502    0 -0.50008090827E+03  0.13004715785E+04  0.11072131126E+04  0.17796769955E+04  0.46999998093E+01 0.  1.
       -5    1    3    3    0  502  0.50008090827E+03 -0.13004715785E+04 -0.63904682784E+03  0.15328764397E+04  0.46999998093E+01 0. -1.
</event>
<event>
 5   0  0.3674967E-07  0.3295704E+04  0.7818609E-02  0.8163989E-01
       -1   -1    0    0    0  501  0.00000000000E+00  0.00000000000E+00  0.13537091427E+04  0.13537091427E+04  0.50400001928E-02 0. -1.
        1   -1    0    0  501    0  0.00000000000E+00  0.00000000000E+00 -0.20059078081E+04  0.20059078081E+04  0.50400001928E-02 0.  1.
    10030    2    1    2    0    0  0.00000000000E+00  0.00000000000E+00 -0.65219866538E+03  0.33596169509E+04  0.32957037120E+04 0.  0.
        2    1    3    3  502    0  0.88095345057E+03 -0.30065337707E+03  0.10600292443E+04  0.14107208916E+04  0.25500000920E-02 0. -1.
       -2    1    3    3    0  502 -0.88095345057E+03  0.30065337707E+03 -0.17122279097E+04  0.19488960593E+04  0.25500000920E-02 0.  1.
</event>
<event>
 5   0  0.1126221E-06  0.3286253E+04  0.7818609E-02  0.8166402E-01
        2   -1    0    0  501    0  0.00000000000E+00  0.00000000000E+00  0.23485977172E+04  0.23485977172E+04  0.25500000920E-02 0. -1.
       -2   -1    0    0    0  501  0.00000000000E+00  0.00000000000E+00 -0.11495645663E+04  0.11495645663E+04  0.25500000920E-02 0.  1.
    10030    2    1    2    0    0  0.00000000000E+00  0.00000000000E+00  0.11990331509E+04  0.34981622835E+04  0.32862530129E+04 0.  0.
        2    1    3    3  502    0  0.59064916524E+03 -0.12222409481E+04  0.15850267770E+04  0.20868754767E+04  0.25500000920E-02 0. -1.
       -2    1    3    3    0  502 -0.59064916524E+03  0.12222409481E+04 -0.38599362604E+03  0.14112868068E+04  0.25500000920E-02 0.  1.
</event>
<event>
 5   0  0.1126221E-06  0.3366526E+04  0.7818609E-02  0.8146171E-01
        2   -1    0    0  501    0  0.00000000000E+00  0.00000000000E+00  0.16955370065E+04  0.16955370065E+04  0.25500000920E-02 0. -1.
       -2   -1    0    0    0  501  0.00000000000E+00  0.00000000000E+00 -0.16710776143E+04  0.16710776143E+04  0.25500000920E-02 0.  1.
    10030    2    1    2    0    0  0.00000000000E+00  0.00000000000E+00  0.24459392216E+02  0.33666146209E+04  0.33665257675E+04 0.  0.
        2    1    3    3  502    0 -0.15756274826E+04  0.46994689468E+03 -0.34822660673E+03  0.16806884951E+04  0.25500000920E-02 0.  1.
       -2    1    3    3    0  502  0.15756274826E+04 -0.46994689468E+03  0.37268599895E+03  0.16859261258E+04  0.25500000920E-02 0. -1.
</event>
<event>
 5   0  0.3749685E-07  0.3301763E+04  0.7818609E-02  0.8162447E-01
       -1   -1    0    0    0  501  0.00000000000E+00  0.00000000000E+00  0.17039140163E+04  0.17039140163E+04  0.50400001928E-02 0. -1.
        1   -1    0    0  501    0  0.00000000000E+00  0.00000000000E+00 -0.15994999412E+04  0.15994999412E+04  0.50400001928E-02 0.  1.
    10030    2    1    2    0    0  0.00000000000E+00  0.00000000000E+00  0.10441407510E+03  0.33034139575E+04  0.33017633888E+04 0.  0.
        3    1    3    3  502    0 -0.41117832471E+03 -0.17930728897E+03 -0.15373576777E+04  0.16014641295E+04  0.10100000352E+00 0.  1.
       -3    1    3    3    0  502  0.41117832471E+03  0.17930728897E+03  0.16417717528E+04  0.17019498280E+04  0.10100000352E+00 0. -1.
</event>
<event>
 5   0  0.3674967E-07  0.3177153E+04  0.7818609E-02  0.8194877E-01
       -1   -1    0    0    0  501  0.00000000000E+00  0.00000000000E+00  0.99697783135E+03  0.99697783136E+03  0.50400001928E-02 0. -1.
        1   -1    0    0  501    0  0.00000000000E+00  0.00000000000E+00 -0.25312257991E+04  0.25312257991E+04  0.50400001928E-02 0.  1.
    10030    2    1    2    0    0  0.00000000000E+00  0.00000000000E+00 -0.15342479677E+04  0.35282036304E+04  0.31771534479E+04 0.  0.
        2    1    3    3  502    0 -0.63484157499E+03  0.11349693774E+04 -0.17802900264E+04  0.22046795439E+04  0.25500000920E-02 0.  1.
       -2    1    3    3    0  502  0.63484157499E+03 -0.11349693774E+04  0.24604205868E+03  0.13235240866E+04  0.25500000920E-02 0. -1.
</event>
<event>
 5   0  0.1116462E-06  0.3299845E+04  0.7818609E-02  0.8162935E-01
       -2   -1    0    0    0  501  0.00000000000E+00  0.00000000000E+00  0.19275558231E+04  0.19275558231E+04  0.25500000920E-02 0.  1.
        2   -1    0    0  501    0  0.00000000000E+00  0.00000000000E+00 -0.14122778013E+04  0.14122778013E+04  0.25500000920E-02 0. -1.
    10030    2    1    2    0    0  0.00000000000E+00  0.00000000000E+00  0.51527802183E+03  0.33398336245E+04  0.32998450266E+04 0.  0.
        1    1    3    3  502    0  0.30943790887E+03 -0.10686342389E+04 -0.97553209796E+03  0.14796600387E+04  0.50400001928E-02 0. -1.
       -1    1    3    3    0  502 -0.30943790887E+03  0.10686342389E+04  0.14908101198E+04  0.18601735858E+04  0.50400001928E-02 0.  1.
</event>
<event>
 5   0  0.3709747E-07  0.3296826E+04  0.7818609E-02  0.8163703E-01
        1   -1    0    0  501    0  0.00000000000E+00  0.00000000000E+00  0.17411554518E+04  0.17411554518E+04  0.50400001928E-02 0.  1.
       -1   -1    0    0    0  501  0.00000000000E+00  0.00000000000E+00 -0.15606104467E+04  0.15606104467E+04  0.50400001928E-02 0. -1.
    10030    2    1    2    0    0  0.00000000000E+00  0.00000000000E+00  0.18054500517E+03  0.33017658985E+04  0.32968259811E+04 0.  0.
        4    1    3    3  502    0  0.31395057982E+03 -0.10296930889E+04 -0.11599693586E+04  0.15825180408E+04  0.12699999809E+01 0. -1.
       -4    1    3    3    0  502 -0.31395057982E+03  0.10296930889E+04  0.13405143637E+04  0.17192478577E+04  0.12699999809E+01 0.  1.
</event>
<event>
 5   0  0.1116462E-06  0.3283506E+04  0.7818609E-02  0.8167105E-01
       -2   -1    0    0    0  501  0.00000000000E+00  0.00000000000E+00  0.70717126413E+03  0.70717126414E+03  0.25500000920E-02 0. -1.
        2   -1    0    0  501    0  0.00000000000E+00  0.00000000000E+00 -0.38114574904E+04  0.38114574904E+04  0.25500000920E-02 0.  1.
    10030    2    1    2    0    0  0.00000000000E+00  0.00000000000E+00 -0.31042862262E+04  0.45186287545E+04  0.32835061819E+04 0.  0.
        1    1    3    3  502    0 -0.63216883856E+03  0.12083895643E+04 -0.28100391874E+04  0.31234857154E+04  0.50400001928E-02 0.  1.
       -1    1    3    3    0  502  0.63216883856E+03 -0.12083895643E+04 -0.29424703885E+03  0.13951430391E+04  0.50400001928E-02 0. -1.
</event>
<event>
 5   0  0.3757406E-07  0.3361855E+04  0.7818609E-02  0.8147332E-01
        1   -1    0    0  501    0  0.00000000000E+00  0.00000000000E+00  0.20903955482E+04  0.20903955482E+04  0.50400001928E-02 0.  1.
       -1   -1    0    0    0  501  0.00000000000E+00  0.00000000000E+00 -0.13516664031E+04  0.13516664031E+04  0.50400001928E-02 0. -1.
    10030    2    1    2    0    0  0.00000000000E+00  0.00000000000E+00  0.73872914508E+03  0.34420619513E+04  0.33618551020E+04 0.  0.
        1    1    3    3  502    0 -0.17778830858E+03 -0.10476822825E+04 -0.96411773181E+03  0.14348414019E+04  0.50400001928E-02 0. -1.
       -1    1    3    3    0  502  0.17778830858E+03  0.10476822825E+04  0.17028468769E+04  0.20072205494E+04  0.50400001928E-02 0.  1.
</event>
<event>
 5   0  0.1120545E-06  0.3248582E+04  0.7818609E-02  0.8176103E-01
        2   -1    0    0  501    0  0.00000000000E+00  0.00000000000E+00  0.15685850127E+04  0.15685850127E+04  0.25500000920E-02 0.  1.
       -2   -1    0    0    0  501  0.00000000000E+00  0.00000000000E+00 -0.16819755383E+04  0.16819755383E+04  0.25500000920E-02 0. -1.
    10030    2    1    2    0    0  0.00000000000E+00  0.00000000000E+00 -0.11339052564E+03  0.32505605510E+04  0.32485822268E+04 0.  0.
        4    1    3    3  502    0  0.12156374486E+03 -0.77085236324E+03  0.13687174127E+04  0.15755570693E+04  0.12699999809E+01 0.  1.
       -4    1    3    3    0  502 -0.12156374486E+03  0.77085236324E+03 -0.14821079383E+04  0.16750034817E+04  0.12699999809E+01 0. -1.
</event>
<event>
 5   0  0.1129434E-06  0.3281105E+04  0.7818609E-02  0.8167720E-01
        2   -1    0    0  501    0  0.00000000000E+00  0.00000000000E+00  0.14922006834E+04  0.14922006834E+04  0.25500000920E-02 0. -1.
       -2   -1    0    0    0  501  0.00000000000E+00  0.00000000000E+00 -0.18036534815E+04  0.18036534815E+04  0.25500000920E-02 0.  1.
    10030    2    1    2    0    0  0.00000000000E+00  0.00000000000E+00 -0.31145279810E+03  0.32958541648E+04  0.32811052757E+04 0.  0.
        3    1    3    3  502    0 -0.29172002926E+03  0.71352732120E+03  0.12989514581E+04  0.15104624173E+04  0.10100000352E+00 0. -1.
       -3    1    3    3    0  502  0.29172002926E+03 -0.71352732120E+03 -0.16104042562E+04  0.17853917475E+04  0.10100000352E+00 0.  1.
</event>
<event>
 5   0  0.1126221E-06  0.3298124E+04  0.7818609E-02  0.8163373E-01
        2   -1    0    0  501    0  0.00000000000E+00  0.00000000000E+00  0.11552893834E+04  0.11552893834E+04  0.25500000920E-02 0.  1.
       -2   -1    0    0    0  501  0.00000000000E+00  0.00000000000E+00 -0.23538739533E+04  0.23538739534E+04  0.25500000920E-02 0. -1.
    10030    2    1    2    0    0  0.00000000000E+00  0.00000000000E+00 -0.11985845699E+04  0.35091633368E+04  0.32981240657E+04 0.  0.
        2    1    3    3  502    0  0.84568480993E+03 -0.64300825460E+03 -0.19412516306E+04  0.22129392912E+04  0.25500000920E-02 0. -1.
       -2    1    3    3    0  502 -0.84568480993E+03  0.64300825460E+03  0.74266706070E+03  0.12962240456E+04  0.25500000920E-02 0.  1.
</event>
<event>
 5   0  0.1116462E-06  0.3013312E+04  0.7818609E-02  0.8239940E-01
        2   -1    0    0  501    0  0.00000000000E+00  0.00000000000E+00  0.16748127634E+04  0.16748127634E+04  0.25500000920E-02 0.  1.
       -2   -1    0    0    0  501  0.00000000000E+00  0.00000000000E+00 -0.13553828035E+04  0.13553828035E+04  0.25500000920E-02 0. -1.
    10030    2    1    2    0    0  0.00000000000E+00  0.00000000000E+00  0.31942995989E+03  0.30301955669E+04  0.30133120772E+04 0.  0.
        1    1    3    3  502    0  0.35229096737E+03 -0.12946769835E+04 -0.52948262805E+03  0.14424455868E+04  0.50400001928E-02 0. -1.
       -1    1    3    3    0  502 -0.35229096737E+03  0.12946769835E+04  0.84891258794E+03  0.15877499801E+04  0.50400001928E-02 0.  1.
</event>
<event>
 5   0  0.3709747E-07  0.3353832E+04  0.7818609E-02  0.8149331E-01
        1   -1    0    0  501    0  0.00000000000E+00  0.00000000000E+00  0.33288918970E+04  0.33288918970E+04  0.50400001928E-02 0.  1.
       -1   -1    0    0    0  501  0.00000000000E+00  0.00000000000E+00 -0.84473991221E+03  0.84473991222E+03  0.50400001928E-02 0. -1.
    10030    2    1    2    0    0  0.00000000000E+00  0.00000000000E+00  0.24841519848E+04  0.41736318093E+04  0.33538323446E+04 0.  0.
        4    1    3    3  502    0  0.26130881145E+03  0.16532462229E+04  0.11143112674E+04  0.20107701465E+04  0.12699999809E+01 0.  1.
       -4    1    3    3    0  502 -0.26130881145E+03 -0.16532462229E+04  0.13698407174E+04  0.21628616628E+04  0.12699999809E+01 0. -1.
</event>
<event>
 5   0  0.1126221E-06  0.3294771E+04  0.7818609E-02  0.8164227E-01
        2   -1    0    0  501    0  0.00000000000E+00  0.00000000000E+00  0.12046197002E+04  0.12046197002E+04  0.25500000920E-02 0. -1.
       -2   -1    0    0    0  501  0.00000000000E+00  0.00000000000E+00 -0.22528931553E+04  0.22528931553E+04  0.25500000920E-02 0.  1.
    10030    2    1    2    0    0  0.00000000000E+00  0.00000000000E+00 -0.10482734551E+04  0.34575128555E+04  0.32947712984E+04 0.  0.
        2    1    3    3  502    0 -0.57581907201E+03 -0.14927459797E+04 -0.93597712204E+03  0.18536211416E+04  0.25500000920E-02 0. -1.
       -2    1    3    3    0  502  0.57581907201E+03  0.14927459797E+04 -0.11229633303E+03  0.16038917139E+04  0.25500000920E-02 0.  1.
</event>
<event>
 5   0  0.3796529E-07  0.3311187E+04  0.7818609E-02  0.8160055E-01
       -1   -1    0    0    0  501  0.00000000000E+00  0.00000000000E+00  0.17505767597E+04  0.17505767597E+04  0.50400001928E-02 0. -1.
        1   -1    0    0  501    0  0.00000000000E+00  0.00000000000E+00 -0.15657641704E+04  0.15657641704E+04  0.50400001928E-02 0.  1.
    10030    2    1    2    0    0  0.00000000000E+00  0.00000000000E+00  0.18481258924E+03  0.33163409301E+04  0.33111873205E+04 0.  0.
        5    1    3    3  502    0  0.80324758603E+03  0.22329827541E+03  0.15249819476E+04  0.17380048431E+04  0.46999998093E+01 0. -1.
       -5    1    3    3    0  502 -0.80324758603E+03 -0.22329827541E+03 -0.13401693584E+04  0.15783360869E+04  0.46999998093E+01 0.  1.
</event>
<event>
 5   0  0.3709747E-07  0.3289874E+04  0.7818609E-02  0.8165477E-01
        1   -1    0    0  501    0  0.00000000000E+00  0.00000000000E+00  0.16952180038E+04  0.16952180038E+04  0.50400001928E-02 0. -1.
       -1   -1    0    0    0  501  0.00000000000E+00  0.00000000000E+00 -0.15961471853E+04  0.15961471853E+04  0.50400001928E-02 0.  1.
    10030    2    1    2    0    0  0.00000000000E+00  0.00000000000E+00  0.99070818531E+02  0.32913651891E+04  0.32898738244E+04 0.  0.
        4    1    3    3  502    0  0.14930238733E+04  0.18488904767E+03  0.71505240800E+03  0.16657148031E+04  0.12699999809E+01 0. -1.
       -4    1    3    3    0  502 -0.14930238733E+04 -0.18488904767E+03 -0.61598158947E+03  0.16256503860E+04  0.12699999809E+01 0.  1.
</event>
<event>
 5   0  0.3674967E-07  0.3314873E+04  0.7818609E-02  0.8159121E-01
       -1   -1    0    0    0  501  0.00000000000E+00  0.00000000000E+00  0.18025042733E+04  0.18025042733E+04  0.50400001928E-02 0.  1.
        1   -1    0    0  501    0  0.00000000000E+00  0.00000000000E+00 -0.15240440612E+04  0.15240440612E+04  0.50400001928E-02 0. -1.
    10030    2    1    2    0    0  0.00000000000E+00  0.00000000000E+00  0.27846021208E+03  0.33265483345E+04  0.33148731095E+04 0.  0.
        2    1    3    3  502    0 -0.95968119808E+03  0.12257576512E+04 -0.43165499241E+03  0.16154862593E+04  0.25500000920E-02 0. -1.
       -2    1    3    3    0  502  0.95968119808E+03 -0.12257576512E+04  0.71011520449E+03  0.17110620752E+04  0.25500000920E-02 0.  1.
</event>
<event>
 5   0  0.3796529E-07  0.3291962E+04  0.7818609E-02  0.8164944E-01
       -1   -1    0    0    0  501  0.00000000000E+00  0.00000000000E+00  0.12778138426E+04  0.12778138426E+04  0.50400001928E-02 0.  1.
        1   -1    0    0  501    0  0.00000000000E+00  0.00000000000E+00 -0.21202255025E+04  0.21202255025E+04  0.50400001928E-02 0. -1.
    10030    2    1    2    0    0  0.00000000000E+00  0.00000000000E+00 -0.84241165987E+03  0.33980393451E+04  0.32919620269E+04 0.  0.
        5    1    3    3  502    0  0.10115474340E+04 -0.10523863692E+04 -0.12062969401E+04  0.18936524705E+04  0.46999998093E+01 0. -1.
       -5    1    3    3    0  502 -0.10115474340E+04  0.10523863692E+04  0.36388528021E+03  0.15043868746E+04  0.46999998093E+01 0.  1.
</event>
<event>
 5   0  0.1129434E-06  0.3302004E+04  0.7818609E-02  0.8162386E-01
        2   -1    0    0  501    0  0.00000000000E+00  0.00000000000E+00  0.21216262948E+04  0.21216262948E+04  0.25500000920E-02 0.  1.
       -2   -1    0    0    0  501  0.00000000000E+00  0.00000000000E+00 -0.12847727275E+04  0.12847727275E+04  0.25500000920E-02 0. -1.
    10030    2    1    2    0    0  0.00000000000E+00  0.00000000000E+00  0.83685356721E+03  0.34063990223E+04  0.33020039985E+04 0.  0.
        3    1    3    3  502    0  0.80999711989E+03 -0.43621630456E+03 -0.99583798936E+03  0.13557556232E+04  0.10100000352E+00 0. -1.
       -3    1    3    3    0  502 -0.80999711989E+03  0.43621630456E+03  0.18326915566E+04  0.20506433991E+04  0.10100000352E+00 0.  1.
</event>
<event>
 5   0  0.1120545E-06  0.3250113E+04  0.7818609E-02  0.8175706E-01
        2   -1    0    0  501    0  0.00000000000E+00  0.00000000000E+00  0.18587470140E+04  0.18587470140E+04  0.25500000920E-02 0.  1.
       -2   -1    0    0    0  501  0.00000000000E+00  0.00000000000E+00 -0.14207467818E+04  0.14207467818E+04  0.25500000920E-02 0. -1.
    10030    2    1    2    0    0  0.00000000000E+00  0.00000000000E+00  0.43800023221E+03  0.32794937958E+04  0.32501131293E+04 0.  0.
        4    1    3    3  502    0  0.80455641212E+03  0.12211431546E+03  0.16383374117E+04  0.18293097097E+04  0.12699999809E+01 0.  1.
       -4    1    3    3    0  502 -0.80455641212E+03 -0.12211431546E+03 -0.12003371795E+04  0.14501840862E+04  0.12699999809E+01 0. -1.
</event>
<event>
 5   0  0.1146799E-06  0.3297474E+04  0.7818609E-02  0.8163538E-01
        2   -1    0    0  501    0  0.00000000000E+00  0.00000000000E+00  0.16719458216E+04  0.16719458216E+04  0.25500000920E-02 0.  1.
       -2   -1    0    0    0  501  0.00000000000E+00  0.00000000000E+00 -0.16258500846E+04  0.16258500846E+04  0.25500000920E-02 0. -1.
    10030    2    1    2    0    0  0.00000000000E+00  0.00000000000E+00  0.46095737034E+02  0.32977959062E+04  0.32974737333E+04 0.  0.
        5    1    3    3  502    0  0.22156418916E+03  0.11514878783E+04 -0.11360719021E+04  0.16326960772E+04  0.46999998093E+01 0. -1.
       -5    1    3    3    0  502 -0.22156418916E+03 -0.11514878783E+04  0.11821676391E+04  0.16650998290E+04  0.46999998093E+01 0.  1.
</event>
<event>
 5   0  0.3674967E-07  0.3279431E+04  0.7818609E-02  0.8168149E-01
       -1   -1    0    0    0  501  0.00000000000E+00  0.00000000000E+00  0.19235554062E+04  0.19235554062E+04  0.50400001928E-02 0. -1.
        1   -1    0    0  501    0  0.00000000000E+00  0.00000000000E+00 -0.13977589897E+04  0.13977589897E+04  0.50400001928E-02 0.  1.
    10030    2    1    2    0    0  0.00000000000E+00  0.00000000000E+00  0.52579641645E+03  0.33213143959E+04  0.32794309636E+04 0.  0.
        2    1    3    3  502    0  0.67720578642E+03 -0.33250483129E+03 -0.12115454333E+04  0.14272384093E+04  0.25500000920E-02 0.  1.
       -2    1    3    3    0  502 -0.67720578642E+03  0.33250483129E+03  0.17373418498E+04  0.18940759866E+04  0.25500000920E-02 0. -1.
</event>
<event>
 5   0  0.3674967E-07  0.3300798E+04  0.7818609E-02  0.8162692E-01
        1   -1    0    0  501    0  0.00000000000E+00  0.00000000000E+00  0.18139831275E+04  0.18139831275E+04  0.50400001928E-02 0. -1.
       -1   -1    0    0    0  501  0.00000000000E+00  0.00000000000E+00 -0.15015669830E+04  0.15015669830E+04  0.50400001928E-02 0.  1.
    10030    2    1    2    0    0  0.00000000000E+00  0.00000000000E+00  0.31241614445E+03  0.33155501105E+04  0.33007981895E+04 0.  0.
        2    1    3    3  502    0 -0.53895014819E+03  0.46735795460E+03 -0.13387061670E+04  0.15169129578E+04  0.25500000920E-02 0.  1.
       -2    1    3    3    0  502  0.53895014819E+03 -0.46735795460E+03  0.16511223114E+04  0.17986371527E+04  0.25500000920E-02 0. -1.
</event>
<event>
 5   0  0.3709747E-07  0.3287454E+04  0.7818609E-02  0.8166095E-01
        1   -1    0    0  501    0  0.00000000000E+00  0.00000000000E+00  0.24175373002E+04  0.24175373002E+04  0.50400001928E-02 0. -1.
       -1   -1    0    0    0  501  0.00000000000E+00  0.00000000000E+00 -0.11175992819E+04  0.11175992819E+04  0.50400001928E-02 0.  1.
    10030    2    1    2    0    0  0.00000000000E+00  0.00000000000E+00  0.12999380184E+04  0.35351365821E+04  0.32874536959E+04 0.  0.
        4    1    3    3  502    0 -0.40104779216E+03  0.70076841361E+03 -0.88965642530E+03  0.12014182740E+04  0.12699999809E+01 0.  1.
       -4    1    3    3    0  502  0.40104779216E+03 -0.70076841361E+03  0.21895944437E+04  0.23337183081E+04  0.12699999809E+01 0. -1.
</event>
<event>
 5   0  0.3749685E-07  0.3274345E+04  0.7818609E-02  0.8169454E-01
       -1   -1    0    0    0  501  0.00000000000E+00  0.00000000000E+00  0.19962013338E+04  0.19962013338E+04  0.50400001928E-02 0.  1.
        1   -1    0    0  501    0  0.00000000000E+00  0.00000000000E+00 -0.13427168552E+04  0.13427168552E+04  0.50400001928E-02 0. -1.
    10030    2    1    2    0    0  0.00000000000E+00  0.00000000000E+00  0.65348447858E+03  0.33389181890E+04  0.32743446228E+04 0.  0.
        3    1    3    3  502    0 -0.99020614230E+03  0.84743695205E+03 -0.68359272808E+03  0.14717189338E+04  0.10100000352E+00 0. -1.
       -3    1    3    3    0  502  0.99020614230E+03 -0.84743695205E+03  0.13370772067E+04  0.18671992552E+04  0.10100000352E+00 0.  1.
</event>
<event>
 5   0  0.1120545E-06  0.3313294E+04  0.7818609E-02  0.8159521E-01
        2   -1    0    0  501    0  0.00000000000E+00  0.00000000000E+00  0.27056930601E+04  0.27056930601E+04  0.25500000920E-02 0. -1.
       -2   -1    0    0    0  501  0.00000000000E+00  0.00000000000E+00 -0.10143349188E+04  0.10143349188E+04  0.25500000920E-02 0.  1.
    10030    2    1    2    0    0  0.00000000000E+00  0.00000000000E+00  0.16913581413E+04  0.37200279789E+04  0.33132937994E+04 0.  0.
        4    1    3    3  502    0 -0.15124012279E+04 -0.67575646530E+03  0.82125906501E+03  0.18489111226E+04  0.12699999809E+01 0.  1.
       -4    1    3    3    0  502  0.15124012279E+04  0.67575646530E+03  0.87009907631E+03  0.18711168563E+04  0.12699999809E+01 0. -1.
</event>
<event>
 5   0  0.1146799E-06  0.3312326E+04  0.7818609E-02  0.8159766E-01
       -2   -1    0    0    0  501  0.00000000000E+00  0.00000000000E+00  0.11639113442E+04  0.11639113442E+04  0.25500000920E-02 0. -1.
        2   -1    0    0  501    0  0.00000000000E+00  0.00000000000E+00 -0.23566017187E+04  0.23566017187E+04  0.25500000920E-02 0.  1.
    10030    2    1    2    0    0  0.00000000000E+00  0.00000000000E+00 -0.11926903745E+04  0.35205130629E+04  0.33123257534E+04 0.  0.
        5    1    3    3  502    0 -0.14300184427E+04 -0.57900036885E+03 -0.12364075271E+04  0.19770988434E+04  0.46999998093E+01 0. -1.
       -5    1    3    3    0  502  0.14300184427E+04  0.57900036885E+03  0.43717152627E+02  0.15434142195E+04  0.46999998093E+01 0.  1.
</event>
<event>
 5   0  0.3796529E-07  0.3297452E+04  0.7818609E-02  0.8163544E-01
       -1   -1    0    0    0  501  0.00000000000E+00  0.00000000000E+00  0.17410126470E+04  0.17410126470E+04  0.50400001928E-02 0.  1.
        1   -1    0    0  501    0  0.00000000000E+00  0.00000000000E+00 -0.15613314498E+04  0.15613314498E+04  0.50400001928E-02 0. -1.
    10030    2    1    2    0    0  0.00000000000E+00  0.00000000000E+00  0.17968119723E+03  0.33023440968E+04  0.32974522288E+04 0.  0.
        5    1    3    3  502    0  0.99401233629E+03  0.89337235913E+03 -0.87704546700E+03  0.15985635858E+04  0.46999998093E+01 0. -1.
       -5    1    3    3    0  502 -0.99401233629E+03 -0.89337235913E+03  0.10567266642E+04  0.17037805110E+04  0.46999998093E+01 0.  1.
</event>
<event>
 5   0  0.1116462E-06  0.3326778E+04  0.7818609E-02  0.8156115E-01
       -2   -1    0    0    0  501  0.00000000000E+00  0.00000000000E+00  0.14058380867E+04  0.14058380867E+04  0.25500000920E-02 0. -1.
        2   -1    0    0  501    0  0.00000000000E+00  0.00000000000E+00 -0.19681234796E+04  0.19681234796E+04  0.25500000920E-02 0.  1.
    10030    2    1    2    0    0  0.00000000000E+00  0.00000000000E+00 -0.56228539285E+03  0.33739615663E+04  0.33267779889E+04 0.  0.
        1    1    3    3  502    0  0.99275255399E+03 -0.54147562123E+03  0.95603975507E+03  0.14807989381E+04  0.50400001928E-02 0.  1.
       -1    1    3    3    0  502 -0.99275255399E+03  0.54147562123E+03 -0.15183251479E+04  0.18931626282E+04  0.50400001928E-02 0. -1.
</event>
<event>
 5   0  0.1126221E-06  0.2933476E+04  0.7818609E-02  0.8262986E-01
        2   -1    0    0  501    0  0.00000000000E+00  0.00000000000E+00  0.20056543697E+04  0.20056543697E+04  0.25500000920E-02 0.  1.
       -2   -1    0    0    0  501  0.00000000000E+00  0.00000000000E+00 -0.10726279557E+04  0.10726279557E+04  0.25500000920E-02 0. -1.
    10030    2    1    2    0    0  0.00000000000E+00  0.00000000000E+00  0.93302641396E+03  0.30782823254E+04  0.29334763993E+04 0.  0.
        2    1    3    3  502    0 -0.51977795700E+03 -0.48961862036E+03 -0.87791132564E+03  0.11316465056E+04  0.25500000920E-02 0. -1.
       -2    1    3    3    0  502  0.51977795700E+03  0.48961862036E+03  0.18109377396E+04  0.19466358197E+04  0.25500000920E-02 0.  1.
</event>
<event>
 5   0  0.1126221E-06  0.3293988E+04  0.7818609E-02  0.8164427E-01
        2   -1    0    0  501    0  0.00000000000E+00  0.00000000000E+00  0.22636375848E+04  0.22636375848E+04  0.25500000920E-02 0.  1.
       -2   -1    0    0    0  501  0.00000000000E+00  0.00000000000E+00 -0.11983316468E+04  0.11983316468E+04  0.25500000920E-02 0. -1.
    10030    2    1    2    0    0  0.00000000000E+00  0.00000000000E+00  0.10653059380E+04  0.34619692317E+04  0.32939875864E+04 0.  0.
        2    1    3    3  502    0  0.12528220035E+04 -0.50635316336E+03 -0.45697727714E+03  0.14264588078E+04  0.25500000920E-02 0. -1.
       -2    1    3    3    0  502 -0.12528220035E+04  0.50635316336E+03  0.15222832151E+04  0.20355104238E+04  0.25500000920E-02 0.  1.
</event>
<event>
 5   0  0.3709747E-07  0.3341553E+04  0.7818609E-02  0.8152402E-01
        1   -1    0    0  501    0  0.00000000000E+00  0.00000000000E+00  0.23666409243E+04  0.23666409243E+04  0.50400001928E-02 0. -1.
       -1   -1    0    0    0  501  0.00000000000E+00  0.00000000000E+00 -0.11795173867E+04  0.11795173868E+04  0.50400001928E-02 0.  1.
    10030    2    1    2    0    0  0.00000000000E+00  0.00000000000E+00  0.11871235375E+04  0.35461583110E+04  0.33415530033E+04 0.  0.
        4    1    3    3  502    0  0.14670237409E+04  0.79724492088E+03  0.65841316541E+03  0.17947890209E+04  0.12699999809E+01 0. -1.
       -4    1    3    3    0  502 -0.14670237409E+04 -0.79724492088E+03  0.52871037213E+03  0.17513692902E+04  0.12699999809E+01 0.  1.
</event>
<event>
 5   0  0.3757406E-07  0.3314787E+04  0.7818609E-02  0.8159143E-01
       -1   -1    0    0    0  501  0.00000000000E+00  0.00000000000E+00  0.13338190553E+04  0.13338190553E+04  0.50400001928E-02 0.  1.
        1   -1    0    0  501    0  0.00000000000E+00  0.00000000000E+00 -0.20594651884E+04  0.20594651884E+04  0.50400001928E-02 0. -1.
    10030    2    1    2    0    0  0.00000000000E+00  0.00000000000E+00 -0.72564613307E+03  0.33932842438E+04  0.33147874213E+04 0.  0.
        1    1    3    3  502    0  0.75205355192E+03 -0.39430665482E+03  0.10942209217E+04  0.13850565723E+04  0.50400001928E-02 0.  1.
       -1    1    3    3    0  502 -0.75205355192E+03  0.39430665482E+03 -0.18198670548E+04  0.20082276714E+04  0.50400001928E-02 0. -1.
</event>
<event>
 5   0  0.1146799E-06  0.3287314E+04  0.7818609E-02  0.8166131E-01
        2   -1    0    0  501    0  0.00000000000E+00  0.00000000000E+00  0.19625916760E+04  0.19625916760E+04  0.25500000920E-02 0.  1.
       -2   -1    0    0    0  501  0.00000000000E+00  0.00000000000E+00 -0.13765513607E+04  0.13765513607E+04  0.25500000920E-02 0. -1.
    10030    2    1    2    0    0  0.00000000000E+00  0.00000000000E+00  0.58604031529E+03  0.33391430367E+04  0.32873139443E+04 0.  0.
        5    1    3    3  502    0 -0.13592210460E+04 -0.25962075000E+02 -0.64535794019E+03  0.15048803415E+04  0.46999998093E+01 0. -1.
       -5    1    3    3    0  502  0.13592210460E+04  0.25962075000E+02  0.12313982555E+04  0.18342626952E+04  0.46999998093E+01 0.  1.
</event>
<event>
 5   0  0.3796529E-07  0.3283536E+04  0.7818609E-02  0.8167097E-01
       -1   -1    0    0    0  501  0.00000000000E+00  0.00000000000E+00  0.16562588089E+04  0.16562588089E+04  0.50400001928E-02 0. -1.
        1   -1    0    0  501    0  0.00000000000E+00  0.00000000000E+00 -0.16274042292E+04  0.16274042292E+04  0.50400001928E-02 0.  1.
    10030    2    1    2    0    0  0.00000000000E+00  0.00000000000E+00  0.28854579665E+02  0.32836630382E+04  0.32835362586E+04 0.  0.
        5    1    3    3  502    0 -0.97290297618E+03  0.45441631238E+03  0.12563875222E+04  0.16527450142E+04  0.46999998093E+01 0. -1.
       -5    1    3    3    0  502  0.97290297618E+03 -0.45441631238E+03 -0.12275329425E+04  0.16309180240E+04  0.46999998093E+01 0.  1.
</event>
<event>
 5   0  0.1126221E-06  0.3272173E+04  0.7818609E-02  0.8170012E-01
        2   -1    0    0  501    0  0.00000000000E+00  0.00000000000E+00  0.24572080926E+04  0.24572080926E+04  0.25500000920E-02 0.  1.
       -2   -1    0    0    0  501  0.00000000000E+00  0.00000000000E+00 -0.10893576430E+04  0.10893576430E+04  0.25500000920E-02 0. -1.
    10030    2    1    2    0    0  0.00000000000E+00  0.00000000000E+00  0.13678504496E+04  0.35465657356E+04  0.32721726215E+04 0.  0.
        2    1    3    3  502    0  0.13724485186E+01 -0.14471800786E+03 -0.10824062494E+04  0.10920386780E+04  0.25500000920E-02 0. -1.
       -2    1    3    3    0  502 -0.13724485186E+01  0.14471800786E+03  0.24502566990E+04  0.24545270576E+04  0.25500000920E-02 0.  1.
</event>
<event>
 5   0  0.1120545E-06  0.3326230E+04  0.7818609E-02  0.8156253E-01
       -2   -1    0    0    0  501  0.00000000000E+00  0.00000000000E+00  0.14675373283E+04  0.14675373283E+04  0.25500000920E-02 0.  1.
        2   -1    0    0  501    0  0.00000000000E+00  0.00000000000E+00 -0.18847574210E+04  0.18847574210E+04  0.25500000920E-02 0. -1.
    10030    2    1    2    0    0  0.00000000000E+00  0.00000000000E+00 -0.41722009271E+03  0.33522947493E+04  0.33262302206E+04 0.  0.
        4    1    3    3  502    0  0.12535465315E+03  0.10874923003E+04  0.10532381136E+04  0.15191002038E+04  0.12699999809E+01 0.  1.
       -4    1    3    3    0  502 -0.12535465315E+03 -0.10874923003E+04 -0.14704582063E+04  0.18331945455E+04  0.12699999809E+01 0. -1.
</event>
<event>
 5   0  0.3709747E-07  0.3299401E+04  0.7818609E-02  0.8163048E-01
        1   -1    0    0  501    0  0.00000000000E+00  0.00000000000E+00  0.18456880628E+04  0.18456880628E+04  0.50400001928E-02 0.  1.
       -1   -1    0    0    0  501  0.00000000000E+00  0.00000000000E+00 -0.14745246325E+04  0.14745246325E+04  0.50400001928E-02 0. -1.
    10030    2    1    2    0    0  0.00000000000E+00  0.00000000000E+00  0.37116343030E+03  0.33202126952E+04  0.32994014684E+04 0.  0.
        4    1    3    3  502    0 -0.82643136899E+03 -0.10958770228E+04 -0.73538251375E+03  0.15571526294E+04  0.12699999809E+01 0. -1.
       -4    1    3    3    0  502  0.82643136899E+03  0.10958770228E+04  0.11065459441E+04  0.17630600659E+04  0.12699999809E+01 0.  1.
</event>
<event>
 5   0  0.1146799E-06  0.3274845E+04  0.7818609E-02  0.8169326E-01
       -2   -1    0    0    0  501  0.00000000000E+00  0.00000000000E+00  0.12927970004E+04  0.12927970004E+04  0.25500000920E-02 0. -1.
        2   -1    0    0  501    0  0.00000000000E+00  0.00000000000E+00 -0.20739156810E+04  0.20739156810E+04  0.25500000920E-02 0.  1.
    10030    2    1    2    0    0  0.00000000000E+00  0.00000000000E+00 -0.78111868063E+03  0.33667126814E+04  0.32748447117E+04 0.  0.
        5    1    3    3  502    0 -0.10268742101E+04  0.87283252719E+03  0.56548682348E+03  0.14615418918E+04  0.46999998093E+01 0. -1.
       -5    1    3    3    0  502  0.10268742101E+04 -0.87283252719E+03 -0.13466055041E+04  0.19051707896E+04  0.46999998093E+01 0.  1.
</event>
<event>
 5   0  0.1129434E-06  0.3291753E+04  0.7818609E-02  0.8164997E-01
       -2   -1    0    0    0  501  0.00000000000E+00  0.00000000000E+00  0.15503492115E+04  0.15503492115E+04  0.25500000920E-02 0.  1.
        2   -1    0    0  501    0  0.00000000000E+00  0.00000000000E+00 -0.17472897248E+04  0.17472897248E+04  0.25500000920E-02 0. -1.
    10030    2    1    2    0    0  0.00000000000E+00  0.00000000000E+00 -0.19694051329E+03  0.32976389363E+04  0.32917528748E+04 0.  0.
        3    1    3    3  502    0  0.98773299641E+03 -0.64977850696E+03  0.10486014925E+04  0.15803144246E+04  0.10100000352E+00 0.  1.
       -3    1    3    3    0  502 -0.98773299641E+03  0.64977850696E+03 -0.12455420058E+04  0.17173245118E+04  0.10100000352E+00 0. -1.
</event>
<event>
 5   0  0.1120545E-06  0.3286874E+04  0.7818609E-02  0.8166243E-01
       -2   -1    0    0    0  501  0.00000000000E+00  0.00000000000E+00  0.19044799978E+04  0.19044799978E+04  0.25500000920E-02 0.  1.
        2   -1    0    0  501    0  0.00000000000E+00  0.00000000000E+00 -0.14181749737E+04  0.14181749737E+04  0.25500000920E-02 0. -1.
    10030    2    1    2    0    0  0.00000000000E+00  0.00000000000E+00  0.48630502415E+03  0.33226549715E+04  0.32868744246E+04 0.  0.
        4    1    3    3  502    0  0.16243615150E+04 -0.16322444593E+03  0.52173434562E+02  0.16333757165E+04  0.12699999809E+01 0.  1.
       -4    1    3    3    0  502 -0.16243615150E+04  0.16322444593E+03  0.43413158959E+03  0.16892792549E+04  0.12699999809E+01 0. -1.
</event>
<event>
 5   0  0.3674967E-07  0.3305063E+04  0.7818609E-02  0.8161608E-01
        1   -1    0    0  501    0  0.00000000000E+00  0.00000000000E+00  0.18989543542E+04  0.18989543542E+04  0.50400001928E-02 0. -1.
       -1   -1    0    0    0  501  0.00000000000E+00  0.00000000000E+00 -0.14380862602E+04  0.14380862602E+04  0.50400001928E-02 0.  1.
    10030    2    1    2    0    0  0.00000000000E+00  0.00000000000E+00  0.46086809397E+03  0.33370406144E+04  0.33050628832E+04 0.  0.
        2    1    3    3  502    0 -0.11994374030E+04 -0.56086600400E+02 -0.91592079211E+03  0.15102008767E+04  0.25500000920E-02 0.  1.
       -2    1    3    3    0  502  0.11994374030E+04  0.56086600400E+02  0.13767888861E+04  0.18268397377E+04  0.25500000920E-02 0. -1.
</event>
<event>
 5   0  0.1146799E-06  0.3295021E+04  0.7818609E-02  0.8164164E-01
       -2   -1    0    0    0  501  0.00000000000E+00  0.00000000000E+00  0.16279291492E+04  0.16279291492E+04  0.25500000920E-02 0. -1.
        2   -1    0    0  501    0  0.00000000000E+00  0.00000000000E+00 -0.16673269598E+04  0.16673269598E+04  0.25500000920E-02 0.  1.
    10030    2    1    2    0    0  0.00000000000E+00  0.00000000000E+00 -0.39397810557E+02  0.32952561090E+04  0.32950205821E+04 0.  0.
        5    1    3    3  502    0 -0.31612182897E+03 -0.51442463243E+03  0.15132845518E+04  0.16292998306E+04  0.46999998093E+01 0. -1.
       -5    1    3    3    0  502  0.31612182897E+03  0.51442463243E+03 -0.15526823624E+04  0.16659562784E+04  0.46999998093E+01 0.  1.
</event>
<event>
 5   0  0.3796529E-07  0.3301415E+04  0.7818609E-02  0.8162535E-01
       -1   -1    0    0    0  501  0.00000000000E+00  0.00000000000E+00  0.10752367190E+04  0.10752367190E+04  0.50400001928E-02 0.  1.
        1   -1    0    0  501    0  0.00000000000E+00  0.00000000000E+00 -0.25341728424E+04  0.25341728424E+04  0.50400001928E-02 0. -1.
    10030    2    1    2    0    0  0.00000000000E+00  0.00000000000E+00 -0.14589361234E+04  0.36094095614E+04  0.33014152677E+04 0.  0.
        5    1    3    3  502    0 -0.60341092744E+03 -0.15186331576E+04 -0.47432512474E+03  0.17015751023E+04  0.46999998093E+01 0.  1.
       -5    1    3    3    0  502  0.60341092744E+03  0.15186331576E+04 -0.98461099867E+03  0.19078344591E+04  0.46999998093E+01 0. -1.
</event>
<event>
 5   0  0.1120545E-06  0.3295868E+04  0.7818609E-02  0.8163947E-01
       -2   -1    0    0    0  501  0.00000000000E+00  0.00000000000E+00  0.21464737548E+04  0.21464737548E+04  0.25500000920E-02 0. -1.
        2   -1    0    0  501    0  0.00000000000E+00  0.00000000000E+00 -0.12651853687E+04  0.12651853687E+04  0.25500000920E-02 0.  1.
    10030    2    1    2    0    0  0.00000000000E+00  0.00000000000E+00  0.88128838605E+03  0.34116591235E+04  0.32958684372E+04 0.  0.
        4    1    3    3  502    0 -0.41844188967E+03 -0.38409829181E+03  0.20419438125E+04  0.21194719293E+04  0.12699999809E+01 0. -1.
       -4    1    3    3    0  502  0.41844188967E+03  0.38409829181E+03 -0.11606554265E+04  0.12921871941E+04  0.12699999809E+01 0.  1.
</event>
<event>
 5   0  0.3757406E-07  0.3266121E+04  0.7818609E-02  0.8171570E-01
        1   -1    0    0  501    0  0.00000000000E+00  0.00000000000E+00  0.23004176430E+04  0.23004176430E+04  0.50400001928E-02 0.  1.
       -1   -1    0    0    0  501  0.00000000000E+00  0.00000000000E+00 -0.11593055061E+04  0.11593055061E+04  0.50400001928E-02 0. -1.
    10030    2    1    2    0    0  0.00000000000E+00  0.00000000000E+00  0.11411121369E+04  0.34597231492E+04  0.32661211490E+04 0.  0.
        1    1    3    3  502    0  0.13651459952E+04  0.15617785601E+03  0.15054062740E+04  0.20382009618E+04  0.50400001928E-02 0.  1.
       -1    1    3    3    0  502 -0.13651459952E+04 -0.15617785601E+03 -0.36429413711E+03  0.14215221874E+04  0.50400001928E-02 0. -1.
</event>
<event>
 5   0  0.1146799E-06  0.3324667E+04  0.7818609E-02  0.8156647E-01
       -2   -1    0    0    0  501  0.00000000000E+00  0.00000000000E+00  0.13836260074E+04  0.13836260074E+04  0.25500000920E-02 0. -1.
        2   -1    0    0  501    0  0.00000000000E+00  0.00000000000E+00 -0.19971813420E+04  0.19971813420E+04  0.25500000920E-02 0.  1.
    10030    2    1    2    0    0  0.00000000000E+00  0.00000000000E+00 -0.61355533456E+03  0.33808073494E+04  0.33246666277E+04 0.  0.
        5    1    3    3  502    0  0.47890726153E+03  0.15908160120E+04 -0.24851970222E+03  0.16798309086E+04  0.46999998093E+01 0.  1.
       -5    1    3    3    0  502 -0.47890726153E+03 -0.15908160120E+04 -0.36503563234E+03  0.17009764408E+04  0.46999998093E+01 0. -1.
</event>
<event>
 5   0  0.3796529E-07  0.3300103E+04  0.7818609E-02  0.8162869E-01
        1   -1    0    0  501    0  0.00000000000E+00  0.00000000000E+00  0.20124268248E+04  0.20124268248E+04  0.50400001928E-02 0.  1.
       -1   -1    0    0    0  501  0.00000000000E+00  0.00000000000E+00 -0.13529284161E+04  0.13529284161E+04  0.50400001928E-02 0. -1.
    10030    2    1    2    0    0  0.00000000000E+00  0.00000000000E+00  0.65949840869E+03  0.33653552409E+04  0.33001026873E+04 0.  0.
        5    1    3    3  502    0  0.35324389479E+03  0.48068600576E+03 -0.12391133187E+04  0.13752324138E+04  0.46999998093E+01 0. -1.
       -5    1    3    3    0  502 -0.35324389479E+03 -0.48068600576E+03  0.18986117274E+04  0.19901228271E+04  0.46999998093E+01 0.  1.
</event>
<event>
 5   0  0.3796529E-07  0.3205381E+04  0.7818609E-02  0.8187397E-01
       -1   -1    0    0    0  501  0.00000000000E+00  0.00000000000E+00  0.94282974414E+03  0.94282974415E+03  0.50400001928E-02 0. -1.
        1   -1    0    0  501    0  0.00000000000E+00  0.00000000000E+00 -0.27243700584E+04  0.27243700585E+04  0.50400001928E-02 0.  1.
    10030    2    1    2    0    0  0.00000000000E+00  0.00000000000E+00 -0.17815403143E+04  0.36671998026E+04  0.32053811787E+04 0.  0.
        5    1    3    3  502    0 -0.15491909882E+04  0.40763999168E+03 -0.83435021828E+03  0.18061908696E+04  0.46999998093E+01 0. -1.
       -5    1    3    3    0  502  0.15491909882E+04 -0.40763999168E+03 -0.94719009603E+03  0.18610089330E+04  0.46999998093E+01 0.  1.
</event>
<event>
 5   0  0.1146799E-06  0.3256368E+04  0.7818609E-02  0.8174087E-01
        2   -1    0    0  501    0  0.00000000000E+00  0.00000000000E+00  0.17941200116E+04  0.17941200116E+04  0.25500000920E-02 0. -1.
       -2   -1    0    0    0  501  0.00000000000E+00  0.00000000000E+00 -0.14775951945E+04  0.14775951945E+04  0.25500000920E-02 0.  1.
    10030    2    1    2    0    0  0.00000000000E+00  0.00000000000E+00  0.31652481714E+03  0.32717152061E+04  0.32563679814E+04 0.  0.
        5    1    3    3  502    0 -0.95109172351E+03  0.60263819614E+03  0.13399060145E+04  0.17501766995E+04  0.46999998093E+01 0. -1.
       -5    1    3    3    0  502  0.95109172351E+03 -0.60263819614E+03 -0.10233811973E+04  0.15215385066E+04  0.46999998093E+01 0.  1.
</event>
<event>
 5   0  0.3757406E-07  0.3368859E+04  0.7818609E-02  0.8145592E-01
       -1   -1    0    0    0  501  0.00000000000E+00  0.00000000000E+00  0.13066922666E+04  0.13066922666E+04  0.50400001928E-02 0.  1.
        1   -1    0    0  501    0  0.00000000000E+00  0.00000000000E+00 -0.21713629316E+04  0.21713629316E+04  0.50400001928E-02 0. -1.
    10030    2    1    2    0    0  0.00000000000E+00  0.00000000000E+00 -0.86467066497E+03  0.34780551982E+04  0.33688592435E+04 0.  0.
        1    1    3    3  502    0  0.74764678742E+03  0.10963458984E+04  0.63876705637E+03  0.14727434943E+04  0.50400001928E-02 0. -1.
       -1    1    3    3    0  502 -0.74764678742E+03 -0.10963458984E+04 -0.15034377213E+04  0.20053117039E+04  0.50400001928E-02 0.  1.
</event>
<event>
 5   0  0.3709747E-07  0.3296234E+04  0.7818609E-02  0.8163854E-01
        1   -1    0    0  501    0  0.00000000000E+00  0.00000000000E+00  0.21462963379E+04  0.21462963379E+04  0.50400001928E-02 0. -1.
       -1   -1    0    0    0  501  0.00000000000E+00  0.00000000000E+00 -0.12655707097E+04  0.12655707097E+04  0.50400001928E-02 0.  1.
    10030    2    1    2    0    0  0.00000000000E+00  0.00000000000E+00  0.88072562821E+03  0.34118670477E+04  0.32962340813E+04 0.  0.
        4    1    3    3  502    0  0.11433082845E+04  0.10881926437E+04 -0.50587365622E+02  0.15792016203E+04  0.12699999809E+01 0.  1.
       -4    1    3    3    0  502 -0.11433082845E+04 -0.10881926437E+04  0.93131299383E+03  0.18326654273E+04  0.12699999809E+01 0. -1.
</event>
<event>
 5   0  0.3796529E-07  0.3295434E+04  0.7818609E-02  0.8164058E-01
       -1   -1    0    0    0  501  0.00000000000E+00  0.00000000000E+00  0.15123877858E+04  0.15123877858E+04  0.50400001928E-02 0.  1.
        1   -1    0    0  501    0  0.00000000000E+00  0.00000000000E+00 -0.17951557023E+04  0.17951557023E+04  0.50400001928E-02 0. -1.
    10030    2    1    2    0    0  0.00000000000E+00  0.00000000000E+00 -0.28276791653E+03  0.33075434881E+04  0.32954341491E+04 0.  0.
        5    1    3    3  502    0  0.73284660977E+03 -0.24260963681E+03  0.13196525075E+04  0.15288650757E+04  0.46999998093E+01 0.  1.
       -5    1    3    3    0  502 -0.73284660977E+03  0.24260963681E+03 -0.16024204240E+04  0.17786784124E+04  0.46999998093E+01 0. -1.
</event>
<event>
 5   0  0.3709747E-07  0.3291018E+04  0.7818609E-02  0.8165185E-01
        1   -1    0    0  501    0  0.00000000000E+00  0.00000000000E+00  0.14006890843E+04  0.14006890843E+04  0.50400001928E-02 0. -1.
       -1   -1    0    0    0  501  0.00000000000E+00  0.00000000000E+00 -0.19331201365E+04  0.19331201366E+04  0.50400001928E-02 0.  1.
    10030    2    1    2    0    0  0.00000000000E+00  0.00000000000E+00 -0.53243105228E+03  0.33338092208E+04  0.32910182460E+04 0.  0.
        4    1    3    3  502    0  0.10274061835E+04  0.12638769333E+04 -0.29185330046E+02  0.16290493439E+04  0.12699999809E+01 0.  1.
       -4    1    3    3    0  502 -0.10274061835E+04 -0.12638769333E+04 -0.50324572224E+03  0.17047598770E+04  0.12699999809E+01 0. -1.
</event>
<event>
 5   0  0.3709747E-07  0.3301080E+04  0.7818609E-02  0.8162621E-01
       -1   -1    0    0    0  501  0.00000000000E+00  0.00000000000E+00  0.14206896556E+04  0.14206896556E+04  0.50400001928E-02 0.  1.
        1   -1    0    0  501    0  0.00000000000E+00  0.00000000000E+00 -0.19175769495E+04  0.19175769495E+04  0.50400001928E-02 0. -1.
    10030    2    1    2    0    0  0.00000000000E+00  0.00000000000E+00 -0.49688729389E+03  0.33382666051E+04  0.33010796634E+04 0.  0.
        4    1    3    3  502    0 -0.19252386735E+03  0.48355311373E+03  0.13355316453E+04  0.14333650762E+04  0.12699999809E+01 0.  1.
       -4    1    3    3    0  502  0.19252386735E+03 -0.48355311373E+03 -0.18324189392E+04  0.19049015289E+04  0.12699999809E+01 0. -1.
</event>
<event>
 5   0  0.3709747E-07  0.3296024E+04  0.7818609E-02  0.8163908E-01
        1   -1    0    0  501    0  0.00000000000E+00  0.00000000000E+00  0.18440186518E+04  0.18440186518E+04  0.50400001928E-02 0.  1.
       -1   -1    0    0    0  501  0.00000000000E+00  0.00000000000E+00 -0.14728395302E+04  0.14728395302E+04  0.50400001928E-02 0. -1.
    10030    2    1    2    0    0  0.00000000000E+00  0.00000000000E+00  0.37117912163E+03  0.33168581820E+04  0.32960240077E+04 0.  0.
        4    1    3    3  502    0  0.69981299632E+03  0.70277094870E+03  0.15100841381E+04  0.18066490952E+04  0.12699999809E+01 0. -1.
       -4    1    3    3    0  502 -0.69981299632E+03 -0.70277094870E+03 -0.11389050165E+04  0.15102090868E+04  0.12699999809E+01 0.  1.
</event>
<event>
 5   0  0.3749685E-07  0.3292914E+04  0.7818609E-02  0.8164701E-01
       -1   -1    0    0    0  501  0.00000000000E+00  0.00000000000E+00  0.21231832231E+04  0.21231832231E+04  0.50400001928E-02 0.  1.
        1   -1    0    0  501    0  0.00000000000E+00  0.00000000000E+00 -0.12767721204E+04  0.12767721204E+04  0.50400001928E-02 0. -1.
    10030    2    1    2    0    0  0.00000000000E+00  0.00000000000E+00  0.84641110272E+03  0.33999553435E+04  0.32929142994E+04 0.  0.
        3    1    3    3  502    0 -0.50159322590E+03  0.12609024030E+04 -0.53949282490E+03  0.14603161139E+04  0.10100000352E+00 0. -1.
       -3    1    3    3    0  502  0.50159322590E+03 -0.12609024030E+04  0.13859039276E+04  0.19396392296E+04  0.10100000352E+00 0.  1.
</event>
<event>
 5   0  0.1126221E-06  0.3289741E+04  0.7818609E-02  0.8165511E-01
        2   -1    0    0  501    0  0.00000000000E+00  0.00000000000E+00  0.22587795339E+04  0.22587795339E+04  0.25500000920E-02 0. -1.
       -2   -1    0    0    0  501  0.00000000000E+00  0.00000000000E+00 -0.11978148838E+04  0.11978148838E+04  0.25500000920E-02 0.  1.
    10030    2    1    2    0    0  0.00000000000E+00  0.00000000000E+00  0.10609646501E+04  0.34565944177E+04  0.32897414761E+04 0.  0.
        2    1    3    3  502    0  0.77080398819E+03  0.69363764250E+03 -0.81112097537E+03  0.13165064390E+04  0.25500000920E-02 0.  1.
       -2    1    3    3    0  502 -0.77080398819E+03 -0.69363764250E+03  0.18720856255E+04  0.21400879787E+04  0.25500000920E-02 0. -1.
</event>
<event>
 5   0  0.3749685E-07  0.3274382E+04  0.7818609E-02  0.8169445E-01
       -1   -1    0    0    0  501  0.00000000000E+00  0.00000000000E+00  0.27548071970E+04  0.27548071970E+04  0.50400001928E-02 0.  1.
        1   -1    0    0  501    0  0.00000000000E+00  0.00000000000E+00 -0.97298808757E+03  0.97298808758E+03  0.50400001928E-02 0. -1.
    10030    2    1    2    0    0  0.00000000000E+00  0.00000000000E+00  0.17818191094E+04  0.37277952846E+04  0.32743821318E+04 0.  0.
        3    1    3    3  502    0 -0.83894270580E+03  0.10768189377E+04 -0.13815324162E+03  0.13720241312E+04  0.10100000352E+00 0.  1.
       -3    1    3    3    0  502  0.83894270580E+03 -0.10768189377E+04  0.19199723510E+04  0.23557711534E+04  0.10100000352E+00 0. -1.
</event>
<event>
 5   0  0.3757406E-07  0.3292243E+04  0.7818609E-02  0.8164872E-01
        1   -1    0    0  501    0  0.00000000000E+00  0.00000000000E+00  0.26436313987E+04  0.26436313987E+04  0.50400001928E-02 0.  1.
       -1   -1    0    0    0  501  0.00000000000E+00  0.00000000000E+00 -0.10249977029E+04  0.10249977029E+04  0.50400001928E-02 0. -1.
    10030    2    1    2    0    0  0.00000000000E+00  0.00000000000E+00  0.16186336959E+04  0.36686291016E+04  0.32922430718E+04 0.  0.
        1    1    3    3  502    0  0.84133451644E+03 -0.12250328887E+04  0.20451198537E+02  0.14862596000E+04  0.50400001928E-02 0. -1.
       -1    1    3    3    0  502 -0.84133451644E+03  0.12250328887E+04  0.15981824973E+04  0.21823695016E+04  0.50400001928E-02 0.  1.
</event>
<event>
 5   0  0.1146799E-06  0.3291370E+04  0.7818609E-02  0.8165095E-01
       -2   -1    0    0    0  501  0.00000000000E+00  0.00000000000E+00  0.11074165309E+04  0.11074165309E+04  0.25500000920E-02 0.  1.
        2   -1    0    0  501    0  0.00000000000E+00  0.00000000000E+00 -0.24455828463E+04  0.24455828463E+04  0.25500000920E-02 0. -1.
    10030    2    1    2    0    0  0.00000000000E+00  0.00000000000E+00 -0.13381663154E+04  0.35529993772E+04  0.32913698496E+04 0.  0.
        5    1    3    3  502    0 -0.48859567836E+03 -0.12788638688E+04 -0.16549344929E+04  0.21478009214E+04  0.46999998093E+01 0. -1.
       -5    1    3    3    0  502  0.48859567836E+03  0.12788638688E+04  0.31676817753E+03  0.14051984558E+04  0.46999998093E+01 0.  1.
</event>
<event>
 5   0  0.3674967E-07  0.3301087E+04  0.7818609E-02  0.8162619E-01
        1   -1    0    0  501    0  0.00000000000E+00  0.00000000000E+00  0.20522356276E+04  0.20522356276E+04  0.50400001928E-02 0.  1.
       -1   -1    0    0    0  501  0.00000000000E+00  0.00000000000E+00 -0.13274758919E+04  0.13274758919E+04  0.50400001928E-02 0. -1.
    10030    2    1    2    0    0  0.00000000000E+00  0.00000000000E+00  0.72475973567E+03  0.33797115195E+04  0.33010866818E+04 0.  0.
        2    1    3    3  502    0  0.87141864468E+03  0.49393664712E+03  0.17054749566E+04  0.19778747921E+04  0.25500000920E-02 0.  1.
       -2    1    3    3    0  502 -0.87141864468E+03 -0.49393664712E+03 -0.98071522095E+03  0.14018367274E+04  0.25500000920E-02 0. -1.
</event>
<event>
 5   0  0.3796529E-07  0.3289301E+04  0.7818609E-02  0.8165623E-01
       -1   -1    0    0    0  501  0.00000000000E+00  0.00000000000E+00  0.17481381258E+04  0.17481381258E+04  0.50400001928E-02 0.  1.
        1   -1    0    0  501    0  0.00000000000E+00  0.00000000000E+00 -0.15472891869E+04  0.15472891869E+04  0.50400001928E-02 0. -1.
    10030    2    1    2    0    0  0.00000000000E+00  0.00000000000E+00  0.20084893887E+03  0.32954273127E+04  0.32893009708E+04 0.  0.
        5    1    3    3  502    0  0.15694234060E+04 -0.32300196822E+02 -0.39112158014E+03  0.16177550218E+04  0.46999998093E+01 0. -1.
       -5    1    3    3    0  502 -0.15694234060E+04  0.32300196822E+02  0.59197051900E+03  0.16776722909E+04  0.46999998093E+01 0.  1.
</event>
<event>
 5   0  0.3709747E-07  0.3354520E+04  0.7818609E-02  0.8149160E-01
        1   -1    0    0  501    0  0.00000000000E+00  0.00000000000E+00  0.25045060031E+04  0.25045060031E+04  0.50400001928E-02 0. -1.
       -1   -1    0    0    0  501  0.00000000000E+00  0.00000000000E+00 -0.11232555644E+04  0.11232555644E+04  0.50400001928E-02 0.  1.
    10030    2    1    2    0    0  0.00000000000E+00  0.00000000000E+00  0.13812504387E+04  0.36277615675E+04  0.33545195210E+04 0.  0.
        4    1    3    3  502    0 -0.85489298492E+03  0.75490824149E+03 -0.63937535521E+03  0.13074903160E+04  0.12699999809E+01 0.  1.
       -4    1    3    3    0  502  0.85489298492E+03 -0.75490824149E+03  0.20206257939E+04  0.23202712515E+04  0.12699999809E+01 0. -1.
</event>
<event>
 5   0  0.3709747E-07  0.3294522E+04  0.7818609E-02  0.8164291E-01
        1   -1    0    0  501    0  0.00000000000E+00  0.00000000000E+00  0.16183362801E+04  0.16183362801E+04  0.50400001928E-02 0.  1.
       -1   -1    0    0    0  501  0.00000000000E+00  0.00000000000E+00 -0.16767023937E+04  0.16767023937E+04  0.50400001928E-02 0. -1.
    10030    2    1    2    0    0  0.00000000000E+00  0.00000000000E+00 -0.58366113654E+02  0.32950386738E+04  0.32945217041E+04 0.  0.
        4    1    3    3  502    0  0.50746201061E+03  0.77184703920E+03  0.13349228780E+04  0.16233564757E+04  0.12699999809E+01 0.  1.
       -4    1    3    3    0  502 -0.50746201061E+03 -0.77184703920E+03 -0.13932889917E+04  0.16716821981E+04  0.12699999809E+01 0. -1.
</event>
<event>
 5   0  0.1120545E-06  0.3316259E+04  0.7818609E-02  0.8158771E-01
       -2   -1    0    0    0  501  0.00000000000E+00  0.00000000000E+00  0.15414520004E+04  0.15414520004E+04  0.25500000920E-02 0. -1.
        2   -1    0    0  501    0  0.00000000000E+00  0.00000000000E+00 -0.17836383917E+04  0.17836383917E+04  0.25500000920E-02 0.  1.
    10030    2    1    2    0    0  0.00000000000E+00  0.00000000000E+00 -0.24218639131E+03  0.33250903920E+04  0.33162587153E+04 0.  0.
        4    1    3    3  502    0 -0.96405888534E+02  0.13745517106E+04  0.80369974710E+03  0.15951869473E+04  0.12699999809E+01 0. -1.
       -4    1    3    3    0  502  0.96405888534E+02 -0.13745517106E+04 -0.10458861384E+04  0.17299034447E+04  0.12699999809E+01 0.  1.
</event>
<event>
 5   0  0.3749685E-07  0.3302557E+04  0.7818609E-02  0.8162245E-01
       -1   -1    0    0    0  501  0.00000000000E+00  0.00000000000E+00  0.13927817177E+04  0.13927817177E+04  0.50400001928E-02 0. -1.
        1   -1    0    0  501    0  0.00000000000E+00  0.00000000000E+00 -0.19577512060E+04  0.19577512060E+04  0.50400001928E-02 0.  1.
    10030    2    1    2    0    0  0.00000000000E+00  0.00000000000E+00 -0.56496948830E+03  0.33505329237E+04  0.33025566385E+04 0.  0.
        3    1    3    3  502    0  0.44053510721E+03 -0.84140442782E+02  0.13298056213E+04  0.14034007965E+04  0.10100000352E+00 0. -1.
       -3    1    3    3    0  502 -0.44053510721E+03  0.84140442782E+02 -0.18947751096E+04  0.19471321273E+04  0.10100000352E+00 0.  1.
</event>
<event>
 5   0  0.1126221E-06  0.3113748E+04  0.7818609E-02  0.8211975E-01
        2   -1    0    0  501    0  0.00000000000E+00  0.00000000000E+00  0.14704809804E+04  0.14704809804E+04  0.25500000920E-02 0. -1.
       -2   -1    0    0    0  501  0.00000000000E+00  0.00000000000E+00 -0.16483430967E+04  0.16483430967E+04  0.25500000920E-02 0.  1.
    10030    2    1    2    0    0  0.00000000000E+00  0.00000000000E+00 -0.17786211624E+03  0.31188240771E+04  0.31137483346E+04 0.  0.
        2    1    3    3  502    0  0.85785219057E+03  0.12928689812E+04  0.39483192621E+02  0.15520887558E+04  0.25500000920E-02 0. -1.
       -2    1    3    3    0  502 -0.85785219057E+03 -0.12928689812E+04 -0.21734530886E+03  0.15667353212E+04  0.25500000920E-02 0.  1.
</event>
<event>
 5   0  0.1146799E-06  0.3290099E+04  0.7818609E-02  0.8165419E-01
        2   -1    0    0  501    0  0.00000000000E+00  0.00000000000E+00  0.23391458735E+04  0.23391458735E+04  0.25500000920E-02 0. -1.
       -2   -1    0    0    0  501  0.00000000000E+00  0.00000000000E+00 -0.11569130116E+04  0.11569130116E+04  0.25500000920E-02 0.  1.
    10030    2    1    2    0    0  0.00000000000E+00  0.00000000000E+00  0.11822328619E+04  0.34960588851E+04  0.32900992673E+04 0.  0.
        5    1    3    3  502    0 -0.14690728487E+04  0.48360759666E+03 -0.44277452068E+01  0.15466392719E+04  0.46999998093E+01 0.  1.
       -5    1    3    3    0  502  0.14690728487E+04 -0.48360759666E+03  0.11866606071E+04  0.19494196133E+04  0.46999998093E+01 0. -1.
</event>
<event>
 5   0  0.1129434E-06  0.3320955E+04  0.7818609E-02  0.8157584E-01
        2   -1    0    0  501    0  0.00000000000E+00  0.00000000000E+00  0.16260314945E+04  0.16260314945E+04  0.25500000920E-02 0.  1.
       -2   -1    0    0    0  501  0.00000000000E+00  0.00000000000E+00 -0.16956531763E+04  0.16956531763E+04  0.25500000920E-02 0. -1.
    10030    2    1    2    0    0  0.00000000000E+00  0.00000000000E+00 -0.69621681853E+02  0.33216846708E+04  0.33209549641E+04 0.  0.
        3    1    3    3  502    0  0.13800052199E+04 -0.12566085808E+03 -0.94987819173E+03  0.16800219187E+04  0.10100000352E+00 0. -1.
       -3    1    3    3    0  502 -0.13800052199E+04  0.12566085808E+03  0.88025650988E+03  0.16416627520E+04  0.10100000352E+00 0.  1.
</event>
<event>
 5   0  0.3674967E-07  0.3308159E+04  0.7818609E-02  0.8160822E-01
        1   -1    0    0  501    0  0.00000000000E+00  0.00000000000E+00  0.18601065170E+04  0.18601065170E+04  0.50400001928E-02 0.  1.
       -1   -1    0    0    0  501  0.00000000000E+00  0.00000000000E+00 -0.14708725023E+04  0.14708725023E+04  0.50400001928E-02 0. -1.
    10030    2    1    2    0    0  0.00000000000E+00  0.00000000000E+00  0.38923401466E+03  0.33309790193E+04  0.33081593234E+04 0.  0.
        2    1    3    3  502    0  0.15394389977E+04 -0.15692411977E+03 -0.39377848558E+03  0.15967338860E+04  0.25500000920E-02 0. -1.
       -2    1    3    3    0  502 -0.15394389977E+04  0.15692411977E+03  0.78301250024E+03  0.17342451333E+04  0.25500000920E-02 0.  1.
</event>
<event>
 5   0  0.1129434E-06  0.3273504E+04  0.7818609E-02  0.8169670E-01
        2   -1    0    0  501    0  0.00000000000E+00  0.00000000000E+00  0.96744711427E+03  0.96744711428E+03  0.25500000920E-02 0. -1.
       -2   -1    0    0    0  501  0.00000000000E+00  0.00000000000E+00 -0.27690993129E+04  0.27690993129E+04  0.25500000920E-02 0.  1.
    10030    2    1    2    0    0  0.00000000000E+00  0.00000000000E+00 -0.18016521986E+04  0.37365464271E+04  0.32735040182E+04 0.  0.
        3    1    3    3  502    0  0.59254093879E+03  0.14049133714E+02  0.84064715333E+03  0.10285863060E+04  0.10100000352E+00 0. -1.
       -3    1    3    3    0  502 -0.59254093879E+03 -0.14049133714E+02 -0.26422993519E+04  0.27079601211E+04  0.10100000352E+00 0.  1.
</event>
<event>
 5   0  0.3796529E-07  0.3526724E+04  0.7818609E-02  0.8107486E-01
       -1   -1    0    0    0  501  0.00000000000E+00  0.00000000000E+00  0.16730363523E+04  0.16730363523E+04  0.50400001928E-02 0. -1.
        1   -1    0    0  501    0  0.00000000000E+00  0.00000000000E+00 -0.18585638990E+04  0.18585638990E+04  0.50400001928E-02 0.  1.
    10030    2    1    2    0    0  0.00000000000E+00  0.00000000000E+00 -0.18552754667E+03  0.35316002514E+04  0.35267236729E+04 0.  0.
        5    1    3    3  502    0  0.56437284604E+03  0.68806845583E+03 -0.16171919800E+04  0.18458837719E+04  0.46999998093E+01 0.  1.
       -5    1    3    3    0  502 -0.56437284604E+03 -0.68806845583E+03  0.14316644334E+04  0.16857164794E+04  0.46999998093E+01 0. -1.
</event>
<event>
 5   0  0.3749685E-07  0.3323187E+04  0.7818609E-02  0.8157020E-01
        1   -1    0    0  501    0  0.00000000000E+00  0.00000000000E+00  0.23069932221E+04  0.23069932221E+04  0.50400001928E-02 0.  1.
       -1   -1    0    0    0  501  0.00000000000E+00  0.00000000000E+00 -0.11967498064E+04  0.11967498064E+04  0.50400001928E-02 0. -1.
    10030    2    1    2    0    0  0.00000000000E+00  0.00000000000E+00  0.11102434157E+04  0.35037430285E+04  0.33231874409E+04 0.  0.
        3    1    3    3  502    0  0.12069751970E+04  0.78952900394E+03  0.14250245658E+04  0.20275207021E+04  0.10100000352E+00 0.  1.
       -3    1    3    3    0  502 -0.12069751970E+04 -0.78952900394E+03 -0.31478115012E+03  0.14762223264E+04  0.10100000352E+00 0. -1.
</event>
<event>
 5   0  0.3757406E-07  0.3264902E+04  0.7818609E-02  0.8171884E-01
       -1   -1    0    0    0  501  0.00000000000E+00  0.00000000000E+00  0.10863565667E+04  0.10863565668E+04  0.50400001928E-02 0.  1.
        1   -1    0    0  501    0  0.00000000000E+00  0.00000000000E+00 -0.24530585549E+04  0.24530585549E+04  0.50400001928E-02 0. -1.
    10030    2    1    2    0    0  0.00000000000E+00  0.00000000000E+00 -0.13667019882E+04  0.35394151217E+04  0.32649020014E+04 0.  0.
        1    1    3    3  502    0  0.93267003235E+03 -0.42943443068E+03 -0.20591544815E+04  0.23009573004E+04  0.50400001928E-02 0. -1.
       -1    1    3    3    0  502 -0.93267003235E+03  0.42943443068E+03  0.69245249335E+03  0.12384578213E+04  0.50400001928E-02 0.  1.
</event>
<event>
 5   0  0.1120545E-06  0.3311825E+04  0.7818609E-02  0.8159893E-01
       -2   -1    0    0    0  501  0.00000000000E+00  0.00000000000E+00  0.13870530433E+04  0.13870530433E+04  0.25500000920E-02 0.  1.
        2   -1    0    0  501    0  0.00000000000E+00  0.00000000000E+00 -0.19768862815E+04  0.19768862815E+04  0.25500000920E-02 0. -1.
    10030    2    1    2    0    0  0.00000000000E+00  0.00000000000E+00 -0.58983323820E+03  0.33639393248E+04  0.33118249550E+04 0.  0.
        4    1    3    3  502    0  0.15561551450E+02  0.92354106089E+03 -0.16909066105E+04  0.19267425961E+04  0.12699999809E+01 0. -1.
       -4    1    3    3    0  502 -0.15561551450E+02 -0.92354106089E+03  0.11010733723E+04  0.14371967288E+04  0.12699999809E+01 0.  1.
</event>
<event>
 5   0  0.3709747E-07  0.3085555E+04  0.7818609E-02  0.8219713E-01
        1   -1    0    0  501    0  0.00000000000E+00  0.00000000000E+00  0.17345321165E+04  0.17345321165E+04  0.50400001928E-02 0.  1.
       -1   -1    0    0    0  501  0.00000000000E+00  0.00000000000E+00 -0.13722214753E+04  0.13722214753E+04  0.50400001928E-02 0. -1.
    10030    2    1    2    0    0  0.00000000000E+00  0.00000000000E+00  0.36231064120E+03  0.31067535918E+04  0.30855548739E+04 0.  0.
        4    1    3    3  502    0 -0.46689488499E+02  0.72727342158E+03 -0.11879861970E+04  0.13937070550E+04  0.12699999809E+01 0. -1.
       -4    1    3    3    0  502  0.46689488499E+02 -0.72727342158E+03  0.15502968382E+04  0.17130465368E+04  0.12699999809E+01 0.  1.
</event>
<event>
 5   0  0.3674967E-07  0.3303567E+04  0.7818609E-02  0.8161988E-01
       -1   -1    0    0    0  501  0.00000000000E+00  0.00000000000E+00  0.13920100087E+04  0.13920100087E+04  0.50400001928E-02 0. -1.
        1   -1    0    0  501    0  0.00000000000E+00  0.00000000000E+00 -0.19600352302E+04  0.19600352302E+04  0.50400001928E-02 0.  1.
    10030    2    1    2    0    0  0.00000000000E+00  0.00000000000E+00 -0.56802522155E+03  0.33520452389E+04  0.33035669558E+04 0.  0.
        2    1    3    3  502    0 -0.90639675466E+03  0.28207022591E+03 -0.16556146310E+04  0.19084492384E+04  0.25500000920E-02 0.  1.
       -2    1    3    3    0  502  0.90639675466E+03 -0.28207022591E+03  0.10875894094E+04  0.14435960005E+04  0.25500000920E-02 0. -1.
</event>
<event>
 5   0  0.3796529E-07  0.3322227E+04  0.7818609E-02  0.8157263E-01
        1   -1    0    0  501    0  0.00000000000E+00  0.00000000000E+00  0.21154916068E+04  0.21154916068E+04  0.50400001928E-02 0. -1.
       -1   -1    0    0    0  501  0.00000000000E+00  0.00000000000E+00 -0.13043294618E+04  0.13043294619E+04  0.50400001928E-02 0.  1.
    10030    2    1    2    0    0  0.00000000000E+00  0.00000000000E+00  0.81116214496E+03  0.34198210687E+04  0.33222269814E+04 0.  0.
        5    1    3    3  502    0  0.79204713522E+03  0.35150124521E+03 -0.10532247066E+04  0.13638900844E+04  0.46999998093E+01 0.  1.
       -5    1    3    3    0  502 -0.79204713522E+03 -0.35150124521E+03  0.18643868515E+04  0.20559309843E+04  0.46999998093E+01 0. -1.
</event>
<event>
 5   0  0.1126221E-06  0.3332021E+04  0.7818609E-02  0.8154795E-01
       -2   -1    0    0    0  501  0.00000000000E+00  0.00000000000E+00  0.12650896431E+04  0.12650896431E+04  0.25500000920E-02 0.  1.
        2   -1    0    0  501    0  0.00000000000E+00  0.00000000000E+00 -0.21939881567E+04  0.21939881567E+04  0.25500000920E-02 0. -1.
    10030    2    1    2    0    0  0.00000000000E+00  0.00000000000E+00 -0.92889851362E+03  0.34590777998E+04  0.33320214249E+04 0.  0.
        2    1    3    3  502    0  0.15123687105E+04 -0.69657711524E+03 -0.40652837901E+03  0.17139848648E+04  0.25500000920E-02 0.  1.
       -2    1    3    3    0  502 -0.15123687105E+04  0.69657711524E+03 -0.52237013460E+03  0.17450929349E+04  0.25500000920E-02 0. -1.
</event>
<event>
 5   0  0.1120545E-06  0.3243153E+04  0.7818609E-02  0.8177513E-01
       -2   -1    0    0    0  501  0.00000000000E+00  0.00000000000E+00  0.14252683505E+04  0.14252683505E+04  0.25500000920E-02 0.  1.
        2   -1    0    0  501    0  0.00000000000E+00  0.00000000000E+00 -0.18449228226E+04  0.18449228226E+04  0.25500000920E-02 0. -1.
    10030    2    1    2    0    0  0.00000000000E+00  0.00000000000E+00 -0.41965447207E+03  0.32701911731E+04  0.32431528537E+04 0.  0.
        4    1    3    3  502    0 -0.13199626060E+04 -0.59781087814E+03  0.52413503798E+03  0.15409082641E+04  0.12699999809E+01 0.  1.
       -4    1    3    3    0  502  0.13199626060E+04  0.59781087814E+03 -0.94378951005E+03  0.17292829090E+04  0.12699999809E+01 0. -1.
</event>
<event>
 5   0  0.1126221E-06  0.3318412E+04  0.7818609E-02  0.8158226E-01
        2   -1    0    0  501    0  0.00000000000E+00  0.00000000000E+00  0.12474674151E+04  0.12474674151E+04  0.25500000920E-02 0.  1.
       -2   -1    0    0    0  501  0.00000000000E+00  0.00000000000E+00 -0.22068423842E+04  0.22068423842E+04  0.25500000920E-02 0. -1.
    10030    2    1    2    0    0  0.00000000000E+00  0.00000000000E+00 -0.95937496910E+03  0.34543097993E+04  0.33184116469E+04 0.  0.
        2    1    3    3  502    0  0.19127884341E+01  0.13425295772E+04  0.53521458362E+03  0.14452833546E+04  0.25500000920E-02 0.  1.
       -2    1    3    3    0  502 -0.19127884341E+01 -0.13425295772E+04 -0.14945895527E+04  0.20090264447E+04  0.25500000920E-02 0. -1.
</event>
<event>
 5   0  0.3709747E-07  0.3289772E+04  0.7818609E-02  0.8165503E-01
        1   -1    0    0  501    0  0.00000000000E+00  0.00000000000E+00  0.20383155142E+04  0.20383155142E+04  0.50400001928E-02 0. -1.
       -1   -1    0    0    0  501  0.00000000000E+00  0.00000000000E+00 -0.13273949527E+04  0.13273949527E+04  0.50400001928E-02 0.  1.
    10030    2    1    2    0    0  0.00000000000E+00  0.00000000000E+00  0.71092056152E+03  0.33657104669E+04  0.32897718618E+04 0.  0.
        4    1    3    3  502    0  0.23251123457E+03  0.15870743955E+04 -0.17343029033E+02  0.16041100351E+04  0.12699999809E+01 0.  1.
       -4    1    3    3    0  502 -0.23251123457E+03 -0.15870743955E+04  0.72826359055E+03  0.17616004318E+04  0.12699999809E+01 0. -1.
</event>
<event>
 5   0  0.1146799E-06  0.3291916E+04  0.7818609E-02  0.8164956E-01
       -2   -1    0    0    0  501  0.00000000000E+00  0.00000000000E+00  0.14431309626E+04  0.14431309626E+04  0.25500000920E-02 0.  1.
        2   -1    0    0  501    0  0.00000000000E+00  0.00000000000E+00 -0.18772912304E+04  0.18772912304E+04  0.25500000920E-02 0. -1.
    10030    2    1    2    0    0  0.00000000000E+00  0.00000000000E+00 -0.43416026783E+03  0.33204221929E+04  0.32919156127E+04 0.  0.
        5    1    3    3  502    0  0.51065218151E+03 -0.14827231293E+04 -0.72133071542E+03  0.17261441480E+04  0.46999998093E+01 0. -1.
       -5    1    3    3    0  502 -0.51065218151E+03  0.14827231293E+04  0.28717044758E+03  0.15942780449E+04  0.46999998093E+01 0.  1.
</event>
<event>
 5   0  0.3674967E-07  0.3331224E+04  0.7818609E-02  0.8154996E-01
        1   -1    0    0  501    0  0.00000000000E+00  0.00000000000E+00  0.33199730098E+04  0.33199730098E+04  0.50400001928E-02 0. -1.
       -1   -1    0    0    0  501  0.00000000000E+00  0.00000000000E+00 -0.83562833146E+03  0.83562833148E+03  0.50400001928E-02 0.  1.
    10030    2    1    2    0    0  0.00000000000E+00  0.00000000000E+00  0.24843446783E+04  0.41556013413E+04  0.33312241034E+04 0.  0.
        2    1    3    3  502    0 -0.13065503186E+04  0.74374955216E+03  0.34779099972E+03  0.15431123455E+04  0.25500000920E-02 0.  1.
       -2    1    3    3    0  502  0.13065503186E+04 -0.74374955216E+03  0.21365536786E+04  0.26124889958E+04  0.25500000920E-02 0. -1.
</event>
<event>
 5   0  0.3757406E-07  0.3300966E+04  0.7818609E-02  0.8162650E-01
       -1   -1    0    0    0  501  0.00000000000E+00  0.00000000000E+00  0.29312120420E+04  0.29312120420E+04  0.50400001928E-02 0. -1.
        1   -1    0    0  501    0  0.00000000000E+00  0.00000000000E+00 -0.92934032560E+03  0.92934032562E+03  0.50400001928E-02 0.  1.
    10030    2    1    2    0    0  0.00000000000E+00  0.00000000000E+00  0.20018717164E+04  0.38605523676E+04  0.33009656488E+04 0.  0.
        1    1    3    3  502    0 -0.94070507976E+02  0.16402721907E+04  0.11849319594E+04  0.20256865178E+04  0.50400001928E-02 0.  1.
       -1    1    3    3    0  502  0.94070507976E+02 -0.16402721907E+04  0.81693975701E+03  0.18348658498E+04  0.50400001928E-02 0. -1.
</event>
<event>
 5   0  0.3796529E-07  0.3265624E+04  0.7818609E-02  0.8171698E-01
       -1   -1    0    0    0  501  0.00000000000E+00  0.00000000000E+00  0.19068162527E+04  0.19068162527E+04  0.50400001928E-02 0. -1.
        1   -1    0    0  501    0  0.00000000000E+00  0.00000000000E+00 -0.13981818277E+04  0.13981818277E+04  0.50400001928E-02 0.  1.
    10030    2    1    2    0    0  0.00000000000E+00  0.00000000000E+00  0.50863442502E+03  0.33049980804E+04  0.32656244936E+04 0.  0.
        5    1    3    3  502    0 -0.75991920997E+03  0.51468003418E+03  0.16210367523E+04  0.18628352009E+04  0.46999998093E+01 0. -1.
       -5    1    3    3    0  502  0.75991920997E+03 -0.51468003418E+03 -0.11124023273E+04  0.14421628795E+04  0.46999998093E+01 0.  1.
</event>
<event>
 5   0  0.3709747E-07  0.3080369E+04  0.7818609E-02  0.8221146E-01
        1   -1    0    0  501    0  0.00000000000E+00  0.00000000000E+00  0.20491034788E+04  0.20491034788E+04  0.50400001928E-02 0.  1.
       -1   -1    0    0    0  501  0.00000000000E+00  0.00000000000E+00 -0.11576612460E+04  0.11576612460E+04  0.50400001928E-02 0. -1.
    10030    2    1    2    0    0  0.00000000000E+00  0.00000000000E+00  0.89144223280E+03  0.32067647249E+04  0.30803686056E+04 0.  0.
        4    1    3    3  502    0 -0.31222748108E+03 -0.12774889082E+04 -0.38886141425E+03  0.13713784026E+04  0.12699999809E+01 0. -1.
       -4    1    3    3    0  502  0.31222748108E+03  0.12774889082E+04  0.12803036471E+04  0.18353863223E+04  0.12699999809E+01 0.  1.
</event>
<event>
 5   0  0.1116462E-06  0.3331711E+04  0.7818609E-02  0.8154873E-01
       -2   -1    0    0    0  501  0.00000000000E+00  0.00000000000E+00  0.25453689065E+04  0.25453689065E+04  0.25500000920E-02 0. -1.
        2   -1    0    0  501    0  0.00000000000E+00  0.00000000000E+00 -0.10902444492E+04  0.10902444492E+04  0.25500000920E-02 0.  1.
    10030    2    1    2    0    0  0.00000000000E+00  0.00000000000E+00  0.14551244574E+04  0.36356133557E+04  0.33317108646E+04 0.  0.
        1    1    3    3  502    0 -0.27160234503E+03  0.71321794278E+02 -0.10642315446E+04  0.11006559011E+04  0.50400001928E-02 0.  1.
       -1    1    3    3    0  502  0.27160234503E+03 -0.71321794278E+02  0.25193560019E+04  0.25349574546E+04  0.50400001928E-02 0. -1.
</event>
<event>
 5   0  0.3757406E-07  0.3290893E+04  0.7818609E-02  0.8165216E-01
        1   -1    0    0  501    0  0.00000000000E+00  0.00000000000E+00  0.28039466515E+04  0.28039466515E+04  0.50400001928E-02 0. -1.
       -1   -1    0    0    0  501  0.00000000000E+00  0.00000000000E+00 -0.96560139241E+03  0.96560139243E+03  0.50400001928E-02 0.  1.
    10030    2    1    2    0    0  0.00000000000E+00  0.00000000000E+00  0.18383452591E+04  0.37695480440E+04  0.32908933687E+04 0.  0.
        1    1    3    3  502    0  0.12648383508E+04  0.97526910225E+03  0.46599051599E+03  0.16637647179E+04  0.50400001928E-02 0. -1.
       -1    1    3    3    0  502 -0.12648383508E+04 -0.97526910225E+03  0.13723547431E+04  0.21057833261E+04  0.50400001928E-02 0.  1.
</event>
<event>
 5   0  0.1129434E-06  0.3314273E+04  0.7818609E-02  0.8159273E-01
       -2   -1    0    0    0  501  0.00000000000E+00  0.00000000000E+00  0.25496663024E+04  0.25496663024E+04  0.25500000920E-02 0.  1.
        2   -1    0    0  501    0  0.00000000000E+00  0.00000000000E+00 -0.10770434368E+04  0.10770434368E+04  0.25500000920E-02 0. -1.
    10030    2    1    2    0    0  0.00000000000E+00  0.00000000000E+00  0.14726228656E+04  0.36267097392E+04  0.33142729863E+04 0.  0.
        3    1    3    3  502    0 -0.84992260063E+03 -0.15363329046E+03 -0.81127033401E+03  0.11849604129E+04  0.10100000352E+00 0. -1.
       -3    1    3    3    0  502  0.84992260063E+03  0.15363329046E+03  0.22838931996E+04  0.24417493263E+04  0.10100000352E+00 0.  1.
</event>
<event>
 5   0  0.1116462E-06  0.3305485E+04  0.7818609E-02  0.8161501E-01
        2   -1    0    0  501    0  0.00000000000E+00  0.00000000000E+00  0.15050033379E+04  0.15050033379E+04  0.25500000920E-02 0.  1.
       -2   -1    0    0    0  501  0.00000000000E+00  0.00000000000E+00 -0.18149844158E+04  0.18149844158E+04  0.25500000920E-02 0. -1.
    10030    2    1    2    0    0  0.00000000000E+00  0.00000000000E+00 -0.30998107788E+03  0.33199877537E+04  0.33054848988E+04 0.  0.
        1    1    3    3  502    0 -0.80222417947E+03 -0.11437515342E+04 -0.10419428518E+04  0.17428069636E+04  0.50400001928E-02 0. -1.
       -1    1    3    3    0  502  0.80222417947E+03  0.11437515342E+04  0.73196177393E+03  0.15771807901E+04  0.50400001928E-02 0.  1.
</event>
<event>
 5   0  0.1116462E-06  0.3293269E+04  0.7818609E-02  0.8164610E-01
       -2   -1    0    0    0  501  0.00000000000E+00  0.00000000000E+00  0.19328142481E+04  0.19328142481E+04  0.25500000920E-02 0. -1.
        2   -1    0    0  501    0  0.00000000000E+00  0.00000000000E+00 -0.14028279396E+04  0.14028279396E+04  0.25500000920E-02 0.  1.
    10030    2    1    2    0    0  0.00000000000E+00  0.00000000000E+00  0.52998630849E+03  0.33356421878E+04  0.32932693965E+04 0.  0.
        1    1    3    3  502    0 -0.84634965534E+03  0.11171746484E+04  0.11404162359E+04  0.18069134249E+04  0.50400001928E-02 0. -1.
       -1    1    3    3    0  502  0.84634965534E+03 -0.11171746484E+04 -0.61042992741E+03  0.15287287629E+04  0.50400001928E-02 0.  1.
</event>
<event>
 5   0  0.1146799E-06  0.3297779E+04  0.7818609E-02  0.8163461E-01
        2   -1    0    0  501    0  0.00000000000E+00  0.00000000000E+00  0.25482931699E+04  0.25482931699E+04  0.25500000920E-02 0.  1.
       -2   -1    0    0    0  501  0.00000000000E+00  0.00000000000E+00 -0.10669247632E+04  0.10669247632E+04  0.25500000920E-02 0. -1.
    10030    2    1    2    0    0  0.00000000000E+00  0.00000000000E+00  0.14813684068E+04  0.36152179331E+04  0.32977793054E+04 0.  0.
        5    1    3    3  502    0 -0.11167750301E+04  0.18232674339E+03  0.20554564881E+04  0.23463488602E+04  0.46999998093E+01 0.  1.
       -5    1    3    3    0  502  0.11167750301E+04 -0.18232674339E+03 -0.57408808129E+03  0.12688690730E+04  0.46999998093E+01 0. -1.
</event>
<event>
 5   0  0.3796529E-07  0.3291564E+04  0.7818609E-02  0.8165045E-01
        1   -1    0    0  501    0  0.00000000000E+00  0.00000000000E+00  0.20177828045E+04  0.20177828045E+04  0.50400001928E-02 0. -1.
       -1   -1    0    0    0  501  0.00000000000E+00  0.00000000000E+00 -0.13423633476E+04  0.13423633477E+04  0.50400001928E-02 0.  1.
    10030    2    1    2    0    0  0.00000000000E+00  0.00000000000E+00  0.67541945685E+03  0.33601461522E+04  0.32915635678E+04 0.  0.
        5    1    3    3  502    0  0.83764123706E+03 -0.88476414258E+03 -0.79174501374E+03  0.14530425619E+04  0.46999998093E+01 0.  1.
       -5    1    3    3    0  502 -0.83764123706E+03  0.88476414258E+03  0.14671644706E+04  0.19071035902E+04  0.46999998093E+01 0. -1.
</event>
<event>
 5   0  0.1129434E-06  0.3328347E+04  0.7818609E-02  0.8155720E-01
       -2   -1    0    0    0  501  0.00000000000E+00  0.00000000000E+00  0.14139478433E+04  0.14139478433E+04  0.25500000920E-02 0. -1.
        2   -1    0    0  501    0  0.00000000000E+00  0.00000000000E+00 -0.19586810732E+04  0.19586810732E+04  0.25500000920E-02 0.  1.
    10030    2    1    2    0    0  0.00000000000E+00  0.00000000000E+00 -0.54473322995E+03  0.33726289165E+04  0.33283466641E+04 0.  0.
        3    1    3    3  502    0  0.77428228776E+01 -0.38944100368E+03  0.13671052767E+04  0.14215136631E+04  0.10100000352E+00 0. -1.
       -3    1    3    3    0  502 -0.77428228776E+01  0.38944100368E+03 -0.19118385066E+04  0.19511152534E+04  0.10100000352E+00 0.  1.
</event>
<event>
 5   0  0.3709747E-07  0.3295501E+04  0.7818609E-02  0.8164041E-01
       -1   -1    0    0    0  501  0.00000000000E+00  0.00000000000E+00  0.12930900375E+04  0.12930900375E+04  0.50400001928E-02 0.  1.
        1   -1    0    0  501    0  0.00000000000E+00  0.00000000000E+00 -0.20996847970E+04  0.20996847970E+04  0.50400001928E-02 0. -1.
    10030    2    1    2    0    0  0.00000000000E+00  0.00000000000E+00 -0.80659475948E+03  0.33927748345E+04  0.32955008681E+04 0.  0.
        4    1    3    3  502    0 -0.12703640814E+04 -0.88389501774E+03 -0.98566622236E+03  0.18348391800E+04  0.12699999809E+01 0. -1.
       -4    1    3    3    0  502  0.12703640814E+04  0.88389501774E+03  0.17907146288E+03  0.15579356545E+04  0.12699999809E+01 0.  1.
</event>
<event>
 5   0  0.3757406E-07  0.3315536E+04  0.7818609E-02  0.8158953E-01
        1   -1    0    0  501    0  0.00000000000E+00  0.00000000000E+00  0.13919495842E+04  0.13919495842E+04  0.50400001928E-02 0. -1.
       -1   -1    0    0    0  501  0.00000000000E+00  0.00000000000E+00 -0.19743498944E+04  0.19743498944E+04  0.50400001928E-02 0.  1.
    10030    2    1    2    0    0  0.00000000000E+00  0.00000000000E+00 -0.58240031013E+03  0.33662994786E+04  0.33155364662E+04 0.  0.
        1    1    3    3  502    0 -0.55045842451E+03  0.11829535076E+04 -0.13295070999E+04  0.18627862483E+04  0.50400001928E-02 0.  1.
       -1    1    3    3    0  502  0.55045842451E+03 -0.11829535076E+04  0.74710678974E+03  0.15035132303E+04  0.50400001928E-02 0. -1.
</event>
<event>
 5   0  0.3749685E-07  0.3540842E+04  0.7818609E-02  0.8104178E-01
       -1   -1    0    0    0  501  0.00000000000E+00  0.00000000000E+00  0.21846478276E+04  0.21846478276E+04  0.50400001928E-02 0.  1.
        1   -1    0    0  501    0  0.00000000000E+00  0.00000000000E+00 -0.14347351835E+04  0.14347351835E+04  0.50400001928E-02 0. -1.
    10030    2    1    2    0    0  0.00000000000E+00  0.00000000000E+00  0.74991264413E+03  0.36193830111E+04  0.35408423302E+04 0.  0.
        3    1    3    3  502    0  0.14204099916E+03  0.16893658584E+04 -0.14651492622E+03  0.17016460510E+04  0.10100000352E+00 0. -1.
       -3    1    3    3    0  502 -0.14204099916E+03 -0.16893658584E+04  0.89642757035E+03  0.19177369601E+04  0.10100000352E+00 0.  1.
</event>
<event>
 5   0  0.3749685E-07  0.3313271E+04  0.7818609E-02  0.8159527E-01
        1   -1    0    0  501    0  0.00000000000E+00  0.00000000000E+00  0.24973247964E+04  0.24973247965E+04  0.50400001928E-02 0. -1.
       -1   -1    0    0    0  501  0.00000000000E+00  0.00000000000E+00 -0.10989522723E+04  0.10989522724E+04  0.50400001928E-02 0.  1.
    10030    2    1    2    0    0  0.00000000000E+00  0.00000000000E+00  0.13983725241E+04  0.35962770688E+04  0.33132707465E+04 0.  0.
        3    1    3    3  502    0  0.92946929785E+03 -0.18230778770E+03 -0.77605797645E+03  0.12245061446E+04  0.10100000352E+00 0.  1.
       -3    1    3    3    0  502 -0.92946929785E+03  0.18230778770E+03  0.21744305006E+04  0.23717709242E+04  0.10100000352E+00 0. -1.
</event>
<event>
 5   0  0.1126221E-06  0.3291298E+04  0.7818609E-02  0.8165113E-01
       -2   -1    0    0    0  501  0.00000000000E+00  0.00000000000E+00  0.11758894039E+04  0.11758894039E+04  0.25500000920E-02 0.  1.
        2   -1    0    0  501    0  0.00000000000E+00  0.00000000000E+00 -0.23030736546E+04  0.23030736546E+04  0.25500000920E-02 0. -1.
    10030    2    1    2    0    0  0.00000000000E+00  0.00000000000E+00 -0.11271842507E+04  0.34789630585E+04  0.32912975598E+04 0.  0.
        2    1    3    3  502    0  0.21421551681E+03  0.11337608320E+04 -0.18038935564E+04  0.21413392712E+04  0.25500000920E-02 0. -1.
       -2    1    3    3    0  502 -0.21421551681E+03 -0.11337608320E+04  0.67670930565E+03  0.13376237873E+04  0.25500000920E-02 0.  1.
</event>
<event>
 5   0  0.3796529E-07  0.3281934E+04  0.7818609E-02  0.8167507E-01
        1   -1    0    0  501    0  0.00000000000E+00  0.00000000000E+00  0.18864350847E+04  0.18864350847E+04  0.50400001928E-02 0.  1.
       -1   -1    0    0    0  501  0.00000000000E+00  0.00000000000E+00 -0.14274400732E+04  0.14274400732E+04  0.50400001928E-02 0. -1.
    10030    2    1    2    0    0  0.00000000000E+00  0.00000000000E+00  0.45899501152E+03  0.33138751578E+04  0.32819342073E+04 0.  0.
        5    1    3    3  502    0 -0.56311313464E+03  0.33846664910E+03 -0.12888307185E+04  0.14466384434E+04  0.46999998093E+01 0. -1.
       -5    1    3    3    0  502  0.56311313464E+03 -0.33846664910E+03  0.17478257301E+04  0.18672367144E+04  0.46999998093E+01 0.  1.
</event>
<event>
 5   0  0.1146799E-06  0.3313723E+04  0.7818609E-02  0.8159412E-01
        2   -1    0    0  501    0  0.00000000000E+00  0.00000000000E+00  0.17526116922E+04  0.17526116922E+04  0.25500000920E-02 0. -1.
       -2   -1    0    0    0  501  0.00000000000E+00  0.00000000000E+00 -0.15663422062E+04  0.15663422062E+04  0.25500000920E-02 0.  1.
    10030    2    1    2    0    0  0.00000000000E+00  0.00000000000E+00  0.18626948601E+03  0.33189538984E+04  0.33137227794E+04 0.  0.
        5    1    3    3  502    0 -0.77587642389E+03 -0.11326409596E+04 -0.83585726639E+03  0.16073391765E+04  0.46999998093E+01 0.  1.
       -5    1    3    3    0  502  0.77587642389E+03  0.11326409596E+04  0.10221267524E+04  0.17116147220E+04  0.46999998093E+01 0. -1.
</event>
<event>
 5   0  0.3674967E-07  0.3309475E+04  0.7818609E-02  0.8160489E-01
        1   -1    0    0  501    0  0.00000000000E+00  0.00000000000E+00  0.22430811344E+04  0.22430811344E+04  0.50400001928E-02 0.  1.
       -1   -1    0    0    0  501  0.00000000000E+00  0.00000000000E+00 -0.12207117187E+04  0.12207117187E+04  0.50400001928E-02 0. -1.
    10030    2    1    2    0    0  0.00000000000E+00  0.00000000000E+00  0.10223694157E+04  0.34637928532E+04  0.33094745365E+04 0.  0.
        2    1    3    3  502    0  0.15793505655E+04 -0.15900983327E+03  0.21922652441E+02  0.15874863585E+04  0.25500000920E-02 0. -1.
       -2    1    3    3    0  502 -0.15793505655E+04  0.15900983327E+03  0.10004467633E+04  0.18763064947E+04  0.25500000920E-02 0.  1.
</event>
<event>
 5   0  0.3674967E-07  0.3698545E+04  0.7818609E-02  0.8068284E-01
        1   -1    0    0  501    0  0.00000000000E+00  0.00000000000E+00  0.13247333644E+04  0.13247333644E+04  0.50400001928E-02 0.  1.
       -1   -1    0    0    0  501  0.00000000000E+00  0.00000000000E+00 -0.25815072567E+04  0.25815072568E+04  0.50400001928E-02 0. -1.
    10030    2    1    2    0    0  0.00000000000E+00  0.00000000000E+00 -0.12567738924E+04  0.39062406212E+04  0.36985450077E+04 0.  0.
        2    1    3    3  502    0 -0.14837688600E+04 -0.74946802627E+02 -0.17914165221E+04  0.23273075020E+04  0.25500000920E-02 0. -1.
       -2    1    3    3    0  502  0.14837688600E+04  0.74946802627E+02  0.53464262978E+03  0.15789331191E+04  0.25500000920E-02 0.  1.
</event>
<event>
 5   0  0.3757406E-07  0.3271086E+04  0.7818609E-02  0.8170292E-01
        1   -1    0    0  501    0  0.00000000000E+00  0.00000000000E+00  0.10626692125E+04  0.10626692125E+04  0.50400001928E-02 0. -1.
       -1   -1    0    0    0  501  0.00000000000E+00  0.00000000000E+00 -0.25172463611E+04  0.25172463611E+04  0.50400001928E-02 0.  1.
    10030    2    1    2    0    0  0.00000000000E+00  0.00000000000E+00 -0.14545771486E+04  0.35799155736E+04  0.32710855741E+04 0.  0.
        1    1    3    3  502    0 -0.78324947490E+03 -0.14342150794E+04 -0.65348612384E+03  0.17599706668E+04  0.50400001928E-02 0. -1.
       -1    1    3    3    0  502  0.78324947490E+03  0.14342150794E+04 -0.80109102479E+03  0.18199449068E+04  0.50400001928E-02 0.  1.
</event>
<event>
 5   0  0.3674967E-07  0.3308016E+04  0.7818609E-02  0.8160859E-01
       -1   -1    0    0    0  501  0.00000000000E+00  0.00000000000E+00  0.29112017555E+04  0.29112017555E+04  0.50400001928E-02 0.  1.
        1   -1    0    0  501    0  0.00000000000E+00  0.00000000000E+00 -0.93972965173E+03  0.93972965174E+03  0.50400001928E-02 0. -1.
    10030    2    1    2    0    0  0.00000000000E+00  0.00000000000E+00  0.19714721038E+04  0.38509314072E+04  0.33080160893E+04 0.  0.
        2    1    3    3  502    0 -0.33662525365E+02  0.84829584229E+03 -0.66674346197E+03  0.10794840646E+04  0.25500000920E-02 0. -1.
       -2    1    3    3    0  502  0.33662525365E+02 -0.84829584229E+03  0.26382155657E+04  0.27714473426E+04  0.25500000920E-02 0.  1.
</event>
<event>
 5   0  0.1116462E-06  0.3229196E+04  0.7818609E-02  0.8181149E-01
        2   -1    0    0  501    0  0.00000000000E+00  0.00000000000E+00  0.17635526187E+04  0.17635526187E+04  0.25500000920E-02 0. -1.
       -2   -1    0    0    0  501  0.00000000000E+00  0.00000000000E+00 -0.14782240504E+04  0.14782240504E+04  0.25500000920E-02 0.  1.
    10030    2    1    2    0    0  0.00000000000E+00  0.00000000000E+00  0.28532856829E+03  0.32417766691E+04  0.32291955005E+04 0.  0.
        1    1    3    3  502    0  0.11372021894E+04  0.68968525636E+03 -0.77634284268E+03  0.15400009032E+04  0.50400001928E-02 0.  1.
       -1    1    3    3    0  502 -0.11372021894E+04 -0.68968525636E+03  0.10616714110E+04  0.17017757659E+04  0.50400001928E-02 0. -1.
</event>
<event>
 5   0  0.1116462E-06  0.3297843E+04  0.7818609E-02  0.8163445E-01
        2   -1    0    0  501    0  0.00000000000E+00  0.00000000000E+00  0.24752227164E+04  0.24752227164E+04  0.25500000920E-02 0.  1.
       -2   -1    0    0    0  501  0.00000000000E+00  0.00000000000E+00 -0.10984632988E+04  0.10984632988E+04  0.25500000920E-02 0. -1.
    10030    2    1    2    0    0  0.00000000000E+00  0.00000000000E+00  0.13767594176E+04  0.35736860152E+04  0.32978425131E+04 0.  0.
        1    1    3    3  502    0  0.14095777838E+03 -0.15478646058E+04  0.12850604743E+04  0.20167137516E+04  0.50400001928E-02 0.  1.
       -1    1    3    3    0  502 -0.14095777838E+03  0.15478646058E+04  0.91698943324E+02  0.15569722636E+04  0.50400001928E-02 0. -1.
</event>
<event>
 5   0  0.3709747E-07  0.3303805E+04  0.7818609E-02  0.8161928E-01
       -1   -1    0    0    0  501  0.00000000000E+00  0.00000000000E+00  0.14760637600E+04  0.14760637600E+04  0.50400001928E-02 0.  1.
        1   -1    0    0  501    0  0.00000000000E+00  0.00000000000E+00 -0.18486884740E+04  0.18486884740E+04  0.50400001928E-02 0. -1.
    10030    2    1    2    0    0  0.00000000000E+00  0.00000000000E+00 -0.37262471403E+03  0.33247522340E+04  0.33038051153E+04 0.  0.
        4    1    3    3  502    0 -0.76536980360E+03 -0.16795673983E+03  0.12771362212E+04  0.14983587498E+04  0.12699999809E+01 0.  1.
       -4    1    3    3    0  502  0.76536980360E+03  0.16795673983E+03 -0.16497609352E+04  0.18263934842E+04  0.12699999809E+01 0. -1.
</event>
<event>
 5   0  0.1146799E-06  0.3301353E+04  0.7818609E-02  0.8162551E-01
        2   -1    0    0  501    0  0.00000000000E+00  0.00000000000E+00  0.21766354327E+04  0.21766354327E+04  0.25500000920E-02 0.  1.
       -2   -1    0    0    0  501  0.00000000000E+00  0.00000000000E+00 -0.12518096179E+04  0.12518096179E+04  0.25500000920E-02 0. -1.
    10030    2    1    2    0    0  0.00000000000E+00  0.00000000000E+00  0.92482581485E+03  0.34284450506E+04  0.33013531585E+04 0.  0.
        5    1    3    3  502    0 -0.10676698544E+04  0.61659357211E+03 -0.67738394656E+03  0.14067614055E+04  0.46999998093E+01 0. -1.
       -5    1    3    3    0  502  0.10676698544E+04 -0.61659357211E+03  0.16022097614E+04  0.20216836450E+04  0.46999998093E+01 0.  1.
</event>
<event>
 5   0  0.3796529E-07  0.3306467E+04  0.7818609E-02  0.8161252E-01
        1   -1    0    0  501    0  0.00000000000E+00  0.00000000000E+00  0.19372257490E+04  0.19372257490E+04  0.50400001928E-02 0. -1.
       -1   -1    0    0    0  501  0.00000000000E+00  0.00000000000E+00 -0.14108735305E+04  0.14108735305E+04  0.50400001928E-02 0.  1.
    10030    2    1    2    0    0  0.00000000000E+00  0.00000000000E+00  0.52635221851E+03  0.33480992795E+04  0.33064667135E+04 0.  0.
        5    1    3    3  502    0  0.34793469688E+03  0.85377605148E+03 -0.11263877630E+04  0.14555973282E+04  0.46999998093E+01 0.  1.
       -5    1    3    3    0  502 -0.34793469688E+03 -0.85377605148E+03  0.16527399815E+04  0.18925019513E+04  0.46999998093E+01 0. -1.
</event>
<event>
 5   0  0.3674967E-07  0.3052668E+04  0.7818609E-02  0.8228849E-01
        1   -1    0    0  501    0  0.00000000000E+00  0.00000000000E+00  0.15482289231E+04  0.15482289231E+04  0.50400001928E-02 0.  1.
       -1   -1    0    0    0  501  0.00000000000E+00  0.00000000000E+00 -0.15047491014E+04  0.15047491014E+04  0.50400001928E-02 0. -1.
    10030    2    1    2    0    0  0.00000000000E+00  0.00000000000E+00  0.43479821668E+02  0.30529780245E+04  0.30526683939E+04 0.  0.
        2    1    3    3  502    0  0.84240937034E+03 -0.81312450607E+03  0.10010588562E+04  0.15404362509E+04  0.25500000920E-02 0.  1.
       -2    1    3    3    0  502 -0.84240937034E+03  0.81312450607E+03 -0.95757903448E+03  0.15125417736E+04  0.25500000920E-02 0. -1.
</event>
<event>
 5   0  0.1146799E-06  0.3315966E+04  0.7818609E-02  0.8158845E-01
        2   -1    0    0  501    0  0.00000000000E+00  0.00000000000E+00  0.21694991678E+04  0.21694991678E+04  0.25500000920E-02 0.  1.
       -2   -1    0    0    0  501  0.00000000000E+00  0.00000000000E+00 -0.12670703065E+04  0.12670703065E+04  0.25500000920E-02 0. -1.
    10030    2    1    2    0    0  0.00000000000E+00  0.00000000000E+00  0.90242886129E+03  0.34365694743E+04  0.33159662094E+04 0.  0.
        5    1    3    3  502    0 -0.54753241260E+03 -0.68337686299E+03  0.19102864852E+04  0.21014309947E+04  0.46999998093E+01 0.  1.
       -5    1    3    3    0  502  0.54753241260E+03  0.68337686299E+03 -0.10078576239E+04  0.13351384797E+04  0.46999998093E+01 0. -1.
</event>
<event>
 5   0  0.1116462E-06  0.3297508E+04  0.7818609E-02  0.8163530E-01
        2   -1    0    0  501    0  0.00000000000E+00  0.00000000000E+00  0.18216506023E+04  0.18216506023E+04  0.25500000920E-02 0.  1.
       -2   -1    0    0    0  501  0.00000000000E+00  0.00000000000E+00 -0.14922674295E+04  0.14922674295E+04  0.25500000920E-02 0. -1.
    10030    2    1    2    0    0  0.00000000000E+00  0.00000000000E+00  0.32938317288E+03  0.33139180318E+04  0.32975080662E+04 0.  0.
        1    1    3    3  502    0  0.10927842700E+04  0.12108136971E+04  0.40701930240E+03  0.16810449079E+04  0.50400001928E-02 0.  1.
       -1    1    3    3    0  502 -0.10927842700E+04 -0.12108136971E+04 -0.77636129521E+02  0.16328731239E+04  0.50400001928E-02 0. -1.
</event>
<event>
 5   0  0.3709747E-07  0.3283146E+04  0.7818609E-02  0.8167197E-01
        1   -1    0    0  501    0  0.00000000000E+00  0.00000000000E+00  0.11755363162E+04  0.11755363162E+04  0.50400001928E-02 0.  1.
       -1   -1    0    0    0  501  0.00000000000E+00  0.00000000000E+00 -0.22923683347E+04  0.22923683347E+04  0.50400001928E-02 0. -1.
    10030    2    1    2    0    0  0.00000000000E+00  0.00000000000E+00 -0.11168320185E+04  0.34679046510E+04  0.32831461909E+04 0.  0.
        4    1    3    3  502    0  0.14928681627E+04  0.56009770309E+03 -0.97076360213E+03  0.18667480742E+04  0.12699999809E+01 0. -1.
       -4    1    3    3    0  502 -0.14928681627E+04 -0.56009770309E+03 -0.14606841636E+03  0.16011565768E+04  0.12699999809E+01 0.  1.
</event>
<event>
 5   0  0.3573375E-07  0.3300758E+04  0.7818609E-02  0.8162702E-01
       -3   -1    0    0    0  501  0.00000000000E+00  0.00000000000E+00  0.12629380441E+04  0.12629380482E+04  0.10100000352E+00 0.  1.
        3   -1    0    0  501    0  0.00000000000E+00  0.00000000000E+00 -0.21566783467E+04  0.21566783491E+04  0.10100000352E+00 0. -1.
    10030    2    1    2    0    0  0.00000000000E+00  0.00000000000E+00 -0.89374030262E+03  0.34196163973E+04  0.33007581820E+04 0.  0.
        4    1    3    3  502    0  0.13341110069E+04 -0.94823087631E+03 -0.22769709280E+03  0.16525258099E+04  0.12699999809E+01 0.  1.
       -4    1    3    3    0  502 -0.13341110069E+04  0.94823087631E+03 -0.66604320983E+03  0.17670905873E+04  0.12699999809E+01 0. -1.
</event>
<event>
 5   0  0.3796529E-07  0.3312764E+04  0.7818609E-02  0.8159655E-01
       -1   -1    0    0    0  501  0.00000000000E+00  0.00000000000E+00  0.12169652935E+04  0.12169652935E+04  0.50400001928E-02 0. -1.
        1   -1    0    0  501    0  0.00000000000E+00  0.00000000000E+00 -0.22544612146E+04  0.22544612146E+04  0.50400001928E-02 0.  1.
    10030    2    1    2    0    0  0.00000000000E+00  0.00000000000E+00 -0.10374959212E+04  0.34714265081E+04  0.33127638332E+04 0.  0.
        5    1    3    3  502    0 -0.15590958037E+04  0.12611047638E+03  0.52229840562E+02  0.15650666514E+04  0.46999998093E+01 0. -1.
       -5    1    3    3    0  502  0.15590958037E+04 -0.12611047638E+03 -0.10897257617E+04  0.19063598566E+04  0.46999998093E+01 0.  1.
</event>
<event>
 5   0  0.3749685E-07  0.3309940E+04  0.7818609E-02  0.8160371E-01
       -1   -1    0    0    0  501  0.00000000000E+00  0.00000000000E+00  0.16018678581E+04  0.16018678582E+04  0.50400001928E-02 0. -1.
        1   -1    0    0  501    0  0.00000000000E+00  0.00000000000E+00 -0.17098323916E+04  0.17098323916E+04  0.50400001928E-02 0.  1.
    10030    2    1    2    0    0  0.00000000000E+00  0.00000000000E+00 -0.10796453343E+03  0.33117002497E+04  0.33099399094E+04 0.  0.
        3    1    3    3  502    0  0.14478221928E+04 -0.11111197619E+03  0.74041138421E+03  0.16299521470E+04  0.10100000352E+00 0. -1.
       -3    1    3    3    0  502 -0.14478221928E+04  0.11111197619E+03 -0.84837591764E+03  0.16817481028E+04  0.10100000352E+00 0.  1.
</event>
<event>
 5   0  0.3796529E-07  0.3309130E+04  0.7818609E-02  0.8160576E-01
        1   -1    0    0  501    0  0.00000000000E+00  0.00000000000E+00  0.22409511370E+04  0.22409511370E+04  0.50400001928E-02 0. -1.
       -1   -1    0    0    0  501  0.00000000000E+00  0.00000000000E+00 -0.12216177422E+04  0.12216177423E+04  0.50400001928E-02 0.  1.
    10030    2    1    2    0    0  0.00000000000E+00  0.00000000000E+00  0.10193333948E+04  0.34625688793E+04  0.33091301990E+04 0.  0.
        5    1    3    3  502    0 -0.68159564841E+03  0.50773350479E+03  0.19950665935E+04  0.21685660567E+04  0.46999998093E+01 0. -1.
       -5    1    3    3    0  502  0.68159564841E+03 -0.50773350479E+03 -0.97573319870E+03  0.12940028226E+04  0.46999998093E+01 0.  1.
</event>
<event>
 5   0  0.3709747E-07  0.3284234E+04  0.7818609E-02  0.8166919E-01
       -1   -1    0    0    0  501  0.00000000000E+00  0.00000000000E+00  0.11479773006E+04  0.11479773006E+04  0.50400001928E-02 0. -1.
        1   -1    0    0  501    0  0.00000000000E+00  0.00000000000E+00 -0.23489554388E+04  0.23489554388E+04  0.50400001928E-02 0.  1.
    10030    2    1    2    0    0  0.00000000000E+00  0.00000000000E+00 -0.12009781382E+04  0.34969327394E+04  0.32842335629E+04 0.  0.
        4    1    3    3  502    0  0.51269677461E+03  0.14684956053E+04 -0.11610935730E+04  0.19409990272E+04  0.12699999809E+01 0. -1.
       -4    1    3    3    0  502 -0.51269677461E+03 -0.14684956053E+04 -0.39884565197E+02  0.15559337122E+04  0.12699999809E+01 0.  1.
</event>
<event>
 5   0  0.3796529E-07  0.3313055E+04  0.7818609E-02  0.8159582E-01
       -1   -1    0    0    0  501  0.00000000000E+00  0.00000000000E+00  0.90270239477E+03  0.90270239478E+03  0.50400001928E-02 0. -1.
        1   -1    0    0  501    0  0.00000000000E+00  0.00000000000E+00 -0.30398532811E+04  0.30398532811E+04  0.50400001928E-02 0.  1.
    10030    2    1    2    0    0  0.00000000000E+00  0.00000000000E+00 -0.21371508863E+04  0.39425556759E+04  0.33130546851E+04 0.  0.
        5    1    3    3  502    0  0.14831375696E+04  0.73772291488E+03 -0.10550806847E+04  0.19639627009E+04  0.46999998093E+01 0. -1.
       -5    1    3    3    0  502 -0.14831375696E+04 -0.73772291488E+03 -0.10820702016E+04  0.19785929750E+04  0.46999998093E+01 0.  1.
</event>
<event>
 5   0  0.1120545E-06  0.3282263E+04  0.7818609E-02  0.8167423E-01
        2   -1    0    0  501    0  0.00000000000E+00  0.00000000000E+00  0.14831680986E+04  0.14831680986E+04  0.25500000920E-02 0.  1.
       -2   -1    0    0    0  501  0.00000000000E+00  0.00000000000E+00 -0.18159189895E+04  0.18159189895E+04  0.25500000920E-02 0. -1.
    10030    2    1    2    0    0  0.00000000000E+00  0.00000000000E+00 -0.33275089082E+03  0.32990870881E+04  0.32822633136E+04 0.  0.
        4    1    3    3  502    0  0.26198011558E+03 -0.16165180324E+03  0.14538879382E+04  0.14861213397E+04  0.12699999809E+01 0.  1.
       -4    1    3    3    0  502 -0.26198011558E+03  0.16165180324E+03 -0.17866388291E+04  0.18129657484E+04  0.12699999809E+01 0. -1.
</event>
<event>
 5   0  0.3796529E-07  0.3292932E+04  0.7818609E-02  0.8164696E-01
       -1   -1    0    0    0  501  0.00000000000E+00  0.00000000000E+00  0.14866709165E+04  0.14866709165E+04  0.50400001928E-02 0. -1.
        1   -1    0    0  501    0  0.00000000000E+00  0.00000000000E+00 -0.18234362211E+04  0.18234362211E+04  0.50400001928E-02 0.  1.
    10030    2    1    2    0    0  0.00000000000E+00  0.00000000000E+00 -0.33676530453E+03  0.33101071376E+04  0.32929315802E+04 0.  0.
        5    1    3    3  502    0  0.58972200417E+02  0.26537950285E+02  0.14853870633E+04  0.14868015338E+04  0.46999998093E+01 0. -1.
       -5    1    3    3    0  502 -0.58972200417E+02 -0.26537950285E+02 -0.18221523678E+04  0.18233056038E+04  0.46999998093E+01 0.  1.
</event>
<event>
 5   0  0.1129434E-06  0.3081631E+04  0.7818609E-02  0.8220797E-01
        2   -1    0    0  501    0  0.00000000000E+00  0.00000000000E+00  0.23888434682E+04  0.23888434682E+04  0.25500000920E-02 0.  1.
       -2   -1    0    0    0  501  0.00000000000E+00  0.00000000000E+00 -0.99383360430E+03  0.99383360430E+03  0.25500000920E-02 0. -1.
    10030    2    1    2    0    0  0.00000000000E+00  0.00000000000E+00  0.13950098639E+04  0.33826770725E+04  0.30816313304E+04 0.  0.
        3    1    3    3  502    0  0.66765563023E+03  0.80617098881E+03  0.19386414629E+04  0.22031809812E+04  0.10100000352E+00 0.  1.
       -3    1    3    3    0  502 -0.66765563023E+03 -0.80617098881E+03 -0.54363159904E+03  0.11794960913E+04  0.10100000352E+00 0. -1.
</event>
<event>
 5   0  0.1129434E-06  0.3282701E+04  0.7818609E-02  0.8167311E-01
        2   -1    0    0  501    0  0.00000000000E+00  0.00000000000E+00  0.20593599956E+04  0.20593599956E+04  0.25500000920E-02 0.  1.
       -2   -1    0    0    0  501  0.00000000000E+00  0.00000000000E+00 -0.13081886959E+04  0.13081886959E+04  0.25500000920E-02 0. -1.
    10030    2    1    2    0    0  0.00000000000E+00  0.00000000000E+00  0.75117129970E+03  0.33675486916E+04  0.32827010020E+04 0.  0.
        3    1    3    3  502    0 -0.10111105842E+04  0.84643819734E+03 -0.62703433264E+03  0.14601281793E+04  0.10100000352E+00 0.  1.
       -3    1    3    3    0  502  0.10111105842E+04 -0.84643819734E+03  0.13782056323E+04  0.19074205123E+04  0.10100000352E+00 0. -1.
</event>
<event>
 5   0  0.3674967E-07  0.3317924E+04  0.7818609E-02  0.8158349E-01
       -1   -1    0    0    0  501  0.00000000000E+00  0.00000000000E+00  0.13895350000E+04  0.13895350001E+04  0.50400001928E-02 0.  1.
        1   -1    0    0  501    0  0.00000000000E+00  0.00000000000E+00 -0.19806304588E+04  0.19806304588E+04  0.50400001928E-02 0. -1.
    10030    2    1    2    0    0  0.00000000000E+00  0.00000000000E+00 -0.59109545874E+03  0.33701654588E+04  0.33179242575E+04 0.  0.
        2    1    3    3  502    0  0.88685908447E+03 -0.79156714951E+03  0.87984881708E+03  0.14789291832E+04  0.25500000920E-02 0.  1.
       -2    1    3    3    0  502 -0.88685908447E+03  0.79156714951E+03 -0.14709442758E+04  0.18912362757E+04  0.25500000920E-02 0. -1.
</event>
<event>
 5   0  0.1146799E-06  0.3407678E+04  0.7818609E-02  0.8136025E-01
       -2   -1    0    0    0  501  0.00000000000E+00  0.00000000000E+00  0.13555283110E+04  0.13555283110E+04  0.25500000920E-02 0.  1.
        2   -1    0    0  501    0  0.00000000000E+00  0.00000000000E+00 -0.21416496350E+04  0.21416496350E+04  0.25500000920E-02 0. -1.
    10030    2    1    2    0    0  0.00000000000E+00  0.00000000000E+00 -0.78612132398E+03  0.34971779460E+04  0.34076776330E+04 0.  0.
        5    1    3    3  502    0 -0.68448796846E+03  0.15558968912E+04 -0.51320683934E+03  0.17755963125E+04  0.46999998093E+01 0. -1.
       -5    1    3    3    0  502  0.68448796846E+03 -0.15558968912E+04 -0.27291448464E+03  0.17215816335E+04  0.46999998093E+01 0.  1.
</event>
<event>
 5   0  0.3796529E-07  0.3336950E+04  0.7818609E-02  0.8153557E-01
        1   -1    0    0  501    0  0.00000000000E+00  0.00000000000E+00  0.20676691678E+04  0.20676691678E+04  0.50400001928E-02 0.  1.
       -1   -1    0    0    0  501  0.00000000000E+00  0.00000000000E+00 -0.13463510876E+04  0.13463510876E+04  0.50400001928E-02 0. -1.
    10030    2    1    2    0    0  0.00000000000E+00  0.00000000000E+00  0.72131808018E+03  0.34140202554E+04  0.33369498845E+04 0.  0.
        5    1    3    3  502    0 -0.20401222971E+03  0.10138788215E+04 -0.97886061713E+03  0.14239948919E+04  0.46999998093E+01 0. -1.
       -5    1    3    3    0  502  0.20401222971E+03 -0.10138788215E+04  0.17001786973E+04  0.19900253635E+04  0.46999998093E+01 0.  1.
</event>
<event>
 5   0  0.3674967E-07  0.3298705E+04  0.7818609E-02  0.8163225E-01
        1   -1    0    0  501    0  0.00000000000E+00  0.00000000000E+00  0.13951358061E+04  0.13951358061E+04  0.50400001928E-02 0. -1.
       -1   -1    0    0    0  501  0.00000000000E+00  0.00000000000E+00 -0.19498913464E+04  0.19498913464E+04  0.50400001928E-02 0.  1.
    10030    2    1    2    0    0  0.00000000000E+00  0.00000000000E+00 -0.55475554031E+03  0.33450271524E+04  0.32987047369E+04 0.  0.
        2    1    3    3  502    0  0.50152229726E+03 -0.70818833789E+02 -0.18690769169E+04  0.19364886891E+04  0.25500000920E-02 0.  1.
       -2    1    3    3    0  502 -0.50152229726E+03  0.70818833789E+02  0.13143213765E+04  0.14085384633E+04  0.25500000920E-02 0. -1.
</event>
<event>
 5   0  0.1146799E-06  0.3324818E+04  0.7818609E-02  0.8156609E-01
       -2   -1    0    0    0  501  0.00000000000E+00  0.00000000000E+00  0.20740644684E+04  0.20740644684E+04  0.25500000920E-02 0. -1.
        2   -1    0    0  501    0  0.00000000000E+00  0.00000000000E+00 -0.13324583452E+04  0.13324583452E+04  0.25500000920E-02 0.  1.
    10030    2    1    2    0    0  0.00000000000E+00  0.00000000000E+00  0.74160612325E+03  0.34065228136E+04  0.33248184969E+04 0.  0.
        5    1    3    3  502    0  0.15824918937E+04 -0.89003704926E+02  0.88450223188E+03  0.18150946370E+04  0.46999998093E+01 0. -1.
       -5    1    3    3    0  502 -0.15824918937E+04  0.89003704926E+02 -0.14289610863E+03  0.15914281765E+04  0.46999998093E+01 0.  1.
</event>
<event>
 5   0  0.1116462E-06  0.3314851E+04  0.7818609E-02  0.8159127E-01
        2   -1    0    0  501    0  0.00000000000E+00  0.00000000000E+00  0.13639637832E+04  0.13639637832E+04  0.25500000920E-02 0.  1.
       -2   -1    0    0    0  501  0.00000000000E+00  0.00000000000E+00 -0.20140267369E+04  0.20140267369E+04  0.25500000920E-02 0. -1.
    10030    2    1    2    0    0  0.00000000000E+00  0.00000000000E+00 -0.65006295372E+03  0.33779905202E+04  0.33148511446E+04 0.  0.
        1    1    3    3  502    0 -0.67069544313E+03  0.12448252394E+04  0.55609827982E+03  0.15194300086E+04  0.50400001928E-02 0.  1.
       -1    1    3    3    0  502  0.67069544313E+03 -0.12448252394E+04 -0.12061612335E+04  0.18585605116E+04  0.50400001928E-02 0. -1.
</event>
<event>
 5   0  0.3674967E-07  0.3303711E+04  0.7818609E-02  0.8161952E-01
        1   -1    0    0  501    0  0.00000000000E+00  0.00000000000E+00  0.19305804270E+04  0.19305804270E+04  0.50400001928E-02 0.  1.
       -1   -1    0    0    0  501  0.00000000000E+00  0.00000000000E+00 -0.14133711936E+04  0.14133711936E+04  0.50400001928E-02 0. -1.
    10030    2    1    2    0    0  0.00000000000E+00  0.00000000000E+00  0.51720923337E+03  0.33439516206E+04  0.33037111026E+04 0.  0.
        2    1    3    3  502    0  0.15621856487E+03  0.84138449292E+03 -0.11715080226E+04  0.14507801873E+04  0.25500000920E-02 0. -1.
       -2    1    3    3    0  502 -0.15621856487E+03 -0.84138449292E+03  0.16887172560E+04  0.18931714332E+04  0.25500000920E-02 0.  1.
</event>
<event>
 5   0  0.1116462E-06  0.3302372E+04  0.7818609E-02  0.8162292E-01
       -2   -1    0    0    0  501  0.00000000000E+00  0.00000000000E+00  0.18928249541E+04  0.18928249541E+04  0.25500000920E-02 0. -1.
        2   -1    0    0  501    0  0.00000000000E+00  0.00000000000E+00 -0.14403950166E+04  0.14403950166E+04  0.25500000920E-02 0.  1.
    10030    2    1    2    0    0  0.00000000000E+00  0.00000000000E+00  0.45242993746E+03  0.33332199707E+04  0.33023722572E+04 0.  0.
        1    1    3    3  502    0 -0.80076261191E+02  0.10601874287E+04  0.15013471700E+04  0.18396882662E+04  0.50400001928E-02 0. -1.
       -1    1    3    3    0  502  0.80076261191E+02 -0.10601874287E+04 -0.10489172326E+04  0.14935317045E+04  0.50400001928E-02 0.  1.
</event>
<event>
 5   0  0.3709747E-07  0.3292819E+04  0.7818609E-02  0.8164725E-01
       -1   -1    0    0    0  501  0.00000000000E+00  0.00000000000E+00  0.21555336070E+04  0.21555336071E+04  0.50400001928E-02 0.  1.
        1   -1    0    0  501    0  0.00000000000E+00  0.00000000000E+00 -0.12575376584E+04  0.12575376584E+04  0.50400001928E-02 0. -1.
    10030    2    1    2    0    0  0.00000000000E+00  0.00000000000E+00  0.89799594866E+03  0.34130712654E+04  0.32928192691E+04 0.  0.
        4    1    3    3  502    0 -0.15694750520E+04 -0.34175995423E+03  0.82359798281E+03  0.18050947497E+04  0.12699999809E+01 0.  1.
       -4    1    3    3    0  502  0.15694750520E+04  0.34175995423E+03  0.74397965851E+02  0.16079765158E+04  0.12699999809E+01 0. -1.
</event>
<event>
 5   0  0.1129434E-06  0.3284077E+04  0.7818609E-02  0.8166959E-01
        2   -1    0    0  501    0  0.00000000000E+00  0.00000000000E+00  0.15600662989E+04  0.15600662989E+04  0.25500000920E-02 0.  1.
       -2   -1    0    0    0  501  0.00000000000E+00  0.00000000000E+00 -0.17283181918E+04  0.17283181918E+04  0.25500000920E-02 0. -1.
    10030    2    1    2    0    0  0.00000000000E+00  0.00000000000E+00 -0.16825189285E+03  0.32883844907E+04  0.32840773224E+04 0.  0.
        3    1    3    3  502    0 -0.49433851906E+02 -0.13950413531E+04  0.78170858702E+03  0.15998913737E+04  0.10100000352E+00 0.  1.
       -3    1    3    3    0  502  0.49433851906E+02  0.13950413531E+04 -0.94996047987E+03  0.16884931170E+04  0.10100000352E+00 0. -1.
</event>
<event>
 5   0  0.3709747E-07  0.3266905E+04  0.7818609E-02  0.8171368E-01
        1   -1    0    0  501    0  0.00000000000E+00  0.00000000000E+00  0.23336326828E+04  0.23336326828E+04  0.50400001928E-02 0. -1.
       -1   -1    0    0    0  501  0.00000000000E+00  0.00000000000E+00 -0.11433536969E+04  0.11433536969E+04  0.50400001928E-02 0.  1.
    10030    2    1    2    0    0  0.00000000000E+00  0.00000000000E+00  0.11902789859E+04  0.34769863797E+04  0.32669052971E+04 0.  0.
        4    1    3    3  502    0 -0.43670563520E+03  0.14190332636E+04  0.13199612492E+04  0.19866218883E+04  0.12699999809E+01 0. -1.
       -4    1    3    3    0  502  0.43670563520E+03 -0.14190332636E+04 -0.12968226327E+03  0.14903644914E+04  0.12699999809E+01 0.  1.
</event>
<event>
 5   0  0.1129434E-06  0.3286695E+04  0.7818609E-02  0.8166289E-01
        2   -1    0    0  501    0  0.00000000000E+00  0.00000000000E+00  0.19004967104E+04  0.19004967104E+04  0.25500000920E-02 0.  1.
       -2   -1    0    0    0  501  0.00000000000E+00  0.00000000000E+00 -0.14209923859E+04  0.14209923859E+04  0.25500000920E-02 0. -1.
    10030    2    1    2    0    0  0.00000000000E+00  0.00000000000E+00  0.47950432443E+03  0.33214890963E+04  0.32866952125E+04 0.  0.
        3    1    3    3  502    0 -0.10230568484E+04  0.69895398115E+03  0.13307217649E+04  0.18182415705E+04  0.10100000352E+00 0.  1.
       -3    1    3    3    0  502  0.10230568484E+04 -0.69895398115E+03 -0.85121744047E+03  0.15032475258E+04  0.10100000352E+00 0. -1.
</event>
<event>
 5   0  0.1120545E-06  0.3309845E+04  0.7818609E-02  0.8160395E-01
       -2   -1    0    0    0  501  0.00000000000E+00  0.00000000000E+00  0.16474509267E+04  0.16474509267E+04  0.25500000920E-02 0. -1.
        2   -1    0    0  501    0  0.00000000000E+00  0.00000000000E+00 -0.16624284592E+04  0.16624284592E+04  0.25500000920E-02 0.  1.
    10030    2    1    2    0    0  0.00000000000E+00  0.00000000000E+00 -0.14977532465E+02  0.33098793859E+04  0.33098454983E+04 0.  0.
        4    1    3    3  502    0  0.86813894919E+03 -0.13697530389E+04 -0.33746043125E+03  0.16564328475E+04  0.12699999809E+01 0. -1.
       -4    1    3    3    0  502 -0.86813894919E+03  0.13697530389E+04  0.32248289879E+03  0.16534465384E+04  0.12699999809E+01 0.  1.
</event>
<event>
 5   0  0.1126221E-06  0.3271223E+04  0.7818609E-02  0.8170256E-01
        2   -1    0    0  501    0  0.00000000000E+00  0.00000000000E+00  0.16539279849E+04  0.16539279849E+04  0.25500000920E-02 0. -1.
       -2   -1    0    0    0  501  0.00000000000E+00  0.00000000000E+00 -0.16174979935E+04  0.16174979935E+04  0.25500000920E-02 0.  1.
    10030    2    1    2    0    0  0.00000000000E+00  0.00000000000E+00  0.36429991381E+02  0.32714259784E+04  0.32712231333E+04 0.  0.
        2    1    3    3  502    0  0.88909700002E+03  0.10654543266E+04 -0.84759777774E+03  0.16260714592E+04  0.25500000920E-02 0.  1.
       -2    1    3    3    0  502 -0.88909700002E+03 -0.10654543266E+04  0.88402776912E+03  0.16453545193E+04  0.25500000920E-02 0. -1.
</event>
<event>
 5   0  0.1126221E-06  0.3268973E+04  0.7818609E-02  0.8170835E-01
       -2   -1    0    0    0  501  0.00000000000E+00  0.00000000000E+00  0.14433052244E+04  0.14433052244E+04  0.25500000920E-02 0.  1.
        2   -1    0    0  501    0  0.00000000000E+00  0.00000000000E+00 -0.18509922534E+04  0.18509922535E+04  0.25500000920E-02 0. -1.
    10030    2    1    2    0    0  0.00000000000E+00  0.00000000000E+00 -0.40768702909E+03  0.32942974778E+04  0.32689734105E+04 0.  0.
        2    1    3    3  502    0 -0.40516177228E+03 -0.14822558977E+04  0.35752498468E+03  0.15776763682E+04  0.25500000920E-02 0. -1.
       -2    1    3    3    0  502  0.40516177228E+03  0.14822558977E+04 -0.76521201378E+03  0.17166211096E+04  0.25500000920E-02 0.  1.
</event>
<event>
 5   0  0.3709747E-07  0.3189838E+04  0.7818609E-02  0.8191506E-01
        1   -1    0    0  501    0  0.00000000000E+00  0.00000000000E+00  0.15781236226E+04  0.15781236226E+04  0.50400001928E-02 0. -1.
       -1   -1    0    0    0  501  0.00000000000E+00  0.00000000000E+00 -0.16118931224E+04  0.16118931224E+04  0.50400001928E-02 0.  1.
    10030    2    1    2    0    0  0.00000000000E+00  0.00000000000E+00 -0.33769499818E+02  0.31900167450E+04  0.31898379981E+04 0.  0.
        4    1    3    3  502    0 -0.11067304483E+04  0.11195101158E+04 -0.27304323484E+03  0.15977200648E+04  0.12699999809E+01 0. -1.
       -4    1    3    3    0  502  0.11067304483E+04 -0.11195101158E+04  0.23927373502E+03  0.15922966802E+04  0.12699999809E+01 0.  1.
</event>
<event>
 5   0  0.1126221E-06  0.3363433E+04  0.7818609E-02  0.8146940E-01
       -2   -1    0    0    0  501  0.00000000000E+00  0.00000000000E+00  0.22018059743E+04  0.22018059743E+04  0.25500000920E-02 0.  1.
        2   -1    0    0  501    0  0.00000000000E+00  0.00000000000E+00 -0.12844776391E+04  0.12844776391E+04  0.25500000920E-02 0. -1.
    10030    2    1    2    0    0  0.00000000000E+00  0.00000000000E+00  0.91732833520E+03  0.34862836134E+04  0.33634330911E+04 0.  0.
        2    1    3    3  502    0 -0.54553683738E+03  0.48045464521E+03  0.20305381555E+04  0.21567411315E+04  0.25500000920E-02 0.  1.
       -2    1    3    3    0  502  0.54553683738E+03 -0.48045464521E+03 -0.11132098203E+04  0.13295424819E+04  0.25500000920E-02 0. -1.
</event>
<event>
 5   0  0.1146799E-06  0.3307211E+04  0.7818609E-02  0.8161063E-01
       -2   -1    0    0    0  501  0.00000000000E+00  0.00000000000E+00  0.13770185696E+04  0.13770185696E+04  0.25500000920E-02 0.  1.
        2   -1    0    0  501    0  0.00000000000E+00  0.00000000000E+00 -0.19857472349E+04  0.19857472349E+04  0.25500000920E-02 0. -1.
    10030    2    1    2    0    0  0.00000000000E+00  0.00000000000E+00 -0.60872866534E+03  0.33627658045E+04  0.33072107988E+04 0.  0.
        5    1    3    3  502    0  0.10098670167E+04 -0.20142897706E+03 -0.16199234171E+04  0.19195257205E+04  0.46999998093E+01 0. -1.
       -5    1    3    3    0  502 -0.10098670167E+04  0.20142897706E+03  0.10111947518E+04  0.14432400840E+04  0.46999998093E+01 0.  1.
</event>
<event>
 5   0  0.1146799E-06  0.3284445E+04  0.7818609E-02  0.8166865E-01
       -2   -1    0    0    0  501  0.00000000000E+00  0.00000000000E+00  0.10306484943E+04  0.10306484943E+04  0.25500000920E-02 0.  1.
        2   -1    0    0  501    0  0.00000000000E+00  0.00000000000E+00 -0.26166972584E+04  0.26166972584E+04  0.25500000920E-02 0. -1.
    10030    2    1    2    0    0  0.00000000000E+00  0.00000000000E+00 -0.15860487640E+04  0.36473457527E+04  0.32844452131E+04 0.  0.
        5    1    3    3  502    0 -0.10595405393E+04  0.11783696046E+03 -0.21801873851E+04  0.24268808845E+04  0.46999998093E+01 0. -1.
       -5    1    3    3    0  502  0.10595405393E+04 -0.11783696046E+03  0.59413862102E+03  0.12204648682E+04  0.46999998093E+01 0.  1.
</event>
<event>
 5   0  0.1129434E-06  0.3177700E+04  0.7818609E-02  0.8194732E-01
        2   -1    0    0  501    0  0.00000000000E+00  0.00000000000E+00  0.18108291491E+04  0.18108291491E+04  0.25500000920E-02 0. -1.
       -2   -1    0    0    0  501  0.00000000000E+00  0.00000000000E+00 -0.13940818764E+04  0.13940818764E+04  0.25500000920E-02 0.  1.
    10030    2    1    2    0    0  0.00000000000E+00  0.00000000000E+00  0.41674727269E+03  0.32049110256E+04  0.31776998588E+04 0.  0.
        3    1    3    3  502    0 -0.16503325177E+02  0.10632093021E+04  0.13990582556E+04  0.17572849492E+04  0.10100000352E+00 0. -1.
       -3    1    3    3    0  502  0.16503325177E+02 -0.10632093021E+04 -0.98231098291E+03  0.14476260764E+04  0.10100000352E+00 0.  1.
</event>
<event>
 5   0  0.3796529E-07  0.3314802E+04  0.7818609E-02  0.8159139E-01
       -1   -1    0    0    0  501  0.00000000000E+00  0.00000000000E+00  0.15175848444E+04  0.15175848444E+04  0.50400001928E-02 0. -1.
        1   -1    0    0  501    0  0.00000000000E+00  0.00000000000E+00 -0.18100982639E+04  0.18100982639E+04  0.50400001928E-02 0.  1.
    10030    2    1    2    0    0  0.00000000000E+00  0.00000000000E+00 -0.29251341946E+03  0.33276831083E+04  0.33148017692E+04 0.  0.
        5    1    3    3  502    0  0.10000224548E+04 -0.44686542120E+03 -0.13949641933E+04  0.17736067223E+04  0.46999998093E+01 0.  1.
       -5    1    3    3    0  502 -0.10000224548E+04  0.44686542120E+03  0.11024507739E+04  0.15540763860E+04  0.46999998093E+01 0. -1.
</event>
<event>
 5   0  0.3757406E-07  0.3250881E+04  0.7818609E-02  0.8175507E-01
       -1   -1    0    0    0  501  0.00000000000E+00  0.00000000000E+00  0.13162940212E+04  0.13162940212E+04  0.50400001928E-02 0. -1.
        1   -1    0    0  501    0  0.00000000000E+00  0.00000000000E+00 -0.20071934078E+04  0.20071934078E+04  0.50400001928E-02 0.  1.
    10030    2    1    2    0    0  0.00000000000E+00  0.00000000000E+00 -0.69089938666E+03  0.33234874290E+04  0.32508809157E+04 0.  0.
        1    1    3    3  502    0  0.83559518226E+03 -0.64075333554E+03  0.92045980310E+03  0.13985815653E+04  0.50400001928E-02 0. -1.
       -1    1    3    3    0  502 -0.83559518226E+03  0.64075333554E+03 -0.16113591898E+04  0.19249058637E+04  0.50400001928E-02 0.  1.
</event>
<event>
 5   0  0.1129434E-06  0.3283451E+04  0.7818609E-02  0.8167119E-01
        2   -1    0    0  501    0  0.00000000000E+00  0.00000000000E+00  0.12547422459E+04  0.12547422459E+04  0.25500000920E-02 0. -1.
       -2   -1    0    0    0  501  0.00000000000E+00  0.00000000000E+00 -0.21480603662E+04  0.21480603662E+04  0.25500000920E-02 0.  1.
    10030    2    1    2    0    0  0.00000000000E+00  0.00000000000E+00 -0.89331812035E+03  0.34028026121E+04  0.32834506777E+04 0.  0.
        3    1    3    3  502    0 -0.71476260799E+03  0.27994490237E+03 -0.19506187676E+04  0.20962271635E+04  0.10100000352E+00 0.  1.
       -3    1    3    3    0  502  0.71476260799E+03 -0.27994490237E+03  0.10573006473E+04  0.13065754487E+04  0.10100000352E+00 0. -1.
</event>
<event>
 5   0  0.3674967E-07  0.3287701E+04  0.7818609E-02  0.8166032E-01
       -1   -1    0    0    0  501  0.00000000000E+00  0.00000000000E+00  0.10749015788E+04  0.10749015788E+04  0.50400001928E-02 0.  1.
        1   -1    0    0  501    0  0.00000000000E+00  0.00000000000E+00 -0.25139459912E+04  0.25139459912E+04  0.50400001928E-02 0. -1.
    10030    2    1    2    0    0  0.00000000000E+00  0.00000000000E+00 -0.14390444123E+04  0.35888475700E+04  0.32877010296E+04 0.  0.
        2    1    3    3  502    0  0.55208550339E+03 -0.11011325342E+04 -0.19077872030E+04  0.22708904141E+04  0.25500000920E-02 0. -1.
       -2    1    3    3    0  502 -0.55208550339E+03  0.11011325342E+04  0.46874279065E+03  0.13179571559E+04  0.25500000920E-02 0.  1.
</event>
<event>
 5   0  0.1120545E-06  0.3237845E+04  0.7818609E-02  0.8178893E-01
       -2   -1    0    0    0  501  0.00000000000E+00  0.00000000000E+00  0.10275710238E+04  0.10275710238E+04  0.25500000920E-02 0. -1.
        2   -1    0    0  501    0  0.00000000000E+00  0.00000000000E+00 -0.25505869604E+04  0.25505869604E+04  0.25500000920E-02 0.  1.
    10030    2    1    2    0    0  0.00000000000E+00  0.00000000000E+00 -0.15230159366E+04  0.35781579842E+04  0.32378445016E+04 0.  0.
        4    1    3    3  502    0  0.40231997981E+03 -0.78906415117E+03  0.73607195315E+03  0.11516454029E+04  0.12699999809E+01 0. -1.
       -4    1    3    3    0  502 -0.40231997981E+03  0.78906415117E+03 -0.22590878897E+04  0.24265125813E+04  0.12699999809E+01 0.  1.
</event>
<event>
 5   0  0.3709747E-07  0.3313517E+04  0.7818609E-02  0.8159464E-01
       -1   -1    0    0    0  501  0.00000000000E+00  0.00000000000E+00  0.19809257018E+04  0.19809257018E+04  0.50400001928E-02 0.  1.
        1   -1    0    0  501    0  0.00000000000E+00  0.00000000000E+00 -0.13856394876E+04  0.13856394876E+04  0.50400001928E-02 0. -1.
    10030    2    1    2    0    0  0.00000000000E+00  0.00000000000E+00  0.59528621422E+03  0.33665651894E+04  0.33135170888E+04 0.  0.
        4    1    3    3  502    0 -0.92967004361E+03 -0.24474225407E+03  0.16685642985E+04  0.19256930161E+04  0.12699999809E+01 0.  1.
       -4    1    3    3    0  502  0.92967004361E+03  0.24474225407E+03 -0.10732780843E+04  0.14408721734E+04  0.12699999809E+01 0. -1.
</event>
<event>
 5   0  0.1120545E-06  0.3358836E+04  0.7818609E-02  0.8148084E-01
       -2   -1    0    0    0  501  0.00000000000E+00  0.00000000000E+00  0.15819394560E+04  0.15819394560E+04  0.25500000920E-02 0.  1.
        2   -1    0    0  501    0  0.00000000000E+00  0.00000000000E+00 -0.17829032909E+04  0.17829032909E+04  0.25500000920E-02 0. -1.
    10030    2    1    2    0    0  0.00000000000E+00  0.00000000000E+00 -0.20096383489E+03  0.33648427469E+04  0.33588361450E+04 0.  0.
        4    1    3    3  502    0  0.10370633973E+04  0.71724804001E+03  0.10107800409E+04  0.16160517148E+04  0.12699999809E+01 0.  1.
       -4    1    3    3    0  502 -0.10370633973E+04 -0.71724804001E+03 -0.12117438758E+04  0.17487910322E+04  0.12699999809E+01 0. -1.
</event>
<event>
 5   0  0.1116462E-06  0.3300078E+04  0.7818609E-02  0.8162876E-01
       -2   -1    0    0    0  501  0.00000000000E+00  0.00000000000E+00  0.12026700202E+04  0.12026700202E+04  0.25500000920E-02 0.  1.
        2   -1    0    0  501    0  0.00000000000E+00  0.00000000000E+00 -0.22638203375E+04  0.22638203375E+04  0.25500000920E-02 0. -1.
    10030    2    1    2    0    0  0.00000000000E+00  0.00000000000E+00 -0.10611503173E+04  0.34664903577E+04  0.33000780906E+04 0.  0.
        1    1    3    3  502    0  0.78213478211E+03  0.14207682871E+04 -0.21142600113E+03  0.16355483169E+04  0.50400001928E-02 0.  1.
       -1    1    3    3    0  502 -0.78213478211E+03 -0.14207682871E+04 -0.84972431620E+03  0.18309420408E+04  0.50400001928E-02 0. -1.
</event>
<event>
 5   0  0.1126221E-06  0.3283640E+04  0.7818609E-02  0.8167071E-01
        2   -1    0    0  501    0  0.00000000000E+00  0.00000000000E+00  0.28843721630E+04  0.28843721630E+04  0.25500000920E-02 0.  1.
       -2   -1    0    0    0  501  0.00000000000E+00  0.00000000000E+00 -0.93454405714E+03  0.93454405714E+03  0.25500000920E-02 0. -1.
    10030    2    1    2    0    0  0.00000000000E+00  0.00000000000E+00  0.19498281058E+04  0.38189162201E+04  0.32836399702E+04 0.  0.
        2    1    3    3  502    0  0.91472758492E+03  0.79806204881E+02  0.25578416193E+04  0.27176551169E+04  0.25500000920E-02 0.  1.
       -2    1    3    3    0  502 -0.91472758492E+03 -0.79806204881E+02 -0.60801351346E+03  0.11012611032E+04  0.25500000920E-02 0. -1.
</event>
<event>
 5   0  0.3749685E-07  0.3374562E+04  0.7818609E-02  0.8144178E-01
       -1   -1    0    0    0  501  0.00000000000E+00  0.00000000000E+00  0.20099936540E+04  0.20099936540E+04  0.50400001928E-02 0. -1.
        1   -1    0    0  501    0  0.00000000000E+00  0.00000000000E+00 -0.14163811250E+04  0.14163811250E+04  0.50400001928E-02 0.  1.
    10030    2    1    2    0    0  0.00000000000E+00  0.00000000000E+00  0.59361252896E+03  0.34263747790E+04  0.33745619407E+04 0.  0.
        3    1    3    3  502    0 -0.11877076015E+04  0.47232451520E+03 -0.82154850092E+03  0.15194346790E+04  0.10100000352E+00 0.  1.
       -3    1    3    3    0  502  0.11877076015E+04 -0.47232451520E+03  0.14151610299E+04  0.19069401000E+04  0.10100000352E+00 0. -1.
</event>
<event>
 5   0  0.3757406E-07  0.3278168E+04  0.7818609E-02  0.8168473E-01
        1   -1    0    0  501    0  0.00000000000E+00  0.00000000000E+00  0.22965910787E+04  0.22965910787E+04  0.50400001928E-02 0.  1.
       -1   -1    0    0    0  501  0.00000000000E+00  0.00000000000E+00 -0.11698191113E+04  0.11698191113E+04  0.50400001928E-02 0. -1.
    10030    2    1    2    0    0  0.00000000000E+00  0.00000000000E+00  0.11267719674E+04  0.34664101900E+04  0.32781678631E+04 0.  0.
        1    1    3    3  502    0  0.25535656958E+03  0.95484000568E+03 -0.81924050927E+03  0.12837762368E+04  0.50400001928E-02 0. -1.
       -1    1    3    3    0  502 -0.25535656958E+03 -0.95484000568E+03  0.19460124767E+04  0.21826339532E+04  0.50400001928E-02 0.  1.
</event>
<event>
 5   0  0.3674967E-07  0.3324757E+04  0.7818609E-02  0.8156624E-01
       -1   -1    0    0    0  501  0.00000000000E+00  0.00000000000E+00  0.13895991038E+04  0.13895991038E+04  0.50400001928E-02 0.  1.
        1   -1    0    0  501    0  0.00000000000E+00  0.00000000000E+00 -0.19887043278E+04  0.19887043278E+04  0.50400001928E-02 0. -1.
    10030    2    1    2    0    0  0.00000000000E+00  0.00000000000E+00 -0.59910522406E+03  0.33783034316E+04  0.33247566838E+04 0.  0.
        2    1    3    3  502    0 -0.69603336008E+02 -0.16542977823E+04 -0.45011453356E+03  0.17158522285E+04  0.25500000920E-02 0.  1.
       -2    1    3    3    0  502  0.69603336008E+02  0.16542977823E+04 -0.14899069050E+03  0.16624512031E+04  0.25500000920E-02 0. -1.
</event>
<event>
 5   0  0.1126221E-06  0.3298361E+04  0.7818609E-02  0.8163313E-01
        2   -1    0    0  501    0  0.00000000000E+00  0.00000000000E+00  0.24484127487E+04  0.24484127487E+04  0.25500000920E-02 0.  1.
       -2   -1    0    0    0  501  0.00000000000E+00  0.00000000000E+00 -0.11108406518E+04  0.11108406518E+04  0.25500000920E-02 0. -1.
    10030    2    1    2    0    0  0.00000000000E+00  0.00000000000E+00  0.13375720969E+04  0.35592534005E+04  0.32983610559E+04 0.  0.
        2    1    3    3  502    0 -0.10935462631E+04 -0.39521512045E+03 -0.59323135881E+03  0.13053589031E+04  0.25500000920E-02 0. -1.
       -2    1    3    3    0  502  0.10935462631E+04  0.39521512045E+03  0.19308034557E+04  0.22538944974E+04  0.25500000920E-02 0.  1.
</event>
<event>
 5   0  0.1146799E-06  0.3298276E+04  0.7818609E-02  0.8163334E-01
       -2   -1    0    0    0  501  0.00000000000E+00  0.00000000000E+00  0.12379267582E+04  0.12379267582E+04  0.25500000920E-02 0. -1.
        2   -1    0    0  501    0  0.00000000000E+00  0.00000000000E+00 -0.21969438901E+04  0.21969438901E+04  0.25500000920E-02 0.  1.
    10030    2    1    2    0    0  0.00000000000E+00  0.00000000000E+00 -0.95901713194E+03  0.34348706483E+04  0.32982756876E+04 0.  0.
        5    1    3    3  502    0  0.90160579866E+03 -0.12096773621E+04 -0.11729849253E+04  0.19110541754E+04  0.46999998093E+01 0.  1.
       -5    1    3    3    0  502 -0.90160579866E+03  0.12096773621E+04  0.21396779338E+03  0.15238164729E+04  0.46999998093E+01 0. -1.
</event>
<event>
 5   0  0.3757406E-07  0.3285374E+04  0.7818609E-02  0.8166627E-01
        1   -1    0    0  501    0  0.00000000000E+00  0.00000000000E+00  0.26677040113E+04  0.26677040113E+04  0.50400001928E-02 0.  1.
       -1   -1    0    0    0  501  0.00000000000E+00  0.00000000000E+00 -0.10115139819E+04  0.10115139819E+04  0.50400001928E-02 0. -1.
    10030    2    1    2    0    0  0.00000000000E+00  0.00000000000E+00  0.16561900294E+04  0.36792179932E+04  0.32853735903E+04 0.  0.
        1    1    3    3  502    0  0.42624914120E+03 -0.15340107175E+04  0.12809783435E+04  0.20434732023E+04  0.50400001928E-02 0.  1.
       -1    1    3    3    0  502 -0.42624914120E+03  0.15340107175E+04  0.37521168589E+03  0.16357447909E+04  0.50400001928E-02 0. -1.
</event>
<event>
 5   0  0.1116462E-06  0.3279528E+04  0.7818609E-02  0.8168124E-01
       -2   -1    0    0    0  501  0.00000000000E+00  0.00000000000E+00  0.15239064284E+04  0.15239064284E+04  0.25500000920E-02 0. -1.
        2   -1    0    0  501    0  0.00000000000E+00  0.00000000000E+00 -0.17644299976E+04  0.17644299976E+04  0.25500000920E-02 0.  1.
    10030    2    1    2    0    0  0.00000000000E+00  0.00000000000E+00 -0.24052356919E+03  0.32883364261E+04  0.32795281465E+04 0.  0.
        1    1    3    3  502    0  0.63491625858E+03  0.13679636567E+04 -0.76571659671E+03  0.16913796522E+04  0.50400001928E-02 0.  1.
       -1    1    3    3    0  502 -0.63491625858E+03 -0.13679636567E+04  0.52519302751E+03  0.15969567739E+04  0.50400001928E-02 0. -1.
</event>
<event>
 5   0  0.3757406E-07  0.3290178E+04  0.7818609E-02  0.8165399E-01
       -1   -1    0    0    0  501  0.00000000000E+00  0.00000000000E+00  0.22068164387E+04  0.22068164387E+04  0.50400001928E-02 0.  1.
        1   -1    0    0  501    0  0.00000000000E+00  0.00000000000E+00 -0.12263447804E+04  0.12263447804E+04  0.50400001928E-02 0. -1.
    10030    2    1    2    0    0  0.00000000000E+00  0.00000000000E+00  0.98047165831E+03  0.34331612191E+04  0.32901780018E+04 0.  0.
        1    1    3    3  502    0 -0.92580897219E+02  0.69120902368E+03  0.20449444629E+04  0.21605876500E+04  0.50400001928E-02 0.  1.
       -1    1    3    3    0  502  0.92580897219E+02 -0.69120902368E+03 -0.10644728046E+04  0.12725735691E+04  0.50400001928E-02 0. -1.
</event>
<event>
 5   0  0.1146799E-06  0.3308357E+04  0.7818609E-02  0.8160772E-01
        2   -1    0    0  501    0  0.00000000000E+00  0.00000000000E+00  0.18612563419E+04  0.18612563419E+04  0.25500000920E-02 0. -1.
       -2   -1    0    0    0  501  0.00000000000E+00  0.00000000000E+00 -0.14701393884E+04  0.14701393884E+04  0.25500000920E-02 0.  1.
    10030    2    1    2    0    0  0.00000000000E+00  0.00000000000E+00  0.39111695357E+03  0.33313957303E+04  0.33083568490E+04 0.  0.
        5    1    3    3  502    0 -0.15688682779E+04 -0.40510081435E+03 -0.13967100397E+03  0.16263408077E+04  0.46999998093E+01 0.  1.
       -5    1    3    3    0  502  0.15688682779E+04  0.40510081435E+03  0.53078795754E+03  0.17050549226E+04  0.46999998093E+01 0. -1.
</event>
<event>
 5   0  0.1116462E-06  0.3301177E+04  0.7818609E-02  0.8162596E-01
       -2   -1    0    0    0  501  0.00000000000E+00  0.00000000000E+00  0.99749400526E+03  0.99749400526E+03  0.25500000920E-02 0. -1.
        2   -1    0    0  501    0  0.00000000000E+00  0.00000000000E+00 -0.27312870449E+04  0.27312870449E+04  0.25500000920E-02 0.  1.
    10030    2    1    2    0    0  0.00000000000E+00  0.00000000000E+00 -0.17337930396E+04  0.37287810501E+04  0.33011770349E+04 0.  0.
        1    1    3    3  502    0  0.10906046739E+04  0.71443291283E+03 -0.20102414210E+04  0.23960182621E+04  0.50400001928E-02 0.  1.
       -1    1    3    3    0  502 -0.10906046739E+04 -0.71443291283E+03  0.27644838134E+03  0.13327627881E+04  0.50400001928E-02 0. -1.
</event>
<event>
 5   0  0.1146799E-06  0.3288668E+04  0.7818609E-02  0.8165785E-01
       -2   -1    0    0    0  501  0.00000000000E+00  0.00000000000E+00  0.87223090304E+03  0.87223090304E+03  0.25500000920E-02 0.  1.
        2   -1    0    0  501    0  0.00000000000E+00  0.00000000000E+00 -0.30999069088E+04  0.30999069088E+04  0.25500000920E-02 0. -1.
    10030    2    1    2    0    0  0.00000000000E+00  0.00000000000E+00 -0.22276760057E+04  0.39721378118E+04  0.32886681817E+04 0.  0.
        5    1    3    3  502    0  0.10242406933E+04  0.10895527104E+04 -0.28789505425E+03  0.15228590738E+04  0.46999998093E+01 0.  1.
       -5    1    3    3    0  502 -0.10242406933E+04 -0.10895527104E+04 -0.19397809515E+04  0.24492787380E+04  0.46999998093E+01 0. -1.
</event>
<event>
 5   0  0.1146799E-06  0.3334199E+04  0.7818609E-02  0.8154248E-01
        2   -1    0    0  501    0  0.00000000000E+00  0.00000000000E+00  0.18931561997E+04  0.18931561997E+04  0.25500000920E-02 0. -1.
       -2   -1    0    0    0  501  0.00000000000E+00  0.00000000000E+00 -0.14680358171E+04  0.14680358171E+04  0.25500000920E-02 0.  1.
    10030    2    1    2    0    0  0.00000000000E+00  0.00000000000E+00  0.42512038261E+03  0.33611920168E+04  0.33341992193E+04 0.  0.
        5    1    3    3  502    0 -0.32373219824E+03 -0.74547838020E+03 -0.12547848691E+04  0.14950075950E+04  0.46999998093E+01 0.  1.
       -5    1    3    3    0  502  0.32373219824E+03  0.74547838020E+03  0.16799052517E+04  0.18661844218E+04  0.46999998093E+01 0. -1.
</event>
<event>
 5   0  0.3674967E-07  0.3035366E+04  0.7818609E-02  0.8233704E-01
       -1   -1    0    0    0  501  0.00000000000E+00  0.00000000000E+00  0.11720792465E+04  0.11720792465E+04  0.50400001928E-02 0.  1.
        1   -1    0    0  501    0  0.00000000000E+00  0.00000000000E+00 -0.19651924219E+04  0.19651924219E+04  0.50400001928E-02 0. -1.
    10030    2    1    2    0    0  0.00000000000E+00  0.00000000000E+00 -0.79311317540E+03  0.31372716684E+04  0.30353657131E+04 0.  0.
        2    1    3    3  502    0 -0.51923256651E+03 -0.26211643964E+03 -0.18454229255E+04  0.19349142772E+04  0.25500000920E-02 0. -1.
       -2    1    3    3    0  502  0.51923256651E+03  0.26211643964E+03  0.10523097501E+04  0.12023573912E+04  0.25500000920E-02 0.  1.
</event>
<event>
 5   0  0.1129434E-06  0.3271513E+04  0.7818609E-02  0.8170182E-01
       -2   -1    0    0    0  501  0.00000000000E+00  0.00000000000E+00  0.11447099920E+04  0.11447099920E+04  0.25500000920E-02 0.  1.
        2   -1    0    0  501    0  0.00000000000E+00  0.00000000000E+00 -0.23374468461E+04  0.23374468461E+04  0.25500000920E-02 0. -1.
    10030    2    1    2    0    0  0.00000000000E+00  0.00000000000E+00 -0.11927368540E+04  0.34821568381E+04  0.32715126535E+04 0.  0.
        3    1    3    3  502    0  0.13454265280E+04  0.33333830456E+03  0.32812527115E+03  0.14244132726E+04  0.10100000352E+00 0.  1.
       -3    1    3    3    0  502 -0.13454265280E+04 -0.33333830456E+03 -0.15208621252E+04  0.20577435655E+04  0.10100000352E+00 0. -1.
</event>
<event>
 5   0  0.3674967E-07  0.3319879E+04  0.7818609E-02  0.8157855E-01
       -1   -1    0    0    0  501  0.00000000000E+00  0.00000000000E+00  0.13799382573E+04  0.13799382574E+04  0.50400001928E-02 0.  1.
        1   -1    0    0  501    0  0.00000000000E+00  0.00000000000E+00 -0.19967557084E+04  0.19967557084E+04  0.50400001928E-02 0. -1.
    10030    2    1    2    0    0  0.00000000000E+00  0.00000000000E+00 -0.61681745102E+03  0.33766939657E+04  0.33198792704E+04 0.  0.
        2    1    3    3  502    0 -0.76736624564E+03  0.13345126983E+04 -0.94002268210E+03  0.18037232991E+04  0.25500000920E-02 0. -1.
       -2    1    3    3    0  502  0.76736624564E+03 -0.13345126983E+04  0.32320523108E+03  0.15729706667E+04  0.25500000920E-02 0.  1.
</event>
<event>
 5   0  0.1120545E-06  0.3305718E+04  0.7818609E-02  0.8161442E-01
       -2   -1    0    0    0  501  0.00000000000E+00  0.00000000000E+00  0.10646917606E+04  0.10646917606E+04  0.25500000920E-02 0. -1.
        2   -1    0    0  501    0  0.00000000000E+00  0.00000000000E+00 -0.25659469808E+04  0.25659469808E+04  0.25500000920E-02 0.  1.
    10030    2    1    2    0    0  0.00000000000E+00  0.00000000000E+00 -0.15012552202E+04  0.36306387415E+04  0.33057178396E+04 0.  0.
        4    1    3    3  502    0  0.14043893461E+04 -0.20512394308E+03 -0.16809748510E+04  0.22000143931E+04  0.12699999809E+01 0. -1.
       -4    1    3    3    0  502 -0.14043893461E+04  0.20512394308E+03  0.17971963075E+03  0.14306243483E+04  0.12699999809E+01 0.  1.
</event>
<event>
 5   0  0.3749685E-07  0.3279323E+04  0.7818609E-02  0.8168177E-01
        1   -1    0    0  501    0  0.00000000000E+00  0.00000000000E+00  0.14925071605E+04  0.14925071606E+04  0.50400001928E-02 0. -1.
       -1   -1    0    0    0  501  0.00000000000E+00  0.00000000000E+00 -0.18013247249E+04  0.18013247249E+04  0.50400001928E-02 0.  1.
    10030    2    1    2    0    0  0.00000000000E+00  0.00000000000E+00 -0.30881756436E+03  0.32938318855E+04  0.32793231316E+04 0.  0.
        3    1    3    3  502    0  0.20408620097E+03 -0.66422971372E+03 -0.16461184693E+04  0.17867731572E+04  0.10100000352E+00 0.  1.
       -3    1    3    3    0  502 -0.20408620097E+03  0.66422971372E+03  0.13373009049E+04  0.15070587283E+04  0.10100000352E+00 0. -1.
</event>
<event>
 5   0  0.1129434E-06  0.3308907E+04  0.7818609E-02  0.8160633E-01
       -2   -1    0    0    0  501  0.00000000000E+00  0.00000000000E+00  0.22175626465E+04  0.22175626465E+04  0.25500000920E-02 0. -1.
        2   -1    0    0  501    0  0.00000000000E+00  0.00000000000E+00 -0.12343355412E+04  0.12343355412E+04  0.25500000920E-02 0.  1.
    10030    2    1    2    0    0  0.00000000000E+00  0.00000000000E+00  0.98322710523E+03  0.34518981877E+04  0.33089070035E+04 0.  0.
        3    1    3    3  502    0  0.96647263798E+03  0.65656801125E+03 -0.73035726125E+03  0.13778870246E+04  0.10100000352E+00 0.  1.
       -3    1    3    3    0  502 -0.96647263798E+03 -0.65656801125E+03  0.17135843665E+04  0.20740111631E+04  0.10100000352E+00 0. -1.
</event>
<event>
 5   0  0.3709747E-07  0.3329809E+04  0.7818609E-02  0.8155352E-01
       -1   -1    0    0    0  501  0.00000000000E+00  0.00000000000E+00  0.12734877921E+04  0.12734877921E+04  0.50400001928E-02 0.  1.
        1   -1    0    0  501    0  0.00000000000E+00  0.00000000000E+00 -0.21766257532E+04  0.21766257532E+04  0.50400001928E-02 0. -1.
    10030    2    1    2    0    0  0.00000000000E+00  0.00000000000E+00 -0.90313796115E+03  0.34501135453E+04  0.33298085979E+04 0.  0.
        4    1    3    3  502    0 -0.13635877060E+04  0.91345576531E+03 -0.74118871864E+03  0.18008706774E+04  0.12699999809E+01 0. -1.
       -4    1    3    3    0  502  0.13635877060E+04 -0.91345576531E+03 -0.16194924251E+03  0.16492428679E+04  0.12699999809E+01 0.  1.
</event>
<event>
 5   0  0.1116462E-06  0.3295830E+04  0.7818609E-02  0.8163957E-01
       -2   -1    0    0    0  501  0.00000000000E+00  0.00000000000E+00  0.24102751712E+04  0.24102751712E+04  0.25500000920E-02 0.  1.
        2   -1    0    0  501    0  0.00000000000E+00  0.00000000000E+00 -0.11266865034E+04  0.11266865034E+04  0.25500000920E-02 0. -1.
    10030    2    1    2    0    0  0.00000000000E+00  0.00000000000E+00  0.12835886679E+04  0.35369616746E+04  0.32958303991E+04 0.  0.
        1    1    3    3  502    0 -0.10973788067E+04 -0.43894451164E+03 -0.59057383932E+03  0.13212456204E+04  0.50400001928E-02 0. -1.
       -1    1    3    3    0  502  0.10973788067E+04  0.43894451164E+03  0.18741625072E+04  0.22157160542E+04  0.50400001928E-02 0.  1.
</event>
<event>
 5   0  0.3796529E-07  0.3346027E+04  0.7818609E-02  0.8151282E-01
       -1   -1    0    0    0  501  0.00000000000E+00  0.00000000000E+00  0.12187002392E+04  0.12187002392E+04  0.50400001928E-02 0. -1.
        1   -1    0    0  501    0  0.00000000000E+00  0.00000000000E+00 -0.22966875368E+04  0.22966875368E+04  0.50400001928E-02 0.  1.
    10030    2    1    2    0    0  0.00000000000E+00  0.00000000000E+00 -0.10779872976E+04  0.35153877760E+04  0.33460266888E+04 0.  0.
        5    1    3    3  502    0  0.13070020996E+04  0.61079608551E+03  0.35101183437E+03  0.14847753178E+04  0.46999998093E+01 0. -1.
       -5    1    3    3    0  502 -0.13070020996E+04 -0.61079608551E+03 -0.14289991319E+04  0.20306124582E+04  0.46999998093E+01 0.  1.
</event>
<event>
 5   0  0.3709747E-07  0.3331011E+04  0.7818609E-02  0.8155049E-01
        1   -1    0    0  501    0  0.00000000000E+00  0.00000000000E+00  0.18462847746E+04  0.18462847746E+04  0.50400001928E-02 0. -1.
       -1   -1    0    0    0  501  0.00000000000E+00  0.00000000000E+00 -0.15024276127E+04  0.15024276127E+04  0.50400001928E-02 0.  1.
    10030    2    1    2    0    0  0.00000000000E+00  0.00000000000E+00  0.34385716190E+03  0.33487123873E+04  0.33310113937E+04 0.  0.
        4    1    3    3  502    0 -0.14451169075E+04  0.66975017697E+03 -0.31746364080E+03  0.16241037381E+04  0.12699999809E+01 0.  1.
       -4    1    3    3    0  502  0.14451169075E+04 -0.66975017697E+03  0.66132080270E+03  0.17246086492E+04  0.12699999809E+01 0. -1.
</event>
<event>
 5   0  0.1129434E-06  0.3291795E+04  0.7818609E-02  0.8164986E-01
       -2   -1    0    0    0  501  0.00000000000E+00  0.00000000000E+00  0.25236502840E+04  0.25236502840E+04  0.25500000920E-02 0. -1.
        2   -1    0    0  501    0  0.00000000000E+00  0.00000000000E+00 -0.10734366750E+04  0.10734366750E+04  0.25500000920E-02 0.  1.
    10030    2    1    2    0    0  0.00000000000E+00  0.00000000000E+00  0.14502136090E+04  0.35970869589E+04  0.32917951149E+04 0.  0.
        3    1    3    3  502    0  0.59682065430E+03  0.15258101472E+04  0.55341301313E+03  0.17293228363E+04  0.10100000352E+00 0.  1.
       -3    1    3    3    0  502 -0.59682065430E+03 -0.15258101472E+04  0.89680059591E+03  0.18677641227E+04  0.10100000352E+00 0. -1.
</event>
<event>
 5   0  0.3796529E-07  0.3290112E+04  0.7818609E-02  0.8165416E-01
        1   -1    0    0  501    0  0.00000000000E+00  0.00000000000E+00  0.19136332840E+04  0.19136332840E+04  0.50400001928E-02 0. -1.
       -1   -1    0    0    0  501  0.00000000000E+00  0.00000000000E+00 -0.14141735368E+04  0.14141735368E+04  0.50400001928E-02 0.  1.
    10030    2    1    2    0    0  0.00000000000E+00  0.00000000000E+00  0.49945974717E+03  0.33278068208E+04  0.32901121861E+04 0.  0.
        5    1    3    3  502    0 -0.14552397703E+04  0.48498561137E+03  0.85089075914E+03  0.17541297006E+04  0.46999998093E+01 0.  1.
       -5    1    3    3    0  502  0.14552397703E+04 -0.48498561137E+03 -0.35143101198E+03  0.15736771202E+04  0.46999998093E+01 0. -1.
</event>
<event>
 5   0  0.3749685E-07  0.3367371E+04  0.7818609E-02  0.8145961E-01
       -1   -1    0    0    0  501  0.00000000000E+00  0.00000000000E+00  0.16323818910E+04  0.16323818910E+04  0.50400001928E-02 0. -1.
        1   -1    0    0  501    0  0.00000000000E+00  0.00000000000E+00 -0.17366014943E+04  0.17366014943E+04  0.50400001928E-02 0.  1.
    10030    2    1    2    0    0  0.00000000000E+00  0.00000000000E+00 -0.10421960333E+03  0.33689833853E+04  0.33673709812E+04 0.  0.
        3    1    3    3  502    0  0.88995132286E+02  0.69045045028E+02 -0.17328277279E+04  0.17364847527E+04  0.10100000352E+00 0.  1.
       -3    1    3    3    0  502 -0.88995132286E+02 -0.69045045028E+02  0.16286081245E+04  0.16324986326E+04  0.10100000352E+00 0. -1.
</event>
<event>
 5   0  0.3674967E-07  0.3264631E+04  0.7818609E-02  0.8171954E-01
        1   -1    0    0  501    0  0.00000000000E+00  0.00000000000E+00  0.22379758394E+04  0.22379758394E+04  0.50400001928E-02 0. -1.
       -1   -1    0    0    0  501  0.00000000000E+00  0.00000000000E+00 -0.11905642301E+04  0.11905642301E+04  0.50400001928E-02 0.  1.
    10030    2    1    2    0    0  0.00000000000E+00  0.00000000000E+00  0.10474116093E+04  0.34285400695E+04  0.32646310556E+04 0.  0.
        2    1    3    3  502    0  0.18979713680E+03  0.53170304282E+03  0.21321776964E+04  0.22056547345E+04  0.25500000920E-02 0. -1.
       -2    1    3    3    0  502 -0.18979713680E+03 -0.53170304282E+03 -0.10847660871E+04  0.12228853350E+04  0.25500000920E-02 0.  1.
</event>
<event>
 5   0  0.1126221E-06  0.3298146E+04  0.7818609E-02  0.8163367E-01
        2   -1    0    0  501    0  0.00000000000E+00  0.00000000000E+00  0.24857154596E+04  0.24857154596E+04  0.25500000920E-02 0. -1.
       -2   -1    0    0    0  501  0.00000000000E+00  0.00000000000E+00 -0.10940279595E+04  0.10940279595E+04  0.25500000920E-02 0.  1.
    10030    2    1    2    0    0  0.00000000000E+00  0.00000000000E+00  0.13916875001E+04  0.35797434191E+04  0.32981462746E+04 0.  0.
        2    1    3    3  502    0 -0.27812080210E+03  0.52505715958E+02  0.24591558089E+04  0.24753899336E+04  0.25500000920E-02 0. -1.
       -2    1    3    3    0  502  0.27812080210E+03 -0.52505715958E+02 -0.10674683088E+04  0.11043534855E+04  0.25500000920E-02 0.  1.
</event>
<event>
 5   0  0.3709747E-07  0.3320778E+04  0.7818609E-02  0.8157629E-01
        1   -1    0    0  501    0  0.00000000000E+00  0.00000000000E+00  0.23543971931E+04  0.23543971931E+04  0.50400001928E-02 0.  1.
       -1   -1    0    0    0  501  0.00000000000E+00  0.00000000000E+00 -0.11709540621E+04  0.11709540621E+04  0.50400001928E-02 0. -1.
    10030    2    1    2    0    0  0.00000000000E+00  0.00000000000E+00  0.11834431311E+04  0.35253512552E+04  0.33207775939E+04 0.  0.
        4    1    3    3  502    0 -0.17899479020E+03  0.13045214191E+04  0.16655036293E+04  0.21231390015E+04  0.12699999809E+01 0.  1.
       -4    1    3    3    0  502  0.17899479020E+03 -0.13045214191E+04 -0.48206049820E+03  0.14022122537E+04  0.12699999809E+01 0. -1.
</event>
<event>
 5   0  0.3674967E-07  0.3294182E+04  0.7818609E-02  0.8164377E-01
       -1   -1    0    0    0  501  0.00000000000E+00  0.00000000000E+00  0.14751332903E+04  0.14751332904E+04  0.50400001928E-02 0. -1.
        1   -1    0    0  501    0  0.00000000000E+00  0.00000000000E+00 -0.18390936498E+04  0.18390936498E+04  0.50400001928E-02 0.  1.
    10030    2    1    2    0    0  0.00000000000E+00  0.00000000000E+00 -0.36396035942E+03  0.33142269401E+04  0.32941816992E+04 0.  0.
        2    1    3    3  502    0 -0.11671223682E+04  0.22151617573E+03  0.96586728169E+03  0.15310596475E+04  0.25500000920E-02 0. -1.
       -2    1    3    3    0  502  0.11671223682E+04 -0.22151617573E+03 -0.13298276411E+04  0.17831672926E+04  0.25500000920E-02 0.  1.
</event>
<event>
 5   0  0.3749685E-07  0.3254782E+04  0.7818609E-02  0.8174497E-01
       -1   -1    0    0    0  501  0.00000000000E+00  0.00000000000E+00  0.26151178673E+04  0.26151178673E+04  0.50400001928E-02 0. -1.
        1   -1    0    0  501    0  0.00000000000E+00  0.00000000000E+00 -0.10127272366E+04  0.10127272366E+04  0.50400001928E-02 0.  1.
    10030    2    1    2    0    0  0.00000000000E+00  0.00000000000E+00  0.16023906307E+04  0.36278451040E+04  0.32547817692E+04 0.  0.
        3    1    3    3  502    0  0.74088303973E+03  0.10649510370E+04 -0.29395659690E+03  0.13302025713E+04  0.10100000352E+00 0.  1.
       -3    1    3    3    0  502 -0.74088303973E+03 -0.10649510370E+04  0.18963472276E+04  0.22976425326E+04  0.10100000352E+00 0. -1.
</event>
<event>
 5   0  0.1116462E-06  0.3345075E+04  0.7818609E-02  0.8151520E-01
        2   -1    0    0  501    0  0.00000000000E+00  0.00000000000E+00  0.95079897102E+03  0.95079897102E+03  0.25500000920E-02 0.  1.
       -2   -1    0    0    0  501  0.00000000000E+00  0.00000000000E+00 -0.29421381565E+04  0.29421381565E+04  0.25500000920E-02 0. -1.
    10030    2    1    2    0    0  0.00000000000E+00  0.00000000000E+00 -0.19913391855E+04  0.38929371275E+04  0.33450751452E+04 0.  0.
        1    1    3    3  502    0  0.11445097962E+04 -0.86532350068E+03  0.45697742401E+01  0.14348199599E+04  0.50400001928E-02 0.  1.
       -1    1    3    3    0  502 -0.11445097962E+04  0.86532350068E+03 -0.19959089597E+04  0.24581171677E+04  0.50400001928E-02 0. -1.
</event>
<event>
 5   0  0.1120545E-06  0.3294021E+04  0.7818609E-02  0.8164418E-01
       -2   -1    0    0    0  501  0.00000000000E+00  0.00000000000E+00  0.10166422222E+04  0.10166422222E+04  0.25500000920E-02 0. -1.
        2   -1    0    0  501    0  0.00000000000E+00  0.00000000000E+00 -0.26682386162E+04  0.26682386162E+04  0.25500000920E-02 0.  1.
    10030    2    1    2    0    0  0.00000000000E+00  0.00000000000E+00 -0.16515963940E+04  0.36848808384E+04  0.32940212726E+04 0.  0.
        4    1    3    3  502    0 -0.13930185681E+04 -0.99286818698E+02  0.15088878574E+03  0.14046806192E+04  0.12699999809E+01 0. -1.
       -4    1    3    3    0  502  0.13930185681E+04  0.99286818698E+02 -0.18024851797E+04  0.22802002192E+04  0.12699999809E+01 0.  1.
</event>
<event>
 5   0  0.3757406E-07  0.3290198E+04  0.7818609E-02  0.8165394E-01
        1   -1    0    0  501    0  0.00000000000E+00  0.00000000000E+00  0.14749265767E+04  0.14749265767E+04  0.50400001928E-02 0.  1.
       -1   -1    0    0    0  501  0.00000000000E+00  0.00000000000E+00 -0.18349059323E+04  0.18349059323E+04  0.50400001928E-02 0. -1.
    10030    2    1    2    0    0  0.00000000000E+00  0.00000000000E+00 -0.35997935565E+03  0.33098325090E+04  0.32901984897E+04 0.  0.
        1    1    3    3  502    0 -0.10550236947E+04 -0.41146349812E+02  0.10891184737E+04  0.15168872958E+04  0.50400001928E-02 0.  1.
       -1    1    3    3    0  502  0.10550236947E+04  0.41146349812E+02 -0.14490978293E+04  0.17929452132E+04  0.50400001928E-02 0. -1.
</event>
<event>
 5   0  0.1116462E-06  0.3310930E+04  0.7818609E-02  0.8160120E-01
       -2   -1    0    0    0  501  0.00000000000E+00  0.00000000000E+00  0.13819659933E+04  0.13819659933E+04  0.25500000920E-02 0.  1.
        2   -1    0    0  501    0  0.00000000000E+00  0.00000000000E+00 -0.19830910355E+04  0.19830910355E+04  0.25500000920E-02 0. -1.
    10030    2    1    2    0    0  0.00000000000E+00  0.00000000000E+00 -0.60112504220E+03  0.33650570288E+04  0.33109300039E+04 0.  0.
        1    1    3    3  502    0  0.94375810123E+03 -0.32433087442E+03  0.10418998633E+04  0.14427145230E+04  0.50400001928E-02 0.  1.
       -1    1    3    3    0  502 -0.94375810123E+03  0.32433087442E+03 -0.16430249055E+04  0.19223425058E+04  0.50400001928E-02 0. -1.
</event>
<event>
 5   0  0.1120545E-06  0.3292527E+04  0.7818609E-02  0.8164800E-01
        2   -1    0    0  501    0  0.00000000000E+00  0.00000000000E+00  0.20300266845E+04  0.20300266845E+04  0.25500000920E-02 0. -1.
       -2   -1    0    0    0  501  0.00000000000E+00  0.00000000000E+00 -0.13350480567E+04  0.13350480567E+04  0.25500000920E-02 0.  1.
    10030    2    1    2    0    0  0.00000000000E+00  0.00000000000E+00  0.69497862776E+03  0.33650747412E+04  0.32925267988E+04 0.  0.
        4    1    3    3  502    0 -0.10093345101E+04 -0.31051517010E+03  0.16382523556E+04  0.19491147267E+04  0.12699999809E+01 0. -1.
       -4    1    3    3    0  502  0.10093345101E+04  0.31051517010E+03 -0.94327372783E+03  0.14159600145E+04  0.12699999809E+01 0.  1.
</event>
<event>
 5   0  0.1146799E-06  0.3333812E+04  0.7818609E-02  0.8154345E-01
        2   -1    0    0  501    0  0.00000000000E+00  0.00000000000E+00  0.15173204141E+04  0.15173204141E+04  0.25500000920E-02 0. -1.
       -2   -1    0    0    0  501  0.00000000000E+00  0.00000000000E+00 -0.18312380390E+04  0.18312380390E+04  0.25500000920E-02 0.  1.
    10030    2    1    2    0    0  0.00000000000E+00  0.00000000000E+00 -0.31391762485E+03  0.33485584531E+04  0.33338115482E+04 0.  0.
        5    1    3    3  502    0  0.33901329742E+02  0.71658970586E+03  0.13543238949E+04  0.15326008642E+04  0.46999998093E+01 0. -1.
       -5    1    3    3    0  502 -0.33901329742E+02 -0.71658970586E+03 -0.16682415197E+04  0.18159575889E+04  0.46999998093E+01 0.  1.
</event>
<event>
 5   0  0.1116462E-06  0.3293959E+04  0.7818609E-02  0.8164434E-01
       -2   -1    0    0    0  501  0.00000000000E+00  0.00000000000E+00  0.28229548523E+04  0.28229548523E+04  0.25500000920E-02 0. -1.
        2   -1    0    0  501    0  0.00000000000E+00  0.00000000000E+00 -0.96088753534E+03  0.96088753535E+03  0.25500000920E-02 0.  1.
    10030    2    1    2    0    0  0.00000000000E+00  0.00000000000E+00  0.18620673170E+04  0.37838423877E+04  0.32939593989E+04 0.  0.
        1    1    3    3  502    0 -0.17036891307E+03 -0.13241935547E+04  0.20388373465E+04  0.24370826540E+04  0.50400001928E-02 0.  1.
       -1    1    3    3    0  502  0.17036891307E+03  0.13241935547E+04 -0.17677002950E+03  0.13467597337E+04  0.50400001928E-02 0. -1.
</event>
<event>
 5   0  0.1146799E-06  0.3335457E+04  0.7818609E-02  0.8153931E-01
        2   -1    0    0  501    0  0.00000000000E+00  0.00000000000E+00  0.17835768881E+04  0.17835768881E+04  0.25500000920E-02 0.  1.
       -2   -1    0    0    0  501  0.00000000000E+00  0.00000000000E+00 -0.15594049461E+04  0.15594049461E+04  0.25500000920E-02 0. -1.
    10030    2    1    2    0    0  0.00000000000E+00  0.00000000000E+00  0.22417194203E+03  0.33429818343E+04  0.33354571628E+04 0.  0.
        5    1    3    3  502    0 -0.15398227113E+04  0.41883028592E+03 -0.37359339194E+03  0.16389224823E+04  0.46999998093E+01 0. -1.
       -5    1    3    3    0  502  0.15398227113E+04 -0.41883028592E+03  0.59776533397E+03  0.17040593520E+04  0.46999998093E+01 0.  1.
</event>
<event>
 5   0  0.1116462E-06  0.3306325E+04  0.7818609E-02  0.8161288E-01
       -2   -1    0    0    0  501  0.00000000000E+00  0.00000000000E+00  0.14367539825E+04  0.14367539825E+04  0.25500000920E-02 0.  1.
        2   -1    0    0  501    0  0.00000000000E+00  0.00000000000E+00 -0.19021675753E+04  0.19021675753E+04  0.25500000920E-02 0. -1.
    10030    2    1    2    0    0  0.00000000000E+00  0.00000000000E+00 -0.46541359284E+03  0.33389215578E+04  0.33063253556E+04 0.  0.
        1    1    3    3  502    0 -0.96137294782E+03 -0.94188629765E+03  0.73673607998E+03  0.15343297540E+04  0.50400001928E-02 0.  1.
       -1    1    3    3    0  502  0.96137294782E+03  0.94188629765E+03 -0.12021496728E+04  0.18045918038E+04  0.50400001928E-02 0. -1.
</event>
<event>
 5   0  0.3709747E-07  0.3305467E+04  0.7818609E-02  0.8161506E-01
       -1   -1    0    0    0  501  0.00000000000E+00  0.00000000000E+00  0.11995283154E+04  0.11995283154E+04  0.50400001928E-02 0.  1.
        1   -1    0    0  501    0  0.00000000000E+00  0.00000000000E+00 -0.22771682786E+04  0.22771682786E+04  0.50400001928E-02 0. -1.
    10030    2    1    2    0    0  0.00000000000E+00  0.00000000000E+00 -0.10776399632E+04  0.34766965940E+04  0.33054668833E+04 0.  0.
        4    1    3    3  502    0 -0.10751928506E+04  0.18366557973E+03 -0.18448148002E+04  0.21431556105E+04  0.12699999809E+01 0. -1.
       -4    1    3    3    0  502  0.10751928506E+04 -0.18366557973E+03  0.76717483700E+03  0.13335409835E+04  0.12699999809E+01 0.  1.
</event>
<event>
 5   0  0.3749685E-07  0.3297167E+04  0.7818609E-02  0.8163617E-01
        1   -1    0    0  501    0  0.00000000000E+00  0.00000000000E+00  0.16824241601E+04  0.16824241601E+04  0.50400001928E-02 0. -1.
       -1   -1    0    0    0  501  0.00000000000E+00  0.00000000000E+00 -0.16154231342E+04  0.16154231342E+04  0.50400001928E-02 0.  1.
    10030    2    1    2    0    0  0.00000000000E+00  0.00000000000E+00  0.67001025854E+02  0.32978472943E+04  0.32971666077E+04 0.  0.
        3    1    3    3  502    0 -0.96953602693E+03 -0.13322372734E+04  0.88015338478E+02  0.16500312028E+04  0.10100000352E+00 0.  1.
       -3    1    3    3    0  502  0.96953602693E+03  0.13322372734E+04 -0.21014312625E+02  0.16478160916E+04  0.10100000352E+00 0. -1.
</event>
<event>
 5   0  0.1116462E-06  0.3237539E+04  0.7818609E-02  0.8178973E-01
       -2   -1    0    0    0  501  0.00000000000E+00  0.00000000000E+00  0.20612586372E+04  0.20612586372E+04  0.25500000920E-02 0. -1.
        2   -1    0    0  501    0  0.00000000000E+00  0.00000000000E+00 -0.12712690902E+04  0.12712690902E+04  0.25500000920E-02 0.  1.
    10030    2    1    2    0    0  0.00000000000E+00  0.00000000000E+00  0.78998954705E+03  0.33325277274E+04  0.32375388136E+04 0.  0.
        1    1    3    3  502    0  0.46265705744E+03 -0.61416144068E+03  0.18612779465E+04  0.20138523834E+04  0.50400001928E-02 0. -1.
       -1    1    3    3    0  502 -0.46265705744E+03  0.61416144068E+03 -0.10712883995E+04  0.13186753440E+04  0.50400001928E-02 0.  1.
</event>
<event>
 5   0  0.3674967E-07  0.3310476E+04  0.7818609E-02  0.8160235E-01
       -1   -1    0    0    0  501  0.00000000000E+00  0.00000000000E+00  0.24901267324E+04  0.24901267324E+04  0.50400001928E-02 0. -1.
        1   -1    0    0  501    0  0.00000000000E+00  0.00000000000E+00 -0.11002703857E+04  0.11002703857E+04  0.50400001928E-02 0.  1.
    10030    2    1    2    0    0  0.00000000000E+00  0.00000000000E+00  0.13898563468E+04  0.35903971181E+04  0.33104759176E+04 0.  0.
        2    1    3    3  502    0 -0.64527803383E+03  0.37719514449E+01  0.23480902082E+04  0.24351438550E+04  0.25500000920E-02 0. -1.
       -2    1    3    3    0  502  0.64527803383E+03 -0.37719514449E+01 -0.95823386148E+03  0.11552532631E+04  0.25500000920E-02 0.  1.
</event>
<event>
 5   0  0.1126221E-06  0.3435602E+04  0.7818609E-02  0.8129223E-01
       -2   -1    0    0    0  501  0.00000000000E+00  0.00000000000E+00  0.12263693907E+04  0.12263693907E+04  0.25500000920E-02 0. -1.
        2   -1    0    0  501    0  0.00000000000E+00  0.00000000000E+00 -0.24061597116E+04  0.24061597116E+04  0.25500000920E-02 0.  1.
    10030    2    1    2    0    0  0.00000000000E+00  0.00000000000E+00 -0.11797903209E+04  0.36325291023E+04  0.34356022001E+04 0.  0.
        2    1    3    3  502    0 -0.64153234198E+03 -0.15089554538E+04 -0.48355250804E+02  0.16403806075E+04  0.25500000920E-02 0. -1.
       -2    1    3    3    0  502  0.64153234198E+03  0.15089554538E+04 -0.11314350701E+04  0.19921484947E+04  0.25500000920E-02 0.  1.
</event>
<event>
 5   0  0.3709747E-07  0.3266445E+04  0.7818609E-02  0.8171486E-01
       -1   -1    0    0    0  501  0.00000000000E+00  0.00000000000E+00  0.14883607419E+04  0.14883607419E+04  0.50400001928E-02 0.  1.
        1   -1    0    0  501    0  0.00000000000E+00  0.00000000000E+00 -0.17921834172E+04  0.17921834172E+04  0.50400001928E-02 0. -1.
    10030    2    1    2    0    0  0.00000000000E+00  0.00000000000E+00 -0.30382267538E+03  0.32805441591E+04  0.32664448199E+04 0.  0.
        4    1    3    3  502    0  0.15607354972E+03 -0.66621674290E+03  0.13374632016E+04  0.15023358912E+04  0.12699999809E+01 0.  1.
       -4    1    3    3    0  502 -0.15607354972E+03  0.66621674290E+03 -0.16412858769E+04  0.17782082679E+04  0.12699999809E+01 0. -1.
</event>
<event>
 5   0  0.1146799E-06  0.3109189E+04  0.7818609E-02  0.8213221E-01
       -2   -1    0    0    0  501  0.00000000000E+00  0.00000000000E+00  0.11052695338E+04  0.11052695338E+04  0.25500000920E-02 0.  1.
        2   -1    0    0  501    0  0.00000000000E+00  0.00000000000E+00 -0.21865834915E+04  0.21865834915E+04  0.25500000920E-02 0. -1.
    10030    2    1    2    0    0  0.00000000000E+00  0.00000000000E+00 -0.10813139577E+04  0.32918530253E+04  0.31091890366E+04 0.  0.
        5    1    3    3  502    0  0.39565918570E+03  0.38094606725E+03 -0.20804285262E+04  0.21517135126E+04  0.46999998093E+01 0. -1.
       -5    1    3    3    0  502 -0.39565918570E+03 -0.38094606725E+03  0.99911456859E+03  0.11401395128E+04  0.46999998093E+01 0.  1.
</event>
<event>
 5   0  0.3757406E-07  0.3296860E+04  0.7818609E-02  0.8163695E-01
       -1   -1    0    0    0  501  0.00000000000E+00  0.00000000000E+00  0.24342340311E+04  0.24342340311E+04  0.50400001928E-02 0. -1.
        1   -1    0    0  501    0  0.00000000000E+00  0.00000000000E+00 -0.11162945482E+04  0.11162945482E+04  0.50400001928E-02 0.  1.
    10030    2    1    2    0    0  0.00000000000E+00  0.00000000000E+00  0.13179394830E+04  0.35505285793E+04  0.32968604326E+04 0.  0.
        1    1    3    3  502    0 -0.15292680121E+04  0.21164635605E+03  0.36698941418E+02  0.15442803001E+04  0.50400001928E-02 0.  1.
       -1    1    3    3    0  502  0.15292680121E+04 -0.21164635605E+03  0.12812405415E+04  0.20062482793E+04  0.50400001928E-02 0. -1.
</event>
<event>
 5   0  0.1116462E-06  0.3307653E+04  0.7818609E-02  0.8160951E-01
        2   -1    0    0  501    0  0.00000000000E+00  0.00000000000E+00  0.19660828926E+04  0.19660828926E+04  0.25500000920E-02 0. -1.
       -2   -1    0    0    0  501  0.00000000000E+00  0.00000000000E+00 -0.13911634824E+04  0.13911634824E+04  0.25500000920E-02 0.  1.
    10030    2    1    2    0    0  0.00000000000E+00  0.00000000000E+00  0.57491941026E+03  0.33572463750E+04  0.33076533818E+04 0.  0.
        1    1    3    3  502    0  0.71784426044E+02 -0.74105665095E+03  0.17863629709E+04  0.19353063395E+04  0.50400001928E-02 0. -1.
       -1    1    3    3    0  502 -0.71784426044E+02  0.74105665095E+03 -0.12114435607E+04  0.14219400355E+04  0.50400001928E-02 0.  1.
</event>
<event>
 5   0  0.3674967E-07  0.3305915E+04  0.7818609E-02  0.8161392E-01
        1   -1    0    0  501    0  0.00000000000E+00  0.00000000000E+00  0.22686619406E+04  0.22686619406E+04  0.50400001928E-02 0.  1.
       -1   -1    0    0    0  501  0.00000000000E+00  0.00000000000E+00 -0.12043526172E+04  0.12043526173E+04  0.50400001928E-02 0. -1.
    10030    2    1    2    0    0  0.00000000000E+00  0.00000000000E+00  0.10643093234E+04  0.34730145579E+04  0.33059152717E+04 0.  0.
        2    1    3    3  502    0  0.73464218195E+03  0.10587943178E+03  0.20837500980E+04  0.22119954928E+04  0.25500000920E-02 0.  1.
       -2    1    3    3    0  502 -0.73464218195E+03 -0.10587943178E+03 -0.10194407746E+04  0.12610190651E+04  0.25500000920E-02 0. -1.
</event>
<event>
 5   0  0.3674967E-07  0.3267839E+04  0.7818609E-02  0.8171127E-01
        1   -1    0    0  501    0  0.00000000000E+00  0.00000000000E+00  0.17145512351E+04  0.17145512351E+04  0.50400001928E-02 0. -1.
       -1   -1    0    0    0  501  0.00000000000E+00  0.00000000000E+00 -0.15570798645E+04  0.15570798645E+04  0.50400001928E-02 0.  1.
    10030    2    1    2    0    0  0.00000000000E+00  0.00000000000E+00  0.15747137057E+03  0.32716310996E+04  0.32678391667E+04 0.  0.
        2    1    3    3  502    0  0.88933757287E+03 -0.96145009709E+03 -0.89932452800E+03  0.15887391902E+04  0.25500000920E-02 0.  1.
       -2    1    3    3    0  502 -0.88933757287E+03  0.96145009709E+03  0.10567958986E+04  0.16828919095E+04  0.25500000920E-02 0. -1.
</event>
<event>
 5   0  0.3796529E-07  0.3283821E+04  0.7818609E-02  0.8167024E-01
       -1   -1    0    0    0  501  0.00000000000E+00  0.00000000000E+00  0.14661671365E+04  0.14661671365E+04  0.50400001928E-02 0. -1.
        1   -1    0    0  501    0  0.00000000000E+00  0.00000000000E+00 -0.18387199682E+04  0.18387199682E+04  0.50400001928E-02 0.  1.
    10030    2    1    2    0    0  0.00000000000E+00  0.00000000000E+00 -0.37255283166E+03  0.33048871047E+04  0.32838214267E+04 0.  0.
        5    1    3    3  502    0  0.12357271607E+03 -0.16048137254E+04 -0.51262716008E+03  0.16892323715E+04  0.46999998093E+01 0.  1.
       -5    1    3    3    0  502 -0.12357271607E+03  0.16048137254E+04  0.14007432842E+03  0.16156547332E+04  0.46999998093E+01 0. -1.
</event>
<event>
 5   0  0.3796529E-07  0.3281647E+04  0.7818609E-02  0.8167581E-01
        1   -1    0    0  501    0  0.00000000000E+00  0.00000000000E+00  0.18274032016E+04  0.18274032016E+04  0.50400001928E-02 0. -1.
       -1   -1    0    0    0  501  0.00000000000E+00  0.00000000000E+00 -0.14732935929E+04  0.14732935929E+04  0.50400001928E-02 0.  1.
    10030    2    1    2    0    0  0.00000000000E+00  0.00000000000E+00  0.35410960875E+03  0.33006967945E+04  0.32816467991E+04 0.  0.
        5    1    3    3  502    0 -0.11990870187E+04  0.77803727577E+03  0.98741640162E+03  0.17372866548E+04  0.46999998093E+01 0. -1.
       -5    1    3    3    0  502  0.11990870187E+04 -0.77803727577E+03 -0.63330679287E+03  0.15634101397E+04  0.46999998093E+01 0.  1.
</event>
<event>
 5   0  0.3709747E-07  0.3288122E+04  0.7818609E-02  0.8165924E-01
       -1   -1    0    0    0  501  0.00000000000E+00  0.00000000000E+00  0.18367162929E+04  0.18367162929E+04  0.50400001928E-02 0. -1.
        1   -1    0    0  501    0  0.00000000000E+00  0.00000000000E+00 -0.14716138331E+04  0.14716138331E+04  0.50400001928E-02 0.  1.
    10030    2    1    2    0    0  0.00000000000E+00  0.00000000000E+00  0.36510245981E+03  0.33083301259E+04  0.32881223238E+04 0.  0.
        4    1    3    3  502    0 -0.83659817310E+03 -0.20613963772E+03 -0.12262487280E+04  0.14986919661E+04  0.12699999809E+01 0.  1.
       -4    1    3    3    0  502  0.83659817310E+03  0.20613963772E+03  0.15913511878E+04  0.18096381598E+04  0.12699999809E+01 0. -1.
</event>
<event>
 5   0  0.1120545E-06  0.3307041E+04  0.7818609E-02  0.8161106E-01
       -2   -1    0    0    0  501  0.00000000000E+00  0.00000000000E+00  0.13163013960E+04  0.13163013960E+04  0.25500000920E-02 0.  1.
        2   -1    0    0  501    0  0.00000000000E+00  0.00000000000E+00 -0.20771312493E+04  0.20771312493E+04  0.25500000920E-02 0. -1.
    10030    2    1    2    0    0  0.00000000000E+00  0.00000000000E+00 -0.76082985331E+03  0.33934326453E+04  0.33070414349E+04 0.  0.
        4    1    3    3  502    0 -0.65318839328E+03 -0.24875202420E+03  0.11572632787E+04  0.13519587848E+04  0.12699999809E+01 0.  1.
       -4    1    3    3    0  502  0.65318839328E+03  0.24875202420E+03 -0.19180931321E+04  0.20414738604E+04  0.12699999809E+01 0. -1.
</event>
<event>
 5   0  0.1116462E-06  0.3265192E+04  0.7818609E-02  0.8171809E-01
        2   -1    0    0  501    0  0.00000000000E+00  0.00000000000E+00  0.21824148066E+04  0.21824148066E+04  0.25500000920E-02 0. -1.
       -2   -1    0    0    0  501  0.00000000000E+00  0.00000000000E+00 -0.12212938459E+04  0.12212938459E+04  0.25500000920E-02 0.  1.
    10030    2    1    2    0    0  0.00000000000E+00  0.00000000000E+00  0.96112096074E+03  0.34037086525E+04  0.32651920448E+04 0.  0.
        1    1    3    3  502    0 -0.33324393486E+03  0.52458598253E+01 -0.11854541573E+04  0.12314140645E+04  0.50400001928E-02 0.  1.
       -1    1    3    3    0  502  0.33324393486E+03 -0.52458598253E+01  0.21465751181E+04  0.21722945879E+04  0.50400001928E-02 0. -1.
</event>
<event>
 5   0  0.1146799E-06  0.3297886E+04  0.7818609E-02  0.8163433E-01
        2   -1    0    0  501    0  0.00000000000E+00  0.00000000000E+00  0.18346648881E+04  0.18346648881E+04  0.25500000920E-02 0.  1.
       -2   -1    0    0    0  501  0.00000000000E+00  0.00000000000E+00 -0.14820218771E+04  0.14820218771E+04  0.25500000920E-02 0. -1.
    10030    2    1    2    0    0  0.00000000000E+00  0.00000000000E+00  0.35264301095E+03  0.33166867652E+04  0.32978862935E+04 0.  0.
        5    1    3    3  502    0  0.78832193727E+03  0.80316091091E+03 -0.10357346380E+04  0.15294728687E+04  0.46999998093E+01 0. -1.
       -5    1    3    3    0  502 -0.78832193727E+03 -0.80316091091E+03  0.13883776490E+04  0.17872138965E+04  0.46999998093E+01 0.  1.
</event>
<event>
 5   0  0.1126221E-06  0.3272883E+04  0.7818609E-02  0.8169830E-01
       -2   -1    0    0    0  501  0.00000000000E+00  0.00000000000E+00  0.11593304732E+04  0.11593304732E+04  0.25500000920E-02 0. -1.
        2   -1    0    0  501    0  0.00000000000E+00  0.00000000000E+00 -0.23099024258E+04  0.23099024258E+04  0.25500000920E-02 0.  1.
    10030    2    1    2    0    0  0.00000000000E+00  0.00000000000E+00 -0.11505719526E+04  0.34692328990E+04  0.32728826880E+04 0.  0.
        2    1    3    3  502    0 -0.74783221951E+03 -0.10451926875E+04  0.49853432498E+03  0.13784836799E+04  0.25500000920E-02 0. -1.
       -2    1    3    3    0  502  0.74783221951E+03  0.10451926875E+04 -0.16491062776E+04  0.20907492191E+04  0.25500000920E-02 0.  1.
</event>
<event>
 5   0  0.3674967E-07  0.3275754E+04  0.7818609E-02  0.8169092E-01
       -1   -1    0    0    0  501  0.00000000000E+00  0.00000000000E+00  0.19404418954E+04  0.19404418954E+04  0.50400001928E-02 0. -1.
        1   -1    0    0  501    0  0.00000000000E+00  0.00000000000E+00 -0.13824900811E+04  0.13824900811E+04  0.50400001928E-02 0.  1.
    10030    2    1    2    0    0  0.00000000000E+00  0.00000000000E+00  0.55795181434E+03  0.33229319765E+04  0.32757543701E+04 0.  0.
        2    1    3    3  502    0 -0.62911163817E+03 -0.10070225284E+04  0.14233931126E+04  0.18536244979E+04  0.25500000920E-02 0. -1.
       -2    1    3    3    0  502  0.62911163817E+03  0.10070225284E+04 -0.86544129828E+03  0.14693074786E+04  0.25500000920E-02 0.  1.
</event>
<event>
 5   0  0.3757406E-07  0.3307310E+04  0.7818609E-02  0.8161038E-01
       -1   -1    0    0    0  501  0.00000000000E+00  0.00000000000E+00  0.93740517576E+03  0.93740517578E+03  0.50400001928E-02 0.  1.
        1   -1    0    0  501    0  0.00000000000E+00  0.00000000000E+00 -0.29171752494E+04  0.29171752494E+04  0.50400001928E-02 0. -1.
    10030    2    1    2    0    0  0.00000000000E+00  0.00000000000E+00 -0.19797700736E+04  0.38545804252E+04  0.33073101925E+04 0.  0.
        1    1    3    3  502    0  0.30553750666E+03  0.86244451422E+03  0.61551379643E+03  0.11027333956E+04  0.50400001928E-02 0.  1.
       -1    1    3    3    0  502 -0.30553750666E+03 -0.86244451422E+03 -0.25952838700E+04  0.27518470296E+04  0.50400001928E-02 0. -1.
</event>
<event>
 5   0  0.1146799E-06  0.3236753E+04  0.7818609E-02  0.8179178E-01
        2   -1    0    0  501    0  0.00000000000E+00  0.00000000000E+00  0.16273222895E+04  0.16273222895E+04  0.25500000920E-02 0. -1.
       -2   -1    0    0    0  501  0.00000000000E+00  0.00000000000E+00 -0.16094800521E+04  0.16094800521E+04  0.25500000920E-02 0.  1.
    10030    2    1    2    0    0  0.00000000000E+00  0.00000000000E+00  0.17842237432E+02  0.32368023416E+04  0.32367531654E+04 0.  0.
        5    1    3    3  502    0 -0.11455957793E+04  0.56078474531E+03 -0.98721220779E+03  0.16129101814E+04  0.46999998093E+01 0.  1.
       -5    1    3    3    0  502  0.11455957793E+04 -0.56078474531E+03  0.10050544452E+04  0.16238921602E+04  0.46999998093E+01 0. -1.
</event>
<event>
 5   0  0.1116462E-06  0.3297793E+04  0.7818609E-02  0.8163457E-01
        2   -1    0    0  501    0  0.00000000000E+00  0.00000000000E+00  0.21976364542E+04  0.21976364542E+04  0.25500000920E-02 0.  1.
       -2   -1    0    0    0  501  0.00000000000E+00  0.00000000000E+00 -0.12371745225E+04  0.12371745225E+04  0.25500000920E-02 0. -1.
    10030    2    1    2    0    0  0.00000000000E+00  0.00000000000E+00  0.96046193173E+03  0.34348109768E+04  0.32977930990E+04 0.  0.
        1    1    3    3  502    0 -0.14092761010E+04  0.42781197794E+03 -0.29204578940E+03  0.15014569459E+04  0.50400001928E-02 0. -1.
       -1    1    3    3    0  502  0.14092761010E+04 -0.42781197794E+03  0.12525077211E+04  0.19333540309E+04  0.50400001928E-02 0.  1.
</event>
<event>
 5   0  0.3573375E-07  0.3348498E+04  0.7818609E-02  0.8150663E-01
       -3   -1    0    0    0  501  0.00000000000E+00  0.00000000000E+00  0.19519253066E+04  0.19519253092E+04  0.10100000352E+00 0. -1.
        3   -1    0    0  501    0  0.00000000000E+00  0.00000000000E+00 -0.14360744533E+04  0.14360744569E+04  0.10100000352E+00 0.  1.
    10030    2    1    2    0    0  0.00000000000E+00  0.00000000000E+00  0.51585085330E+03  0.33879997661E+04  0.33484982175E+04 0.  0.
        2    1    3    3  502    0  0.47804797384E+03  0.13258789384E+04  0.11722590753E+04  0.18332147076E+04  0.25500000920E-02 0. -1.
       -2    1    3    3    0  502 -0.47804797384E+03 -0.13258789384E+04 -0.65640822197E+03  0.15547850586E+04  0.25500000920E-02 0.  1.
</event>
<event>
 5   0  0.3749685E-07  0.3287885E+04  0.7818609E-02  0.8165985E-01
       -1   -1    0    0    0  501  0.00000000000E+00  0.00000000000E+00  0.14297802338E+04  0.14297802338E+04  0.50400001928E-02 0.  1.
        1   -1    0    0  501    0  0.00000000000E+00  0.00000000000E+00 -0.18901830371E+04  0.18901830371E+04  0.50400001928E-02 0. -1.
    10030    2    1    2    0    0  0.00000000000E+00  0.00000000000E+00 -0.46040280326E+03  0.33199632709E+04  0.32878846359E+04 0.  0.
        3    1    3    3  502    0 -0.37015868000E+03  0.85023649855E+03 -0.16008792621E+04  0.18500632351E+04  0.10100000352E+00 0. -1.
       -3    1    3    3    0  502  0.37015868000E+03 -0.85023649855E+03  0.11404764589E+04  0.14699000358E+04  0.10100000352E+00 0.  1.
</event>
<event>
 5   0  0.1146799E-06  0.3318893E+04  0.7818609E-02  0.8158105E-01
        2   -1    0    0  501    0  0.00000000000E+00  0.00000000000E+00  0.16860045689E+04  0.16860045689E+04  0.25500000920E-02 0. -1.
       -2   -1    0    0    0  501  0.00000000000E+00  0.00000000000E+00 -0.16333067767E+04  0.16333067767E+04  0.25500000920E-02 0.  1.
    10030    2    1    2    0    0  0.00000000000E+00  0.00000000000E+00  0.52697792200E+02  0.33193113456E+04  0.33188930009E+04 0.  0.
        5    1    3    3  502    0 -0.28949419744E+03 -0.13388719375E+04 -0.91044181531E+03  0.16447830691E+04  0.46999998093E+01 0.  1.
       -5    1    3    3    0  502  0.28949419744E+03  0.13388719375E+04  0.96313960751E+03  0.16745282765E+04  0.46999998093E+01 0. -1.
</event>
<event>
 5   0  0.3749685E-07  0.3314985E+04  0.7818609E-02  0.8159093E-01
        1   -1    0    0  501    0  0.00000000000E+00  0.00000000000E+00  0.17351786144E+04  0.17351786144E+04  0.50400001928E-02 0.  1.
       -1   -1    0    0    0  501  0.00000000000E+00  0.00000000000E+00 -0.15832846340E+04  0.15832846340E+04  0.50400001928E-02 0. -1.
    10030    2    1    2    0    0  0.00000000000E+00  0.00000000000E+00  0.15189398040E+03  0.33184632484E+04  0.33149851508E+04 0.  0.
        3    1    3    3  502    0  0.48219952663E+03  0.77320225374E+03 -0.13100357365E+04  0.15957918880E+04  0.10100000352E+00 0. -1.
       -3    1    3    3    0  502 -0.48219952663E+03 -0.77320225374E+03  0.14619297169E+04  0.17226713604E+04  0.10100000352E+00 0.  1.
</event>
<event>
 5   0  0.1146799E-06  0.3322052E+04  0.7818609E-02  0.8157307E-01
        2   -1    0    0  501    0  0.00000000000E+00  0.00000000000E+00  0.22350782110E+04  0.22350782110E+04  0.25500000920E-02 0. -1.
       -2   -1    0    0    0  501  0.00000000000E+00  0.00000000000E+00 -0.12344120200E+04  0.12344120200E+04  0.25500000920E-02 0.  1.
    10030    2    1    2    0    0  0.00000000000E+00  0.00000000000E+00  0.10006661910E+04  0.34694902311E+04  0.33220520221E+04 0.  0.
        5    1    3    3  502    0 -0.15710849040E+04  0.53341971868E+03  0.58217522742E+03  0.17583499246E+04  0.46999998093E+01 0.  1.
       -5    1    3    3    0  502  0.15710849040E+04 -0.53341971868E+03  0.41849096355E+03  0.17111403065E+04  0.46999998093E+01 0. -1.
</event>
<event>
 5   0  0.3674967E-07  0.3297129E+04  0.7818609E-02  0.8163626E-01
       -1   -1    0    0    0  501  0.00000000000E+00  0.00000000000E+00  0.12858543398E+04  0.12858543398E+04  0.50400001928E-02 0.  1.
        1   -1    0    0  501    0  0.00000000000E+00  0.00000000000E+00 -0.21135872110E+04  0.21135872110E+04  0.50400001928E-02 0. -1.
    10030    2    1    2    0    0  0.00000000000E+00  0.00000000000E+00 -0.82773287115E+03  0.33994415508E+04  0.32971292288E+04 0.  0.
        2    1    3    3  502    0 -0.54669612344E+03  0.46826951909E+02  0.11889456530E+04  0.13094507172E+04  0.25500000920E-02 0.  1.
       -2    1    3    3    0  502  0.54669612344E+03 -0.46826951909E+02 -0.20166785242E+04  0.20899908337E+04  0.25500000920E-02 0. -1.
</event>
<event>
 5   0  0.1116462E-06  0.3330194E+04  0.7818609E-02  0.8155255E-01
        2   -1    0    0  501    0  0.00000000000E+00  0.00000000000E+00  0.21391512550E+04  0.21391512550E+04  0.25500000920E-02 0.  1.
       -2   -1    0    0    0  501  0.00000000000E+00  0.00000000000E+00 -0.12960974765E+04  0.12960974765E+04  0.25500000920E-02 0. -1.
    10030    2    1    2    0    0  0.00000000000E+00  0.00000000000E+00  0.84305377850E+03  0.34352487315E+04  0.33301943147E+04 0.  0.
        1    1    3    3  502    0  0.12838392624E+04  0.94389521537E+03 -0.76793251708E+02  0.15953302582E+04  0.50400001928E-02 0. -1.
       -1    1    3    3    0  502 -0.12838392624E+04 -0.94389521537E+03  0.91984703021E+03  0.18399184733E+04  0.50400001928E-02 0.  1.
</event>
<event>
 5   0  0.3674967E-07  0.3299741E+04  0.7818609E-02  0.8162961E-01
        1   -1    0    0  501    0  0.00000000000E+00  0.00000000000E+00  0.26812439029E+04  0.26812439029E+04  0.50400001928E-02 0.  1.
       -1   -1    0    0    0  501  0.00000000000E+00  0.00000000000E+00 -0.10152272913E+04  0.10152272913E+04  0.50400001928E-02 0. -1.
    10030    2    1    2    0    0  0.00000000000E+00  0.00000000000E+00  0.16660166115E+04  0.36964711942E+04  0.32997405867E+04 0.  0.
        2    1    3    3  502    0 -0.36255993641E+03 -0.34497022397E+03 -0.92814915386E+03  0.10544738094E+04  0.25500000920E-02 0. -1.
       -2    1    3    3    0  502  0.36255993641E+03  0.34497022397E+03  0.25941657654E+04  0.26419973848E+04  0.25500000920E-02 0.  1.
</event>
<event>
 5   0  0.1120545E-06  0.3266242E+04  0.7818609E-02  0.8171539E-01
       -2   -1    0    0    0  501  0.00000000000E+00  0.00000000000E+00  0.12918972729E+04  0.12918972729E+04  0.25500000920E-02 0.  1.
        2   -1    0    0  501    0  0.00000000000E+00  0.00000000000E+00 -0.20644704344E+04  0.20644704344E+04  0.25500000920E-02 0. -1.
    10030    2    1    2    0    0  0.00000000000E+00  0.00000000000E+00 -0.77257316153E+03  0.33563677073E+04  0.32662417083E+04 0.  0.
        4    1    3    3  502    0 -0.10843705297E+04  0.37285769978E+03  0.80864117107E+03  0.14031338021E+04  0.12699999809E+01 0.  1.
       -4    1    3    3    0  502  0.10843705297E+04 -0.37285769978E+03 -0.15812143326E+04  0.19532339052E+04  0.12699999809E+01 0. -1.
</event>
<event>
 5   0  0.3709747E-07  0.3302350E+04  0.7818609E-02  0.8162298E-01
       -1   -1    0    0    0  501  0.00000000000E+00  0.00000000000E+00  0.92373753641E+03  0.92373753643E+03  0.50400001928E-02 0.  1.
        1   -1    0    0  501    0  0.00000000000E+00  0.00000000000E+00 -0.29514647013E+04  0.29514647013E+04  0.50400001928E-02 0. -1.
    10030    2    1    2    0    0  0.00000000000E+00  0.00000000000E+00 -0.20277271649E+04  0.38752022377E+04  0.33023499100E+04 0.  0.
        4    1    3    3  502    0  0.10003533812E+04  0.12411791224E+04 -0.15187885310E+04  0.22018066936E+04  0.12699999809E+01 0. -1.
       -4    1    3    3    0  502 -0.10003533812E+04 -0.12411791224E+04 -0.50893863391E+03  0.16733955441E+04  0.12699999809E+01 0.  1.
</event>
<event>
 5   0  0.3674967E-07  0.3305959E+04  0.7818609E-02  0.8161381E-01
        1   -1    0    0  501    0  0.00000000000E+00  0.00000000000E+00  0.10193323019E+04  0.10193323019E+04  0.50400001928E-02 0. -1.
       -1   -1    0    0    0  501  0.00000000000E+00  0.00000000000E+00 -0.26805211453E+04  0.26805211453E+04  0.50400001928E-02 0.  1.
    10030    2    1    2    0    0  0.00000000000E+00  0.00000000000E+00 -0.16611888434E+04  0.36998534472E+04  0.33059593400E+04 0.  0.
        2    1    3    3  502    0  0.58084030583E+03  0.61725283741E+03 -0.24188229831E+04  0.25630218785E+04  0.25500000920E-02 0.  1.
       -2    1    3    3    0  502 -0.58084030583E+03 -0.61725283741E+03  0.75763413963E+03  0.11368315688E+04  0.25500000920E-02 0. -1.
</event>
<event>
 5   0  0.3796529E-07  0.3157322E+04  0.7818609E-02  0.8200180E-01
       -1   -1    0    0    0  501  0.00000000000E+00  0.00000000000E+00  0.98175221591E+03  0.98175221592E+03  0.50400001928E-02 0.  1.
        1   -1    0    0  501    0  0.00000000000E+00  0.00000000000E+00 -0.25384922852E+04  0.25384922852E+04  0.50400001928E-02 0. -1.
    10030    2    1    2    0    0  0.00000000000E+00  0.00000000000E+00 -0.15567400693E+04  0.35202445011E+04  0.31573219196E+04 0.  0.
        5    1    3    3  502    0  0.67373200971E+03 -0.14435543710E+03  0.80524434497E+03  0.10598084064E+04  0.46999998093E+01 0.  1.
       -5    1    3    3    0  502 -0.67373200971E+03  0.14435543710E+03 -0.23619844142E+04  0.24604360947E+04  0.46999998093E+01 0. -1.
</event>
<event>
 5   0  0.3674967E-07  0.3286841E+04  0.7818609E-02  0.8166252E-01
       -1   -1    0    0    0  501  0.00000000000E+00  0.00000000000E+00  0.13178018211E+04  0.13178018211E+04  0.50400001928E-02 0. -1.
        1   -1    0    0  501    0  0.00000000000E+00  0.00000000000E+00 -0.20494975262E+04  0.20494975262E+04  0.50400001928E-02 0.  1.
    10030    2    1    2    0    0  0.00000000000E+00  0.00000000000E+00 -0.73169570508E+03  0.33672993473E+04  0.32868413849E+04 0.  0.
        2    1    3    3  502    0 -0.12293155163E+04 -0.10897668965E+04 -0.31976856463E+03  0.16736368968E+04  0.25500000920E-02 0. -1.
       -2    1    3    3    0  502  0.12293155163E+04  0.10897668965E+04 -0.41192714045E+03  0.16936624505E+04  0.25500000920E-02 0.  1.
</event>
<event>
 5   0  0.3749685E-07  0.3286943E+04  0.7818609E-02  0.8166226E-01
       -1   -1    0    0    0  501  0.00000000000E+00  0.00000000000E+00  0.16760655719E+04  0.16760655719E+04  0.50400001928E-02 0. -1.
        1   -1    0    0  501    0  0.00000000000E+00  0.00000000000E+00 -0.16115116226E+04  0.16115116226E+04  0.50400001928E-02 0.  1.
    10030    2    1    2    0    0  0.00000000000E+00  0.00000000000E+00  0.64553949287E+02  0.32875771945E+04  0.32869433517E+04 0.  0.
        3    1    3    3  502    0 -0.93038623739E+02  0.70917438004E+03 -0.14476754341E+04  0.16147286643E+04  0.10100000352E+00 0.  1.
       -3    1    3    3    0  502  0.93038623739E+02 -0.70917438004E+03  0.15122293833E+04  0.16728485302E+04  0.10100000352E+00 0. -1.
</event>
<event>
 5   0  0.3796529E-07  0.3290616E+04  0.7818609E-02  0.8165287E-01
        1   -1    0    0  501    0  0.00000000000E+00  0.00000000000E+00  0.15606845176E+04  0.15606845176E+04  0.50400001928E-02 0. -1.
       -1   -1    0    0    0  501  0.00000000000E+00  0.00000000000E+00 -0.17345200268E+04  0.17345200268E+04  0.50400001928E-02 0.  1.
    10030    2    1    2    0    0  0.00000000000E+00  0.00000000000E+00 -0.17383550924E+03  0.32952045444E+04  0.32906160829E+04 0.  0.
        5    1    3    3  502    0 -0.57233666474E+03  0.21009892205E+02  0.14576355863E+04  0.15661207699E+04  0.46999998093E+01 0. -1.
       -5    1    3    3    0  502  0.57233666474E+03 -0.21009892205E+02 -0.16314710956E+04  0.17290837745E+04  0.46999998093E+01 0.  1.
</event>
<event>
 5   0  0.3796529E-07  0.3241967E+04  0.7818609E-02  0.8177821E-01
       -1   -1    0    0    0  501  0.00000000000E+00  0.00000000000E+00  0.10031194297E+04  0.10031194297E+04  0.50400001928E-02 0. -1.
        1   -1    0    0  501    0  0.00000000000E+00  0.00000000000E+00 -0.26194156657E+04  0.26194156657E+04  0.50400001928E-02 0.  1.
    10030    2    1    2    0    0  0.00000000000E+00  0.00000000000E+00 -0.16162962360E+04  0.36225350954E+04  0.32419665320E+04 0.  0.
        5    1    3    3  502    0 -0.28754316019E+03 -0.14079765050E+04  0.29882405563E+02  0.14373565861E+04  0.46999998093E+01 0. -1.
       -5    1    3    3    0  502  0.28754316019E+03  0.14079765050E+04 -0.16461786416E+04  0.21851785093E+04  0.46999998093E+01 0.  1.
</event>
<event>
 5   0  0.3796529E-07  0.3407025E+04  0.7818609E-02  0.8136184E-01
       -1   -1    0    0    0  501  0.00000000000E+00  0.00000000000E+00  0.17020999014E+04  0.17020999014E+04  0.50400001928E-02 0. -1.
        1   -1    0    0  501    0  0.00000000000E+00  0.00000000000E+00 -0.17049257970E+04  0.17049257970E+04  0.50400001928E-02 0.  1.
    10030    2    1    2    0    0  0.00000000000E+00  0.00000000000E+00 -0.28258955557E+01  0.34070256984E+04  0.34070245264E+04 0.  0.
        5    1    3    3  502    0  0.10207092078E+04  0.10985261789E+04  0.80687248315E+03  0.17028424315E+04  0.46999998093E+01 0. -1.
       -5    1    3    3    0  502 -0.10207092078E+04 -0.10985261789E+04 -0.80969837870E+03  0.17041832669E+04  0.46999998093E+01 0.  1.
</event>
<event>
 5   0  0.1120545E-06  0.3239187E+04  0.7818609E-02  0.8178544E-01
        2   -1    0    0  501    0  0.00000000000E+00  0.00000000000E+00  0.15871181579E+04  0.15871181579E+04  0.25500000920E-02 0.  1.
       -2   -1    0    0    0  501  0.00000000000E+00  0.00000000000E+00 -0.16527333447E+04  0.16527333447E+04  0.25500000920E-02 0. -1.
    10030    2    1    2    0    0  0.00000000000E+00  0.00000000000E+00 -0.65615186809E+02  0.32398515027E+04  0.32391869978E+04 0.  0.
        4    1    3    3  502    0  0.82458083578E+03  0.11049899048E+04 -0.88277321882E+03  0.16371397049E+04  0.12699999809E+01 0. -1.
       -4    1    3    3    0  502 -0.82458083578E+03 -0.11049899048E+04  0.81715803202E+03  0.16027117978E+04  0.12699999809E+01 0.  1.
</event>
<event>
 5   0  0.3709747E-07  0.3297500E+04  0.7818609E-02  0.8163532E-01
       -1   -1    0    0    0  501  0.00000000000E+00  0.00000000000E+00  0.19082344157E+04  0.19082344157E+04  0.50400001928E-02 0.  1.
        1   -1    0    0  501    0  0.00000000000E+00  0.00000000000E+00 -0.14245505810E+04  0.14245505810E+04  0.50400001928E-02 0. -1.
    10030    2    1    2    0    0  0.00000000000E+00  0.00000000000E+00  0.48368383472E+03  0.33327849968E+04  0.32974999291E+04 0.  0.
        4    1    3    3  502    0 -0.12337827854E+04  0.60574117895E+03 -0.67852427823E+03  0.15328206504E+04  0.12699999809E+01 0. -1.
       -4    1    3    3    0  502  0.12337827854E+04 -0.60574117895E+03  0.11622081130E+04  0.17999643463E+04  0.12699999809E+01 0.  1.
</event>
<event>
 5   0  0.1129434E-06  0.3266503E+04  0.7818609E-02  0.8171471E-01
        2   -1    0    0  501    0  0.00000000000E+00  0.00000000000E+00  0.22118854919E+04  0.22118854919E+04  0.25500000920E-02 0. -1.
       -2   -1    0    0    0  501  0.00000000000E+00  0.00000000000E+00 -0.12059897313E+04  0.12059897313E+04  0.25500000920E-02 0.  1.
    10030    2    1    2    0    0  0.00000000000E+00  0.00000000000E+00  0.10058957605E+04  0.34178752232E+04  0.32665034456E+04 0.  0.
        3    1    3    3  502    0  0.15200268634E+04 -0.43261278255E+03  0.93420741112E+03  0.18358591946E+04  0.10100000352E+00 0. -1.
       -3    1    3    3    0  502 -0.15200268634E+04  0.43261278255E+03  0.71688349415E+02  0.15820160286E+04  0.10100000352E+00 0.  1.
</event>
<event>
 5   0  0.1116462E-06  0.3308656E+04  0.7818609E-02  0.8160696E-01
       -2   -1    0    0    0  501  0.00000000000E+00  0.00000000000E+00  0.22625188889E+04  0.22625188889E+04  0.25500000920E-02 0.  1.
        2   -1    0    0  501    0  0.00000000000E+00  0.00000000000E+00 -0.12096254557E+04  0.12096254557E+04  0.25500000920E-02 0. -1.
    10030    2    1    2    0    0  0.00000000000E+00  0.00000000000E+00  0.10528934332E+04  0.34721443446E+04  0.33086555832E+04 0.  0.
        1    1    3    3  502    0 -0.10557891415E+04  0.12082860613E+04  0.10386495826E+03  0.16079284334E+04  0.50400001928E-02 0. -1.
       -1    1    3    3    0  502  0.10557891415E+04 -0.12082860613E+04  0.94902847491E+03  0.18642159112E+04  0.50400001928E-02 0.  1.
</event>
<event>
 5   0  0.3709747E-07  0.3102857E+04  0.7818609E-02  0.8214954E-01
        1   -1    0    0  501    0  0.00000000000E+00  0.00000000000E+00  0.17061145626E+04  0.17061145626E+04  0.50400001928E-02 0. -1.
       -1   -1    0    0    0  501  0.00000000000E+00  0.00000000000E+00 -0.14107672395E+04  0.14107672396E+04  0.50400001928E-02 0.  1.
    10030    2    1    2    0    0  0.00000000000E+00  0.00000000000E+00  0.29534732301E+03  0.31168818021E+04  0.31028570910E+04 0.  0.
        4    1    3    3  502    0  0.98358237073E+03  0.11752502204E+04 -0.94833259355E+02  0.15354615985E+04  0.12699999809E+01 0.  1.
       -4    1    3    3    0  502 -0.98358237073E+03 -0.11752502204E+04  0.39018058237E+03  0.15814202036E+04  0.12699999809E+01 0. -1.
</event>
<event>
 5   0  0.1116462E-06  0.3302448E+04  0.7818609E-02  0.8162273E-01
        2   -1    0    0  501    0  0.00000000000E+00  0.00000000000E+00  0.21862222041E+04  0.21862222041E+04  0.25500000920E-02 0.  1.
       -2   -1    0    0    0  501  0.00000000000E+00  0.00000000000E+00 -0.12471473459E+04  0.12471473459E+04  0.25500000920E-02 0. -1.
    10030    2    1    2    0    0  0.00000000000E+00  0.00000000000E+00  0.93907485820E+03  0.34333695500E+04  0.33024483156E+04 0.  0.
        1    1    3    3  502    0  0.16134108227E+04  0.26881075653E+03  0.23432160288E+03  0.16523499385E+04  0.50400001928E-02 0. -1.
       -1    1    3    3    0  502 -0.16134108227E+04 -0.26881075653E+03  0.70475325532E+03  0.17810196115E+04  0.50400001928E-02 0.  1.
</event>
<event>
 5   0  0.1129434E-06  0.3347905E+04  0.7818609E-02  0.8150812E-01
        2   -1    0    0  501    0  0.00000000000E+00  0.00000000000E+00  0.15968333905E+04  0.15968333905E+04  0.25500000920E-02 0. -1.
       -2   -1    0    0    0  501  0.00000000000E+00  0.00000000000E+00 -0.17547955658E+04  0.17547955658E+04  0.25500000920E-02 0.  1.
    10030    2    1    2    0    0  0.00000000000E+00  0.00000000000E+00 -0.15796217530E+03  0.33516289563E+04  0.33479045106E+04 0.  0.
        3    1    3    3  502    0  0.36916869301E+03 -0.15752329260E+04  0.35099858068E+03  0.16555495489E+04  0.10100000352E+00 0.  1.
       -3    1    3    3    0  502 -0.36916869301E+03  0.15752329260E+04 -0.50896075598E+03  0.16960794074E+04  0.10100000352E+00 0. -1.
</event>
<event>
 5   0  0.3674967E-07  0.3295053E+04  0.7818609E-02  0.8164155E-01
        1   -1    0    0  501    0  0.00000000000E+00  0.00000000000E+00  0.24322351166E+04  0.24322351166E+04  0.50400001928E-02 0.  1.
       -1   -1    0    0    0  501  0.00000000000E+00  0.00000000000E+00 -0.11159871029E+04  0.11159871029E+04  0.50400001928E-02 0. -1.
    10030    2    1    2    0    0  0.00000000000E+00  0.00000000000E+00  0.13162480137E+04  0.35482222195E+04  0.32950526681E+04 0.  0.
        2    1    3    3  502    0  0.12599020094E+04 -0.55400491624E+03 -0.31703068764E+03  0.14123678619E+04  0.25500000920E-02 0. -1.
       -2    1    3    3    0  502 -0.12599020094E+04  0.55400491624E+03  0.16332787013E+04  0.21358543576E+04  0.25500000920E-02 0.  1.
</event>
<event>
 5   0  0.1129434E-06  0.3284567E+04  0.7818609E-02  0.8166834E-01
        2   -1    0    0  501    0  0.00000000000E+00  0.00000000000E+00  0.21490430375E+04  0.21490430375E+04  0.25500000920E-02 0.  1.
       -2   -1    0    0    0  501  0.00000000000E+00  0.00000000000E+00 -0.12550211381E+04  0.12550211381E+04  0.25500000920E-02 0. -1.
    10030    2    1    2    0    0  0.00000000000E+00  0.00000000000E+00  0.89402189945E+03  0.34040641756E+04  0.32845666007E+04 0.  0.
        3    1    3    3  502    0 -0.52517997509E+03  0.10267421793E+04  0.16587714106E+04  0.20202811962E+04  0.10100000352E+00 0.  1.
       -3    1    3    3    0  502  0.52517997509E+03 -0.10267421793E+04 -0.76474951112E+03  0.13837829794E+04  0.10100000352E+00 0. -1.
</event>
<event>
 5   0  0.3757406E-07  0.3180910E+04  0.7818609E-02  0.8193877E-01
       -1   -1    0    0    0  501  0.00000000000E+00  0.00000000000E+00  0.17272288348E+04  0.17272288348E+04  0.50400001928E-02 0. -1.
        1   -1    0    0  501    0  0.00000000000E+00  0.00000000000E+00 -0.14645117840E+04  0.14645117840E+04  0.50400001928E-02 0.  1.
    10030    2    1    2    0    0  0.00000000000E+00  0.00000000000E+00  0.26271705078E+03  0.31917406187E+04  0.31809099215E+04 0.  0.
        1    1    3    3  502    0  0.82103932240E+02 -0.91288818187E+03 -0.11728521379E+04  0.14885187354E+04  0.50400001928E-02 0.  1.
       -1    1    3    3    0  502 -0.82103932240E+02  0.91288818187E+03  0.14355691887E+04  0.17032218833E+04  0.50400001928E-02 0. -1.
</event>
<event>
 5   0  0.3674967E-07  0.3307385E+04  0.7818609E-02  0.8161019E-01
       -1   -1    0    0    0  501  0.00000000000E+00  0.00000000000E+00  0.20414956470E+04  0.20414956470E+04  0.50400001928E-02 0.  1.
        1   -1    0    0  501    0  0.00000000000E+00  0.00000000000E+00 -0.13395569431E+04  0.13395569431E+04  0.50400001928E-02 0. -1.
    10030    2    1    2    0    0  0.00000000000E+00  0.00000000000E+00  0.70193870388E+03  0.33810525901E+04  0.33073854740E+04 0.  0.
        2    1    3    3  502    0 -0.98837978273E+02  0.11703452710E+04  0.15410391677E+04  0.19375961178E+04  0.25500000920E-02 0.  1.
       -2    1    3    3    0  502  0.98837978273E+02 -0.11703452710E+04 -0.83910046378E+03  0.14434564724E+04  0.25500000920E-02 0. -1.
</event>
<event>
 5   0  0.3757406E-07  0.3408411E+04  0.7818609E-02  0.8135845E-01
        1   -1    0    0  501    0  0.00000000000E+00  0.00000000000E+00  0.22804976557E+04  0.22804976557E+04  0.50400001928E-02 0.  1.
       -1   -1    0    0    0  501  0.00000000000E+00  0.00000000000E+00 -0.12735446770E+04  0.12735446770E+04  0.50400001928E-02 0. -1.
    10030    2    1    2    0    0  0.00000000000E+00  0.00000000000E+00  0.10069529788E+04  0.35540423327E+04  0.34084105682E+04 0.  0.
        1    1    3    3  502    0  0.10331488457E+03 -0.16984091986E+04  0.40429192489E+03  0.17489195898E+04  0.50400001928E-02 0. -1.
       -1    1    3    3    0  502 -0.10331488457E+03  0.16984091986E+04  0.60266105387E+03  0.18051227429E+04  0.50400001928E-02 0.  1.
</event>
<event>
 5   0  0.1116462E-06  0.3148266E+04  0.7818609E-02  0.8202615E-01
       -2   -1    0    0    0  501  0.00000000000E+00  0.00000000000E+00  0.17440073987E+04  0.17440073987E+04  0.25500000920E-02 0.  1.
        2   -1    0    0  501    0  0.00000000000E+00  0.00000000000E+00 -0.14208050158E+04  0.14208050158E+04  0.25500000920E-02 0. -1.
    10030    2    1    2    0    0  0.00000000000E+00  0.00000000000E+00  0.32320238290E+03  0.31648124145E+04  0.31482658463E+04 0.  0.
        1    1    3    3  502    0  0.47214586583E+03  0.73470101894E+02  0.16693423934E+04  0.17363823314E+04  0.50400001928E-02 0.  1.
       -1    1    3    3    0  502 -0.47214586583E+03 -0.73470101894E+02 -0.13461400105E+04  0.14284300831E+04  0.50400001928E-02 0. -1.
</event>
<event>
 5   0  0.3757406E-07  0.3141639E+04  0.7818609E-02  0.8204402E-01
       -1   -1    0    0    0  501  0.00000000000E+00  0.00000000000E+00  0.16391602444E+04  0.16391602445E+04  0.50400001928E-02 0. -1.
        1   -1    0    0  501    0  0.00000000000E+00  0.00000000000E+00 -0.15053284800E+04  0.15053284801E+04  0.50400001928E-02 0.  1.
    10030    2    1    2    0    0  0.00000000000E+00  0.00000000000E+00  0.13383176440E+03  0.31444887245E+04  0.31416394442E+04 0.  0.
        1    1    3    3  502    0  0.13009089300E+04  0.60622279374E+03 -0.57210224027E+03  0.15450472786E+04  0.50400001928E-02 0.  1.
       -1    1    3    3    0  502 -0.13009089300E+04 -0.60622279374E+03  0.70593400467E+03  0.15994414459E+04  0.50400001928E-02 0. -1.
</event>
<event>
 5   0  0.3709747E-07  0.3304118E+04  0.7818609E-02  0.8161848E-01
        1   -1    0    0  501    0  0.00000000000E+00  0.00000000000E+00  0.24649935431E+04  0.24649935431E+04  0.50400001928E-02 0.  1.
       -1   -1    0    0    0  501  0.00000000000E+00  0.00000000000E+00 -0.11072233921E+04  0.11072233921E+04  0.50400001928E-02 0. -1.
    10030    2    1    2    0    0  0.00000000000E+00  0.00000000000E+00  0.13577701509E+04  0.35722169352E+04  0.33041177414E+04 0.  0.
        4    1    3    3  502    0  0.82120374260E+03 -0.10878527737E+04 -0.33040364949E+03  0.14024861599E+04  0.12699999809E+01 0. -1.
       -4    1    3    3    0  502 -0.82120374260E+03  0.10878527737E+04  0.16881738004E+04  0.21697307753E+04  0.12699999809E+01 0.  1.
</event>
<event>
 5   0  0.1126221E-06  0.3311537E+04  0.7818609E-02  0.8159966E-01
        2   -1    0    0  501    0  0.00000000000E+00  0.00000000000E+00  0.15022698363E+04  0.15022698363E+04  0.25500000920E-02 0. -1.
       -2   -1    0    0    0  501  0.00000000000E+00  0.00000000000E+00 -0.18249509991E+04  0.18249509991E+04  0.25500000920E-02 0.  1.
    10030    2    1    2    0    0  0.00000000000E+00  0.00000000000E+00 -0.32268116280E+03  0.33272208354E+04  0.33115367059E+04 0.  0.
        2    1    3    3  502    0 -0.14101815252E+04  0.86714580506E+03 -0.12932972161E+03  0.16605059344E+04  0.25500000920E-02 0. -1.
       -2    1    3    3    0  502  0.14101815252E+04 -0.86714580506E+03 -0.19335144118E+03  0.16667149010E+04  0.25500000920E-02 0.  1.
</event>
<event>
 5   0  0.1126221E-06  0.3318979E+04  0.7818609E-02  0.8158083E-01
       -2   -1    0    0    0  501  0.00000000000E+00  0.00000000000E+00  0.16718578568E+04  0.16718578568E+04  0.25500000920E-02 0. -1.
        2   -1    0    0  501    0  0.00000000000E+00  0.00000000000E+00 -0.16472126933E+04  0.16472126933E+04  0.25500000920E-02 0.  1.
    10030    2    1    2    0    0  0.00000000000E+00  0.00000000000E+00  0.24645163484E+02  0.33190705501E+04  0.33189790497E+04 0.  0.
        2    1    3    3  502    0  0.21697167547E+03 -0.95574315309E+03 -0.13268871423E+04  0.16495912133E+04  0.25500000920E-02 0.  1.
       -2    1    3    3    0  502 -0.21697167547E+03  0.95574315309E+03  0.13515323058E+04  0.16694793368E+04  0.25500000920E-02 0. -1.
</event>
<event>
 5   0  0.3674967E-07  0.3289636E+04  0.7818609E-02  0.8165537E-01
        1   -1    0    0  501    0  0.00000000000E+00  0.00000000000E+00  0.17110995504E+04  0.17110995504E+04  0.50400001928E-02 0.  1.
       -1   -1    0    0    0  501  0.00000000000E+00  0.00000000000E+00 -0.15811040218E+04  0.15811040218E+04  0.50400001928E-02 0. -1.
    10030    2    1    2    0    0  0.00000000000E+00  0.00000000000E+00  0.12999552859E+03  0.32922035722E+04  0.32896360777E+04 0.  0.
        2    1    3    3  502    0  0.14052569898E+04  0.67212521229E+03  0.59354524190E+03  0.16669719441E+04  0.25500000920E-02 0. -1.
       -2    1    3    3    0  502 -0.14052569898E+04 -0.67212521229E+03 -0.46354971331E+03  0.16252316281E+04  0.25500000920E-02 0.  1.
</event>
<event>
 5   0  0.1116462E-06  0.3291514E+04  0.7818609E-02  0.8165058E-01
        2   -1    0    0  501    0  0.00000000000E+00  0.00000000000E+00  0.22356177873E+04  0.22356177873E+04  0.25500000920E-02 0. -1.
       -2   -1    0    0    0  501  0.00000000000E+00  0.00000000000E+00 -0.12115289754E+04  0.12115289754E+04  0.25500000920E-02 0.  1.
    10030    2    1    2    0    0  0.00000000000E+00  0.00000000000E+00  0.10240888120E+04  0.34471467627E+04  0.32915137716E+04 0.  0.
        1    1    3    3  502    0 -0.10092967547E+04 -0.46248962228E+03 -0.76028135927E+03  0.13455869853E+04  0.50400001928E-02 0.  1.
       -1    1    3    3    0  502  0.10092967547E+04  0.46248962228E+03  0.17843701713E+04  0.21015597774E+04  0.50400001928E-02 0. -1.
</event>
<event>
 5   0  0.3749685E-07  0.3286640E+04  0.7818609E-02  0.8166303E-01
        1   -1    0    0  501    0  0.00000000000E+00  0.00000000000E+00  0.16693039492E+04  0.16693039492E+04  0.50400001928E-02 0. -1.
       -1   -1    0    0    0  501  0.00000000000E+00  0.00000000000E+00 -0.16177401423E+04  0.16177401423E+04  0.50400001928E-02 0.  1.
    10030    2    1    2    0    0  0.00000000000E+00  0.00000000000E+00  0.51563806933E+02  0.32870440916E+04  0.32866396264E+04 0.  0.
        3    1    3    3  502    0 -0.11853825239E+04  0.95693197358E+03 -0.59045093880E+03  0.16338552113E+04  0.10100000352E+00 0.  1.
       -3    1    3    3    0  502  0.11853825239E+04 -0.95693197358E+03  0.64201474573E+03  0.16531888803E+04  0.10100000352E+00 0. -1.
</event>
<event>
 5   0  0.1120545E-06  0.3283829E+04  0.7818609E-02  0.8167022E-01
        2   -1    0    0  501    0  0.00000000000E+00  0.00000000000E+00  0.16566182122E+04  0.16566182122E+04  0.25500000920E-02 0. -1.
       -2   -1    0    0    0  501  0.00000000000E+00  0.00000000000E+00 -0.16273414924E+04  0.16273414924E+04  0.25500000920E-02 0.  1.
    10030    2    1    2    0    0  0.00000000000E+00  0.00000000000E+00  0.29276719801E+02  0.32839597046E+04  0.32838292000E+04 0.  0.
        4    1    3    3  502    0 -0.62793761749E+02 -0.76383880228E+03 -0.14374831092E+04  0.16290340925E+04  0.12699999809E+01 0.  1.
       -4    1    3    3    0  502  0.62793761749E+02  0.76383880228E+03  0.14667598290E+04  0.16549256120E+04  0.12699999809E+01 0. -1.
</event>
<event>
 5   0  0.1146799E-06  0.3297962E+04  0.7818609E-02  0.8163414E-01
       -2   -1    0    0    0  501  0.00000000000E+00  0.00000000000E+00  0.22332079150E+04  0.22332079150E+04  0.25500000920E-02 0. -1.
        2   -1    0    0  501    0  0.00000000000E+00  0.00000000000E+00 -0.12175932584E+04  0.12175932584E+04  0.25500000920E-02 0.  1.
    10030    2    1    2    0    0  0.00000000000E+00  0.00000000000E+00  0.10156146566E+04  0.34508011735E+04  0.32979623418E+04 0.  0.
        5    1    3    3  502    0  0.70012057570E+03 -0.54292627427E+03 -0.94739232462E+03  0.12971168284E+04  0.46999998093E+01 0.  1.
       -5    1    3    3    0  502 -0.70012057570E+03  0.54292627427E+03  0.19630069812E+04  0.21536843451E+04  0.46999998093E+01 0. -1.
</event>
<event>
 5   0  0.1129434E-06  0.3301432E+04  0.7818609E-02  0.8162531E-01
        2   -1    0    0  501    0  0.00000000000E+00  0.00000000000E+00  0.29488450859E+04  0.29488450859E+04  0.25500000920E-02 0. -1.
       -2   -1    0    0    0  501  0.00000000000E+00  0.00000000000E+00 -0.92404417252E+03  0.92404417253E+03  0.25500000920E-02 0.  1.
    10030    2    1    2    0    0  0.00000000000E+00  0.00000000000E+00  0.20248009134E+04  0.38728892585E+04  0.33014318817E+04 0.  0.
        3    1    3    3  502    0 -0.55188446934E+03  0.10114020457E+04 -0.37430981536E+03  0.12114530175E+04  0.10100000352E+00 0.  1.
       -3    1    3    3    0  502  0.55188446934E+03 -0.10114020457E+04  0.23991107288E+04  0.26614362410E+04  0.10100000352E+00 0. -1.
</event>
<event>
 5   0  0.3757406E-07  0.3323130E+04  0.7818609E-02  0.8157035E-01
       -1   -1    0    0    0  501  0.00000000000E+00  0.00000000000E+00  0.16283299045E+04  0.16283299045E+04  0.50400001928E-02 0.  1.
        1   -1    0    0  501    0  0.00000000000E+00  0.00000000000E+00 -0.16954786035E+04  0.16954786035E+04  0.50400001928E-02 0. -1.
    10030    2    1    2    0    0  0.00000000000E+00  0.00000000000E+00 -0.67148698936E+02  0.33238085080E+04  0.33231301585E+04 0.  0.
        1    1    3    3  502    0  0.80628726006E+03 -0.30064186273E+03  0.13880932395E+04  0.16331832465E+04  0.50400001928E-02 0.  1.
       -1    1    3    3    0  502 -0.80628726006E+03  0.30064186273E+03 -0.14552419384E+04  0.16906252614E+04  0.50400001928E-02 0. -1.
</event>
<event>
 5   0  0.3674967E-07  0.3293930E+04  0.7818609E-02  0.8164442E-01
        1   -1    0    0  501    0  0.00000000000E+00  0.00000000000E+00  0.19425833103E+04  0.19425833103E+04  0.50400001928E-02 0.  1.
       -1   -1    0    0    0  501  0.00000000000E+00  0.00000000000E+00 -0.13963334034E+04  0.13963334034E+04  0.50400001928E-02 0. -1.
    10030    2    1    2    0    0  0.00000000000E+00  0.00000000000E+00  0.54624990689E+03  0.33389167137E+04  0.32939301541E+04 0.  0.
        2    1    3    3  502    0 -0.10042900808E+03  0.16415960622E+04  0.18492890592E+03  0.16550294007E+04  0.25500000920E-02 0.  1.
       -2    1    3    3    0  502  0.10042900808E+03 -0.16415960622E+04  0.36132100097E+03  0.16838873129E+04  0.25500000920E-02 0. -1.
</event>
<event>
 5   0  0.3674967E-07  0.3283892E+04  0.7818609E-02  0.8167006E-01
       -1   -1    0    0    0  501  0.00000000000E+00  0.00000000000E+00  0.10375305835E+04  0.10375305835E+04  0.50400001928E-02 0. -1.
        1   -1    0    0  501    0  0.00000000000E+00  0.00000000000E+00 -0.25984648865E+04  0.25984648865E+04  0.50400001928E-02 0.  1.
    10030    2    1    2    0    0  0.00000000000E+00  0.00000000000E+00 -0.15609343031E+04  0.36359954700E+04  0.32838920749E+04 0.  0.
        2    1    3    3  502    0  0.46268620159E+03  0.15612042692E+04 -0.10141656210E+04  0.19183245810E+04  0.25500000920E-02 0.  1.
       -2    1    3    3    0  502 -0.46268620159E+03 -0.15612042692E+04 -0.54676868207E+03  0.17176708890E+04  0.25500000920E-02 0. -1.
</event>
<event>
 5   0  0.1126221E-06  0.3280029E+04  0.7818609E-02  0.8167996E-01
       -2   -1    0    0    0  501  0.00000000000E+00  0.00000000000E+00  0.16011662316E+04  0.16011662316E+04  0.25500000920E-02 0.  1.
        2   -1    0    0  501    0  0.00000000000E+00  0.00000000000E+00 -0.16798056005E+04  0.16798056005E+04  0.25500000920E-02 0. -1.
    10030    2    1    2    0    0  0.00000000000E+00  0.00000000000E+00 -0.78639368867E+02  0.32809718321E+04  0.32800292701E+04 0.  0.
        2    1    3    3  502    0  0.23414573754E+03 -0.11784953018E+03  0.15800758218E+04  0.16016717332E+04  0.25500000920E-02 0.  1.
       -2    1    3    3    0  502 -0.23414573754E+03  0.11784953018E+03 -0.16587151907E+04  0.16793000989E+04  0.25500000920E-02 0. -1.
</event>
<event>
 5   0  0.1120545E-06  0.3241501E+04  0.7818609E-02  0.8177942E-01
        2   -1    0    0  501    0  0.00000000000E+00  0.00000000000E+00  0.91311076504E+03  0.91311076504E+03  0.25500000920E-02 0.  1.
       -2   -1    0    0    0  501  0.00000000000E+00  0.00000000000E+00 -0.28767947601E+04  0.28767947601E+04  0.25500000920E-02 0. -1.
    10030    2    1    2    0    0  0.00000000000E+00  0.00000000000E+00 -0.19636839950E+04  0.37899055251E+04  0.32415010500E+04 0.  0.
        4    1    3    3  502    0 -0.14450491350E+04  0.28877550247E+03 -0.17707345547E+04  0.23037058774E+04  0.12699999809E+01 0. -1.
       -4    1    3    3    0  502  0.14450491350E+04 -0.28877550247E+03 -0.19294944031E+03  0.14861996477E+04  0.12699999809E+01 0.  1.
</event>
<event>
 5   0  0.1146799E-06  0.3299558E+04  0.7818609E-02  0.8163008E-01
       -2   -1    0    0    0  501  0.00000000000E+00  0.00000000000E+00  0.10259721102E+04  0.10259721102E+04  0.25500000920E-02 0. -1.
        2   -1    0    0  501    0  0.00000000000E+00  0.00000000000E+00 -0.26528708515E+04  0.26528708515E+04  0.25500000920E-02 0.  1.
    10030    2    1    2    0    0  0.00000000000E+00  0.00000000000E+00 -0.16268987412E+04  0.36788429617E+04  0.32995584587E+04 0.  0.
        5    1    3    3  502    0 -0.98069789188E+03 -0.89853791464E+03 -0.19016604534E+04  0.23206622566E+04  0.46999998093E+01 0.  1.
       -5    1    3    3    0  502  0.98069789188E+03  0.89853791464E+03  0.27476171217E+03  0.13581807051E+04  0.46999998093E+01 0. -1.
</event>
<event>
 5   0  0.3757406E-07  0.3316883E+04  0.7818609E-02  0.8158613E-01
       -1   -1    0    0    0  501  0.00000000000E+00  0.00000000000E+00  0.13642313876E+04  0.13642313876E+04  0.50400001928E-02 0. -1.
        1   -1    0    0  501    0  0.00000000000E+00  0.00000000000E+00 -0.20161013363E+04  0.20161013363E+04  0.50400001928E-02 0.  1.
    10030    2    1    2    0    0  0.00000000000E+00  0.00000000000E+00 -0.65186994867E+03  0.33803327239E+04  0.33168833103E+04 0.  0.
        1    1    3    3  502    0 -0.17604731440E+03  0.15422330056E+04  0.26914698476E+03  0.15754095975E+04  0.50400001928E-02 0. -1.
       -1    1    3    3    0  502  0.17604731440E+03 -0.15422330056E+04 -0.92101693343E+03  0.18049231264E+04  0.50400001928E-02 0.  1.
</event>
<event>
 5   0  0.3709747E-07  0.3292230E+04  0.7818609E-02  0.8164875E-01
       -1   -1    0    0    0  501  0.00000000000E+00  0.00000000000E+00  0.14049566038E+04  0.14049566038E+04  0.50400001928E-02 0. -1.
        1   -1    0    0  501    0  0.00000000000E+00  0.00000000000E+00 -0.19286679956E+04  0.19286679956E+04  0.50400001928E-02 0.  1.
    10030    2    1    2    0    0  0.00000000000E+00  0.00000000000E+00 -0.52371139180E+03  0.33336245994E+04  0.32922301481E+04 0.  0.
        4    1    3    3  502    0  0.61490692596E+03 -0.28056716410E+03 -0.17816823816E+04  0.19055766012E+04  0.12699999809E+01 0.  1.
       -4    1    3    3    0  502 -0.61490692596E+03  0.28056716410E+03  0.12579709898E+04  0.14280479982E+04  0.12699999809E+01 0. -1.
</event>
<event>
 5   0  0.1126221E-06  0.3529401E+04  0.7818609E-02  0.8106857E-01
       -2   -1    0    0    0  501  0.00000000000E+00  0.00000000000E+00  0.19626875835E+04  0.19626875835E+04  0.25500000920E-02 0. -1.
        2   -1    0    0  501    0  0.00000000000E+00  0.00000000000E+00 -0.15866856131E+04  0.15866856131E+04  0.25500000920E-02 0.  1.
    10030    2    1    2    0    0  0.00000000000E+00  0.00000000000E+00  0.37600197036E+03  0.35493731967E+04  0.35294011684E+04 0.  0.
        2    1    3    3  502    0  0.12900086521E+04  0.78013636133E+03 -0.73448639361E+03  0.16769631264E+04  0.25500000920E-02 0.  1.
       -2    1    3    3    0  502 -0.12900086521E+04 -0.78013636133E+03  0.11104883640E+04  0.18724100703E+04  0.25500000920E-02 0. -1.
</event>
<event>
 5   0  0.1116462E-06  0.3286093E+04  0.7818609E-02  0.8166443E-01
        2   -1    0    0  501    0  0.00000000000E+00  0.00000000000E+00  0.16842522395E+04  0.16842522395E+04  0.25500000920E-02 0. -1.
       -2   -1    0    0    0  501  0.00000000000E+00  0.00000000000E+00 -0.16028486359E+04  0.16028486359E+04  0.25500000920E-02 0.  1.
    10030    2    1    2    0    0  0.00000000000E+00  0.00000000000E+00  0.81403603557E+02  0.32871008754E+04  0.32860927586E+04 0.  0.
        1    1    3    3  502    0  0.86359450300E+03  0.11415622344E+04 -0.76616923905E+03  0.16235686322E+04  0.50400001928E-02 0.  1.
       -1    1    3    3    0  502 -0.86359450300E+03 -0.11415622344E+04  0.84757284261E+03  0.16635322432E+04  0.50400001928E-02 0. -1.
</event>
<event>
 5   0  0.1116462E-06  0.3294132E+04  0.7818609E-02  0.8164390E-01
        2   -1    0    0  501    0  0.00000000000E+00  0.00000000000E+00  0.19993545494E+04  0.19993545494E+04  0.25500000920E-02 0.  1.
       -2   -1    0    0    0  501  0.00000000000E+00  0.00000000000E+00 -0.13568507015E+04  0.13568507015E+04  0.25500000920E-02 0. -1.
    10030    2    1    2    0    0  0.00000000000E+00  0.00000000000E+00  0.64250384792E+03  0.33562052510E+04  0.32941315232E+04 0.  0.
        1    1    3    3  502    0 -0.96746371259E+03 -0.81694486735E+03  0.13943999200E+04  0.18835434926E+04  0.50400001928E-02 0.  1.
       -1    1    3    3    0  502  0.96746371259E+03  0.81694486735E+03 -0.75189607208E+03  0.14726617584E+04  0.50400001928E-02 0. -1.
</event>
<event>
 5   0  0.3674967E-07  0.3286349E+04  0.7818609E-02  0.8166378E-01
        1   -1    0    0  501    0  0.00000000000E+00  0.00000000000E+00  0.20304119752E+04  0.20304119752E+04  0.50400001928E-02 0. -1.
       -1   -1    0    0    0  501  0.00000000000E+00  0.00000000000E+00 -0.13297903179E+04  0.13297903179E+04  0.50400001928E-02 0.  1.
    10030    2    1    2    0    0  0.00000000000E+00  0.00000000000E+00  0.70062165730E+03  0.33602022931E+04  0.32863488469E+04 0.  0.
        2    1    3    3  502    0 -0.17713739702E+02 -0.96803974638E+03  0.17077787129E+04  0.19631410697E+04  0.25500000920E-02 0. -1.
       -2    1    3    3    0  502  0.17713739702E+02  0.96803974638E+03 -0.10071570556E+04  0.13970612234E+04  0.25500000920E-02 0.  1.
</event>
<event>
 5   0  0.1146799E-06  0.3284395E+04  0.7818609E-02  0.8166878E-01
        2   -1    0    0  501    0  0.00000000000E+00  0.00000000000E+00  0.17699526142E+04  0.17699526143E+04  0.25500000920E-02 0.  1.
       -2   -1    0    0    0  501  0.00000000000E+00  0.00000000000E+00 -0.15236634988E+04  0.15236634988E+04  0.25500000920E-02 0. -1.
    10030    2    1    2    0    0  0.00000000000E+00  0.00000000000E+00  0.24628911548E+03  0.32936161130E+04  0.32843947344E+04 0.  0.
        5    1    3    3  502    0  0.81914103076E+03 -0.23470847087E+03  0.15309057620E+04  0.17520772348E+04  0.46999998093E+01 0.  1.
       -5    1    3    3    0  502 -0.81914103076E+03  0.23470847087E+03 -0.12846166465E+04  0.15415388782E+04  0.46999998093E+01 0. -1.
</event>
<event>
 5   0  0.3709747E-07  0.3272091E+04  0.7818609E-02  0.8170033E-01
       -1   -1    0    0    0  501  0.00000000000E+00  0.00000000000E+00  0.15895541135E+04  0.15895541135E+04  0.50400001928E-02 0.  1.
        1   -1    0    0  501    0  0.00000000000E+00  0.00000000000E+00 -0.16838963240E+04  0.16838963240E+04  0.50400001928E-02 0. -1.
    10030    2    1    2    0    0  0.00000000000E+00  0.00000000000E+00 -0.94342210452E+02  0.32734504375E+04  0.32720906641E+04 0.  0.
        4    1    3    3  502    0 -0.14826535649E+04 -0.36610821858E+03  0.53988268416E+03  0.16198060831E+04  0.12699999809E+01 0.  1.
       -4    1    3    3    0  502  0.14826535649E+04  0.36610821858E+03 -0.63422489461E+03  0.16536443545E+04  0.12699999809E+01 0. -1.
</event>
<event>
 5   0  0.3757406E-07  0.3362284E+04  0.7818609E-02  0.8147226E-01
        1   -1    0    0  501    0  0.00000000000E+00  0.00000000000E+00  0.17266949339E+04  0.17266949339E+04  0.50400001928E-02 0.  1.
       -1   -1    0    0    0  501  0.00000000000E+00  0.00000000000E+00 -0.16367904743E+04  0.16367904743E+04  0.50400001928E-02 0. -1.
    10030    2    1    2    0    0  0.00000000000E+00  0.00000000000E+00  0.89904459549E+02  0.33634854082E+04  0.33622836405E+04 0.  0.
        1    1    3    3  502    0  0.14477444135E+04 -0.82400111763E+03 -0.18161512599E+03  0.16756866601E+04  0.50400001928E-02 0.  1.
       -1    1    3    3    0  502 -0.14477444135E+04  0.82400111763E+03  0.27151958554E+03  0.16877987481E+04  0.50400001928E-02 0. -1.
</event>
<event>
 5   0  0.3757406E-07  0.3363918E+04  0.7818609E-02  0.8146819E-01
       -1   -1    0    0    0  501  0.00000000000E+00  0.00000000000E+00  0.21292795451E+04  0.21292795451E+04  0.50400001928E-02 0.  1.
        1   -1    0    0  501    0  0.00000000000E+00  0.00000000000E+00 -0.13286118783E+04  0.13286118784E+04  0.50400001928E-02 0. -1.
    10030    2    1    2    0    0  0.00000000000E+00  0.00000000000E+00  0.80066766679E+03  0.34578914235E+04  0.33639180109E+04 0.  0.
        1    1    3    3  502    0 -0.51084523513E+03  0.15741446123E+04  0.70887208864E+03  0.18003871119E+04  0.50400001928E-02 0.  1.
       -1    1    3    3    0  502  0.51084523513E+03 -0.15741446123E+04  0.91795578150E+02  0.16575043116E+04  0.50400001928E-02 0. -1.
</event>
<event>
 5   0  0.3674967E-07  0.3277361E+04  0.7818609E-02  0.8168680E-01
       -1   -1    0    0    0  501  0.00000000000E+00  0.00000000000E+00  0.15832820109E+04  0.15832820109E+04  0.50400001928E-02 0.  1.
        1   -1    0    0  501    0  0.00000000000E+00  0.00000000000E+00 -0.16960176914E+04  0.16960176914E+04  0.50400001928E-02 0. -1.
    10030    2    1    2    0    0  0.00000000000E+00  0.00000000000E+00 -0.11273568046E+03  0.32792997023E+04  0.32773613173E+04 0.  0.
        2    1    3    3  502    0 -0.12030841134E+04 -0.74944918596E+03 -0.87916121097E+03  0.16679358204E+04  0.25500000920E-02 0. -1.
       -2    1    3    3    0  502  0.12030841134E+04  0.74944918596E+03  0.76642553051E+03  0.16113638819E+04  0.25500000920E-02 0.  1.
</event>
<event>
 5   0  0.3749685E-07  0.3264149E+04  0.7818609E-02  0.8172078E-01
        1   -1    0    0  501    0  0.00000000000E+00  0.00000000000E+00  0.15770101975E+04  0.15770101975E+04  0.50400001928E-02 0. -1.
       -1   -1    0    0    0  501  0.00000000000E+00  0.00000000000E+00 -0.16890617682E+04  0.16890617682E+04  0.50400001928E-02 0.  1.
    10030    2    1    2    0    0  0.00000000000E+00  0.00000000000E+00 -0.11205157065E+03  0.32660719657E+04  0.32641492813E+04 0.  0.
        3    1    3    3  502    0 -0.71368025687E+03  0.13449595613E+04 -0.64408949627E+03  0.16532111239E+04  0.10100000352E+00 0.  1.
       -3    1    3    3    0  502  0.71368025687E+03 -0.13449595613E+04  0.53203792562E+03  0.16128608418E+04  0.10100000352E+00 0. -1.
</event>
<event>
 5   0  0.1129434E-06  0.3229809E+04  0.7818609E-02  0.8180989E-01
       -2   -1    0    0    0  501  0.00000000000E+00  0.00000000000E+00  0.14428538731E+04  0.14428538731E+04  0.25500000920E-02 0.  1.
        2   -1    0    0  501    0  0.00000000000E+00  0.00000000000E+00 -0.18074707706E+04  0.18074707706E+04  0.25500000920E-02 0. -1.
    10030    2    1    2    0    0  0.00000000000E+00  0.00000000000E+00 -0.36461689756E+03  0.32503246437E+04  0.32298087881E+04 0.  0.
        3    1    3    3  502    0 -0.44506301589E+03  0.19885186004E+03  0.13670465923E+04  0.14513578284E+04  0.10100000352E+00 0.  1.
       -3    1    3    3    0  502  0.44506301589E+03 -0.19885186004E+03 -0.17316634899E+04  0.17989668153E+04  0.10100000352E+00 0. -1.
</event>
<event>
 5   0  0.3749685E-07  0.3287457E+04  0.7818609E-02  0.8166094E-01
        1   -1    0    0  501    0  0.00000000000E+00  0.00000000000E+00  0.17093799245E+04  0.17093799245E+04  0.50400001928E-02 0.  1.
       -1   -1    0    0    0  501  0.00000000000E+00  0.00000000000E+00 -0.15805983871E+04  0.15805983871E+04  0.50400001928E-02 0. -1.
    10030    2    1    2    0    0  0.00000000000E+00  0.00000000000E+00  0.12878153744E+03  0.32899783116E+04  0.32874568600E+04 0.  0.
        3    1    3    3  502    0 -0.12378750283E+04  0.10531861617E+04 -0.18137336733E+03  0.16353690671E+04  0.10100000352E+00 0.  1.
       -3    1    3    3    0  502  0.12378750283E+04 -0.10531861617E+04  0.31015490476E+03  0.16546092445E+04  0.10100000352E+00 0. -1.
</event>
<event>
 5   0  0.1120545E-06  0.3287350E+04  0.7818609E-02  0.8166122E-01
        2   -1    0    0  501    0  0.00000000000E+00  0.00000000000E+00  0.18970484741E+04  0.18970484741E+04  0.25500000920E-02 0.  1.
       -2   -1    0    0    0  501  0.00000000000E+00  0.00000000000E+00 -0.14241428663E+04  0.14241428663E+04  0.25500000920E-02 0. -1.
    10030    2    1    2    0    0  0.00000000000E+00  0.00000000000E+00  0.47290560774E+03  0.33211913404E+04  0.32873503321E+04 0.  0.
        4    1    3    3  502    0 -0.11758412932E+04  0.10707233661E+04 -0.18329398430E+03  0.16008277768E+04  0.12699999809E+01 0. -1.
       -4    1    3    3    0  502  0.11758412932E+04 -0.10707233661E+04  0.65619959204E+03  0.17203635636E+04  0.12699999809E+01 0.  1.
</event>
<event>
 5   0  0.1129434E-06  0.3274063E+04  0.7818609E-02  0.8169527E-01
       -2   -1    0    0    0  501  0.00000000000E+00  0.00000000000E+00  0.15540517929E+04  0.15540517929E+04  0.25500000920E-02 0.  1.
        2   -1    0    0  501    0  0.00000000000E+00  0.00000000000E+00 -0.17244420311E+04  0.17244420311E+04  0.25500000920E-02 0. -1.
    10030    2    1    2    0    0  0.00000000000E+00  0.00000000000E+00 -0.17039023819E+03  0.32784938240E+04  0.32740630600E+04 0.  0.
        3    1    3    3  502    0  0.56725187967E+03 -0.61405949936E+03  0.13241997528E+04  0.15659976882E+04  0.10100000352E+00 0.  1.
       -3    1    3    3    0  502 -0.56725187967E+03  0.61405949936E+03 -0.14945899910E+04  0.17124961358E+04  0.10100000352E+00 0. -1.
</event>
<event>
 5   0  0.1126221E-06  0.3289858E+04  0.7818609E-02  0.8165481E-01
        2   -1    0    0  501    0  0.00000000000E+00  0.00000000000E+00  0.17874948915E+04  0.17874948915E+04  0.25500000920E-02 0. -1.
       -2   -1    0    0    0  501  0.00000000000E+00  0.00000000000E+00 -0.15137339366E+04  0.15137339366E+04  0.25500000920E-02 0.  1.
    10030    2    1    2    0    0  0.00000000000E+00  0.00000000000E+00  0.27376095485E+03  0.33012288281E+04  0.32898581603E+04 0.  0.
        2    1    3    3  502    0 -0.14297977486E+04 -0.72256347934E+02 -0.67601145659E+03  0.15832037365E+04  0.25500000920E-02 0.  1.
       -2    1    3    3    0  502  0.14297977486E+04  0.72256347934E+02  0.94977241144E+03  0.17180250916E+04  0.25500000920E-02 0. -1.
</event>
<event>
 5   0  0.3796529E-07  0.3308191E+04  0.7818609E-02  0.8160814E-01
       -1   -1    0    0    0  501  0.00000000000E+00  0.00000000000E+00  0.15597465198E+04  0.15597465198E+04  0.50400001928E-02 0. -1.
        1   -1    0    0  501    0  0.00000000000E+00  0.00000000000E+00 -0.17541515374E+04  0.17541515374E+04  0.50400001928E-02 0.  1.
    10030    2    1    2    0    0  0.00000000000E+00  0.00000000000E+00 -0.19440501759E+03  0.33138980573E+04  0.33081908989E+04 0.  0.
        5    1    3    3  502    0 -0.11948015168E+04 -0.17800296227E+03 -0.12290960661E+04  0.17233499206E+04  0.46999998093E+01 0.  1.
       -5    1    3    3    0  502  0.11948015168E+04  0.17800296227E+03  0.10346910485E+04  0.15905481367E+04  0.46999998093E+01 0. -1.
</event>
<event>
 5   0  0.3757406E-07  0.3295533E+04  0.7818609E-02  0.8164033E-01
       -1   -1    0    0    0  501  0.00000000000E+00  0.00000000000E+00  0.10003126816E+04  0.10003126816E+04  0.50400001928E-02 0. -1.
        1   -1    0    0  501    0  0.00000000000E+00  0.00000000000E+00 -0.27142863848E+04  0.27142863848E+04  0.50400001928E-02 0.  1.
    10030    2    1    2    0    0  0.00000000000E+00  0.00000000000E+00 -0.17139737032E+04  0.37145990664E+04  0.32955333967E+04 0.  0.
        1    1    3    3  502    0 -0.95934473457E+01 -0.24294620588E+03 -0.26939562218E+04  0.27049057318E+04  0.50400001928E-02 0.  1.
       -1    1    3    3    0  502  0.95934473457E+01  0.24294620588E+03  0.97998251853E+03  0.10096933346E+04  0.50400001928E-02 0. -1.
</event>
<event>
 5   0  0.1116462E-06  0.3303808E+04  0.7818609E-02  0.8161927E-01
       -2   -1    0    0    0  501  0.00000000000E+00  0.00000000000E+00  0.85203277812E+03  0.85203277812E+03  0.25500000920E-02 0.  1.
        2   -1    0    0  501    0  0.00000000000E+00  0.00000000000E+00 -0.32026786209E+04  0.32026786209E+04  0.25500000920E-02 0. -1.
    10030    2    1    2    0    0  0.00000000000E+00  0.00000000000E+00 -0.23506458428E+04  0.40547113990E+04  0.33038082044E+04 0.  0.
        1    1    3    3  502    0  0.15034740489E+03 -0.16118868302E+04 -0.77198935008E+03  0.17935303321E+04  0.50400001928E-02 0. -1.
       -1    1    3    3    0  502 -0.15034740489E+03  0.16118868302E+04 -0.15786564927E+04  0.22611810669E+04  0.50400001928E-02 0.  1.
</event>
<event>
 5   0  0.1120545E-06  0.3315077E+04  0.7818609E-02  0.8159070E-01
        2   -1    0    0  501    0  0.00000000000E+00  0.00000000000E+00  0.11139014513E+04  0.11139014513E+04  0.25500000920E-02 0. -1.
       -2   -1    0    0    0  501  0.00000000000E+00  0.00000000000E+00 -0.24664965624E+04  0.24664965624E+04  0.25500000920E-02 0.  1.
    10030    2    1    2    0    0  0.00000000000E+00  0.00000000000E+00 -0.13525951111E+04  0.35803980137E+04  0.33150771336E+04 0.  0.
        4    1    3    3  502    0 -0.86667900920E+03  0.13348684329E+04 -0.11764203445E+04  0.19791343254E+04  0.12699999809E+01 0.  1.
       -4    1    3    3    0  502  0.86667900920E+03 -0.13348684329E+04 -0.17617476659E+03  0.16012636883E+04  0.12699999809E+01 0. -1.
</event>
<event>
 5   0  0.3573375E-07  0.3305261E+04  0.7818609E-02  0.8161558E-01
       -4   -1    0    0    0  501  0.00000000000E+00  0.00000000000E+00  0.17086099914E+04  0.17086104634E+04  0.12699999809E+01 0. -1.
        4   -1    0    0  501    0  0.00000000000E+00  0.00000000000E+00 -0.15984838439E+04  0.15984843485E+04  0.12699999809E+01 0.  1.
    10030    2    1    2    0    0  0.00000000000E+00  0.00000000000E+00  0.11012614747E+03  0.33070948119E+04  0.33052607047E+04 0.  0.
        3    1    3    3  502    0 -0.13715969278E+04 -0.81826693423E+03  0.47997291285E+03  0.16676968895E+04  0.10100000352E+00 0.  1.
       -3    1    3    3    0  502  0.13715969278E+04  0.81826693423E+03 -0.36984676538E+03  0.16393979224E+04  0.10100000352E+00 0. -1.
</event>
<event>
 5   0  0.1129434E-06  0.3292084E+04  0.7818609E-02  0.8164912E-01
       -2   -1    0    0    0  501  0.00000000000E+00  0.00000000000E+00  0.26836012944E+04  0.26836012944E+04  0.25500000920E-02 0. -1.
        2   -1    0    0  501    0  0.00000000000E+00  0.00000000000E+00 -0.10096337643E+04  0.10096337643E+04  0.25500000920E-02 0.  1.
    10030    2    1    2    0    0  0.00000000000E+00  0.00000000000E+00  0.16739675302E+04  0.36932350587E+04  0.32920841282E+04 0.  0.
        3    1    3    3  502    0  0.35508669192E+03 -0.72816232374E+03  0.24444657109E+04  0.25752125253E+04  0.10100000352E+00 0. -1.
       -3    1    3    3    0  502 -0.35508669192E+03  0.72816232374E+03 -0.77049818074E+03  0.11180225334E+04  0.10100000352E+00 0.  1.
</event>
<event>
 5   0  0.1120545E-06  0.3267411E+04  0.7818609E-02  0.8171238E-01
        2   -1    0    0  501    0  0.00000000000E+00  0.00000000000E+00  0.11015510714E+04  0.11015510714E+04  0.25500000920E-02 0.  1.
       -2   -1    0    0    0  501  0.00000000000E+00  0.00000000000E+00 -0.24229410792E+04  0.24229410792E+04  0.25500000920E-02 0. -1.
    10030    2    1    2    0    0  0.00000000000E+00  0.00000000000E+00 -0.13213900078E+04  0.35244921506E+04  0.32674108047E+04 0.  0.
        4    1    3    3  502    0 -0.17406186704E+03 -0.58804407947E+03 -0.22940673869E+04  0.23746242148E+04  0.12699999809E+01 0. -1.
       -4    1    3    3    0  502  0.17406186704E+03  0.58804407947E+03  0.97267737909E+03  0.11498679357E+04  0.12699999809E+01 0.  1.
</event>
<event>
 5   0  0.3796529E-07  0.3258714E+04  0.7818609E-02  0.8173481E-01
       -1   -1    0    0    0  501  0.00000000000E+00  0.00000000000E+00  0.12010116160E+04  0.12010116160E+04  0.50400001928E-02 0. -1.
        1   -1    0    0  501    0  0.00000000000E+00  0.00000000000E+00 -0.22104740640E+04  0.22104740640E+04  0.50400001928E-02 0.  1.
    10030    2    1    2    0    0  0.00000000000E+00  0.00000000000E+00 -0.10094624480E+04  0.34114856800E+04  0.32587144874E+04 0.  0.
        5    1    3    3  502    0  0.13040916753E+04 -0.84471980658E+03 -0.10182113647E+04  0.18576821909E+04  0.46999998093E+01 0.  1.
       -5    1    3    3    0  502 -0.13040916753E+04  0.84471980658E+03  0.87489167012E+01  0.15538034891E+04  0.46999998093E+01 0. -1.
</event>
<event>
 5   0  0.3674967E-07  0.3308196E+04  0.7818609E-02  0.8160813E-01
       -1   -1    0    0    0  501  0.00000000000E+00  0.00000000000E+00  0.16219572903E+04  0.16219572903E+04  0.50400001928E-02 0. -1.
        1   -1    0    0  501    0  0.00000000000E+00  0.00000000000E+00 -0.16868754039E+04  0.16868754039E+04  0.50400001928E-02 0.  1.
    10030    2    1    2    0    0  0.00000000000E+00  0.00000000000E+00 -0.64918113602E+02  0.33088326943E+04  0.33081957979E+04 0.  0.
        2    1    3    3  502    0  0.16511823219E+04 -0.97497269114E+02 -0.21007761555E+02  0.16541916768E+04  0.25500000920E-02 0.  1.
       -2    1    3    3    0  502 -0.16511823219E+04  0.97497269114E+02 -0.43910352047E+02  0.16546410175E+04  0.25500000920E-02 0. -1.
</event>
<event>
 5   0  0.1120545E-06  0.3300995E+04  0.7818609E-02  0.8162642E-01
        2   -1    0    0  501    0  0.00000000000E+00  0.00000000000E+00  0.19054671908E+04  0.19054671908E+04  0.25500000920E-02 0.  1.
       -2   -1    0    0    0  501  0.00000000000E+00  0.00000000000E+00 -0.14296455887E+04  0.14296455887E+04  0.25500000920E-02 0. -1.
    10030    2    1    2    0    0  0.00000000000E+00  0.00000000000E+00  0.47582160217E+03  0.33351127795E+04  0.33009954642E+04 0.  0.
        4    1    3    3  502    0  0.58411346999E+03  0.13331050737E+03 -0.13158987253E+04  0.14458738899E+04  0.12699999809E+01 0. -1.
       -4    1    3    3    0  502 -0.58411346999E+03 -0.13331050737E+03  0.17917203275E+04  0.18892388896E+04  0.12699999809E+01 0.  1.
</event>
<event>
 5   0  0.1129434E-06  0.3269795E+04  0.7818609E-02  0.8170624E-01
       -2   -1    0    0    0  501  0.00000000000E+00  0.00000000000E+00  0.13330996738E+04  0.13330996738E+04  0.25500000920E-02 0. -1.
        2   -1    0    0  501    0  0.00000000000E+00  0.00000000000E+00 -0.20050186627E+04  0.20050186627E+04  0.25500000920E-02 0.  1.
    10030    2    1    2    0    0  0.00000000000E+00  0.00000000000E+00 -0.67191898884E+03  0.33381183365E+04  0.32697949326E+04 0.  0.
        3    1    3    3  502    0  0.71054452601E+03  0.90352432417E+03  0.85094272188E+03  0.14301514794E+04  0.10100000352E+00 0. -1.
       -3    1    3    3    0  502 -0.71054452601E+03 -0.90352432417E+03 -0.15228617107E+04  0.19079668571E+04  0.10100000352E+00 0.  1.
</event>
<event>
 5   0  0.1126221E-06  0.3097678E+04  0.7818609E-02  0.8216375E-01
        2   -1    0    0  501    0  0.00000000000E+00  0.00000000000E+00  0.14825553935E+04  0.14825553935E+04  0.25500000920E-02 0.  1.
       -2   -1    0    0    0  501  0.00000000000E+00  0.00000000000E+00 -0.16180865390E+04  0.16180865390E+04  0.25500000920E-02 0. -1.
    10030    2    1    2    0    0  0.00000000000E+00  0.00000000000E+00 -0.13553114546E+03  0.31006419325E+04  0.30976784375E+04 0.  0.
        2    1    3    3  502    0 -0.13971504380E+04  0.29885830739E+03  0.53076743062E+03  0.15241586859E+04  0.25500000920E-02 0.  1.
       -2    1    3    3    0  502  0.13971504380E+04 -0.29885830739E+03 -0.66629857608E+03  0.15764832466E+04  0.25500000920E-02 0. -1.
</event>
<event>
 5   0  0.1120545E-06  0.3307700E+04  0.7818609E-02  0.8160939E-01
        2   -1    0    0  501    0  0.00000000000E+00  0.00000000000E+00  0.12957640624E+04  0.12957640625E+04  0.25500000920E-02 0.  1.
       -2   -1    0    0    0  501  0.00000000000E+00  0.00000000000E+00 -0.21108935526E+04  0.21108935526E+04  0.25500000920E-02 0. -1.
    10030    2    1    2    0    0  0.00000000000E+00  0.00000000000E+00 -0.81512949017E+03  0.34066576151E+04  0.33077001104E+04 0.  0.
        4    1    3    3  502    0  0.57861996132E+03 -0.14741078117E+04  0.83591896849E+02  0.15858070873E+04  0.12699999809E+01 0.  1.
       -4    1    3    3    0  502 -0.57861996132E+03  0.14741078117E+04 -0.89872138701E+03  0.18208505278E+04  0.12699999809E+01 0. -1.
</event>
<event>
 5   0  0.3757406E-07  0.3288460E+04  0.7818609E-02  0.8165838E-01
       -1   -1    0    0    0  501  0.00000000000E+00  0.00000000000E+00  0.18640433059E+04  0.18640433059E+04  0.50400001928E-02 0. -1.
        1   -1    0    0  501    0  0.00000000000E+00  0.00000000000E+00 -0.14503374264E+04  0.14503374264E+04  0.50400001928E-02 0.  1.
    10030    2    1    2    0    0  0.00000000000E+00  0.00000000000E+00  0.41370587949E+03  0.33143807322E+04  0.32884596825E+04 0.  0.
        1    1    3    3  502    0  0.14625498542E+04 -0.26346586503E+02  0.96360121219E+03  0.17516487989E+04  0.50400001928E-02 0. -1.
       -1    1    3    3    0  502 -0.14625498542E+04  0.26346586503E+02 -0.54989533270E+03  0.15627319333E+04  0.50400001928E-02 0.  1.
</event>
<event>
 5   0  0.1126221E-06  0.3295680E+04  0.7818609E-02  0.8163995E-01
        2   -1    0    0  501    0  0.00000000000E+00  0.00000000000E+00  0.17545199437E+04  0.17545199437E+04  0.25500000920E-02 0. -1.
       -2   -1    0    0    0  501  0.00000000000E+00  0.00000000000E+00 -0.15476465925E+04  0.15476465925E+04  0.25500000920E-02 0.  1.
    10030    2    1    2    0    0  0.00000000000E+00  0.00000000000E+00  0.20687335115E+03  0.33021665362E+04  0.32956800891E+04 0.  0.
        2    1    3    3  502    0  0.10590683087E+03  0.52185858924E+03 -0.14590632631E+04  0.15531961401E+04  0.25500000920E-02 0.  1.
       -2    1    3    3    0  502 -0.10590683087E+03 -0.52185858924E+03  0.16659366142E+04  0.17489703961E+04  0.25500000920E-02 0. -1.
</event>
<event>
 5   0  0.3796529E-07  0.3296332E+04  0.7818609E-02  0.8163829E-01
        1   -1    0    0  501    0  0.00000000000E+00  0.00000000000E+00  0.15688909189E+04  0.15688909189E+04  0.50400001928E-02 0. -1.
       -1   -1    0    0    0  501  0.00000000000E+00  0.00000000000E+00 -0.17314469787E+04  0.17314469787E+04  0.50400001928E-02 0.  1.
    10030    2    1    2    0    0  0.00000000000E+00  0.00000000000E+00 -0.16255605983E+03  0.33003378977E+04  0.32963321687E+04 0.  0.
        5    1    3    3  502    0 -0.23780050310E+03  0.85488105820E+03  0.13093153370E+04  0.15816761503E+04  0.46999998093E+01 0. -1.
       -5    1    3    3    0  502  0.23780050310E+03 -0.85488105820E+03 -0.14718713968E+04  0.17186617473E+04  0.46999998093E+01 0.  1.
</event>
<event>
 5   0  0.3749685E-07  0.3298768E+04  0.7818609E-02  0.8163209E-01
        1   -1    0    0  501    0  0.00000000000E+00  0.00000000000E+00  0.21284793361E+04  0.21284793361E+04  0.50400001928E-02 0.  1.
       -1   -1    0    0    0  501  0.00000000000E+00  0.00000000000E+00 -0.12781270760E+04  0.12781270761E+04  0.50400001928E-02 0. -1.
    10030    2    1    2    0    0  0.00000000000E+00  0.00000000000E+00  0.85035226005E+03  0.34066064122E+04  0.32987676913E+04 0.  0.
        3    1    3    3  502    0  0.57565444476E+03 -0.14610598020E+04  0.94603856937E+03  0.18333201493E+04  0.10100000352E+00 0.  1.
       -3    1    3    3    0  502 -0.57565444476E+03  0.14610598020E+04 -0.95686309311E+02  0.15732862629E+04  0.10100000352E+00 0. -1.
</event>
<event>
 5   0  0.1146799E-06  0.3301857E+04  0.7818609E-02  0.8162423E-01
        2   -1    0    0  501    0  0.00000000000E+00  0.00000000000E+00  0.10704680694E+04  0.10704680694E+04  0.25500000920E-02 0. -1.
       -2   -1    0    0    0  501  0.00000000000E+00  0.00000000000E+00 -0.25461430316E+04  0.25461430316E+04  0.25500000920E-02 0.  1.
    10030    2    1    2    0    0  0.00000000000E+00  0.00000000000E+00 -0.14756749622E+04  0.36166111009E+04  0.33018569414E+04 0.  0.
        5    1    3    3  502    0  0.44125367117E+02 -0.10651917836E+04  0.64286572451E+03  0.12449413695E+04  0.46999998093E+01 0. -1.
       -5    1    3    3    0  502 -0.44125367117E+02  0.10651917836E+04 -0.21185406867E+04  0.23716697314E+04  0.46999998093E+01 0.  1.
</event>
<event>
 5   0  0.3796529E-07  0.3320434E+04  0.7818609E-02  0.8157715E-01
        1   -1    0    0  501    0  0.00000000000E+00  0.00000000000E+00  0.22554659385E+04  0.22554659385E+04  0.50400001928E-02 0.  1.
       -1   -1    0    0    0  501  0.00000000000E+00  0.00000000000E+00 -0.12220624728E+04  0.12220624728E+04  0.50400001928E-02 0. -1.
    10030    2    1    2    0    0  0.00000000000E+00  0.00000000000E+00  0.10334034657E+04  0.34775284114E+04  0.33204338766E+04 0.  0.
        5    1    3    3  502    0 -0.38158130795E+03 -0.55403873158E+02 -0.11745114732E+04  0.12361930167E+04  0.46999998093E+01 0. -1.
       -5    1    3    3    0  502  0.38158130795E+03  0.55403873158E+02  0.22079149390E+04  0.22413353947E+04  0.46999998093E+01 0.  1.
</event>
<event>
 5   0  0.1129434E-06  0.3286679E+04  0.7818609E-02  0.8166293E-01
       -2   -1    0    0    0  501  0.00000000000E+00  0.00000000000E+00  0.13189893250E+04  0.13189893250E+04  0.25500000920E-02 0. -1.
        2   -1    0    0  501    0  0.00000000000E+00  0.00000000000E+00 -0.20474495811E+04  0.20474495811E+04  0.25500000920E-02 0.  1.
    10030    2    1    2    0    0  0.00000000000E+00  0.00000000000E+00 -0.72846025610E+03  0.33664389061E+04  0.32866786523E+04 0.  0.
        3    1    3    3  502    0  0.42638565296E+03 -0.30179021879E+03  0.12316835564E+04  0.13378813305E+04  0.10100000352E+00 0. -1.
       -3    1    3    3    0  502 -0.42638565296E+03  0.30179021879E+03 -0.19601438125E+04  0.20285575755E+04  0.10100000352E+00 0.  1.
</event>
<event>
 5   0  0.3757406E-07  0.3342670E+04  0.7818609E-02  0.8152122E-01
       -1   -1    0    0    0  501  0.00000000000E+00  0.00000000000E+00  0.23144358621E+04  0.23144358621E+04  0.50400001928E-02 0. -1.
        1   -1    0    0  501    0  0.00000000000E+00  0.00000000000E+00 -0.12069295022E+04  0.12069295022E+04  0.50400001928E-02 0.  1.
    10030    2    1    2    0    0  0.00000000000E+00  0.00000000000E+00  0.11075063599E+04  0.35213653643E+04  0.33426701440E+04 0.  0.
        1    1    3    3  502    0 -0.37005349817E+03 -0.35719078526E+03 -0.11214901790E+04  0.12338010659E+04  0.50400001928E-02 0.  1.
       -1    1    3    3    0  502  0.37005349817E+03  0.35719078526E+03  0.22289965389E+04  0.22875642984E+04  0.50400001928E-02 0. -1.
</event>
<event>
 5   0  0.3796529E-07  0.3257154E+04  0.7818609E-02  0.8173884E-01
       -1   -1    0    0    0  501  0.00000000000E+00  0.00000000000E+00  0.16852800798E+04  0.16852800798E+04  0.50400001928E-02 0.  1.
        1   -1    0    0  501    0  0.00000000000E+00  0.00000000000E+00 -0.15737816820E+04  0.15737816820E+04  0.50400001928E-02 0. -1.
    10030    2    1    2    0    0  0.00000000000E+00  0.00000000000E+00  0.11149839783E+03  0.32590617618E+04  0.32571539225E+04 0.  0.
        5    1    3    3  502    0 -0.16332065733E+03 -0.71294461281E+03 -0.14001897549E+04  0.15797205758E+04  0.46999998093E+01 0. -1.
       -5    1    3    3    0  502  0.16332065733E+03  0.71294461281E+03  0.15116881527E+04  0.16793411860E+04  0.46999998093E+01 0.  1.
</event>
<event>
 5   0  0.1129434E-06  0.3303441E+04  0.7818609E-02  0.8162020E-01
       -2   -1    0    0    0  501  0.00000000000E+00  0.00000000000E+00  0.16421723972E+04  0.16421723972E+04  0.25500000920E-02 0. -1.
        2   -1    0    0  501    0  0.00000000000E+00  0.00000000000E+00 -0.16613237282E+04  0.16613237282E+04  0.25500000920E-02 0.  1.
    10030    2    1    2    0    0  0.00000000000E+00  0.00000000000E+00 -0.19151330970E+02  0.33034961254E+04  0.33034406120E+04 0.  0.
        3    1    3    3  502    0  0.19827648571E+03  0.19421593875E+03  0.16186858822E+04  0.16423085554E+04  0.10100000352E+00 0. -1.
       -3    1    3    3    0  502 -0.19827648571E+03 -0.19421593875E+03 -0.16378372132E+04  0.16611875700E+04  0.10100000352E+00 0.  1.
</event>
<event>
 5   0  0.1146799E-06  0.3273646E+04  0.7818609E-02  0.8169634E-01
        2   -1    0    0  501    0  0.00000000000E+00  0.00000000000E+00  0.16804278375E+04  0.16804278375E+04  0.25500000920E-02 0. -1.
       -2   -1    0    0    0  501  0.00000000000E+00  0.00000000000E+00 -0.15943494624E+04  0.15943494624E+04  0.25500000920E-02 0.  1.
    10030    2    1    2    0    0  0.00000000000E+00  0.00000000000E+00  0.86078375109E+02  0.32747772999E+04  0.32736458082E+04 0.  0.
        5    1    3    3  502    0  0.10769826522E+04  0.10902406072E+04  0.61826047036E+03  0.16525084913E+04  0.46999998093E+01 0. -1.
       -5    1    3    3    0  502 -0.10769826522E+04 -0.10902406072E+04 -0.53218209525E+03  0.16222688086E+04  0.46999998093E+01 0.  1.
</event>
<event>
 5   0  0.1146799E-06  0.3286726E+04  0.7818609E-02  0.8166281E-01
       -2   -1    0    0    0  501  0.00000000000E+00  0.00000000000E+00  0.13693353322E+04  0.13693353322E+04  0.25500000920E-02 0. -1.
        2   -1    0    0  501    0  0.00000000000E+00  0.00000000000E+00 -0.19722282198E+04  0.19722282198E+04  0.25500000920E-02 0.  1.
    10030    2    1    2    0    0  0.00000000000E+00  0.00000000000E+00 -0.60289288769E+03  0.33415635520E+04  0.32867258994E+04 0.  0.
        5    1    3    3  502    0 -0.14119900911E+04 -0.82537821318E+03 -0.46428898339E+03  0.17001622164E+04  0.46999998093E+01 0.  1.
       -5    1    3    3    0  502  0.14119900911E+04  0.82537821318E+03 -0.13860390430E+03  0.16414013356E+04  0.46999998093E+01 0. -1.
</event>
<event>
 5   0  0.3709747E-07  0.3463737E+04  0.7818609E-02  0.8122438E-01
       -1   -1    0    0    0  501  0.00000000000E+00  0.00000000000E+00  0.13194366208E+04  0.13194366208E+04  0.50400001928E-02 0. -1.
        1   -1    0    0  501    0  0.00000000000E+00  0.00000000000E+00 -0.22732191912E+04  0.22732191912E+04  0.50400001928E-02 0.  1.
    10030    2    1    2    0    0  0.00000000000E+00  0.00000000000E+00 -0.95378257036E+03  0.35926558120E+04  0.34637370847E+04 0.  0.
        4    1    3    3  502    0 -0.17325101998E+03  0.14618527920E+03 -0.22577646223E+04  0.22691162937E+04  0.12699999809E+01 0.  1.
       -4    1    3    3    0  502  0.17325101998E+03 -0.14618527920E+03  0.13039820519E+04  0.13235395183E+04  0.12699999809E+01 0. -1.
</event>
<event>
 5   0  0.3573375E-07  0.3224337E+04  0.7818609E-02  0.8182419E-01
        3   -1    0    0  501    0  0.00000000000E+00  0.00000000000E+00  0.10568930081E+04  0.10568930129E+04  0.10100000352E+00 0.  1.
       -3   -1    0    0    0  501  0.00000000000E+00  0.00000000000E+00 -0.24591768480E+04  0.24591768501E+04  0.10100000352E+00 0. -1.
    10030    2    1    2    0    0  0.00000000000E+00  0.00000000000E+00 -0.14022838399E+04  0.35160698630E+04  0.32243367246E+04 0.  0.
        3    1    3    3  502    0  0.12316058048E+04  0.96832640881E+03 -0.28650487501E+03  0.15926688124E+04  0.10100000352E+00 0.  1.
       -3    1    3    3    0  502 -0.12316058048E+04 -0.96832640881E+03 -0.11157789649E+04  0.19234010505E+04  0.10100000352E+00 0. -1.
</event>
<event>
 5   0  0.3709747E-07  0.3282147E+04  0.7818609E-02  0.8167453E-01
       -1   -1    0    0    0  501  0.00000000000E+00  0.00000000000E+00  0.10944103071E+04  0.10944103072E+04  0.50400001928E-02 0. -1.
        1   -1    0    0  501    0  0.00000000000E+00  0.00000000000E+00 -0.24607977817E+04  0.24607977817E+04  0.50400001928E-02 0.  1.
    10030    2    1    2    0    0  0.00000000000E+00  0.00000000000E+00 -0.13663874745E+04  0.35552080888E+04  0.32821471363E+04 0.  0.
        4    1    3    3  502    0 -0.74893100006E+03 -0.14388027319E+04 -0.41332815566E+03  0.16738855162E+04  0.12699999809E+01 0. -1.
       -4    1    3    3    0  502  0.74893100006E+03  0.14388027319E+04 -0.95305931887E+03  0.18813225726E+04  0.12699999809E+01 0.  1.
</event>
<event>
 5   0  0.3749685E-07  0.3247745E+04  0.7818609E-02  0.8176320E-01
       -1   -1    0    0    0  501  0.00000000000E+00  0.00000000000E+00  0.17715821377E+04  0.17715821377E+04  0.50400001928E-02 0.  1.
        1   -1    0    0  501    0  0.00000000000E+00  0.00000000000E+00 -0.14884787411E+04  0.14884787411E+04  0.50400001928E-02 0. -1.
    10030    2    1    2    0    0  0.00000000000E+00  0.00000000000E+00  0.28310339659E+03  0.32600608788E+04  0.32477452795E+04 0.  0.
        3    1    3    3  502    0  0.10732180504E+04  0.56090085306E+03  0.12275765703E+04  0.17243407427E+04  0.10100000352E+00 0.  1.
       -3    1    3    3    0  502 -0.10732180504E+04 -0.56090085306E+03 -0.94447317367E+03  0.15357201362E+04  0.10100000352E+00 0. -1.
</event>
<event>
 5   0  0.3757406E-07  0.3117936E+04  0.7818609E-02  0.8210833E-01
       -1   -1    0    0    0  501  0.00000000000E+00  0.00000000000E+00  0.10547768903E+04  0.10547768903E+04  0.50400001928E-02 0. -1.
        1   -1    0    0  501    0  0.00000000000E+00  0.00000000000E+00 -0.23041663243E+04  0.23041663243E+04  0.50400001928E-02 0.  1.
    10030    2    1    2    0    0  0.00000000000E+00  0.00000000000E+00 -0.12493894341E+04  0.33589432146E+04  0.31179361060E+04 0.  0.
        1    1    3    3  502    0  0.12368010523E+04 -0.24303173008E+03  0.36362774720E+03  0.13118560910E+04  0.50400001928E-02 0. -1.
       -1    1    3    3    0  502 -0.12368010523E+04  0.24303173008E+03 -0.16130171813E+04  0.20470871237E+04  0.50400001928E-02 0.  1.
</event>
<event>
 5   0  0.1129434E-06  0.3310064E+04  0.7818609E-02  0.8160339E-01
        2   -1    0    0  501    0  0.00000000000E+00  0.00000000000E+00  0.26115523827E+04  0.26115523827E+04  0.25500000920E-02 0.  1.
       -2   -1    0    0    0  501  0.00000000000E+00  0.00000000000E+00 -0.10488518824E+04  0.10488518824E+04  0.25500000920E-02 0. -1.
    10030    2    1    2    0    0  0.00000000000E+00  0.00000000000E+00  0.15627005003E+04  0.36604042650E+04  0.33100644299E+04 0.  0.
        3    1    3    3  502    0 -0.83155410302E+03  0.10824633973E+04  0.18163146684E+04  0.22720493431E+04  0.10100000352E+00 0. -1.
       -3    1    3    3    0  502  0.83155410302E+03 -0.10824633973E+04 -0.25361416811E+03  0.13883549219E+04  0.10100000352E+00 0.  1.
</event>
<event>
 5   0  0.1146799E-06  0.3316966E+04  0.7818609E-02  0.8158592E-01
       -2   -1    0    0    0  501  0.00000000000E+00  0.00000000000E+00  0.14849711273E+04  0.14849711273E+04  0.25500000920E-02 0.  1.
        2   -1    0    0  501    0  0.00000000000E+00  0.00000000000E+00 -0.18522691842E+04  0.18522691842E+04  0.25500000920E-02 0. -1.
    10030    2    1    2    0    0  0.00000000000E+00  0.00000000000E+00 -0.36729805688E+03  0.33372403115E+04  0.33169662395E+04 0.  0.
        5    1    3    3  502    0 -0.15941963224E+04  0.19320998334E+02 -0.64328813273E+03  0.17192082268E+04  0.46999998093E+01 0. -1.
       -5    1    3    3    0  502  0.15941963224E+04 -0.19320998334E+02  0.27599007585E+03  0.16180320847E+04  0.46999998093E+01 0.  1.
</event>
<event>
 5   0  0.1146799E-06  0.3378974E+04  0.7818609E-02  0.8143086E-01
       -2   -1    0    0    0  501  0.00000000000E+00  0.00000000000E+00  0.18590828604E+04  0.18590828604E+04  0.25500000920E-02 0.  1.
        2   -1    0    0  501    0  0.00000000000E+00  0.00000000000E+00 -0.15353629392E+04  0.15353629392E+04  0.25500000920E-02 0. -1.
    10030    2    1    2    0    0  0.00000000000E+00  0.00000000000E+00  0.32371992123E+03  0.33944457995E+04  0.33789743560E+04 0.  0.
        5    1    3    3  502    0  0.51514141063E+03 -0.10833850097E+04  0.13569502857E+04  0.18111957156E+04  0.46999998093E+01 0.  1.
       -5    1    3    3    0  502 -0.51514141063E+03  0.10833850097E+04 -0.10332303645E+04  0.15832500840E+04  0.46999998093E+01 0. -1.
</event>
<event>
 5   0  0.3757406E-07  0.3296829E+04  0.7818609E-02  0.8163703E-01
       -1   -1    0    0    0  501  0.00000000000E+00  0.00000000000E+00  0.17590943327E+04  0.17590943327E+04  0.50400001928E-02 0. -1.
        1   -1    0    0  501    0  0.00000000000E+00  0.00000000000E+00 -0.15446983707E+04  0.15446983707E+04  0.50400001928E-02 0.  1.
    10030    2    1    2    0    0  0.00000000000E+00  0.00000000000E+00  0.21439596205E+03  0.33037927034E+04  0.32968288700E+04 0.  0.
        1    1    3    3  502    0 -0.19502676024E+03 -0.15489978729E+03  0.17401308797E+04  0.17578637205E+04  0.50400001928E-02 0. -1.
       -1    1    3    3    0  502  0.19502676024E+03  0.15489978729E+03 -0.15257349176E+04  0.15459289829E+04  0.50400001928E-02 0.  1.
</event>
<event>
 5   0  0.1116462E-06  0.3293937E+04  0.7818609E-02  0.8164440E-01
        2   -1    0    0  501    0  0.00000000000E+00  0.00000000000E+00  0.16466044282E+04  0.16466044282E+04  0.25500000920E-02 0. -1.
       -2   -1    0    0    0  501  0.00000000000E+00  0.00000000000E+00 -0.16473322272E+04  0.16473322272E+04  0.25500000920E-02 0.  1.
    10030    2    1    2    0    0  0.00000000000E+00  0.00000000000E+00 -0.72779897393E+00  0.32939366554E+04  0.32939365750E+04 0.  0.
        1    1    3    3  502    0  0.58689818260E+03  0.35605604848E+03  0.14967263660E+04  0.16466375439E+04  0.50400001928E-02 0. -1.
       -1    1    3    3    0  502 -0.58689818260E+03 -0.35605604848E+03 -0.14974541650E+04  0.16472991115E+04  0.50400001928E-02 0.  1.
</event>
<event>
 5   0  0.1116462E-06  0.3279059E+04  0.7818609E-02  0.8168244E-01
        2   -1    0    0  501    0  0.00000000000E+00  0.00000000000E+00  0.13551142329E+04  0.13551142329E+04  0.25500000920E-02 0.  1.
       -2   -1    0    0    0  501  0.00000000000E+00  0.00000000000E+00 -0.19836381140E+04  0.19836381140E+04  0.25500000920E-02 0. -1.
    10030    2    1    2    0    0  0.00000000000E+00  0.00000000000E+00 -0.62852388116E+03  0.33387523469E+04  0.32790585485E+04 0.  0.
        1    1    3    3  502    0  0.81643804547E+03  0.11129091753E+04  0.58667265643E+03  0.14997742231E+04  0.50400001928E-02 0.  1.
       -1    1    3    3    0  502 -0.81643804547E+03 -0.11129091753E+04 -0.12151965376E+04  0.18389781237E+04  0.50400001928E-02 0. -1.
</event>
<event>
 5   0  0.3749685E-07  0.3306941E+04  0.7818609E-02  0.8161131E-01
       -1   -1    0    0    0  501  0.00000000000E+00  0.00000000000E+00  0.14055050336E+04  0.14055050336E+04  0.50400001928E-02 0.  1.
        1   -1    0    0  501    0  0.00000000000E+00  0.00000000000E+00 -0.19451832735E+04  0.19451832735E+04  0.50400001928E-02 0. -1.
    10030    2    1    2    0    0  0.00000000000E+00  0.00000000000E+00 -0.53967823987E+03  0.33506883071E+04  0.33069411136E+04 0.  0.
        3    1    3    3  502    0 -0.13201910520E+04  0.20885035009E+03  0.71640376399E+03  0.15164950530E+04  0.10100000352E+00 0.  1.
       -3    1    3    3    0  502  0.13201910520E+04 -0.20885035009E+03 -0.12560820039E+04  0.18341932541E+04  0.10100000352E+00 0. -1.
</event>
<event>
 5   0  0.1120545E-06  0.3300643E+04  0.7818609E-02  0.8162732E-01
       -2   -1    0    0    0  501  0.00000000000E+00  0.00000000000E+00  0.12462939554E+04  0.12462939554E+04  0.25500000920E-02 0.  1.
        2   -1    0    0  501    0  0.00000000000E+00  0.00000000000E+00 -0.21853284071E+04  0.21853284071E+04  0.25500000920E-02 0. -1.
    10030    2    1    2    0    0  0.00000000000E+00  0.00000000000E+00 -0.93903445169E+03  0.34316223626E+04  0.33006433218E+04 0.  0.
        4    1    3    3  502    0 -0.74192795240E+03 -0.12617468947E+04  0.32303055910E+03  0.14989371794E+04  0.12699999809E+01 0.  1.
       -4    1    3    3    0  502  0.74192795240E+03  0.12617468947E+04 -0.12620650108E+04  0.19326851832E+04  0.12699999809E+01 0. -1.
</event>
<event>
 5   0  0.3674967E-07  0.3429684E+04  0.7818609E-02  0.8130659E-01
        1   -1    0    0  501    0  0.00000000000E+00  0.00000000000E+00  0.26934211952E+04  0.26934211952E+04  0.50400001928E-02 0. -1.
       -1   -1    0    0    0  501  0.00000000000E+00  0.00000000000E+00 -0.10918019450E+04  0.10918019450E+04  0.50400001928E-02 0.  1.
    10030    2    1    2    0    0  0.00000000000E+00  0.00000000000E+00  0.16016192502E+04  0.37852231402E+04  0.34296836587E+04 0.  0.
        2    1    3    3  502    0 -0.12892739511E+04  0.94186710450E+03  0.11038639557E+03  0.16004768414E+04  0.25500000920E-02 0.  1.
       -2    1    3    3    0  502  0.12892739511E+04 -0.94186710450E+03  0.14912328546E+04  0.21847462988E+04  0.25500000920E-02 0. -1.
</event>
<event>
 5   0  0.1126221E-06  0.3303530E+04  0.7818609E-02  0.8161998E-01
       -2   -1    0    0    0  501  0.00000000000E+00  0.00000000000E+00  0.13172376415E+04  0.13172376415E+04  0.25500000920E-02 0. -1.
        2   -1    0    0  501    0  0.00000000000E+00  0.00000000000E+00 -0.20712495799E+04  0.20712495799E+04  0.25500000920E-02 0.  1.
    10030    2    1    2    0    0  0.00000000000E+00  0.00000000000E+00 -0.75401193832E+03  0.33884872214E+04  0.33035301794E+04 0.  0.
        2    1    3    3  502    0  0.66699619922E+03  0.24701109935E+03 -0.19061259737E+04  0.20345059942E+04  0.25500000920E-02 0.  1.
       -2    1    3    3    0  502 -0.66699619922E+03 -0.24701109935E+03  0.11521140354E+04  0.13539812272E+04  0.25500000920E-02 0. -1.
</event>
<event>
 5   0  0.3757406E-07  0.3306210E+04  0.7818609E-02  0.8161317E-01
       -1   -1    0    0    0  501  0.00000000000E+00  0.00000000000E+00  0.17541983886E+04  0.17541983886E+04  0.50400001928E-02 0. -1.
        1   -1    0    0  501    0  0.00000000000E+00  0.00000000000E+00 -0.15578372196E+04  0.15578372196E+04  0.50400001928E-02 0.  1.
    10030    2    1    2    0    0  0.00000000000E+00  0.00000000000E+00  0.19636116904E+03  0.33120356082E+04  0.33062096366E+04 0.  0.
        1    1    3    3  502    0  0.83560079027E+02 -0.13570431806E+02  0.17520255728E+04  0.17540695686E+04  0.50400001928E-02 0. -1.
       -1    1    3    3    0  502 -0.83560079027E+02  0.13570431806E+02 -0.15556644038E+04  0.15579660397E+04  0.50400001928E-02 0.  1.
</event>
<event>
 5   0  0.1126221E-06  0.3293423E+04  0.7818609E-02  0.8164571E-01
       -2   -1    0    0    0  501  0.00000000000E+00  0.00000000000E+00  0.15797529594E+04  0.15797529594E+04  0.25500000920E-02 0. -1.
        2   -1    0    0  501    0  0.00000000000E+00  0.00000000000E+00 -0.17165080465E+04  0.17165080465E+04  0.25500000920E-02 0.  1.
    10030    2    1    2    0    0  0.00000000000E+00  0.00000000000E+00 -0.13675508709E+03  0.32962610059E+04  0.32934229405E+04 0.  0.
        2    1    3    3  502    0  0.17125212909E+03 -0.73730057096E+03 -0.15320738437E+04  0.17088562509E+04  0.25500000920E-02 0.  1.
       -2    1    3    3    0  502 -0.17125212909E+03  0.73730057096E+03  0.13953187566E+04  0.15874047550E+04  0.25500000920E-02 0. -1.
</event>
<event>
 5   0  0.1146799E-06  0.3137502E+04  0.7818609E-02  0.8205520E-01
        2   -1    0    0  501    0  0.00000000000E+00  0.00000000000E+00  0.24401476323E+04  0.24401476323E+04  0.25500000920E-02 0. -1.
       -2   -1    0    0    0  501  0.00000000000E+00  0.00000000000E+00 -0.10085375231E+04  0.10085375231E+04  0.25500000920E-02 0.  1.
    10030    2    1    2    0    0  0.00000000000E+00  0.00000000000E+00  0.14316101092E+04  0.34486851554E+04  0.31375024775E+04 0.  0.
        5    1    3    3  502    0  0.38841433435E+03 -0.41299060007E+03 -0.89198302867E+03  0.10569213520E+04  0.46999998093E+01 0.  1.
       -5    1    3    3    0  502 -0.38841433435E+03  0.41299060007E+03  0.23235931379E+04  0.23917638034E+04  0.46999998093E+01 0. -1.
</event>
<event>
 5   0  0.1146799E-06  0.3318306E+04  0.7818609E-02  0.8158253E-01
        2   -1    0    0  501    0  0.00000000000E+00  0.00000000000E+00  0.16150759885E+04  0.16150759885E+04  0.25500000920E-02 0.  1.
       -2   -1    0    0    0  501  0.00000000000E+00  0.00000000000E+00 -0.17044325958E+04  0.17044325958E+04  0.25500000920E-02 0. -1.
    10030    2    1    2    0    0  0.00000000000E+00  0.00000000000E+00 -0.89356607288E+02  0.33195085843E+04  0.33183056879E+04 0.  0.
        5    1    3    3  502    0  0.16047072941E+04  0.35647023885E+03 -0.26972549322E+03  0.16658122531E+04  0.46999998093E+01 0. -1.
       -5    1    3    3    0  502 -0.16047072941E+04 -0.35647023885E+03  0.18036888593E+03  0.16536963312E+04  0.46999998093E+01 0.  1.
</event>
<event>
 5   0  0.3674967E-07  0.3268259E+04  0.7818609E-02  0.8171019E-01
       -1   -1    0    0    0  501  0.00000000000E+00  0.00000000000E+00  0.15920341098E+04  0.15920341098E+04  0.50400001928E-02 0.  1.
        1   -1    0    0  501    0  0.00000000000E+00  0.00000000000E+00 -0.16773380615E+04  0.16773380615E+04  0.50400001928E-02 0. -1.
    10030    2    1    2    0    0  0.00000000000E+00  0.00000000000E+00 -0.85303951677E+02  0.32693721713E+04  0.32682591130E+04 0.  0.
        2    1    3    3  502    0  0.62878642606E+03 -0.97106234289E+03 -0.11971875609E+04  0.16648100491E+04  0.25500000920E-02 0. -1.
       -2    1    3    3    0  502 -0.62878642606E+03  0.97106234289E+03  0.11118836093E+04  0.16045621222E+04  0.25500000920E-02 0.  1.
</event>
<event>
 5   0  0.3749685E-07  0.3291797E+04  0.7818609E-02  0.8164986E-01
       -1   -1    0    0    0  501  0.00000000000E+00  0.00000000000E+00  0.25283883080E+04  0.25283883080E+04  0.50400001928E-02 0. -1.
        1   -1    0    0  501    0  0.00000000000E+00  0.00000000000E+00 -0.10714262961E+04  0.10714262961E+04  0.50400001928E-02 0.  1.
    10030    2    1    2    0    0  0.00000000000E+00  0.00000000000E+00  0.14569620119E+04  0.35998146041E+04  0.32917969075E+04 0.  0.
        3    1    3    3  502    0  0.82322586776E+03 -0.18746062221E+03  0.22735309925E+04  0.24252392662E+04  0.10100000352E+00 0. -1.
       -3    1    3    3    0  502 -0.82322586776E+03  0.18746062221E+03 -0.81656898062E+03  0.11745753380E+04  0.10100000352E+00 0.  1.
</event>
<event>
 5   0  0.3749685E-07  0.3266065E+04  0.7818609E-02  0.8171584E-01
        1   -1    0    0  501    0  0.00000000000E+00  0.00000000000E+00  0.28764647818E+04  0.28764647818E+04  0.50400001928E-02 0.  1.
       -1   -1    0    0    0  501  0.00000000000E+00  0.00000000000E+00 -0.92710871438E+03  0.92710871439E+03  0.50400001928E-02 0. -1.
    10030    2    1    2    0    0  0.00000000000E+00  0.00000000000E+00  0.19493560674E+04  0.38035734962E+04  0.32660652571E+04 0.  0.
        3    1    3    3  502    0  0.41930848145E+03  0.14398262573E+04  0.22185859250E+03  0.15159619055E+04  0.10100000352E+00 0. -1.
       -3    1    3    3    0  502 -0.41930848145E+03 -0.14398262573E+04  0.17274974749E+04  0.22876115907E+04  0.10100000352E+00 0.  1.
</event>
<event>
 5   0  0.3796529E-07  0.2944983E+04  0.7818609E-02  0.8259618E-01
       -1   -1    0    0    0  501  0.00000000000E+00  0.00000000000E+00  0.12603898031E+04  0.12603898031E+04  0.50400001928E-02 0. -1.
        1   -1    0    0  501    0  0.00000000000E+00  0.00000000000E+00 -0.17202856818E+04  0.17202856818E+04  0.50400001928E-02 0.  1.
    10030    2    1    2    0    0  0.00000000000E+00  0.00000000000E+00 -0.45989587872E+03  0.29806754848E+04  0.29449825342E+04 0.  0.
        5    1    3    3  502    0 -0.39924295009E+03  0.13909415991E+04  0.45555074341E+02  0.14478296931E+04  0.46999998093E+01 0. -1.
       -5    1    3    3    0  502  0.39924295009E+03 -0.13909415991E+04 -0.50545095306E+03  0.15328457918E+04  0.46999998093E+01 0.  1.
</event>
<event>
 5   0  0.1116462E-06  0.3297035E+04  0.7818609E-02  0.8163650E-01
        2   -1    0    0  501    0  0.00000000000E+00  0.00000000000E+00  0.24581737307E+04  0.24581737307E+04  0.25500000920E-02 0.  1.
       -2   -1    0    0    0  501  0.00000000000E+00  0.00000000000E+00 -0.11055402460E+04  0.11055402460E+04  0.25500000920E-02 0. -1.
    10030    2    1    2    0    0  0.00000000000E+00  0.00000000000E+00  0.13526334848E+04  0.35637139767E+04  0.32970350262E+04 0.  0.
        1    1    3    3  502    0 -0.23377179563E+02 -0.13768304224E+03  0.24517684091E+04  0.24557425445E+04  0.50400001928E-02 0.  1.
       -1    1    3    3    0  502  0.23377179563E+02  0.13768304224E+03 -0.10991349244E+04  0.11079714322E+04  0.50400001928E-02 0. -1.
</event>
<event>
 5   0  0.3796529E-07  0.3310662E+04  0.7818609E-02  0.8160188E-01
       -1   -1    0    0    0  501  0.00000000000E+00  0.00000000000E+00  0.27218637154E+04  0.27218637154E+04  0.50400001928E-02 0. -1.
        1   -1    0    0  501    0  0.00000000000E+00  0.00000000000E+00 -0.10067072366E+04  0.10067072366E+04  0.50400001928E-02 0.  1.
    10030    2    1    2    0    0  0.00000000000E+00  0.00000000000E+00  0.17151564789E+04  0.37285709520E+04  0.33106615045E+04 0.  0.
        5    1    3    3  502    0 -0.62641504067E+03  0.10548353077E+04  0.21091778399E+04  0.24400259383E+04  0.46999998093E+01 0. -1.
       -5    1    3    3    0  502  0.62641504067E+03 -0.10548353077E+04 -0.39402136098E+03  0.12885450137E+04  0.46999998093E+01 0.  1.
</event>
<event>
 5   0  0.1116462E-06  0.3284414E+04  0.7818609E-02  0.8166872E-01
        2   -1    0    0  501    0  0.00000000000E+00  0.00000000000E+00  0.21722522183E+04  0.21722522183E+04  0.25500000920E-02 0.  1.
       -2   -1    0    0    0  501  0.00000000000E+00  0.00000000000E+00 -0.12414969912E+04  0.12414969912E+04  0.25500000920E-02 0. -1.
    10030    2    1    2    0    0  0.00000000000E+00  0.00000000000E+00  0.93075522713E+03  0.34137492095E+04  0.32844144642E+04 0.  0.
        1    1    3    3  502    0 -0.11652943301E+04  0.66718860135E+03  0.14480124401E+04  0.19747889842E+04  0.50400001928E-02 0.  1.
       -1    1    3    3    0  502  0.11652943301E+04 -0.66718860135E+03 -0.51725721294E+03  0.14389602253E+04  0.50400001928E-02 0. -1.
</event>
<event>
 5   0  0.1129434E-06  0.3271600E+04  0.7818609E-02  0.8170160E-01
       -2   -1    0    0    0  501  0.00000000000E+00  0.00000000000E+00  0.10388120879E+04  0.10388120879E+04  0.25500000920E-02 0. -1.
        2   -1    0    0  501    0  0.00000000000E+00  0.00000000000E+00 -0.25758670784E+04  0.25758670784E+04  0.25500000920E-02 0.  1.
    10030    2    1    2    0    0  0.00000000000E+00  0.00000000000E+00 -0.15370549905E+04  0.36146791663E+04  0.32716001331E+04 0.  0.
        3    1    3    3  502    0 -0.25907119098E+03  0.35003367619E+03  0.97359064914E+03  0.10665459290E+04  0.10100000352E+00 0. -1.
       -3    1    3    3    0  502  0.25907119098E+03 -0.35003367619E+03 -0.25106456397E+04  0.25481332372E+04  0.10100000352E+00 0.  1.
</event>
<event>
 5   0  0.1126221E-06  0.3296708E+04  0.7818609E-02  0.8163734E-01
        2   -1    0    0  501    0  0.00000000000E+00  0.00000000000E+00  0.13098051749E+04  0.13098051749E+04  0.25500000920E-02 0.  1.
       -2   -1    0    0    0  501  0.00000000000E+00  0.00000000000E+00 -0.20744083917E+04  0.20744083917E+04  0.25500000920E-02 0. -1.
    10030    2    1    2    0    0  0.00000000000E+00  0.00000000000E+00 -0.76460321680E+03  0.33842135666E+04  0.32967079618E+04 0.  0.
        2    1    3    3  502    0 -0.56865705084E+03  0.10710191118E+04 -0.15284582981E+04  0.19510606214E+04  0.25500000920E-02 0. -1.
       -2    1    3    3    0  502  0.56865705084E+03 -0.10710191118E+04  0.76385508126E+03  0.14331529453E+04  0.25500000920E-02 0.  1.
</event>
<event>
 5   0  0.3709747E-07  0.3283715E+04  0.7818609E-02  0.8167052E-01
        1   -1    0    0  501    0  0.00000000000E+00  0.00000000000E+00  0.14204166186E+04  0.14204166186E+04  0.50400001928E-02 0. -1.
       -1   -1    0    0    0  501  0.00000000000E+00  0.00000000000E+00 -0.18978201215E+04  0.18978201215E+04  0.50400001928E-02 0.  1.
    10030    2    1    2    0    0  0.00000000000E+00  0.00000000000E+00 -0.47740350290E+03  0.33182367401E+04  0.32837145062E+04 0.  0.
        4    1    3    3  502    0 -0.40298308688E+03  0.10428228183E+04  0.97636157804E+03  0.14843039926E+04  0.12699999809E+01 0. -1.
       -4    1    3    3    0  502  0.40298308688E+03 -0.10428228183E+04 -0.14537650809E+04  0.18339327474E+04  0.12699999809E+01 0.  1.
</event>
<event>
 5   0  0.1146799E-06  0.3231945E+04  0.7818609E-02  0.8180431E-01
        2   -1    0    0  501    0  0.00000000000E+00  0.00000000000E+00  0.17994137237E+04  0.17994137237E+04  0.25500000920E-02 0.  1.
       -2   -1    0    0    0  501  0.00000000000E+00  0.00000000000E+00 -0.14512317960E+04  0.14512317961E+04  0.25500000920E-02 0. -1.
    10030    2    1    2    0    0  0.00000000000E+00  0.00000000000E+00  0.34818192770E+03  0.32506455198E+04  0.32319445603E+04 0.  0.
        5    1    3    3  502    0 -0.12296628970E+04  0.96550255626E+02  0.12241393275E+04  0.17377951477E+04  0.46999998093E+01 0.  1.
       -5    1    3    3    0  502  0.12296628970E+04 -0.96550255626E+02 -0.87595739982E+03  0.15128503721E+04  0.46999998093E+01 0. -1.
</event>
<event>
 5   0  0.1146799E-06  0.3302905E+04  0.7818609E-02  0.8162157E-01
        2   -1    0    0  501    0  0.00000000000E+00  0.00000000000E+00  0.16689992272E+04  0.16689992272E+04  0.25500000920E-02 0. -1.
       -2   -1    0    0    0  501  0.00000000000E+00  0.00000000000E+00 -0.16340900812E+04  0.16340900812E+04  0.25500000920E-02 0.  1.
    10030    2    1    2    0    0  0.00000000000E+00  0.00000000000E+00  0.34909146020E+02  0.33030893085E+04  0.33029048323E+04 0.  0.
        5    1    3    3  502    0  0.10781376023E+04  0.82125458056E+03  0.96113496715E+03  0.16615180681E+04  0.46999998093E+01 0. -1.
       -5    1    3    3    0  502 -0.10781376023E+04 -0.82125458056E+03 -0.92622582113E+03  0.16415712404E+04  0.46999998093E+01 0.  1.
</event>
<event>
 5   0  0.1116462E-06  0.3296206E+04  0.7818609E-02  0.8163861E-01
        2   -1    0    0  501    0  0.00000000000E+00  0.00000000000E+00  0.15106760753E+04  0.15106760753E+04  0.25500000920E-02 0. -1.
       -2   -1    0    0    0  501  0.00000000000E+00  0.00000000000E+00 -0.17980319167E+04  0.17980319168E+04  0.25500000920E-02 0.  1.
    10030    2    1    2    0    0  0.00000000000E+00  0.00000000000E+00 -0.28735584148E+03  0.33087079920E+04  0.32962061824E+04 0.  0.
        1    1    3    3  502    0  0.16021987741E+04 -0.38533796332E+03 -0.17056648211E+03  0.16566892233E+04  0.50400001928E-02 0.  1.
       -1    1    3    3    0  502 -0.16021987741E+04  0.38533796332E+03 -0.11678935937E+03  0.16520187687E+04  0.50400001928E-02 0. -1.
</event>
<event>
 5   0  0.1120545E-06  0.3300684E+04  0.7818609E-02  0.8162721E-01
        2   -1    0    0  501    0  0.00000000000E+00  0.00000000000E+00  0.15399466283E+04  0.15399466283E+04  0.25500000920E-02 0. -1.
       -2   -1    0    0    0  501  0.00000000000E+00  0.00000000000E+00 -0.17686518481E+04  0.17686518481E+04  0.25500000920E-02 0.  1.
    10030    2    1    2    0    0  0.00000000000E+00  0.00000000000E+00 -0.22870521979E+03  0.33085984764E+04  0.33006844442E+04 0.  0.
        4    1    3    3  502    0  0.28563812731E+03 -0.12136203294E+04  0.96951902107E+03  0.15793771522E+04  0.12699999809E+01 0. -1.
       -4    1    3    3    0  502 -0.28563812731E+03  0.12136203294E+04 -0.11982242409E+04  0.17292213242E+04  0.12699999809E+01 0.  1.
</event>
<event>
 5   0  0.3674967E-07  0.3327674E+04  0.7818609E-02  0.8155889E-01
        1   -1    0    0  501    0  0.00000000000E+00  0.00000000000E+00  0.20495461833E+04  0.20495461833E+04  0.50400001928E-02 0. -1.
       -1   -1    0    0    0  501  0.00000000000E+00  0.00000000000E+00 -0.13507151383E+04  0.13507151383E+04  0.50400001928E-02 0.  1.
    10030    2    1    2    0    0  0.00000000000E+00  0.00000000000E+00  0.69883104500E+03  0.34002613216E+04  0.33276736958E+04 0.  0.
        2    1    3    3  502    0  0.25091276045E+03  0.53359050115E+03 -0.12403752988E+04  0.13733924852E+04  0.25500000920E-02 0.  1.
       -2    1    3    3    0  502 -0.25091276045E+03 -0.53359050115E+03  0.19392063438E+04  0.20268688365E+04  0.25500000920E-02 0. -1.
</event>
<event>
 5   0  0.3674967E-07  0.3303095E+04  0.7818609E-02  0.8162108E-01
        1   -1    0    0  501    0  0.00000000000E+00  0.00000000000E+00  0.27168859754E+04  0.27168859754E+04  0.50400001928E-02 0. -1.
       -1   -1    0    0    0  501  0.00000000000E+00  0.00000000000E+00 -0.10039467381E+04  0.10039467381E+04  0.50400001928E-02 0.  1.
    10030    2    1    2    0    0  0.00000000000E+00  0.00000000000E+00  0.17129392373E+04  0.37208327136E+04  0.33030947990E+04 0.  0.
        2    1    3    3  502    0 -0.12967278766E+04  0.10227240505E+04  0.86985249113E+03  0.18665773560E+04  0.25500000920E-02 0. -1.
       -2    1    3    3    0  502  0.12967278766E+04 -0.10227240505E+04  0.84308674620E+03  0.18542553576E+04  0.25500000920E-02 0.  1.
</event>
<event>
 5   0  0.1146799E-06  0.3361913E+04  0.7818609E-02  0.8147318E-01
        2   -1    0    0  501    0  0.00000000000E+00  0.00000000000E+00  0.20713027188E+04  0.20713027188E+04  0.25500000920E-02 0. -1.
       -2   -1    0    0    0  501  0.00000000000E+00  0.00000000000E+00 -0.13641727621E+04  0.13641727621E+04  0.25500000920E-02 0.  1.
    10030    2    1    2    0    0  0.00000000000E+00  0.00000000000E+00  0.70712995674E+03  0.34354754809E+04  0.33619129978E+04 0.  0.
        5    1    3    3  502    0 -0.10937360097E+04  0.16889604818E+03 -0.93935024918E+03  0.14516147266E+04  0.46999998093E+01 0.  1.
       -5    1    3    3    0  502  0.10937360097E+04 -0.16889604818E+03  0.16464802059E+04  0.19838607543E+04  0.46999998093E+01 0. -1.
</event>
<event>
 5   0  0.1129434E-06  0.3302155E+04  0.7818609E-02  0.8162347E-01
       -2   -1    0    0    0  501  0.00000000000E+00  0.00000000000E+00  0.11584421934E+04  0.11584421934E+04  0.25500000920E-02 0. -1.
        2   -1    0    0  501    0  0.00000000000E+00  0.00000000000E+00 -0.23532093810E+04  0.23532093810E+04  0.25500000920E-02 0.  1.
    10030    2    1    2    0    0  0.00000000000E+00  0.00000000000E+00 -0.11947671876E+04  0.35116515744E+04  0.33021550762E+04 0.  0.
        3    1    3    3  502    0 -0.86895372519E+03 -0.11084882434E+04  0.31880163005E+03  0.14441126174E+04  0.10100000352E+00 0. -1.
       -3    1    3    3    0  502  0.86895372519E+03  0.11084882434E+04 -0.15135688177E+04  0.20675389569E+04  0.10100000352E+00 0.  1.
</event>
<event>
 5   0  0.3674967E-07  0.3338847E+04  0.7818609E-02  0.8153081E-01
        1   -1    0    0  501    0  0.00000000000E+00  0.00000000000E+00  0.14491406376E+04  0.14491406376E+04  0.50400001928E-02 0.  1.
       -1   -1    0    0    0  501  0.00000000000E+00  0.00000000000E+00 -0.19231910226E+04  0.19231910226E+04  0.50400001928E-02 0. -1.
    10030    2    1    2    0    0  0.00000000000E+00  0.00000000000E+00 -0.47405038500E+03  0.33723316602E+04  0.33388466660E+04 0.  0.
        2    1    3    3  502    0 -0.10285141129E+04 -0.98555147737E+03  0.64223457230E+03  0.15625678356E+04  0.25500000920E-02 0.  1.
       -2    1    3    3    0  502  0.10285141129E+04  0.98555147737E+03 -0.11162849573E+04  0.18097638246E+04  0.25500000920E-02 0. -1.
</event>
<event>
 5   0  0.1120545E-06  0.3302446E+04  0.7818609E-02  0.8162273E-01
       -2   -1    0    0    0  501  0.00000000000E+00  0.00000000000E+00  0.10255396001E+04  0.10255396001E+04  0.25500000920E-02 0.  1.
        2   -1    0    0  501    0  0.00000000000E+00  0.00000000000E+00 -0.26586376171E+04  0.26586376171E+04  0.25500000920E-02 0. -1.
    10030    2    1    2    0    0  0.00000000000E+00  0.00000000000E+00 -0.16330980170E+04  0.36841772172E+04  0.33024464620E+04 0.  0.
        4    1    3    3  502    0 -0.14879979718E+04 -0.49247558915E+03 -0.23701474846E+03  0.15851964465E+04  0.12699999809E+01 0.  1.
       -4    1    3    3    0  502  0.14879979718E+04  0.49247558915E+03 -0.13960832686E+04  0.20989807707E+04  0.12699999809E+01 0. -1.
</event>
<event>
 5   0  0.3709747E-07  0.3263996E+04  0.7818609E-02  0.8172117E-01
       -1   -1    0    0    0  501  0.00000000000E+00  0.00000000000E+00  0.97858017525E+03  0.97858017526E+03  0.50400001928E-02 0.  1.
        1   -1    0    0  501    0  0.00000000000E+00  0.00000000000E+00 -0.27217163673E+04  0.27217163673E+04  0.50400001928E-02 0. -1.
    10030    2    1    2    0    0  0.00000000000E+00  0.00000000000E+00 -0.17431361920E+04  0.37002965425E+04  0.32639961273E+04 0.  0.
        4    1    3    3  502    0 -0.97168452246E+03  0.45006053421E+03 -0.22677288222E+04  0.25078518536E+04  0.12699999809E+01 0. -1.
       -4    1    3    3    0  502  0.97168452246E+03 -0.45006053421E+03  0.52459263018E+03  0.11924446889E+04  0.12699999809E+01 0.  1.
</event>
<event>
 5   0  0.3749685E-07  0.3302653E+04  0.7818609E-02  0.8162221E-01
       -1   -1    0    0    0  501  0.00000000000E+00  0.00000000000E+00  0.19628427260E+04  0.19628427260E+04  0.50400001928E-02 0.  1.
        1   -1    0    0  501    0  0.00000000000E+00  0.00000000000E+00 -0.13892499306E+04  0.13892499306E+04  0.50400001928E-02 0. -1.
    10030    2    1    2    0    0  0.00000000000E+00  0.00000000000E+00  0.57359279540E+03  0.33520926565E+04  0.33026529462E+04 0.  0.
        3    1    3    3  502    0  0.55072891641E+03 -0.38784345158E+03  0.18170645045E+04  0.19378979091E+04  0.10100000352E+00 0.  1.
       -3    1    3    3    0  502 -0.55072891641E+03  0.38784345158E+03 -0.12434717091E+04  0.14141947475E+04  0.10100000352E+00 0. -1.
</event>
<event>
 5   0  0.1116462E-06  0.3357096E+04  0.7818609E-02  0.8148517E-01
       -2   -1    0    0    0  501  0.00000000000E+00  0.00000000000E+00  0.10056910665E+04  0.10056910665E+04  0.25500000920E-02 0.  1.
        2   -1    0    0  501    0  0.00000000000E+00  0.00000000000E+00 -0.28015799798E+04  0.28015799798E+04  0.25500000920E-02 0. -1.
    10030    2    1    2    0    0  0.00000000000E+00  0.00000000000E+00 -0.17958889133E+04  0.38072710463E+04  0.33570963393E+04 0.  0.
        1    1    3    3  502    0 -0.83072500874E+03  0.58031784307E+02  0.75490229072E+03  0.11239880768E+04  0.50400001928E-02 0.  1.
       -1    1    3    3    0  502  0.83072500874E+03 -0.58031784307E+02 -0.25507912040E+04  0.26832829695E+04  0.50400001928E-02 0. -1.
</event>
<event>
 5   0  0.3674967E-07  0.3304772E+04  0.7818609E-02  0.8161682E-01
        1   -1    0    0  501    0  0.00000000000E+00  0.00000000000E+00  0.18150965762E+04  0.18150965762E+04  0.50400001928E-02 0.  1.
       -1   -1    0    0    0  501  0.00000000000E+00  0.00000000000E+00 -0.15042612666E+04  0.15042612666E+04  0.50400001928E-02 0. -1.
    10030    2    1    2    0    0  0.00000000000E+00  0.00000000000E+00  0.31083530963E+03  0.33193578428E+04  0.33047719890E+04 0.  0.
        2    1    3    3  502    0  0.12576799588E+04 -0.62470810417E+03 -0.71926475132E+03  0.15777708568E+04  0.25500000920E-02 0. -1.
       -2    1    3    3    0  502 -0.12576799588E+04  0.62470810417E+03  0.10301000610E+04  0.17415869860E+04  0.25500000920E-02 0.  1.
</event>
<event>
 5   0  0.1116462E-06  0.3272017E+04  0.7818609E-02  0.8170052E-01
        2   -1    0    0  501    0  0.00000000000E+00  0.00000000000E+00  0.18252871697E+04  0.18252871697E+04  0.25500000920E-02 0.  1.
       -2   -1    0    0    0  501  0.00000000000E+00  0.00000000000E+00 -0.14663573248E+04  0.14663573248E+04  0.25500000920E-02 0. -1.
    10030    2    1    2    0    0  0.00000000000E+00  0.00000000000E+00  0.35892984496E+03  0.32916444945E+04  0.32720166327E+04 0.  0.
        1    1    3    3  502    0 -0.58509471951E+03 -0.14833135624E+04  0.54767729166E+03  0.16859731228E+04  0.50400001928E-02 0. -1.
       -1    1    3    3    0  502  0.58509471951E+03  0.14833135624E+04 -0.18874744670E+03  0.16056713717E+04  0.50400001928E-02 0.  1.
</event>
<event>
 5   0  0.1129434E-06  0.3343627E+04  0.7818609E-02  0.8151882E-01
        2   -1    0    0  501    0  0.00000000000E+00  0.00000000000E+00  0.21260533500E+04  0.21260533500E+04  0.25500000920E-02 0.  1.
       -2   -1    0    0    0  501  0.00000000000E+00  0.00000000000E+00 -0.13146242138E+04  0.13146242138E+04  0.25500000920E-02 0. -1.
    10030    2    1    2    0    0  0.00000000000E+00  0.00000000000E+00  0.81142913620E+03  0.34406775638E+04  0.33436274994E+04 0.  0.
        3    1    3    3  502    0 -0.12367796646E+04  0.55431302906E+02 -0.75040112023E+03  0.14476872658E+04  0.10100000352E+00 0. -1.
       -3    1    3    3    0  502  0.12367796646E+04 -0.55431302906E+02  0.15618302564E+04  0.19929902980E+04  0.10100000352E+00 0.  1.
</event>
<event>
 5   0  0.3757406E-07  0.3294459E+04  0.7818609E-02  0.8164307E-01
        1   -1    0    0  501    0  0.00000000000E+00  0.00000000000E+00  0.19566599180E+04  0.19566599180E+04  0.50400001928E-02 0.  1.
       -1   -1    0    0    0  501  0.00000000000E+00  0.00000000000E+00 -0.13867332736E+04  0.13867332736E+04  0.50400001928E-02 0. -1.
    10030    2    1    2    0    0  0.00000000000E+00  0.00000000000E+00  0.56992664435E+03  0.33433931916E+04  0.32944592354E+04 0.  0.
        1    1    3    3  502    0  0.72424845093E+03 -0.67976040577E+03 -0.10486156079E+04  0.14443700084E+04  0.50400001928E-02 0. -1.
       -1    1    3    3    0  502 -0.72424845093E+03  0.67976040577E+03  0.16185422523E+04  0.18990231832E+04  0.50400001928E-02 0.  1.
</event>
<event>
 5   0  0.3757406E-07  0.3299433E+04  0.7818609E-02  0.8163040E-01
        1   -1    0    0  501    0  0.00000000000E+00  0.00000000000E+00  0.15858222226E+04  0.15858222226E+04  0.50400001928E-02 0. -1.
       -1   -1    0    0    0  501  0.00000000000E+00  0.00000000000E+00 -0.17161850147E+04  0.17161850147E+04  0.50400001928E-02 0.  1.
    10030    2    1    2    0    0  0.00000000000E+00  0.00000000000E+00 -0.13036279208E+03  0.33020072373E+04  0.32994328812E+04 0.  0.
        1    1    3    3  502    0  0.82620105072E+03  0.10600581327E+04 -0.10226058979E+04  0.16888026064E+04  0.50400001928E-02 0.  1.
       -1    1    3    3    0  502 -0.82620105072E+03 -0.10600581327E+04  0.89224310584E+03  0.16132046308E+04  0.50400001928E-02 0. -1.
</event>
<event>
 5   0  0.1116462E-06  0.3225836E+04  0.7818609E-02  0.8182027E-01
       -2   -1    0    0    0  501  0.00000000000E+00  0.00000000000E+00  0.18760467852E+04  0.18760467852E+04  0.25500000920E-02 0. -1.
        2   -1    0    0  501    0  0.00000000000E+00  0.00000000000E+00 -0.13866947302E+04  0.13866947302E+04  0.25500000920E-02 0.  1.
    10030    2    1    2    0    0  0.00000000000E+00  0.00000000000E+00  0.48935205495E+03  0.32627415154E+04  0.32258358239E+04 0.  0.
        1    1    3    3  502    0 -0.25723742886E+03  0.15388049663E+04  0.65851766399E+03  0.16934394979E+04  0.50400001928E-02 0. -1.
       -1    1    3    3    0  502  0.25723742886E+03 -0.15388049663E+04 -0.16916560904E+03  0.15693020176E+04  0.50400001928E-02 0.  1.
</event>
<event>
 5   0  0.3674967E-07  0.3291941E+04  0.7818609E-02  0.8164949E-01
       -1   -1    0    0    0  501  0.00000000000E+00  0.00000000000E+00  0.10565028632E+04  0.10565028632E+04  0.50400001928E-02 0. -1.
        1   -1    0    0  501    0  0.00000000000E+00  0.00000000000E+00 -0.25643268197E+04  0.25643268197E+04  0.50400001928E-02 0.  1.
    10030    2    1    2    0    0  0.00000000000E+00  0.00000000000E+00 -0.15078239565E+04  0.36208296829E+04  0.32919408423E+04 0.  0.
        2    1    3    3  502    0 -0.12316580720E+03 -0.19359992254E+03  0.10388248221E+04  0.10638645389E+04  0.25500000920E-02 0. -1.
       -2    1    3    3    0  502  0.12316580720E+03  0.19359992254E+03 -0.25466487786E+04  0.25569651440E+04  0.25500000920E-02 0.  1.
</event>
<event>
 5   0  0.3757406E-07  0.3297975E+04  0.7818609E-02  0.8163411E-01
       -1   -1    0    0    0  501  0.00000000000E+00  0.00000000000E+00  0.14554599925E+04  0.14554599925E+04  0.50400001928E-02 0.  1.
        1   -1    0    0  501    0  0.00000000000E+00  0.00000000000E+00 -0.18682473003E+04  0.18682473004E+04  0.50400001928E-02 0. -1.
    10030    2    1    2    0    0  0.00000000000E+00  0.00000000000E+00 -0.41278730784E+03  0.33237072929E+04  0.32979746523E+04 0.  0.
        1    1    3    3  502    0  0.10611777276E+04 -0.74844586105E+03 -0.12306353610E+04  0.17890591852E+04  0.50400001928E-02 0. -1.
       -1    1    3    3    0  502 -0.10611777276E+04  0.74844586105E+03  0.81784805313E+03  0.15346481077E+04  0.50400001928E-02 0.  1.
</event>
<event>
 5   0  0.1129434E-06  0.3289020E+04  0.7818609E-02  0.8165695E-01
        2   -1    0    0  501    0  0.00000000000E+00  0.00000000000E+00  0.21113488674E+04  0.21113488674E+04  0.25500000920E-02 0. -1.
       -2   -1    0    0    0  501  0.00000000000E+00  0.00000000000E+00 -0.12808932668E+04  0.12808932668E+04  0.25500000920E-02 0.  1.
    10030    2    1    2    0    0  0.00000000000E+00  0.00000000000E+00  0.83045560067E+03  0.33922421342E+04  0.32890196400E+04 0.  0.
        3    1    3    3  502    0  0.52280905496E+03 -0.13677946233E+04 -0.35674163859E+03  0.15071350459E+04  0.10100000352E+00 0.  1.
       -3    1    3    3    0  502 -0.52280905496E+03  0.13677946233E+04  0.11871972393E+04  0.18851070884E+04  0.10100000352E+00 0. -1.
</event>
<event>
 5   0  0.3709747E-07  0.3148689E+04  0.7818609E-02  0.8202501E-01
        1   -1    0    0  501    0  0.00000000000E+00  0.00000000000E+00  0.16237165640E+04  0.16237165640E+04  0.50400001928E-02 0. -1.
       -1   -1    0    0    0  501  0.00000000000E+00  0.00000000000E+00 -0.15264739146E+04  0.15264739146E+04  0.50400001928E-02 0.  1.
    10030    2    1    2    0    0  0.00000000000E+00  0.00000000000E+00  0.97242649352E+02  0.31501904786E+04  0.31486892382E+04 0.  0.
        4    1    3    3  502    0 -0.13633339529E+04 -0.78288201363E+03 -0.34938867923E+02  0.15725158351E+04  0.12699999809E+01 0.  1.
       -4    1    3    3    0  502  0.13633339529E+04  0.78288201363E+03  0.13218151727E+03  0.15776746435E+04  0.12699999809E+01 0. -1.
</event>
<event>
 5   0  0.3757406E-07  0.3312521E+04  0.7818609E-02  0.8159717E-01
       -1   -1    0    0    0  501  0.00000000000E+00  0.00000000000E+00  0.17181434149E+04  0.17181434149E+04  0.50400001928E-02 0.  1.
        1   -1    0    0  501    0  0.00000000000E+00  0.00000000000E+00 -0.15966068068E+04  0.15966068068E+04  0.50400001928E-02 0. -1.
    10030    2    1    2    0    0  0.00000000000E+00  0.00000000000E+00  0.12153660815E+03  0.33147502217E+04  0.33125213789E+04 0.  0.
        1    1    3    3  502    0  0.67238383983E+03  0.31948327127E+03 -0.14197642583E+04  0.16030908077E+04  0.50400001928E-02 0. -1.
       -1    1    3    3    0  502 -0.67238383983E+03 -0.31948327127E+03  0.15413008664E+04  0.17116594140E+04  0.50400001928E-02 0.  1.
</event>
<event>
 5   0  0.3757406E-07  0.3293261E+04  0.7818609E-02  0.8164612E-01
        1   -1    0    0  501    0  0.00000000000E+00  0.00000000000E+00  0.25282344843E+04  0.25282344843E+04  0.50400001928E-02 0.  1.
       -1   -1    0    0    0  501  0.00000000000E+00  0.00000000000E+00 -0.10724447197E+04  0.10724447198E+04  0.50400001928E-02 0. -1.
    10030    2    1    2    0    0  0.00000000000E+00  0.00000000000E+00  0.14557897645E+04  0.36006792040E+04  0.32932608296E+04 0.  0.
        1    1    3    3  502    0  0.28393100142E+03  0.82450882757E+03 -0.79925792850E+03  0.11828968073E+04  0.50400001928E-02 0. -1.
       -1    1    3    3    0  502 -0.28393100142E+03 -0.82450882757E+03  0.22550476930E+04  0.24177823968E+04  0.50400001928E-02 0.  1.
</event>
<event>
 5   0  0.1126221E-06  0.3362292E+04  0.7818609E-02  0.8147224E-01
       -2   -1    0    0    0  501  0.00000000000E+00  0.00000000000E+00  0.15921555582E+04  0.15921555582E+04  0.25500000920E-02 0.  1.
        2   -1    0    0  501    0  0.00000000000E+00  0.00000000000E+00 -0.17751103052E+04  0.17751103052E+04  0.25500000920E-02 0. -1.
    10030    2    1    2    0    0  0.00000000000E+00  0.00000000000E+00 -0.18295474696E+03  0.33672658634E+04  0.33622919201E+04 0.  0.
        2    1    3    3  502    0  0.47492466890E+03 -0.39344377276E+03  0.14747736413E+04  0.15985333080E+04  0.25500000920E-02 0.  1.
       -2    1    3    3    0  502 -0.47492466890E+03  0.39344377276E+03 -0.16577283883E+04  0.17687325555E+04  0.25500000920E-02 0. -1.
</event>
<event>
 5   0  0.1120545E-06  0.3184443E+04  0.7818609E-02  0.8192938E-01
       -2   -1    0    0    0  501  0.00000000000E+00  0.00000000000E+00  0.11758749660E+04  0.11758749660E+04  0.25500000920E-02 0.  1.
        2   -1    0    0  501    0  0.00000000000E+00  0.00000000000E+00 -0.21559850575E+04  0.21559850575E+04  0.25500000920E-02 0. -1.
    10030    2    1    2    0    0  0.00000000000E+00  0.00000000000E+00 -0.98011009154E+03  0.33318600235E+04  0.31844427180E+04 0.  0.
        4    1    3    3  502    0  0.59592253918E+03  0.11794192067E+04 -0.14194399952E+04  0.19393207189E+04  0.12699999809E+01 0. -1.
       -4    1    3    3    0  502 -0.59592253918E+03 -0.11794192067E+04  0.43932990364E+03  0.13925393046E+04  0.12699999809E+01 0.  1.
</event>
<event>
 5   0  0.1129434E-06  0.3301386E+04  0.7818609E-02  0.8162543E-01
       -2   -1    0    0    0  501  0.00000000000E+00  0.00000000000E+00  0.19983713333E+04  0.19983713333E+04  0.25500000920E-02 0.  1.
        2   -1    0    0  501    0  0.00000000000E+00  0.00000000000E+00 -0.13635041061E+04  0.13635041061E+04  0.25500000920E-02 0. -1.
    10030    2    1    2    0    0  0.00000000000E+00  0.00000000000E+00  0.63486722724E+03  0.33618754395E+04  0.33013860838E+04 0.  0.
        3    1    3    3  502    0 -0.14226679761E+04  0.63647182331E+03  0.87118658889E+03  0.17855101890E+04  0.10100000352E+00 0.  1.
       -3    1    3    3    0  502  0.14226679761E+04 -0.63647182331E+03 -0.23631936166E+03  0.15763652505E+04  0.10100000352E+00 0. -1.
</event>
<event>
 5   0  0.3749685E-07  0.3294356E+04  0.7818609E-02  0.8164333E-01
        1   -1    0    0  501    0  0.00000000000E+00  0.00000000000E+00  0.12527537586E+04  0.12527537586E+04  0.50400001928E-02 0. -1.
       -1   -1    0    0    0  501  0.00000000000E+00  0.00000000000E+00 -0.21657848391E+04  0.21657848391E+04  0.50400001928E-02 0.  1.
    10030    2    1    2    0    0  0.00000000000E+00  0.00000000000E+00 -0.91303108053E+03  0.34185385977E+04  0.32943558384E+04 0.  0.
        3    1    3    3  502    0 -0.15840744621E+04  0.43977867310E+03 -0.35019399338E+03  0.16808726978E+04  0.10100000352E+00 0.  1.
       -3    1    3    3    0  502  0.15840744621E+04 -0.43977867310E+03 -0.56283708715E+03  0.17376658999E+04  0.10100000352E+00 0. -1.
</event>
<event>
 5   0  0.1146799E-06  0.3293793E+04  0.7818609E-02  0.8164476E-01
       -2   -1    0    0    0  501  0.00000000000E+00  0.00000000000E+00  0.12726686423E+04  0.12726686423E+04  0.25500000920E-02 0. -1.
        2   -1    0    0  501    0  0.00000000000E+00  0.00000000000E+00 -0.21311664319E+04  0.21311664319E+04  0.25500000920E-02 0.  1.
    10030    2    1    2    0    0  0.00000000000E+00  0.00000000000E+00 -0.85849778953E+03  0.34038350742E+04  0.32937933690E+04 0.  0.
        5    1    3    3  502    0 -0.92793137854E+03 -0.83880474442E+03  0.67779993317E+03  0.14227033710E+04  0.46999998093E+01 0. -1.
       -5    1    3    3    0  502  0.92793137854E+03  0.83880474442E+03 -0.15362977227E+04  0.19811317032E+04  0.46999998093E+01 0.  1.
</event>
<event>
 5   0  0.1126221E-06  0.3274008E+04  0.7818609E-02  0.8169541E-01
        2   -1    0    0  501    0  0.00000000000E+00  0.00000000000E+00  0.19022182542E+04  0.19022182542E+04  0.25500000920E-02 0. -1.
       -2   -1    0    0    0  501  0.00000000000E+00  0.00000000000E+00 -0.14087669370E+04  0.14087669370E+04  0.25500000920E-02 0.  1.
    10030    2    1    2    0    0  0.00000000000E+00  0.00000000000E+00  0.49345131716E+03  0.33109851912E+04  0.32740080534E+04 0.  0.
        2    1    3    3  502    0  0.31579422005E+03  0.70330874224E+03 -0.12136800906E+04  0.14378416250E+04  0.25500000920E-02 0.  1.
       -2    1    3    3    0  502 -0.31579422005E+03 -0.70330874224E+03  0.17071314077E+04  0.18731435662E+04  0.25500000920E-02 0. -1.
</event>
<event>
 5   0  0.3749685E-07  0.3261582E+04  0.7818609E-02  0.8172740E-01
       -1   -1    0    0    0  501  0.00000000000E+00  0.00000000000E+00  0.11566009394E+04  0.11566009394E+04  0.50400001928E-02 0.  1.
        1   -1    0    0  501    0  0.00000000000E+00  0.00000000000E+00 -0.22993928560E+04  0.22993928560E+04  0.50400001928E-02 0. -1.
    10030    2    1    2    0    0  0.00000000000E+00  0.00000000000E+00 -0.11427919167E+04  0.34559937954E+04  0.32615823996E+04 0.  0.
        3    1    3    3  502    0  0.25023619288E+03 -0.15324415378E+04 -0.10995911371E+04  0.19026549603E+04  0.10100000352E+00 0. -1.
       -3    1    3    3    0  502 -0.25023619288E+03  0.15324415378E+04 -0.43200779580E+02  0.15533388351E+04  0.10100000352E+00 0.  1.
</event>
<event>
 5   0  0.1146799E-06  0.3371933E+04  0.7818609E-02  0.8144830E-01
       -2   -1    0    0    0  501  0.00000000000E+00  0.00000000000E+00  0.13578662391E+04  0.13578662391E+04  0.25500000920E-02 0. -1.
        2   -1    0    0  501    0  0.00000000000E+00  0.00000000000E+00 -0.20933449416E+04  0.20933449416E+04  0.25500000920E-02 0.  1.
    10030    2    1    2    0    0  0.00000000000E+00  0.00000000000E+00 -0.73547870252E+03  0.34512111806E+04  0.33719326345E+04 0.  0.
        5    1    3    3  502    0  0.16294760945E+04 -0.22025085580E+03  0.13520398156E+02  0.16443563097E+04  0.46999998093E+01 0. -1.
       -5    1    3    3    0  502 -0.16294760945E+04  0.22025085580E+03 -0.74899910067E+03  0.18068548710E+04  0.46999998093E+01 0.  1.
</event>
<event>
 5   0  0.3573375E-07  0.3315131E+04  0.7818609E-02  0.8159056E-01
        3   -1    0    0  501    0  0.00000000000E+00  0.00000000000E+00  0.20054074219E+04  0.20054074244E+04  0.10100000352E+00 0.  1.
       -3   -1    0    0    0  501  0.00000000000E+00  0.00000000000E+00 -0.13700575722E+04  0.13700575759E+04  0.10100000352E+00 0. -1.
    10030    2    1    2    0    0  0.00000000000E+00  0.00000000000E+00  0.63534984969E+03  0.33754650003E+04  0.33151311493E+04 0.  0.
        5    1    3    3  502    0  0.78662169814E+03 -0.66303627003E+03  0.16409860341E+04  0.19368138902E+04  0.46999998093E+01 0.  1.
       -5    1    3    3    0  502 -0.78662169814E+03  0.66303627003E+03 -0.10056361844E+04  0.14386511101E+04  0.46999998093E+01 0. -1.
</event>
<event>
 5   0  0.1146799E-06  0.3313991E+04  0.7818609E-02  0.8159344E-01
        2   -1    0    0  501    0  0.00000000000E+00  0.00000000000E+00  0.24872783213E+04  0.24872783213E+04  0.25500000920E-02 0. -1.
       -2   -1    0    0    0  501  0.00000000000E+00  0.00000000000E+00 -0.11038709024E+04  0.11038709025E+04  0.25500000920E-02 0.  1.
    10030    2    1    2    0    0  0.00000000000E+00  0.00000000000E+00  0.13834074188E+04  0.35911492237E+04  0.33139910471E+04 0.  0.
        5    1    3    3  502    0  0.48989975125E+03 -0.32506466645E+03 -0.98703308403E+03  0.11488799775E+04  0.46999998093E+01 0.  1.
       -5    1    3    3    0  502 -0.48989975125E+03  0.32506466645E+03  0.23704405028E+04  0.24422692462E+04  0.46999998093E+01 0. -1.
</event>
<event>
 5   0  0.1116462E-06  0.3313554E+04  0.7818609E-02  0.8159455E-01
       -2   -1    0    0    0  501  0.00000000000E+00  0.00000000000E+00  0.11683875022E+04  0.11683875022E+04  0.25500000920E-02 0. -1.
        2   -1    0    0  501    0  0.00000000000E+00  0.00000000000E+00 -0.23493153047E+04  0.23493153047E+04  0.25500000920E-02 0.  1.
    10030    2    1    2    0    0  0.00000000000E+00  0.00000000000E+00 -0.11809278026E+04  0.35177028069E+04  0.33135543700E+04 0.  0.
        1    1    3    3  502    0 -0.96287953188E+03 -0.13407943371E+04 -0.74076402479E+03  0.18093086491E+04  0.50400001928E-02 0. -1.
       -1    1    3    3    0  502  0.96287953188E+03  0.13407943371E+04 -0.44016377777E+03  0.17083941578E+04  0.50400001928E-02 0.  1.
</event>
<event>
 5   0  0.1120545E-06  0.3295330E+04  0.7818609E-02  0.8164085E-01
        2   -1    0    0  501    0  0.00000000000E+00  0.00000000000E+00  0.17750035264E+04  0.17750035264E+04  0.25500000920E-02 0.  1.
       -2   -1    0    0    0  501  0.00000000000E+00  0.00000000000E+00 -0.15294615947E+04  0.15294615947E+04  0.25500000920E-02 0. -1.
    10030    2    1    2    0    0  0.00000000000E+00  0.00000000000E+00  0.24554193167E+03  0.33044651211E+04  0.32953298616E+04 0.  0.
        4    1    3    3  502    0 -0.34990944364E+03 -0.60078340213E+02 -0.14906493057E+04  0.15323455847E+04  0.12699999809E+01 0. -1.
       -4    1    3    3    0  502  0.34990944364E+03  0.60078340213E+02  0.17361912373E+04  0.17721195364E+04  0.12699999809E+01 0.  1.
</event>
<event>
 5   0  0.3749685E-07  0.3269252E+04  0.7818609E-02  0.8170763E-01
        1   -1    0    0  501    0  0.00000000000E+00  0.00000000000E+00  0.13560081008E+04  0.13560081008E+04  0.50400001928E-02 0.  1.
       -1   -1    0    0    0  501  0.00000000000E+00  0.00000000000E+00 -0.19704916380E+04  0.19704916380E+04  0.50400001928E-02 0. -1.
    10030    2    1    2    0    0  0.00000000000E+00  0.00000000000E+00 -0.61448353726E+03  0.33264997388E+04  0.32692522837E+04 0.  0.
        3    1    3    3  502    0  0.25327465887E+03 -0.31575344042E+02  0.13356074617E+04  0.13597765835E+04  0.10100000352E+00 0.  1.
       -3    1    3    3    0  502 -0.25327465887E+03  0.31575344042E+02 -0.19500909989E+04  0.19667231553E+04  0.10100000352E+00 0. -1.
</event>
<event>
 5   0  0.3709747E-07  0.3300524E+04  0.7818609E-02  0.8162762E-01
       -1   -1    0    0    0  501  0.00000000000E+00  0.00000000000E+00  0.15531604446E+04  0.15531604446E+04  0.50400001928E-02 0. -1.
        1   -1    0    0  501    0  0.00000000000E+00  0.00000000000E+00 -0.17534343940E+04  0.17534343940E+04  0.50400001928E-02 0.  1.
    10030    2    1    2    0    0  0.00000000000E+00  0.00000000000E+00 -0.20027394945E+03  0.33065948386E+04  0.33005241662E+04 0.  0.
        4    1    3    3  502    0 -0.58057230747E+02  0.86100252744E+03 -0.15093753425E+04  0.17386522170E+04  0.12699999809E+01 0.  1.
       -4    1    3    3    0  502  0.58057230747E+02 -0.86100252744E+03  0.13091013931E+04  0.15679426216E+04  0.12699999809E+01 0. -1.
</event>
<event>
 5   0  0.1116462E-06  0.3301470E+04  0.7818609E-02  0.8162521E-01
       -2   -1    0    0    0  501  0.00000000000E+00  0.00000000000E+00  0.11424984199E+04  0.11424984199E+04  0.25500000920E-02 0. -1.
        2   -1    0    0  501    0  0.00000000000E+00  0.00000000000E+00 -0.23850588234E+04  0.23850588234E+04  0.25500000920E-02 0.  1.
    10030    2    1    2    0    0  0.00000000000E+00  0.00000000000E+00 -0.12425604035E+04  0.35275572433E+04  0.33014699375E+04 0.  0.
        1    1    3    3  502    0 -0.37825198948E+03  0.10782057528E+04 -0.18942187958E+04  0.22121634341E+04  0.50400001928E-02 0.  1.
       -1    1    3    3    0  502  0.37825198948E+03 -0.10782057528E+04  0.65165839235E+03  0.13153938092E+04  0.50400001928E-02 0. -1.
</event>
<event>
 5   0  0.3757406E-07  0.3291408E+04  0.7818609E-02  0.8165085E-01
        1   -1    0    0  501    0  0.00000000000E+00  0.00000000000E+00  0.14909689384E+04  0.14909689384E+04  0.50400001928E-02 0. -1.
       -1   -1    0    0    0  501  0.00000000000E+00  0.00000000000E+00 -0.18164977619E+04  0.18164977619E+04  0.50400001928E-02 0.  1.
    10030    2    1    2    0    0  0.00000000000E+00  0.00000000000E+00 -0.32552882352E+03  0.33074667003E+04  0.32914080511E+04 0.  0.
        1    1    3    3  502    0  0.36587985900E+03  0.75427002268E+02 -0.17733269155E+04  0.18122487834E+04  0.50400001928E-02 0.  1.
       -1    1    3    3    0  502 -0.36587985900E+03 -0.75427002268E+02  0.14477980920E+04  0.14952179169E+04  0.50400001928E-02 0. -1.
</event>
<event>
 5   0  0.1120545E-06  0.3084640E+04  0.7818609E-02  0.8219966E-01
       -2   -1    0    0    0  501  0.00000000000E+00  0.00000000000E+00  0.21906031861E+04  0.21906031861E+04  0.25500000920E-02 0. -1.
        2   -1    0    0  501    0  0.00000000000E+00  0.00000000000E+00 -0.10858883571E+04  0.10858883571E+04  0.25500000920E-02 0.  1.
    10030    2    1    2    0    0  0.00000000000E+00  0.00000000000E+00  0.11047148289E+04  0.32764915432E+04  0.30846396839E+04 0.  0.
        4    1    3    3  502    0  0.15119002559E+04  0.24082396327E+03  0.35389352193E+03  0.15713309018E+04  0.12699999809E+01 0.  1.
       -4    1    3    3    0  502 -0.15119002559E+04 -0.24082396327E+03  0.75082130699E+03  0.17051606414E+04  0.12699999809E+01 0. -1.
</event>
<event>
 5   0  0.1146799E-06  0.3297436E+04  0.7818609E-02  0.8163548E-01
        2   -1    0    0  501    0  0.00000000000E+00  0.00000000000E+00  0.14405740533E+04  0.14405740533E+04  0.25500000920E-02 0. -1.
       -2   -1    0    0    0  501  0.00000000000E+00  0.00000000000E+00 -0.18869355226E+04  0.18869355226E+04  0.25500000920E-02 0.  1.
    10030    2    1    2    0    0  0.00000000000E+00  0.00000000000E+00 -0.44636146933E+03  0.33275095759E+04  0.32974355818E+04 0.  0.
        5    1    3    3  502    0  0.27827741778E+03  0.31626048029E+03  0.13853424155E+04  0.14479829801E+04  0.46999998093E+01 0. -1.
       -5    1    3    3    0  502 -0.27827741778E+03 -0.31626048029E+03 -0.18317038848E+04  0.18795265958E+04  0.46999998093E+01 0.  1.
</event>
<event>
 5   0  0.1146799E-06  0.3283898E+04  0.7818609E-02  0.8167005E-01
       -2   -1    0    0    0  501  0.00000000000E+00  0.00000000000E+00  0.12778810054E+04  0.12778810054E+04  0.25500000920E-02 0.  1.
        2   -1    0    0  501    0  0.00000000000E+00  0.00000000000E+00 -0.21097392791E+04  0.21097392791E+04  0.25500000920E-02 0. -1.
    10030    2    1    2    0    0  0.00000000000E+00  0.00000000000E+00 -0.83185827375E+03  0.33876202845E+04  0.32838975325E+04 0.  0.
        5    1    3    3  502    0 -0.72412968984E+03  0.10861323194E+04 -0.14433416722E+04  0.19460998165E+04  0.46999998093E+01 0. -1.
       -5    1    3    3    0  502  0.72412968984E+03 -0.10861323194E+04  0.61148339848E+03  0.14415204680E+04  0.46999998093E+01 0.  1.
</event>
<event>
 5   0  0.3709747E-07  0.3265024E+04  0.7818609E-02  0.8171853E-01
        1   -1    0    0  501    0  0.00000000000E+00  0.00000000000E+00  0.20516495270E+04  0.20516495270E+04  0.50400001928E-02 0. -1.
       -1   -1    0    0    0  501  0.00000000000E+00  0.00000000000E+00 -0.12990010089E+04  0.12990010089E+04  0.50400001928E-02 0.  1.
    10030    2    1    2    0    0  0.00000000000E+00  0.00000000000E+00  0.75264851814E+03  0.33506505360E+04  0.32650236174E+04 0.  0.
        4    1    3    3  502    0  0.63779514659E+03 -0.14476654882E+04  0.79010466969E+03  0.17682717599E+04  0.12699999809E+01 0. -1.
       -4    1    3    3    0  502 -0.63779514659E+03  0.14476654882E+04 -0.37456151558E+02  0.15823787761E+04  0.12699999809E+01 0.  1.
</event>
<event>
 5   0  0.3709747E-07  0.3298465E+04  0.7818609E-02  0.8163286E-01
        1   -1    0    0  501    0  0.00000000000E+00  0.00000000000E+00  0.20294946274E+04  0.20294946274E+04  0.50400001928E-02 0.  1.
       -1   -1    0    0    0  501  0.00000000000E+00  0.00000000000E+00 -0.13402194081E+04  0.13402194081E+04  0.50400001928E-02 0. -1.
    10030    2    1    2    0    0  0.00000000000E+00  0.00000000000E+00  0.68927521933E+03  0.33697140355E+04  0.32984651511E+04 0.  0.
        4    1    3    3  502    0 -0.14652315692E+04 -0.27317456935E+03  0.10658895113E+04  0.18323891399E+04  0.12699999809E+01 0.  1.
       -4    1    3    3    0  502  0.14652315692E+04  0.27317456935E+03 -0.37661429200E+03  0.15373248956E+04  0.12699999809E+01 0. -1.
</event>
<event>
 5   0  0.3757406E-07  0.3361122E+04  0.7818609E-02  0.8147515E-01
        1   -1    0    0  501    0  0.00000000000E+00  0.00000000000E+00  0.20495818104E+04  0.20495818104E+04  0.50400001928E-02 0.  1.
       -1   -1    0    0    0  501  0.00000000000E+00  0.00000000000E+00 -0.13779809197E+04  0.13779809197E+04  0.50400001928E-02 0. -1.
    10030    2    1    2    0    0  0.00000000000E+00  0.00000000000E+00  0.67160089071E+03  0.34275627302E+04  0.33611216153E+04 0.  0.
        1    1    3    3  502    0 -0.14902532840E+03 -0.16536029617E+04  0.70517126776E+02  0.16618014228E+04  0.50400001928E-02 0. -1.
       -1    1    3    3    0  502  0.14902532840E+03  0.16536029617E+04  0.60108376393E+03  0.17657613074E+04  0.50400001928E-02 0.  1.
</event>
<event>
 5   0  0.1146799E-06  0.3306660E+04  0.7818609E-02  0.8161203E-01
        2   -1    0    0  501    0  0.00000000000E+00  0.00000000000E+00  0.15186818992E+04  0.15186818992E+04  0.25500000920E-02 0. -1.
       -2   -1    0    0    0  501  0.00000000000E+00  0.00000000000E+00 -0.17999166992E+04  0.17999166992E+04  0.25500000920E-02 0.  1.
    10030    2    1    2    0    0  0.00000000000E+00  0.00000000000E+00 -0.28123479999E+03  0.33185985985E+04  0.33066604974E+04 0.  0.
        5    1    3    3  502    0 -0.16125907727E+04  0.35205447150E+03 -0.23628978795E+03  0.16674070604E+04  0.46999998093E+01 0. -1.
       -5    1    3    3    0  502  0.16125907727E+04 -0.35205447150E+03 -0.44945012048E+02  0.16511915381E+04  0.46999998093E+01 0.  1.
</event>
<event>
 5   0  0.1116462E-06  0.3296732E+04  0.7818609E-02  0.8163727E-01
        2   -1    0    0  501    0  0.00000000000E+00  0.00000000000E+00  0.13824134367E+04  0.13824134367E+04  0.25500000920E-02 0.  1.
       -2   -1    0    0    0  501  0.00000000000E+00  0.00000000000E+00 -0.19654837429E+04  0.19654837429E+04  0.25500000920E-02 0. -1.
    10030    2    1    2    0    0  0.00000000000E+00  0.00000000000E+00 -0.58307030625E+03  0.33478971796E+04  0.32967324039E+04 0.  0.
        1    1    3    3  502    0  0.67427424048E+03  0.12332999373E+04 -0.11659659390E+04  0.18262395948E+04  0.50400001928E-02 0. -1.
       -1    1    3    3    0  502 -0.67427424048E+03 -0.12332999373E+04  0.58289563275E+03  0.15216575848E+04  0.50400001928E-02 0.  1.
</event>
<event>
 5   0  0.1116462E-06  0.3266839E+04  0.7818609E-02  0.8171385E-01
       -2   -1    0    0    0  501  0.00000000000E+00  0.00000000000E+00  0.92103083377E+03  0.92103083377E+03  0.25500000920E-02 0. -1.
        2   -1    0    0  501    0  0.00000000000E+00  0.00000000000E+00 -0.28968180665E+04  0.28968180665E+04  0.25500000920E-02 0.  1.
    10030    2    1    2    0    0  0.00000000000E+00  0.00000000000E+00 -0.19757872327E+04  0.38178489003E+04  0.32668386915E+04 0.  0.
        1    1    3    3  502    0 -0.23970783573E+03 -0.67196983375E+03 -0.27051017793E+04  0.27976023556E+04  0.50400001928E-02 0.  1.
       -1    1    3    3    0  502  0.23970783573E+03  0.67196983375E+03  0.72931454656E+03  0.10202465446E+04  0.50400001928E-02 0. -1.
</event>
<event>
 5   0  0.1116462E-06  0.3258529E+04  0.7818609E-02  0.8173529E-01
       -2   -1    0    0    0  501  0.00000000000E+00  0.00000000000E+00  0.96384009081E+03  0.96384009081E+03  0.25500000920E-02 0.  1.
        2   -1    0    0  501    0  0.00000000000E+00  0.00000000000E+00 -0.27540896316E+04  0.27540896316E+04  0.25500000920E-02 0. -1.
    10030    2    1    2    0    0  0.00000000000E+00  0.00000000000E+00 -0.17902495408E+04  0.37179297224E+04  0.32585285027E+04 0.  0.
        1    1    3    3  502    0  0.95102092441E+03 -0.59787121115E+03  0.45133876551E+03  0.12106186291E+04  0.50400001928E-02 0.  1.
       -1    1    3    3    0  502 -0.95102092441E+03  0.59787121115E+03 -0.22415883063E+04  0.25073110934E+04  0.50400001928E-02 0. -1.
</event>
<event>
 5   0  0.3674967E-07  0.3309456E+04  0.7818609E-02  0.8160494E-01
        1   -1    0    0  501    0  0.00000000000E+00  0.00000000000E+00  0.18270665004E+04  0.18270665004E+04  0.50400001928E-02 0.  1.
       -1   -1    0    0    0  501  0.00000000000E+00  0.00000000000E+00 -0.14986449802E+04  0.14986449802E+04  0.50400001928E-02 0. -1.
    10030    2    1    2    0    0  0.00000000000E+00  0.00000000000E+00  0.32842152017E+03  0.33257114807E+04  0.33094555682E+04 0.  0.
        2    1    3    3  502    0 -0.16378097479E+02 -0.10918973470E+04 -0.10851239747E+04  0.15394811135E+04  0.25500000920E-02 0. -1.
       -2    1    3    3    0  502  0.16378097479E+02  0.10918973470E+04  0.14135454949E+04  0.17862303671E+04  0.25500000920E-02 0.  1.
</event>
<event>
 5   0  0.3796529E-07  0.3295723E+04  0.7818609E-02  0.8163984E-01
        1   -1    0    0  501    0  0.00000000000E+00  0.00000000000E+00  0.18542417575E+04  0.18542417575E+04  0.50400001928E-02 0.  1.
       -1   -1    0    0    0  501  0.00000000000E+00  0.00000000000E+00 -0.14644520992E+04  0.14644520992E+04  0.50400001928E-02 0. -1.
    10030    2    1    2    0    0  0.00000000000E+00  0.00000000000E+00  0.38978965830E+03  0.33186938568E+04  0.32957234315E+04 0.  0.
        5    1    3    3  502    0 -0.14952744890E+04 -0.42245759257E+03 -0.35766456939E+03  0.15944473177E+04  0.46999998093E+01 0. -1.
       -5    1    3    3    0  502  0.14952744890E+04  0.42245759257E+03  0.74745422769E+03  0.17242465390E+04  0.46999998093E+01 0.  1.
</event>
<event>
 5   0  0.1146799E-06  0.3288222E+04  0.7818609E-02  0.8165899E-01
        2   -1    0    0  501    0  0.00000000000E+00  0.00000000000E+00  0.17256639032E+04  0.17256639032E+04  0.25500000920E-02 0.  1.
       -2   -1    0    0    0  501  0.00000000000E+00  0.00000000000E+00 -0.15664125014E+04  0.15664125014E+04  0.25500000920E-02 0. -1.
    10030    2    1    2    0    0  0.00000000000E+00  0.00000000000E+00  0.15925140183E+03  0.32920764046E+04  0.32882223229E+04 0.  0.
        5    1    3    3  502    0  0.15770189225E+04 -0.38235759086E+02  0.54344914589E+03  0.16684752678E+04  0.46999998093E+01 0.  1.
       -5    1    3    3    0  502 -0.15770189225E+04  0.38235759086E+02 -0.38419774405E+03  0.16236011368E+04  0.46999998093E+01 0. -1.
</event>
<event>
 5   0  0.3709747E-07  0.3259466E+04  0.7818609E-02  0.8173287E-01
        1   -1    0    0  501    0  0.00000000000E+00  0.00000000000E+00  0.13962504182E+04  0.13962504182E+04  0.50400001928E-02 0. -1.
       -1   -1    0    0    0  501  0.00000000000E+00  0.00000000000E+00 -0.19022586721E+04  0.19022586721E+04  0.50400001928E-02 0.  1.
    10030    2    1    2    0    0  0.00000000000E+00  0.00000000000E+00 -0.50600825392E+03  0.32985090903E+04  0.32594658865E+04 0.  0.
        4    1    3    3  502    0  0.50475852667E+03 -0.15378447637E+04 -0.44575922681E+03  0.16788241685E+04  0.12699999809E+01 0.  1.
       -4    1    3    3    0  502 -0.50475852667E+03  0.15378447637E+04 -0.60249027104E+02  0.16196849218E+04  0.12699999809E+01 0. -1.
</event>
<event>
 5   0  0.1126221E-06  0.3343465E+04  0.7818609E-02  0.8151923E-01
       -2   -1    0    0    0  501  0.00000000000E+00  0.00000000000E+00  0.16669523475E+04  0.16669523475E+04  0.25500000920E-02 0. -1.
        2   -1    0    0  501    0  0.00000000000E+00  0.00000000000E+00 -0.16765265789E+04  0.16765265789E+04  0.25500000920E-02 0.  1.
    10030    2    1    2    0    0  0.00000000000E+00  0.00000000000E+00 -0.95742313528E+01  0.33434789264E+04  0.33434652182E+04 0.  0.
        2    1    3    3  502    0  0.85051905139E+03  0.10551525959E+04  0.97397133978E+03  0.16689367358E+04  0.25500000920E-02 0. -1.
       -2    1    3    3    0  502 -0.85051905139E+03 -0.10551525959E+04 -0.98354557113E+03  0.16745421906E+04  0.25500000920E-02 0.  1.
</event>
<event>
 5   0  0.3757406E-07  0.3304232E+04  0.7818609E-02  0.8161819E-01
       -1   -1    0    0    0  501  0.00000000000E+00  0.00000000000E+00  0.17126105126E+04  0.17126105126E+04  0.50400001928E-02 0.  1.
        1   -1    0    0  501    0  0.00000000000E+00  0.00000000000E+00 -0.15937585203E+04  0.15937585203E+04  0.50400001928E-02 0. -1.
    10030    2    1    2    0    0  0.00000000000E+00  0.00000000000E+00  0.11885199229E+03  0.33063690329E+04  0.33042321930E+04 0.  0.
        1    1    3    3  502    0  0.18628780436E+03 -0.84417747089E+03 -0.13493725628E+04  0.16025433104E+04  0.50400001928E-02 0. -1.
       -1    1    3    3    0  502 -0.18628780436E+03  0.84417747089E+03  0.14682245551E+04  0.17038257225E+04  0.50400001928E-02 0.  1.
</event>
<event>
 5   0  0.1129434E-06  0.3332039E+04  0.7818609E-02  0.8154790E-01
        2   -1    0    0  501    0  0.00000000000E+00  0.00000000000E+00  0.17752364755E+04  0.17752364755E+04  0.25500000920E-02 0.  1.
       -2   -1    0    0    0  501  0.00000000000E+00  0.00000000000E+00 -0.15635222401E+04  0.15635222401E+04  0.25500000920E-02 0. -1.
    10030    2    1    2    0    0  0.00000000000E+00  0.00000000000E+00  0.21171423535E+03  0.33387587156E+04  0.33320394421E+04 0.  0.
        3    1    3    3  502    0  0.51979717393E+03 -0.10248133760E+04 -0.11028881124E+04  0.15927315393E+04  0.10100000352E+00 0. -1.
       -3    1    3    3    0  502 -0.51979717393E+03  0.10248133760E+04  0.13146023477E+04  0.17460271763E+04  0.10100000352E+00 0.  1.
</event>
<event>
 5   0  0.1146799E-06  0.3312001E+04  0.7818609E-02  0.8159848E-01
       -2   -1    0    0    0  501  0.00000000000E+00  0.00000000000E+00  0.21484950973E+04  0.21484950973E+04  0.25500000920E-02 0.  1.
        2   -1    0    0  501    0  0.00000000000E+00  0.00000000000E+00 -0.12763991444E+04  0.12763991444E+04  0.25500000920E-02 0. -1.
    10030    2    1    2    0    0  0.00000000000E+00  0.00000000000E+00  0.87209595293E+03  0.34248942417E+04  0.33120007874E+04 0.  0.
        5    1    3    3  502    0  0.54526557078E+03  0.12479665766E+04  0.14102757604E+04  0.19605190459E+04  0.46999998093E+01 0.  1.
       -5    1    3    3    0  502 -0.54526557078E+03 -0.12479665766E+04 -0.53817980747E+03  0.14643751958E+04  0.46999998093E+01 0. -1.
</event>
<event>
 5   0  0.3757406E-07  0.3318920E+04  0.7818609E-02  0.8158098E-01
       -1   -1    0    0    0  501  0.00000000000E+00  0.00000000000E+00  0.12253546978E+04  0.12253546978E+04  0.50400001928E-02 0.  1.
        1   -1    0    0  501    0  0.00000000000E+00  0.00000000000E+00 -0.22473551556E+04  0.22473551556E+04  0.50400001928E-02 0. -1.
    10030    2    1    2    0    0  0.00000000000E+00  0.00000000000E+00 -0.10220004578E+04  0.34727098534E+04  0.33189198228E+04 0.  0.
        1    1    3    3  502    0  0.87991144586E+02 -0.16313904162E+04 -0.20660763755E+03  0.16467737694E+04  0.50400001928E-02 0.  1.
       -1    1    3    3    0  502 -0.87991144586E+02  0.16313904162E+04 -0.81539282021E+03  0.18259360840E+04  0.50400001928E-02 0. -1.
</event>
<event>
 5   0  0.3709747E-07  0.3309907E+04  0.7818609E-02  0.8160379E-01
        1   -1    0    0  501    0  0.00000000000E+00  0.00000000000E+00  0.14306610933E+04  0.14306610934E+04  0.50400001928E-02 0.  1.
       -1   -1    0    0    0  501  0.00000000000E+00  0.00000000000E+00 -0.19144093265E+04  0.19144093265E+04  0.50400001928E-02 0. -1.
    10030    2    1    2    0    0  0.00000000000E+00  0.00000000000E+00 -0.48374823316E+03  0.33450704199E+04  0.33099069112E+04 0.  0.
        4    1    3    3  502    0 -0.12343350048E+04 -0.55249427667E+03 -0.12059670293E+04  0.18119577585E+04  0.12699999809E+01 0. -1.
       -4    1    3    3    0  502  0.12343350048E+04  0.55249427667E+03  0.72221879617E+03  0.15331126613E+04  0.12699999809E+01 0.  1.
</event>
<event>
 5   0  0.3573375E-07  0.3259841E+04  0.7818609E-02  0.8173190E-01
        3   -1    0    0  501    0  0.00000000000E+00  0.00000000000E+00  0.21186527438E+04  0.21186527462E+04  0.10100000352E+00 0. -1.
       -3   -1    0    0    0  501  0.00000000000E+00  0.00000000000E+00 -0.12539290426E+04  0.12539290466E+04  0.10100000352E+00 0.  1.
    10030    2    1    2    0    0  0.00000000000E+00  0.00000000000E+00  0.86472370125E+03  0.33725817928E+04  0.32598406203E+04 0.  0.
        3    1    3    3  502    0 -0.12023366153E+04 -0.90399932843E+03 -0.21688618406E+03  0.15198249074E+04  0.10100000352E+00 0.  1.
       -3    1    3    3    0  502  0.12023366153E+04  0.90399932843E+03  0.10816098853E+04  0.18527568854E+04  0.10100000352E+00 0. -1.
</event>
<event>
 5   0  0.3796529E-07  0.3339651E+04  0.7818609E-02  0.8152879E-01
        1   -1    0    0  501    0  0.00000000000E+00  0.00000000000E+00  0.18338724895E+04  0.18338724895E+04  0.50400001928E-02 0.  1.
       -1   -1    0    0    0  501  0.00000000000E+00  0.00000000000E+00 -0.15204527040E+04  0.15204527040E+04  0.50400001928E-02 0. -1.
    10030    2    1    2    0    0  0.00000000000E+00  0.00000000000E+00  0.31341978553E+03  0.33543251935E+04  0.33396505119E+04 0.  0.
        5    1    3    3  502    0 -0.13701435400E+04 -0.95333880760E+03  0.11018038882E+03  0.16728149959E+04  0.46999998093E+01 0. -1.
       -5    1    3    3    0  502  0.13701435400E+04  0.95333880760E+03  0.20323939672E+03  0.16815101976E+04  0.46999998093E+01 0.  1.
</event>
<event>
 5   0  0.1146799E-06  0.3283551E+04  0.7818609E-02  0.8167093E-01
       -2   -1    0    0    0  501  0.00000000000E+00  0.00000000000E+00  0.34378618515E+04  0.34378618515E+04  0.25500000920E-02 0.  1.
        2   -1    0    0  501    0  0.00000000000E+00  0.00000000000E+00 -0.78404161616E+03  0.78404161616E+03  0.25500000920E-02 0. -1.
    10030    2    1    2    0    0  0.00000000000E+00  0.00000000000E+00  0.26538202353E+04  0.42219034676E+04  0.32835509816E+04 0.  0.
        5    1    3    3  502    0 -0.20571042921E+03 -0.55616644099E+03 -0.64152784780E+03  0.87362346595E+03  0.46999998093E+01 0. -1.
       -5    1    3    3    0  502  0.20571042921E+03  0.55616644099E+03  0.32953480831E+04  0.33482800017E+04  0.46999998093E+01 0.  1.
</event>
<event>
 5   0  0.1146799E-06  0.3271857E+04  0.7818609E-02  0.8170094E-01
        2   -1    0    0  501    0  0.00000000000E+00  0.00000000000E+00  0.21992348707E+04  0.21992348707E+04  0.25500000920E-02 0. -1.
       -2   -1    0    0    0  501  0.00000000000E+00  0.00000000000E+00 -0.12169057909E+04  0.12169057909E+04  0.25500000920E-02 0.  1.
    10030    2    1    2    0    0  0.00000000000E+00  0.00000000000E+00  0.98232907976E+03  0.34161406615E+04  0.32718567509E+04 0.  0.
        5    1    3    3  502    0 -0.45723647417E+03 -0.44491331455E+03 -0.10816604028E+04  0.12557963082E+04  0.46999998093E+01 0.  1.
       -5    1    3    3    0  502  0.45723647417E+03  0.44491331455E+03  0.20639894826E+04  0.21603443533E+04  0.46999998093E+01 0. -1.
</event>
<event>
 5   0  0.1129434E-06  0.3310410E+04  0.7818609E-02  0.8160252E-01
       -2   -1    0    0    0  501  0.00000000000E+00  0.00000000000E+00  0.12860812125E+04  0.12860812125E+04  0.25500000920E-02 0. -1.
        2   -1    0    0  501    0  0.00000000000E+00  0.00000000000E+00 -0.21302727070E+04  0.21302727070E+04  0.25500000920E-02 0.  1.
    10030    2    1    2    0    0  0.00000000000E+00  0.00000000000E+00 -0.84419149453E+03  0.34163539194E+04  0.33104100688E+04 0.  0.
        3    1    3    3  502    0  0.94459361002E+03  0.18208246825E+01 -0.18248016332E+04  0.20547898711E+04  0.10100000352E+00 0.  1.
       -3    1    3    3    0  502 -0.94459361002E+03 -0.18208246825E+01  0.98061013868E+03  0.13615640484E+04  0.10100000352E+00 0. -1.
</event>
<event>
 5   0  0.1146799E-06  0.3306103E+04  0.7818609E-02  0.8161344E-01
        2   -1    0    0  501    0  0.00000000000E+00  0.00000000000E+00  0.14433481560E+04  0.14433481560E+04  0.25500000920E-02 0.  1.
       -2   -1    0    0    0  501  0.00000000000E+00  0.00000000000E+00 -0.18932221264E+04  0.18932221264E+04  0.25500000920E-02 0. -1.
    10030    2    1    2    0    0  0.00000000000E+00  0.00000000000E+00 -0.44987397039E+03  0.33365702824E+04  0.33061026391E+04 0.  0.
        5    1    3    3  502    0 -0.45371701673E+03  0.11733660882E+04  0.85728354841E+03  0.15223679846E+04  0.46999998093E+01 0.  1.
       -5    1    3    3    0  502  0.45371701673E+03 -0.11733660882E+04 -0.13071575188E+04  0.18142022978E+04  0.46999998093E+01 0. -1.
</event>
<event>
 5   0  0.3674967E-07  0.3326994E+04  0.7818609E-02  0.8156060E-01
        1   -1    0    0  501    0  0.00000000000E+00  0.00000000000E+00  0.31633892305E+04  0.31633892305E+04  0.50400001928E-02 0. -1.
       -1   -1    0    0    0  501  0.00000000000E+00  0.00000000000E+00 -0.87476516639E+03  0.87476516641E+03  0.50400001928E-02 0.  1.
    10030    2    1    2    0    0  0.00000000000E+00  0.00000000000E+00  0.22886240641E+04  0.40381543969E+04  0.33269942630E+04 0.  0.
        2    1    3    3  502    0  0.46655056199E+02  0.16349026857E+04  0.77588360217E+03  0.18102703804E+04  0.25500000920E-02 0.  1.
       -2    1    3    3    0  502 -0.46655056199E+02 -0.16349026857E+04  0.15127404619E+04  0.22278840165E+04  0.25500000920E-02 0. -1.
</event>
<event>
 5   0  0.1129434E-06  0.3223361E+04  0.7818609E-02  0.8182675E-01
        2   -1    0    0  501    0  0.00000000000E+00  0.00000000000E+00  0.18419549652E+04  0.18419549652E+04  0.25500000920E-02 0. -1.
       -2   -1    0    0    0  501  0.00000000000E+00  0.00000000000E+00 -0.14101937609E+04  0.14101937609E+04  0.25500000920E-02 0.  1.
    10030    2    1    2    0    0  0.00000000000E+00  0.00000000000E+00  0.43176120431E+03  0.32521487261E+04  0.32233606064E+04 0.  0.
        3    1    3    3  502    0 -0.11790509530E+03 -0.42780321056E+03 -0.13473428458E+04  0.14185379632E+04  0.10100000352E+00 0.  1.
       -3    1    3    3    0  502  0.11790509530E+03  0.42780321056E+03  0.17791040502E+04  0.18336107629E+04  0.10100000352E+00 0. -1.
</event>
<event>
 5   0  0.1120545E-06  0.3303755E+04  0.7818609E-02  0.8161941E-01
        2   -1    0    0  501    0  0.00000000000E+00  0.00000000000E+00  0.14260318671E+04  0.14260318671E+04  0.25500000920E-02 0. -1.
       -2   -1    0    0    0  501  0.00000000000E+00  0.00000000000E+00 -0.19134912667E+04  0.19134912667E+04  0.25500000920E-02 0.  1.
    10030    2    1    2    0    0  0.00000000000E+00  0.00000000000E+00 -0.48745939960E+03  0.33395231338E+04  0.33037551506E+04 0.  0.
        4    1    3    3  502    0 -0.59819232363E+03 -0.25743121887E+03  0.12907944387E+04  0.14457720375E+04  0.12699999809E+01 0. -1.
       -4    1    3    3    0  502  0.59819232363E+03  0.25743121887E+03 -0.17782538383E+04  0.18937510963E+04  0.12699999809E+01 0.  1.
</event>
<event>
 5   0  0.1129434E-06  0.3293870E+04  0.7818609E-02  0.8164457E-01
        2   -1    0    0  501    0  0.00000000000E+00  0.00000000000E+00  0.94118431441E+03  0.94118431441E+03  0.25500000920E-02 0.  1.
       -2   -1    0    0    0  501  0.00000000000E+00  0.00000000000E+00 -0.28818957034E+04  0.28818957034E+04  0.25500000920E-02 0. -1.
    10030    2    1    2    0    0  0.00000000000E+00  0.00000000000E+00 -0.19407113890E+04  0.38230800178E+04  0.32938700835E+04 0.  0.
        3    1    3    3  502    0 -0.74864441036E+03  0.11294570373E+04  0.11612439666E+03  0.13600097566E+04  0.10100000352E+00 0.  1.
       -3    1    3    3    0  502  0.74864441036E+03 -0.11294570373E+04 -0.20568357856E+04  0.24630702612E+04  0.10100000352E+00 0. -1.
</event>
<event>
 5   0  0.3674967E-07  0.3300295E+04  0.7818609E-02  0.8162820E-01
       -1   -1    0    0    0  501  0.00000000000E+00  0.00000000000E+00  0.22732343947E+04  0.22732343947E+04  0.50400001928E-02 0. -1.
        1   -1    0    0  501    0  0.00000000000E+00  0.00000000000E+00 -0.11978471965E+04  0.11978471965E+04  0.50400001928E-02 0.  1.
    10030    2    1    2    0    0  0.00000000000E+00  0.00000000000E+00  0.10753871982E+04  0.34710815912E+04  0.33002954090E+04 0.  0.
        2    1    3    3  502    0 -0.30578498058E+03  0.56886288131E+03  0.21347864709E+04  0.22303413883E+04  0.25500000920E-02 0. -1.
       -2    1    3    3    0  502  0.30578498058E+03 -0.56886288131E+03 -0.10593992727E+04  0.12407402029E+04  0.25500000920E-02 0.  1.
</event>
<event>
 5   0  0.1126221E-06  0.3303723E+04  0.7818609E-02  0.8161949E-01
       -2   -1    0    0    0  501  0.00000000000E+00  0.00000000000E+00  0.12619611578E+04  0.12619611578E+04  0.25500000920E-02 0.  1.
        2   -1    0    0  501    0  0.00000000000E+00  0.00000000000E+00 -0.21622264000E+04  0.21622264000E+04  0.25500000920E-02 0. -1.
    10030    2    1    2    0    0  0.00000000000E+00  0.00000000000E+00 -0.90026524220E+03  0.34241875577E+04  0.33037225859E+04 0.  0.
        2    1    3    3  502    0  0.10424684570E+04  0.60221744650E+03 -0.16224086515E+04  0.20203010095E+04  0.25500000920E-02 0. -1.
       -2    1    3    3    0  502 -0.10424684570E+04 -0.60221744650E+03  0.72214340928E+03  0.14038865482E+04  0.25500000920E-02 0.  1.
</event>
<event>
 5   0  0.3709747E-07  0.3317905E+04  0.7818609E-02  0.8158354E-01
        1   -1    0    0  501    0  0.00000000000E+00  0.00000000000E+00  0.14512253044E+04  0.14512253044E+04  0.50400001928E-02 0.  1.
       -1   -1    0    0    0  501  0.00000000000E+00  0.00000000000E+00 -0.18964138241E+04  0.18964138241E+04  0.50400001928E-02 0. -1.
    10030    2    1    2    0    0  0.00000000000E+00  0.00000000000E+00 -0.44518851972E+03  0.33476391285E+04  0.33179052001E+04 0.  0.
        4    1    3    3  502    0 -0.14018151248E+04 -0.87783540732E+03 -0.35196765701E+03  0.16910243910E+04  0.12699999809E+01 0.  1.
       -4    1    3    3    0  502  0.14018151248E+04  0.87783540732E+03 -0.93220862711E+02  0.16566147375E+04  0.12699999809E+01 0. -1.
</event>
<event>
 5   0  0.3709747E-07  0.3280079E+04  0.7818609E-02  0.8167983E-01
        1   -1    0    0  501    0  0.00000000000E+00  0.00000000000E+00  0.20339064808E+04  0.20339064809E+04  0.50400001928E-02 0.  1.
       -1   -1    0    0    0  501  0.00000000000E+00  0.00000000000E+00 -0.13224447767E+04  0.13224447767E+04  0.50400001928E-02 0. -1.
    10030    2    1    2    0    0  0.00000000000E+00  0.00000000000E+00  0.71146170415E+03  0.33563512576E+04  0.32800786588E+04 0.  0.
        4    1    3    3  502    0  0.52225071471E+03  0.14171273442E+04  0.10099184281E+04  0.18168468738E+04  0.12699999809E+01 0.  1.
       -4    1    3    3    0  502 -0.52225071471E+03 -0.14171273442E+04 -0.29845672398E+03  0.15395043837E+04  0.12699999809E+01 0. -1.
</event>
<event>
 5   0  0.1120545E-06  0.3302066E+04  0.7818609E-02  0.8162370E-01
        2   -1    0    0  501    0  0.00000000000E+00  0.00000000000E+00  0.22534126616E+04  0.22534126617E+04  0.25500000920E-02 0.  1.
       -2   -1    0    0    0  501  0.00000000000E+00  0.00000000000E+00 -0.12096806498E+04  0.12096806498E+04  0.25500000920E-02 0. -1.
    10030    2    1    2    0    0  0.00000000000E+00  0.00000000000E+00  0.10437320119E+04  0.34630933114E+04  0.33020658338E+04 0.  0.
        4    1    3    3  502    0 -0.90672773937E+03  0.10222440126E+04  0.14937555608E+04  0.20244617317E+04  0.12699999809E+01 0.  1.
       -4    1    3    3    0  502  0.90672773937E+03 -0.10222440126E+04 -0.45002354894E+03  0.14386315797E+04  0.12699999809E+01 0. -1.
</event>
<event>
 5   0  0.3796529E-07  0.3298700E+04  0.7818609E-02  0.8163226E-01
       -1   -1    0    0    0  501  0.00000000000E+00  0.00000000000E+00  0.18385958247E+04  0.18385958247E+04  0.50400001928E-02 0.  1.
        1   -1    0    0  501    0  0.00000000000E+00  0.00000000000E+00 -0.14795832430E+04  0.14795832430E+04  0.50400001928E-02 0. -1.
    10030    2    1    2    0    0  0.00000000000E+00  0.00000000000E+00  0.35901258172E+03  0.33181790677E+04  0.32987000912E+04 0.  0.
        5    1    3    3  502    0 -0.89631699539E+03  0.70114504848E+03  0.13804343088E+04  0.17890247361E+04  0.46999998093E+01 0.  1.
       -5    1    3    3    0  502  0.89631699539E+03 -0.70114504848E+03 -0.10214217271E+04  0.15291543316E+04  0.46999998093E+01 0. -1.
</event>
<event>
 5   0  0.3674967E-07  0.3282835E+04  0.7818609E-02  0.8167277E-01
       -1   -1    0    0    0  501  0.00000000000E+00  0.00000000000E+00  0.14679574422E+04  0.14679574422E+04  0.50400001928E-02 0.  1.
        1   -1    0    0  501    0  0.00000000000E+00  0.00000000000E+00 -0.18353741209E+04  0.18353741209E+04  0.50400001928E-02 0. -1.
    10030    2    1    2    0    0  0.00000000000E+00  0.00000000000E+00 -0.36741667866E+03  0.33033315631E+04  0.32828348116E+04 0.  0.
        2    1    3    3  502    0  0.12361810405E+04 -0.13497933289E+03  0.89437644489E+03  0.15317546182E+04  0.25500000920E-02 0.  1.
       -2    1    3    3    0  502 -0.12361810405E+04  0.13497933289E+03 -0.12617931236E+04  0.17715769449E+04  0.25500000920E-02 0. -1.
</event>
<event>
 5   0  0.1129434E-06  0.3283754E+04  0.7818609E-02  0.8167042E-01
       -2   -1    0    0    0  501  0.00000000000E+00  0.00000000000E+00  0.22209564011E+04  0.22209564011E+04  0.25500000920E-02 0. -1.
        2   -1    0    0  501    0  0.00000000000E+00  0.00000000000E+00 -0.12137833295E+04  0.12137833295E+04  0.25500000920E-02 0.  1.
    10030    2    1    2    0    0  0.00000000000E+00  0.00000000000E+00  0.10071730716E+04  0.34347397305E+04  0.32837538611E+04 0.  0.
        3    1    3    3  502    0 -0.14503691337E+04 -0.63221097365E+03  0.96250646564E+03  0.18519395362E+04  0.10100000352E+00 0. -1.
       -3    1    3    3    0  502  0.14503691337E+04  0.63221097365E+03  0.44666605937E+02  0.15828001943E+04  0.10100000352E+00 0.  1.
</event>
<event>
 5   0  0.1129434E-06  0.3277339E+04  0.7818609E-02  0.8168686E-01
        2   -1    0    0  501    0  0.00000000000E+00  0.00000000000E+00  0.29147655365E+04  0.29147655365E+04  0.25500000920E-02 0.  1.
       -2   -1    0    0    0  501  0.00000000000E+00  0.00000000000E+00 -0.92125324189E+03  0.92125324189E+03  0.25500000920E-02 0. -1.
    10030    2    1    2    0    0  0.00000000000E+00  0.00000000000E+00  0.19935122946E+04  0.38360187784E+04  0.32773386763E+04 0.  0.
        3    1    3    3  502    0 -0.89653396628E+03  0.53947318405E+03 -0.47934817642E+03  0.11509036247E+04  0.10100000352E+00 0. -1.
       -3    1    3    3    0  502  0.89653396628E+03 -0.53947318405E+03  0.24728604710E+04  0.26851151537E+04  0.10100000352E+00 0.  1.
</event>
<event>
 5   0  0.1120545E-06  0.3300093E+04  0.7818609E-02  0.8162872E-01
        2   -1    0    0  501    0  0.00000000000E+00  0.00000000000E+00  0.17660764075E+04  0.17660764075E+04  0.25500000920E-02 0. -1.
       -2   -1    0    0    0  501  0.00000000000E+00  0.00000000000E+00 -0.15416393815E+04  0.15416393815E+04  0.25500000920E-02 0.  1.
    10030    2    1    2    0    0  0.00000000000E+00  0.00000000000E+00  0.22443702604E+03  0.33077157890E+04  0.33000926900E+04 0.  0.
        4    1    3    3  502    0 -0.10368058843E+04  0.28413976511E+03  0.13668886045E+04  0.17389904881E+04  0.12699999809E+01 0. -1.
       -4    1    3    3    0  502  0.10368058843E+04 -0.28413976511E+03 -0.11424515784E+04  0.15687253009E+04  0.12699999809E+01 0.  1.
</event>
<event>
 5   0  0.3757406E-07  0.3314717E+04  0.7818609E-02  0.8159161E-01
        1   -1    0    0  501    0  0.00000000000E+00  0.00000000000E+00  0.19162787094E+04  0.19162787095E+04  0.50400001928E-02 0.  1.
       -1   -1    0    0    0  501  0.00000000000E+00  0.00000000000E+00 -0.14334225774E+04  0.14334225774E+04  0.50400001928E-02 0. -1.
    10030    2    1    2    0    0  0.00000000000E+00  0.00000000000E+00  0.48285613208E+03  0.33497012868E+04  0.33147169814E+04 0.  0.
        1    1    3    3  502    0  0.87683935750E+03  0.85990989668E+02 -0.11771667405E+04  0.14703616032E+04  0.50400001928E-02 0. -1.
       -1    1    3    3    0  502 -0.87683935750E+03 -0.85990989668E+02  0.16600228726E+04  0.18793396837E+04  0.50400001928E-02 0.  1.
</event>
<event>
 5   0  0.1120545E-06  0.3279786E+04  0.7818609E-02  0.8168058E-01
        2   -1    0    0  501    0  0.00000000000E+00  0.00000000000E+00  0.25257673380E+04  0.25257673380E+04  0.25500000920E-02 0.  1.
       -2   -1    0    0    0  501  0.00000000000E+00  0.00000000000E+00 -0.10647253755E+04  0.10647253755E+04  0.25500000920E-02 0. -1.
    10030    2    1    2    0    0  0.00000000000E+00  0.00000000000E+00  0.14610419624E+04  0.35904927135E+04  0.32797857110E+04 0.  0.
        4    1    3    3  502    0 -0.23692572069E+03 -0.13756172690E+04 -0.21170748921E+03  0.14118350973E+04  0.12699999809E+01 0. -1.
       -4    1    3    3    0  502  0.23692572069E+03  0.13756172690E+04  0.16727494517E+04  0.21786576163E+04  0.12699999809E+01 0.  1.
</event>
<event>
 5   0  0.3749685E-07  0.2990559E+04  0.7818609E-02  0.8246432E-01
        1   -1    0    0  501    0  0.00000000000E+00  0.00000000000E+00  0.20520758827E+04  0.20520758827E+04  0.50400001928E-02 0.  1.
       -1   -1    0    0    0  501  0.00000000000E+00  0.00000000000E+00 -0.10895604091E+04  0.10895604091E+04  0.50400001928E-02 0. -1.
    10030    2    1    2    0    0  0.00000000000E+00  0.00000000000E+00  0.96251547360E+03  0.31416362919E+04  0.29905589032E+04 0.  0.
        3    1    3    3  502    0  0.92222181406E+03 -0.59289992890E+02 -0.75364953917E+03  0.11924747442E+04  0.10100000352E+00 0. -1.
       -3    1    3    3    0  502 -0.92222181406E+03  0.59289992890E+02  0.17161650128E+04  0.19491615476E+04  0.10100000352E+00 0.  1.
</event>
<event>
 5   0  0.1129434E-06  0.3263492E+04  0.7818609E-02  0.8172248E-01
        2   -1    0    0  501    0  0.00000000000E+00  0.00000000000E+00  0.19547945128E+04  0.19547945128E+04  0.25500000920E-02 0. -1.
       -2   -1    0    0    0  501  0.00000000000E+00  0.00000000000E+00 -0.13620839977E+04  0.13620839977E+04  0.25500000920E-02 0.  1.
    10030    2    1    2    0    0  0.00000000000E+00  0.00000000000E+00  0.59271051506E+03  0.33168785105E+04  0.32634915810E+04 0.  0.
        3    1    3    3  502    0 -0.16461164659E+03  0.65856375079E+03 -0.12117620518E+04  0.13889458191E+04  0.10100000352E+00 0.  1.
       -3    1    3    3    0  502  0.16461164659E+03 -0.65856375079E+03  0.18044725668E+04  0.19279326914E+04  0.10100000352E+00 0. -1.
</event>
<event>
 5   0  0.1146799E-06  0.3289514E+04  0.7818609E-02  0.8165569E-01
       -2   -1    0    0    0  501  0.00000000000E+00  0.00000000000E+00  0.14666358992E+04  0.14666358992E+04  0.25500000920E-02 0.  1.
        2   -1    0    0  501    0  0.00000000000E+00  0.00000000000E+00 -0.18445102623E+04  0.18445102623E+04  0.25500000920E-02 0. -1.
    10030    2    1    2    0    0  0.00000000000E+00  0.00000000000E+00 -0.37787436310E+03  0.33111461615E+04  0.32895136219E+04 0.  0.
        5    1    3    3  502    0 -0.14707141234E+03  0.39335239061E+03 -0.17896297203E+04  0.18382471894E+04  0.46999998093E+01 0. -1.
       -5    1    3    3    0  502  0.14707141234E+03 -0.39335239061E+03  0.14117553572E+04  0.14728989721E+04  0.46999998093E+01 0.  1.
</event>
<event>
 5   0  0.3757406E-07  0.3319656E+04  0.7818609E-02  0.8157912E-01
        1   -1    0    0  501    0  0.00000000000E+00  0.00000000000E+00  0.22848728600E+04  0.22848728600E+04  0.50400001928E-02 0.  1.
       -1   -1    0    0    0  501  0.00000000000E+00  0.00000000000E+00 -0.12057687756E+04  0.12057687756E+04  0.50400001928E-02 0. -1.
    10030    2    1    2    0    0  0.00000000000E+00  0.00000000000E+00  0.10791040844E+04  0.34906416355E+04  0.33196556151E+04 0.  0.
        1    1    3    3  502    0  0.70601831288E+02 -0.11415969227E+04 -0.72523239324E+03  0.13543227742E+04  0.50400001928E-02 0. -1.
       -1    1    3    3    0  502 -0.70601831288E+02  0.11415969227E+04  0.18043364777E+04  0.21363188613E+04  0.50400001928E-02 0.  1.
</event>
<event>
 5   0  0.3757406E-07  0.3236317E+04  0.7818609E-02  0.8179291E-01
       -1   -1    0    0    0  501  0.00000000000E+00  0.00000000000E+00  0.15307275538E+04  0.15307275538E+04  0.50400001928E-02 0. -1.
        1   -1    0    0  501    0  0.00000000000E+00  0.00000000000E+00 -0.17105829711E+04  0.17105829711E+04  0.50400001928E-02 0.  1.
    10030    2    1    2    0    0  0.00000000000E+00  0.00000000000E+00 -0.17985541730E+03  0.32413105248E+04  0.32363167254E+04 0.  0.
        1    1    3    3  502    0 -0.43852872783E+03 -0.15566001865E+04 -0.14591478009E+03  0.16237619003E+04  0.50400001928E-02 0. -1.
       -1    1    3    3    0  502  0.43852872783E+03  0.15566001865E+04 -0.33940637206E+02  0.16175486245E+04  0.50400001928E-02 0.  1.
</event>
<event>
 5   0  0.1116462E-06  0.3241452E+04  0.7818609E-02  0.8177955E-01
        2   -1    0    0  501    0  0.00000000000E+00  0.00000000000E+00  0.29179317360E+04  0.29179317360E+04  0.25500000920E-02 0.  1.
       -2   -1    0    0    0  501  0.00000000000E+00  0.00000000000E+00 -0.90021057616E+03  0.90021057616E+03  0.25500000920E-02 0. -1.
    10030    2    1    2    0    0  0.00000000000E+00  0.00000000000E+00  0.20177211598E+04  0.38181423122E+04  0.32414521494E+04 0.  0.
        1    1    3    3  502    0 -0.13968979405E+04 -0.11620929143E+03  0.19671942400E+04  0.24155085662E+04  0.50400001928E-02 0. -1.
       -1    1    3    3    0  502  0.13968979405E+04  0.11620929143E+03  0.50526919831E+02  0.14026337459E+04  0.50400001928E-02 0.  1.
</event>
<event>
 5   0  0.3709747E-07  0.3234855E+04  0.7818609E-02  0.8179672E-01
        1   -1    0    0  501    0  0.00000000000E+00  0.00000000000E+00  0.98937027112E+03  0.98937027113E+03  0.50400001928E-02 0. -1.
       -1   -1    0    0    0  501  0.00000000000E+00  0.00000000000E+00 -0.26441785218E+04  0.26441785218E+04  0.50400001928E-02 0.  1.
    10030    2    1    2    0    0  0.00000000000E+00  0.00000000000E+00 -0.16548082507E+04  0.36335487929E+04  0.32348549402E+04 0.  0.
        4    1    3    3  502    0  0.58114830407E+03 -0.14900910716E+04 -0.10978373595E+04  0.19399363994E+04  0.12699999809E+01 0.  1.
       -4    1    3    3    0  502 -0.58114830407E+03  0.14900910716E+04 -0.55697089121E+03  0.16936123935E+04  0.12699999809E+01 0. -1.
</event>
<event>
 5   0  0.1146799E-06  0.3430979E+04  0.7818609E-02  0.8130345E-01
        2   -1    0    0  501    0  0.00000000000E+00  0.00000000000E+00  0.12924827481E+04  0.12924827481E+04  0.25500000920E-02 0. -1.
       -2   -1    0    0    0  501  0.00000000000E+00  0.00000000000E+00 -0.22769383197E+04  0.22769383197E+04  0.25500000920E-02 0.  1.
    10030    2    1    2    0    0  0.00000000000E+00  0.00000000000E+00 -0.98445557162E+03  0.35694210678E+04  0.34309785757E+04 0.  0.
        5    1    3    3  502    0  0.10413550249E+04 -0.10910043174E+04 -0.13426282520E+04  0.20192531841E+04  0.46999998093E+01 0.  1.
       -5    1    3    3    0  502 -0.10413550249E+04  0.10910043174E+04  0.35817268040E+03  0.15501678837E+04  0.46999998093E+01 0. -1.
</event>
<event>
 5   0  0.3674967E-07  0.3128505E+04  0.7818609E-02  0.8207958E-01
        1   -1    0    0  501    0  0.00000000000E+00  0.00000000000E+00  0.28318316896E+04  0.28318316896E+04  0.50400001928E-02 0.  1.
       -1   -1    0    0    0  501  0.00000000000E+00  0.00000000000E+00 -0.86406473694E+03  0.86406473696E+03  0.50400001928E-02 0. -1.
    10030    2    1    2    0    0  0.00000000000E+00  0.00000000000E+00  0.19677669527E+04  0.36958964266E+04  0.31285050129E+04 0.  0.
        2    1    3    3  502    0  0.16361834769E+03 -0.15069922205E+04  0.14400320301E+04  0.20908105519E+04  0.25500000920E-02 0.  1.
       -2    1    3    3    0  502 -0.16361834769E+03  0.15069922205E+04  0.52773492258E+03  0.16050858746E+04  0.25500000920E-02 0. -1.
</event>
<event>
 5   0  0.3796529E-07  0.3297238E+04  0.7818609E-02  0.8163599E-01
       -1   -1    0    0    0  501  0.00000000000E+00  0.00000000000E+00  0.11365052151E+04  0.11365052151E+04  0.50400001928E-02 0. -1.
        1   -1    0    0  501    0  0.00000000000E+00  0.00000000000E+00 -0.23914927545E+04  0.23914927545E+04  0.50400001928E-02 0.  1.
    10030    2    1    2    0    0  0.00000000000E+00  0.00000000000E+00 -0.12549875393E+04  0.35279979696E+04  0.32972376241E+04 0.  0.
        5    1    3    3  502    0 -0.35625470348E+02  0.30541563012E+03 -0.23605321707E+04  0.23804793845E+04  0.46999998093E+01 0.  1.
       -5    1    3    3    0  502  0.35625470348E+02 -0.30541563012E+03  0.11055446313E+04  0.11475185851E+04  0.46999998093E+01 0. -1.
</event>
<event>
 5   0  0.3749685E-07  0.3300358E+04  0.7818609E-02  0.8162804E-01
       -1   -1    0    0    0  501  0.00000000000E+00  0.00000000000E+00  0.17252957098E+04  0.17252957098E+04  0.50400001928E-02 0. -1.
        1   -1    0    0  501    0  0.00000000000E+00  0.00000000000E+00 -0.15783329276E+04  0.15783329276E+04  0.50400001928E-02 0.  1.
    10030    2    1    2    0    0  0.00000000000E+00  0.00000000000E+00  0.14696278224E+03  0.33036286374E+04  0.33003581797E+04 0.  0.
        3    1    3    3  502    0  0.34837894361E+03 -0.43738660201E+03  0.16275713544E+04  0.17209484164E+04  0.10100000352E+00 0. -1.
       -3    1    3    3    0  502 -0.34837894361E+03  0.43738660201E+03 -0.14806085721E+04  0.15826802210E+04  0.10100000352E+00 0.  1.
</event>
<event>
 5   0  0.1146799E-06  0.3298058E+04  0.7818609E-02  0.8163390E-01
        2   -1    0    0  501    0  0.00000000000E+00  0.00000000000E+00  0.24505729505E+04  0.24505729505E+04  0.25500000920E-02 0.  1.
       -2   -1    0    0    0  501  0.00000000000E+00  0.00000000000E+00 -0.11096578166E+04  0.11096578166E+04  0.25500000920E-02 0. -1.
    10030    2    1    2    0    0  0.00000000000E+00  0.00000000000E+00  0.13409151339E+04  0.35602307671E+04  0.32980584772E+04 0.  0.
        5    1    3    3  502    0  0.35732985862E+03  0.13687231852E+03 -0.10610627614E+04  0.11279605193E+04  0.46999998093E+01 0. -1.
       -5    1    3    3    0  502 -0.35732985862E+03 -0.13687231852E+03  0.24019778953E+04  0.24322702479E+04  0.46999998093E+01 0.  1.
</event>
<event>
 5   0  0.3674967E-07  0.3301329E+04  0.7818609E-02  0.8162557E-01
       -1   -1    0    0    0  501  0.00000000000E+00  0.00000000000E+00  0.13604195380E+04  0.13604195380E+04  0.50400001928E-02 0.  1.
        1   -1    0    0  501    0  0.00000000000E+00  0.00000000000E+00 -0.20028333225E+04  0.20028333225E+04  0.50400001928E-02 0. -1.
    10030    2    1    2    0    0  0.00000000000E+00  0.00000000000E+00 -0.64241378443E+03  0.33632528605E+04  0.33013291768E+04 0.  0.
        2    1    3    3  502    0 -0.15651533696E+04 -0.40731713921E+03 -0.65767644036E+03  0.17458953642E+04  0.25500000920E-02 0. -1.
       -2    1    3    3    0  502  0.15651533696E+04  0.40731713921E+03  0.15262655935E+02  0.16173574964E+04  0.25500000920E-02 0.  1.
</event>
<event>
 5   0  0.3749685E-07  0.3307624E+04  0.7818609E-02  0.8160958E-01
        1   -1    0    0  501    0  0.00000000000E+00  0.00000000000E+00  0.11954782720E+04  0.11954782720E+04  0.50400001928E-02 0. -1.
       -1   -1    0    0    0  501  0.00000000000E+00  0.00000000000E+00 -0.22878654768E+04  0.22878654768E+04  0.50400001928E-02 0.  1.
    10030    2    1    2    0    0  0.00000000000E+00  0.00000000000E+00 -0.10923872048E+04  0.34833437489E+04  0.33076235982E+04 0.  0.
        3    1    3    3  502    0  0.25116639063E+02 -0.13908268843E+04 -0.14881751534E+04  0.20370801567E+04  0.10100000352E+00 0. -1.
       -3    1    3    3    0  502 -0.25116639063E+02  0.13908268843E+04  0.39578794858E+03  0.14462635922E+04  0.10100000352E+00 0.  1.
</event>
<event>
 5   0  0.1129434E-06  0.3318360E+04  0.7818609E-02  0.8158239E-01
       -2   -1    0    0    0  501  0.00000000000E+00  0.00000000000E+00  0.10373562443E+04  0.10373562443E+04  0.25500000920E-02 0. -1.
        2   -1    0    0  501    0  0.00000000000E+00  0.00000000000E+00 -0.26537444743E+04  0.26537444743E+04  0.25500000920E-02 0.  1.
    10030    2    1    2    0    0  0.00000000000E+00  0.00000000000E+00 -0.16163882300E+04  0.36911007185E+04  0.33183600775E+04 0.  0.
        3    1    3    3  502    0 -0.37575186717E+03 -0.11135156393E+04 -0.21109808523E+04  0.24160601635E+04  0.10100000352E+00 0.  1.
       -3    1    3    3    0  502  0.37575186717E+03  0.11135156393E+04  0.49459262227E+03  0.12750405550E+04  0.10100000352E+00 0. -1.
</event>
<event>
 5   0  0.1146799E-06  0.3320072E+04  0.7818609E-02  0.8157807E-01
        2   -1    0    0  501    0  0.00000000000E+00  0.00000000000E+00  0.28725704447E+04  0.28725704447E+04  0.25500000920E-02 0. -1.
       -2   -1    0    0    0  501  0.00000000000E+00  0.00000000000E+00 -0.95932176684E+03  0.95932176684E+03  0.25500000920E-02 0.  1.
    10030    2    1    2    0    0  0.00000000000E+00  0.00000000000E+00  0.19132486779E+04  0.38318922115E+04  0.33200718995E+04 0.  0.
        5    1    3    3  502    0 -0.97980300748E+03  0.13948288091E+02  0.25031500430E+04  0.26881202942E+04  0.46999998093E+01 0. -1.
       -5    1    3    3    0  502  0.97980300748E+03 -0.13948288091E+02 -0.58990136519E+03  0.11437719173E+04  0.46999998093E+01 0.  1.
</event>
<event>
 5   0  0.1116462E-06  0.3329800E+04  0.7818609E-02  0.8155354E-01
        2   -1    0    0  501    0  0.00000000000E+00  0.00000000000E+00  0.23969468813E+04  0.23969468813E+04  0.25500000920E-02 0.  1.
       -2   -1    0    0    0  501  0.00000000000E+00  0.00000000000E+00 -0.11564260152E+04  0.11564260152E+04  0.25500000920E-02 0. -1.
    10030    2    1    2    0    0  0.00000000000E+00  0.00000000000E+00  0.12405208661E+04  0.35533728965E+04  0.33297998322E+04 0.  0.
        1    1    3    3  502    0  0.13778947743E+04 -0.28845430961E+03 -0.32829222327E+03  0.14455364685E+04  0.50400001928E-02 0.  1.
       -1    1    3    3    0  502 -0.13778947743E+04  0.28845430961E+03  0.15688130893E+04  0.21078364280E+04  0.50400001928E-02 0. -1.
</event>
<event>
 5   0  0.3709747E-07  0.3296359E+04  0.7818609E-02  0.8163822E-01
        1   -1    0    0  501    0  0.00000000000E+00  0.00000000000E+00  0.15569894119E+04  0.15569894119E+04  0.50400001928E-02 0. -1.
       -1   -1    0    0    0  501  0.00000000000E+00  0.00000000000E+00 -0.17447105712E+04  0.17447105712E+04  0.50400001928E-02 0.  1.
    10030    2    1    2    0    0  0.00000000000E+00  0.00000000000E+00 -0.18772115924E+03  0.33016999831E+04  0.32963591347E+04 0.  0.
        4    1    3    3  502    0  0.99435097161E+03 -0.50537618685E+03  0.11215119113E+04  0.15817488818E+04  0.12699999809E+01 0. -1.
       -4    1    3    3    0  502 -0.99435097161E+03  0.50537618685E+03 -0.13092330705E+04  0.17199511013E+04  0.12699999809E+01 0.  1.
</event>
<event>
 5   0  0.3796529E-07  0.3201906E+04  0.7818609E-02  0.8188314E-01
        1   -1    0    0  501    0  0.00000000000E+00  0.00000000000E+00  0.18467303199E+04  0.18467303199E+04  0.50400001928E-02 0.  1.
       -1   -1    0    0    0  501  0.00000000000E+00  0.00000000000E+00 -0.13878853816E+04  0.13878853816E+04  0.50400001928E-02 0. -1.
    10030    2    1    2    0    0  0.00000000000E+00  0.00000000000E+00  0.45884493838E+03  0.32346157015E+04  0.32019056918E+04 0.  0.
        5    1    3    3  502    0  0.15179327890E+04 -0.44786844915E+03  0.47338869487E+03  0.16519155687E+04  0.46999998093E+01 0. -1.
       -5    1    3    3    0  502 -0.15179327890E+04  0.44786844915E+03 -0.14543756497E+02  0.15827001328E+04  0.46999998093E+01 0.  1.
</event>
<event>
 5   0  0.3749685E-07  0.3298372E+04  0.7818609E-02  0.8163310E-01
        1   -1    0    0  501    0  0.00000000000E+00  0.00000000000E+00  0.20273790945E+04  0.20273790945E+04  0.50400001928E-02 0. -1.
       -1   -1    0    0    0  501  0.00000000000E+00  0.00000000000E+00 -0.13415422564E+04  0.13415422564E+04  0.50400001928E-02 0.  1.
    10030    2    1    2    0    0  0.00000000000E+00  0.00000000000E+00  0.68583683804E+03  0.33689213509E+04  0.32983721591E+04 0.  0.
        3    1    3    3  502    0 -0.15871775436E+04  0.32411199798E+03  0.65877971044E+03  0.17487629511E+04  0.10100000352E+00 0. -1.
       -3    1    3    3    0  502  0.15871775436E+04 -0.32411199798E+03  0.27057127596E+02  0.16201583998E+04  0.10100000352E+00 0.  1.
</event>
<event>
 5   0  0.1126221E-06  0.3024814E+04  0.7818609E-02  0.8236680E-01
        2   -1    0    0  501    0  0.00000000000E+00  0.00000000000E+00  0.12273490391E+04  0.12273490391E+04  0.25500000920E-02 0. -1.
       -2   -1    0    0    0  501  0.00000000000E+00  0.00000000000E+00 -0.18636709250E+04  0.18636709250E+04  0.25500000920E-02 0.  1.
    10030    2    1    2    0    0  0.00000000000E+00  0.00000000000E+00 -0.63632188594E+03  0.30910199641E+04  0.30248138580E+04 0.  0.
        2    1    3    3  502    0  0.94606985701E+03  0.49620841972E+03  0.77583351654E+03  0.13202986842E+04  0.25500000920E-02 0.  1.
       -2    1    3    3    0  502 -0.94606985701E+03 -0.49620841972E+03 -0.14121554025E+04  0.17707212798E+04  0.25500000920E-02 0. -1.
</event>
<event>
 5   0  0.3749685E-07  0.3328195E+04  0.7818609E-02  0.8155758E-01
       -1   -1    0    0    0  501  0.00000000000E+00  0.00000000000E+00  0.28361349613E+04  0.28361349613E+04  0.50400001928E-02 0. -1.
        1   -1    0    0  501    0  0.00000000000E+00  0.00000000000E+00 -0.97640656528E+03  0.97640656529E+03  0.50400001928E-02 0.  1.
    10030    2    1    2    0    0  0.00000000000E+00  0.00000000000E+00  0.18597283960E+04  0.38125415266E+04  0.33281951844E+04 0.  0.
        3    1    3    3  502    0  0.14298683889E+02 -0.11540222671E+03 -0.97174669892E+03  0.97867961221E+03  0.10100000352E+00 0.  1.
       -3    1    3    3    0  502 -0.14298683889E+02  0.11540222671E+03  0.28314750950E+04  0.28338619144E+04  0.10100000352E+00 0. -1.
</event>
<event>
 5   0  0.3674967E-07  0.3320205E+04  0.7818609E-02  0.8157773E-01
       -1   -1    0    0    0  501  0.00000000000E+00  0.00000000000E+00  0.11578710283E+04  0.11578710283E+04  0.50400001928E-02 0.  1.
        1   -1    0    0  501    0  0.00000000000E+00  0.00000000000E+00 -0.23801790700E+04  0.23801790700E+04  0.50400001928E-02 0. -1.
    10030    2    1    2    0    0  0.00000000000E+00  0.00000000000E+00 -0.12223080417E+04  0.35380500983E+04  0.33202050462E+04 0.  0.
        2    1    3    3  502    0  0.14557416050E+04 -0.73946323331E+03 -0.93075037287E+03  0.18794376155E+04  0.25500000920E-02 0. -1.
       -2    1    3    3    0  502 -0.14557416050E+04  0.73946323331E+03 -0.29155766881E+03  0.16586124828E+04  0.25500000920E-02 0.  1.
</event>
<event>
 5   0  0.3709747E-07  0.3301922E+04  0.7818609E-02  0.8162407E-01
       -1   -1    0    0    0  501  0.00000000000E+00  0.00000000000E+00  0.11068482029E+04  0.11068482029E+04  0.50400001928E-02 0. -1.
        1   -1    0    0  501    0  0.00000000000E+00  0.00000000000E+00 -0.24625523994E+04  0.24625523994E+04  0.50400001928E-02 0.  1.
    10030    2    1    2    0    0  0.00000000000E+00  0.00000000000E+00 -0.13557041965E+04  0.35694006023E+04  0.33019216816E+04 0.  0.
        4    1    3    3  502    0  0.79142461116E+03  0.55833278417E+03 -0.21231636412E+04  0.23336481897E+04  0.12699999809E+01 0.  1.
       -4    1    3    3    0  502 -0.79142461116E+03 -0.55833278417E+03  0.76745944472E+03  0.12357524126E+04  0.12699999809E+01 0. -1.
</event>
<event>
 5   0  0.1129434E-06  0.3317807E+04  0.7818609E-02  0.8158379E-01
       -2   -1    0    0    0  501  0.00000000000E+00  0.00000000000E+00  0.21787703188E+04  0.21787703188E+04  0.25500000920E-02 0. -1.
        2   -1    0    0  501    0  0.00000000000E+00  0.00000000000E+00 -0.12630795879E+04  0.12630795879E+04  0.25500000920E-02 0.  1.
    10030    2    1    2    0    0  0.00000000000E+00  0.00000000000E+00  0.91569073092E+03  0.34418499067E+04  0.33178066950E+04 0.  0.
        3    1    3    3  502    0 -0.11721607366E+04 -0.58099577795E+03  0.15160022998E+04  0.20024434748E+04  0.10100000352E+00 0. -1.
       -3    1    3    3    0  502  0.11721607366E+04  0.58099577795E+03 -0.60031156886E+03  0.14394064320E+04  0.10100000352E+00 0.  1.
</event>
<event>
 5   0  0.1129434E-06  0.3322170E+04  0.7818609E-02  0.8157277E-01
       -2   -1    0    0    0  501  0.00000000000E+00  0.00000000000E+00  0.13307111070E+04  0.13307111070E+04  0.25500000920E-02 0.  1.
        2   -1    0    0  501    0  0.00000000000E+00  0.00000000000E+00 -0.20734804288E+04  0.20734804288E+04  0.25500000920E-02 0. -1.
    10030    2    1    2    0    0  0.00000000000E+00  0.00000000000E+00 -0.74276932184E+03  0.34041915358E+04  0.33221700358E+04 0.  0.
        3    1    3    3  502    0  0.62309014694E+03 -0.55617542734E+03 -0.18426723382E+04  0.20231198169E+04  0.10100000352E+00 0. -1.
       -3    1    3    3    0  502 -0.62309014694E+03  0.55617542734E+03  0.10999030164E+04  0.13810717189E+04  0.10100000352E+00 0.  1.
</event>
<event>
 5   0  0.3674967E-07  0.3299847E+04  0.7818609E-02  0.8162934E-01
        1   -1    0    0  501    0  0.00000000000E+00  0.00000000000E+00  0.29171186451E+04  0.29171186451E+04  0.50400001928E-02 0. -1.
       -1   -1    0    0    0  501  0.00000000000E+00  0.00000000000E+00 -0.93319726028E+03  0.93319726029E+03  0.50400001928E-02 0.  1.
    10030    2    1    2    0    0  0.00000000000E+00  0.00000000000E+00  0.19839213849E+04  0.38503159054E+04  0.32998467404E+04 0.  0.
        2    1    3    3  502    0 -0.19009050830E+03 -0.81768573511E+03 -0.66537186859E+03  0.10711975011E+04  0.25500000920E-02 0.  1.
       -2    1    3    3    0  502  0.19009050830E+03  0.81768573511E+03  0.26492932535E+04  0.27791184044E+04  0.25500000920E-02 0. -1.
</event>
<event>
 5   0  0.3796529E-07  0.3306178E+04  0.7818609E-02  0.8161325E-01
        1   -1    0    0  501    0  0.00000000000E+00  0.00000000000E+00  0.23085164244E+04  0.23085164244E+04  0.50400001928E-02 0. -1.
       -1   -1    0    0    0  501  0.00000000000E+00  0.00000000000E+00 -0.11837487897E+04  0.11837487897E+04  0.50400001928E-02 0.  1.
    10030    2    1    2    0    0  0.00000000000E+00  0.00000000000E+00  0.11247676346E+04  0.34922652141E+04  0.33061781703E+04 0.  0.
        5    1    3    3  502    0 -0.48839964292E+03 -0.10682823006E+04 -0.66623467095E+03  0.13504266036E+04  0.46999998093E+01 0.  1.
       -5    1    3    3    0  502  0.48839964292E+03  0.10682823006E+04  0.17910023056E+04  0.21418386105E+04  0.46999998093E+01 0. -1.
</event>
<event>
 5   0  0.1146799E-06  0.3299983E+04  0.7818609E-02  0.8162900E-01
       -2   -1    0    0    0  501  0.00000000000E+00  0.00000000000E+00  0.13388253324E+04  0.13388253324E+04  0.25500000920E-02 0.  1.
        2   -1    0    0  501    0  0.00000000000E+00  0.00000000000E+00 -0.20334784190E+04  0.20334784190E+04  0.25500000920E-02 0. -1.
    10030    2    1    2    0    0  0.00000000000E+00  0.00000000000E+00 -0.69465308660E+03  0.33723037514E+04  0.32999832850E+04 0.  0.
        5    1    3    3  502    0  0.11732164195E+04  0.11214887330E+04 -0.65095166875E+03  0.17486949163E+04  0.46999998093E+01 0.  1.
       -5    1    3    3    0  502 -0.11732164195E+04 -0.11214887330E+04 -0.43701417848E+02  0.16236088351E+04  0.46999998093E+01 0. -1.
</event>
<event>
 5   0  0.1116462E-06  0.3307056E+04  0.7818609E-02  0.8161102E-01
        2   -1    0    0  501    0  0.00000000000E+00  0.00000000000E+00  0.26650054781E+04  0.26650054781E+04  0.25500000920E-02 0. -1.
       -2   -1    0    0    0  501  0.00000000000E+00  0.00000000000E+00 -0.10259469165E+04  0.10259469165E+04  0.25500000920E-02 0.  1.
    10030    2    1    2    0    0  0.00000000000E+00  0.00000000000E+00  0.16390585616E+04  0.36909523946E+04  0.33070555803E+04 0.  0.
        1    1    3    3  502    0  0.13238763718E+04 -0.99057145879E+03  0.80106525215E+03  0.18372767894E+04  0.50400001928E-02 0. -1.
       -1    1    3    3    0  502 -0.13238763718E+04  0.99057145879E+03  0.83799330947E+03  0.18536756052E+04  0.50400001928E-02 0.  1.
</event>
<event>
 5   0  0.3573375E-07  0.3286567E+04  0.7818609E-02  0.8166322E-01
       -3   -1    0    0    0  501  0.00000000000E+00  0.00000000000E+00  0.18097477778E+04  0.18097477806E+04  0.10100000352E+00 0.  1.
        3   -1    0    0  501    0  0.00000000000E+00  0.00000000000E+00 -0.14921311732E+04  0.14921311766E+04  0.10100000352E+00 0. -1.
    10030    2    1    2    0    0  0.00000000000E+00  0.00000000000E+00  0.31761660466E+03  0.33018789572E+04  0.32865672579E+04 0.  0.
        3    1    3    3  502    0  0.14453435615E+04 -0.25081400264E+03  0.90283630764E+03  0.17225095307E+04  0.10100000352E+00 0.  1.
       -3    1    3    3    0  502 -0.14453435615E+04  0.25081400264E+03 -0.58521970298E+03  0.15793694266E+04  0.10100000352E+00 0. -1.
</event>
<event>
 5   0  0.3709747E-07  0.3314636E+04  0.7818609E-02  0.8159181E-01
       -1   -1    0    0    0  501  0.00000000000E+00  0.00000000000E+00  0.12632428400E+04  0.12632428400E+04  0.50400001928E-02 0.  1.
        1   -1    0    0  501    0  0.00000000000E+00  0.00000000000E+00 -0.21743271170E+04  0.21743271170E+04  0.50400001928E-02 0. -1.
    10030    2    1    2    0    0  0.00000000000E+00  0.00000000000E+00 -0.91108427702E+03  0.34375699570E+04  0.33146361262E+04 0.  0.
        4    1    3    3  502    0  0.15162001174E+04 -0.52526169285E+03 -0.88557611220E+03  0.18327600239E+04  0.12699999809E+01 0. -1.
       -4    1    3    3    0  502 -0.15162001174E+04  0.52526169285E+03 -0.25508164822E+02  0.16048099331E+04  0.12699999809E+01 0.  1.
</event>
<event>
 5   0  0.1120545E-06  0.3304045E+04  0.7818609E-02  0.8161867E-01
        2   -1    0    0  501    0  0.00000000000E+00  0.00000000000E+00  0.91417679873E+03  0.91417679873E+03  0.25500000920E-02 0. -1.
       -2   -1    0    0    0  501  0.00000000000E+00  0.00000000000E+00 -0.29853945198E+04  0.29853945198E+04  0.25500000920E-02 0.  1.
    10030    2    1    2    0    0  0.00000000000E+00  0.00000000000E+00 -0.20712177211E+04  0.38995713185E+04  0.33040450391E+04 0.  0.
        4    1    3    3  502    0  0.47221745312E+00  0.15805829960E+04 -0.46843682234E+03  0.16485379886E+04  0.12699999809E+01 0.  1.
       -4    1    3    3    0  502 -0.47221745312E+00 -0.15805829960E+04 -0.16027808987E+04  0.22510333300E+04  0.12699999809E+01 0. -1.
</event>
<event>
 5   0  0.1129434E-06  0.3300749E+04  0.7818609E-02  0.8162705E-01
       -2   -1    0    0    0  501  0.00000000000E+00  0.00000000000E+00  0.11175464519E+04  0.11175464519E+04  0.25500000920E-02 0. -1.
        2   -1    0    0  501    0  0.00000000000E+00  0.00000000000E+00 -0.24372463638E+04  0.24372463638E+04  0.25500000920E-02 0.  1.
    10030    2    1    2    0    0  0.00000000000E+00  0.00000000000E+00 -0.13196999119E+04  0.35547928157E+04  0.33007490218E+04 0.  0.
        3    1    3    3  502    0  0.36270166035E+03  0.14153916861E+04  0.16657627252E+03  0.14705896043E+04  0.10100000352E+00 0. -1.
       -3    1    3    3    0  502 -0.36270166035E+03 -0.14153916861E+04 -0.14862761844E+04  0.20842032113E+04  0.10100000352E+00 0.  1.
</event>
<event>
 5   0  0.1146799E-06  0.3330891E+04  0.7818609E-02  0.8155079E-01
       -2   -1    0    0    0  501  0.00000000000E+00  0.00000000000E+00  0.13136458516E+04  0.13136458516E+04  0.25500000920E-02 0.  1.
        2   -1    0    0  501    0  0.00000000000E+00  0.00000000000E+00 -0.21114579345E+04  0.21114579345E+04  0.25500000920E-02 0. -1.
    10030    2    1    2    0    0  0.00000000000E+00  0.00000000000E+00 -0.79781208289E+03  0.34251037861E+04  0.33308905455E+04 0.  0.
        5    1    3    3  502    0  0.13212941769E+04  0.98882329273E+03 -0.16875382558E+03  0.16589423588E+04  0.46999998093E+01 0. -1.
       -5    1    3    3    0  502 -0.13212941769E+04 -0.98882329273E+03 -0.62905825731E+03  0.17661614273E+04  0.46999998093E+01 0.  1.
</event>
<event>
 5   0  0.1146799E-06  0.3321056E+04  0.7818609E-02  0.8157558E-01
        2   -1    0    0  501    0  0.00000000000E+00  0.00000000000E+00  0.26831167235E+04  0.26831167235E+04  0.25500000920E-02 0.  1.
       -2   -1    0    0    0  501  0.00000000000E+00  0.00000000000E+00 -0.10276681561E+04  0.10276681561E+04  0.25500000920E-02 0. -1.
    10030    2    1    2    0    0  0.00000000000E+00  0.00000000000E+00  0.16554485674E+04  0.37107848796E+04  0.33210562270E+04 0.  0.
        5    1    3    3  502    0 -0.19896575577E+03  0.11272087268E+04 -0.51641885672E+03  0.12557457590E+04  0.46999998093E+01 0. -1.
       -5    1    3    3    0  502  0.19896575577E+03 -0.11272087268E+04  0.21718674241E+04  0.24550391206E+04  0.46999998093E+01 0.  1.
</event>
<event>
 5   0  0.1146799E-06  0.3196972E+04  0.7818609E-02  0.8189617E-01
       -2   -1    0    0    0  501  0.00000000000E+00  0.00000000000E+00  0.78636008809E+03  0.78636008809E+03  0.25500000920E-02 0. -1.
        2   -1    0    0  501    0  0.00000000000E+00  0.00000000000E+00 -0.32493485503E+04  0.32493485503E+04  0.25500000920E-02 0.  1.
    10030    2    1    2    0    0  0.00000000000E+00  0.00000000000E+00 -0.24629884622E+04  0.40357086384E+04  0.31969723254E+04 0.  0.
        5    1    3    3  502    0 -0.51894914694E+03  0.97861928921E+03  0.22329992104E+03  0.11299950774E+04  0.46999998093E+01 0. -1.
       -5    1    3    3    0  502  0.51894914694E+03 -0.97861928921E+03 -0.26862883833E+04  0.29057135610E+04  0.46999998093E+01 0.  1.
</event>
<event>
 5   0  0.3796529E-07  0.3317975E+04  0.7818609E-02  0.8158337E-01
        1   -1    0    0  501    0  0.00000000000E+00  0.00000000000E+00  0.23047546752E+04  0.23047546752E+04  0.50400001928E-02 0.  1.
       -1   -1    0    0    0  501  0.00000000000E+00  0.00000000000E+00 -0.11941575760E+04  0.11941575760E+04  0.50400001928E-02 0. -1.
    10030    2    1    2    0    0  0.00000000000E+00  0.00000000000E+00  0.11105970992E+04  0.34989122512E+04  0.33179754407E+04 0.  0.
        5    1    3    3  502    0  0.10284232994E+04 -0.97126457328E+03  0.14692859751E+04  0.20395667973E+04  0.46999998093E+01 0.  1.
       -5    1    3    3    0  502 -0.10284232994E+04  0.97126457328E+03 -0.35868887593E+03  0.14593454539E+04  0.46999998093E+01 0. -1.
</event>
<event>
 5   0  0.1116462E-06  0.3307523E+04  0.7818609E-02  0.8160984E-01
        2   -1    0    0  501    0  0.00000000000E+00  0.00000000000E+00  0.19579426352E+04  0.19579426352E+04  0.25500000920E-02 0. -1.
       -2   -1    0    0    0  501  0.00000000000E+00  0.00000000000E+00 -0.13968372053E+04  0.13968372053E+04  0.25500000920E-02 0.  1.
    10030    2    1    2    0    0  0.00000000000E+00  0.00000000000E+00  0.56110542987E+03  0.33547798405E+04  0.33075230120E+04 0.  0.
        1    1    3    3  502    0  0.11306353467E+04  0.11636648947E+04  0.60524336559E+03  0.17316962222E+04  0.50400001928E-02 0. -1.
       -1    1    3    3    0  502 -0.11306353467E+04 -0.11636648947E+04 -0.44137935725E+02  0.16230836183E+04  0.50400001928E-02 0.  1.
</event>
<event>
 5   0  0.3674967E-07  0.3304962E+04  0.7818609E-02  0.8161634E-01
       -1   -1    0    0    0  501  0.00000000000E+00  0.00000000000E+00  0.11774517761E+04  0.11774517761E+04  0.50400001928E-02 0.  1.
        1   -1    0    0  501    0  0.00000000000E+00  0.00000000000E+00 -0.23191549369E+04  0.23191549369E+04  0.50400001928E-02 0. -1.
    10030    2    1    2    0    0  0.00000000000E+00  0.00000000000E+00 -0.11417031607E+04  0.34966067130E+04  0.33049617847E+04 0.  0.
        2    1    3    3  502    0  0.14554210654E+04 -0.16703173736E+03 -0.13797399379E+04  0.20124195326E+04  0.25500000920E-02 0.  1.
       -2    1    3    3    0  502 -0.14554210654E+04  0.16703173736E+03  0.23803677719E+03  0.14841871804E+04  0.25500000920E-02 0. -1.
</event>
<event>
 5   0  0.3709747E-07  0.3313837E+04  0.7818609E-02  0.8159384E-01
        1   -1    0    0  501    0  0.00000000000E+00  0.00000000000E+00  0.12632169161E+04  0.12632169161E+04  0.50400001928E-02 0. -1.
       -1   -1    0    0    0  501  0.00000000000E+00  0.00000000000E+00 -0.21733229328E+04  0.21733229328E+04  0.50400001928E-02 0.  1.
    10030    2    1    2    0    0  0.00000000000E+00  0.00000000000E+00 -0.91010601670E+03  0.34365398490E+04  0.33138366242E+04 0.  0.
        4    1    3    3  502    0  0.15027569299E+03 -0.14946345395E+04  0.27002244723E+03  0.15262466791E+04  0.12699999809E+01 0. -1.
       -4    1    3    3    0  502 -0.15027569299E+03  0.14946345395E+04 -0.11801284639E+04  0.19102931699E+04  0.12699999809E+01 0.  1.
</event>
<event>
 5   0  0.3749685E-07  0.3293682E+04  0.7818609E-02  0.8164505E-01
       -1   -1    0    0    0  501  0.00000000000E+00  0.00000000000E+00  0.11820481408E+04  0.11820481408E+04  0.50400001928E-02 0. -1.
        1   -1    0    0  501    0  0.00000000000E+00  0.00000000000E+00 -0.22943952929E+04  0.22943952929E+04  0.50400001928E-02 0.  1.
    10030    2    1    2    0    0  0.00000000000E+00  0.00000000000E+00 -0.11123471521E+04  0.34764434337E+04  0.32936822495E+04 0.  0.
        3    1    3    3  502    0  0.14794454444E+04 -0.69893070216E+03 -0.35921047191E+03  0.16752000247E+04  0.10100000352E+00 0. -1.
       -3    1    3    3    0  502 -0.14794454444E+04  0.69893070216E+03 -0.75313668019E+03  0.18012434090E+04  0.10100000352E+00 0.  1.
</event>
<event>
 5   0  0.1116462E-06  0.3322795E+04  0.7818609E-02  0.8157119E-01
        2   -1    0    0  501    0  0.00000000000E+00  0.00000000000E+00  0.25440916627E+04  0.25440916627E+04  0.25500000920E-02 0.  1.
       -2   -1    0    0    0  501  0.00000000000E+00  0.00000000000E+00 -0.10849613107E+04  0.10849613107E+04  0.25500000920E-02 0. -1.
    10030    2    1    2    0    0  0.00000000000E+00  0.00000000000E+00  0.14591303520E+04  0.36290529733E+04  0.33227946219E+04 0.  0.
        1    1    3    3  502    0 -0.11994654483E+04 -0.56698721360E+03  0.18217609306E+04  0.22536647378E+04  0.50400001928E-02 0.  1.
       -1    1    3    3    0  502  0.11994654483E+04  0.56698721360E+03 -0.36263057865E+03  0.13753882356E+04  0.50400001928E-02 0. -1.
</event>
<event>
 5   0  0.3709747E-07  0.3281548E+04  0.7818609E-02  0.8167607E-01
       -1   -1    0    0    0  501  0.00000000000E+00  0.00000000000E+00  0.16181398879E+04  0.16181398879E+04  0.50400001928E-02 0. -1.
        1   -1    0    0  501    0  0.00000000000E+00  0.00000000000E+00 -0.16637242842E+04  0.16637242842E+04  0.50400001928E-02 0.  1.
    10030    2    1    2    0    0  0.00000000000E+00  0.00000000000E+00 -0.45584396378E+02  0.32818641721E+04  0.32815475781E+04 0.  0.
        4    1    3    3  502    0  0.73298956935E+03  0.14240686207E+03  0.14383701772E+04  0.16206368510E+04  0.12699999809E+01 0. -1.
       -4    1    3    3    0  502 -0.73298956935E+03 -0.14240686207E+03 -0.14839545736E+04  0.16612273211E+04  0.12699999809E+01 0.  1.
</event>
<event>
 5   0  0.3709747E-07  0.3295518E+04  0.7818609E-02  0.8164037E-01
       -1   -1    0    0    0  501  0.00000000000E+00  0.00000000000E+00  0.22192745893E+04  0.22192745893E+04  0.50400001928E-02 0.  1.
        1   -1    0    0  501    0  0.00000000000E+00  0.00000000000E+00 -0.12234220495E+04  0.12234220496E+04  0.50400001928E-02 0. -1.
    10030    2    1    2    0    0  0.00000000000E+00  0.00000000000E+00  0.99585253980E+03  0.34426966389E+04  0.32955178450E+04 0.  0.
        4    1    3    3  502    0  0.11632689491E+04  0.50706893781E+03 -0.60010776033E+03  0.14037252197E+04  0.12699999809E+01 0. -1.
       -4    1    3    3    0  502 -0.11632689491E+04 -0.50706893781E+03  0.15959603001E+04  0.20389714192E+04  0.12699999809E+01 0.  1.
</event>
<event>
 5   0  0.3796529E-07  0.3284158E+04  0.7818609E-02  0.8166938E-01
        1   -1    0    0  501    0  0.00000000000E+00  0.00000000000E+00  0.14874914853E+04  0.14874914854E+04  0.50400001928E-02 0. -1.
       -1   -1    0    0    0  501  0.00000000000E+00  0.00000000000E+00 -0.18127315032E+04  0.18127315032E+04  0.50400001928E-02 0.  1.
    10030    2    1    2    0    0  0.00000000000E+00  0.00000000000E+00 -0.32524001787E+03  0.33002229886E+04  0.32841575335E+04 0.  0.
        5    1    3    3  502    0 -0.21099989775E+03 -0.13568757574E+04  0.74221116001E+03  0.15609395485E+04  0.46999998093E+01 0. -1.
       -5    1    3    3    0  502  0.21099989775E+03  0.13568757574E+04 -0.10674511779E+04  0.17392834401E+04  0.46999998093E+01 0.  1.
</event>
<event>
 5   0  0.1126221E-06  0.3289310E+04  0.7818609E-02  0.8165621E-01
       -2   -1    0    0    0  501  0.00000000000E+00  0.00000000000E+00  0.17774185303E+04  0.17774185303E+04  0.25500000920E-02 0.  1.
        2   -1    0    0  501    0  0.00000000000E+00  0.00000000000E+00 -0.15218080374E+04  0.15218080374E+04  0.25500000920E-02 0. -1.
    10030    2    1    2    0    0  0.00000000000E+00  0.00000000000E+00  0.25561049285E+03  0.32992265677E+04  0.32893098396E+04 0.  0.
        2    1    3    3  502    0 -0.10864505065E+04  0.53200933656E+03 -0.98977167485E+03  0.15630280246E+04  0.25500000920E-02 0. -1.
       -2    1    3    3    0  502  0.10864505065E+04 -0.53200933656E+03  0.12453821677E+04  0.17361985431E+04  0.25500000920E-02 0.  1.
</event>
<event>
 5   0  0.1120545E-06  0.3264450E+04  0.7818609E-02  0.8172000E-01
       -2   -1    0    0    0  501  0.00000000000E+00  0.00000000000E+00  0.15940688587E+04  0.15940688587E+04  0.25500000920E-02 0.  1.
        2   -1    0    0  501    0  0.00000000000E+00  0.00000000000E+00 -0.16712942276E+04  0.16712942276E+04  0.25500000920E-02 0. -1.
    10030    2    1    2    0    0  0.00000000000E+00  0.00000000000E+00 -0.77225368904E+02  0.32653630863E+04  0.32644497741E+04 0.  0.
        4    1    3    3  502    0 -0.97048309321E+03  0.12819183697E+03  0.12678483944E+04  0.16017839259E+04  0.12699999809E+01 0.  1.
       -4    1    3    3    0  502  0.97048309321E+03 -0.12819183697E+03 -0.13450737633E+04  0.16635791604E+04  0.12699999809E+01 0. -1.
</event>
<event>
 5   0  0.1146799E-06  0.3313981E+04  0.7818609E-02  0.8159347E-01
        2   -1    0    0  501    0  0.00000000000E+00  0.00000000000E+00  0.17542391105E+04  0.17542391105E+04  0.25500000920E-02 0. -1.
       -2   -1    0    0    0  501  0.00000000000E+00  0.00000000000E+00 -0.15651334431E+04  0.15651334431E+04  0.25500000920E-02 0.  1.
    10030    2    1    2    0    0  0.00000000000E+00  0.00000000000E+00  0.18910566741E+03  0.33193725536E+04  0.33139814719E+04 0.  0.
        5    1    3    3  502    0 -0.10962545208E+04 -0.10413347358E+04  0.77347863045E+03  0.16983648866E+04  0.46999998093E+01 0. -1.
       -5    1    3    3    0  502  0.10962545208E+04  0.10413347358E+04 -0.58437296304E+03  0.16210076669E+04  0.46999998093E+01 0.  1.
</event>
<event>
 5   0  0.1129434E-06  0.3356433E+04  0.7818609E-02  0.8148683E-01
       -2   -1    0    0    0  501  0.00000000000E+00  0.00000000000E+00  0.34657148877E+04  0.34657148877E+04  0.25500000920E-02 0.  1.
        2   -1    0    0  501    0  0.00000000000E+00  0.00000000000E+00 -0.81264946905E+03  0.81264946905E+03  0.25500000920E-02 0. -1.
    10030    2    1    2    0    0  0.00000000000E+00  0.00000000000E+00  0.26530654186E+04  0.42783643567E+04  0.33564334424E+04 0.  0.
        3    1    3    3  502    0 -0.12974109610E+04 -0.10613807888E+04  0.14301425444E+04  0.22034318887E+04  0.10100000352E+00 0.  1.
       -3    1    3    3    0  502  0.12974109610E+04  0.10613807888E+04  0.12229228742E+04  0.20749324681E+04  0.10100000352E+00 0. -1.
</event>
<event>
 5   0  0.1146799E-06  0.3435352E+04  0.7818609E-02  0.8129284E-01
        2   -1    0    0  501    0  0.00000000000E+00  0.00000000000E+00  0.15547814006E+04  0.15547814006E+04  0.25500000920E-02 0. -1.
       -2   -1    0    0    0  501  0.00000000000E+00  0.00000000000E+00 -0.18976368105E+04  0.18976368105E+04  0.25500000920E-02 0.  1.
    10030    2    1    2    0    0  0.00000000000E+00  0.00000000000E+00 -0.34285540988E+03  0.34524182111E+04  0.34353517538E+04 0.  0.
        5    1    3    3  502    0 -0.16052998801E+04  0.82318942840E+01  0.44261742993E+03  0.16652290378E+04  0.46999998093E+01 0. -1.
       -5    1    3    3    0  502  0.16052998801E+04 -0.82318942840E+01 -0.78547283981E+03  0.17871891733E+04  0.46999998093E+01 0.  1.
</event>
<event>
 5   0  0.1126221E-06  0.3293328E+04  0.7818609E-02  0.8164595E-01
        2   -1    0    0  501    0  0.00000000000E+00  0.00000000000E+00  0.21597897126E+04  0.21597897126E+04  0.25500000920E-02 0.  1.
       -2   -1    0    0    0  501  0.00000000000E+00  0.00000000000E+00 -0.12554475910E+04  0.12554475910E+04  0.25500000920E-02 0. -1.
    10030    2    1    2    0    0  0.00000000000E+00  0.00000000000E+00  0.90434212164E+03  0.34152373036E+04  0.32933282811E+04 0.  0.
        2    1    3    3  502    0 -0.51703305646E+03  0.46172048432E+03  0.20011126616E+04  0.21177726203E+04  0.25500000920E-02 0.  1.
       -2    1    3    3    0  502  0.51703305646E+03 -0.46172048432E+03 -0.10967705399E+04  0.12974646833E+04  0.25500000920E-02 0. -1.
</event>
<event>
 5   0  0.3757406E-07  0.3303314E+04  0.7818609E-02  0.8162053E-01
        1   -1    0    0  501    0  0.00000000000E+00  0.00000000000E+00  0.14025883894E+04  0.14025883894E+04  0.50400001928E-02 0.  1.
       -1   -1    0    0    0  501  0.00000000000E+00  0.00000000000E+00 -0.19449541123E+04  0.19449541123E+04  0.50400001928E-02 0. -1.
    10030    2    1    2    0    0  0.00000000000E+00  0.00000000000E+00 -0.54236572293E+03  0.33475425017E+04  0.33033135218E+04 0.  0.
        1    1    3    3  502    0 -0.12990210655E+03 -0.14426306049E+04 -0.10754797636E+04  0.18040826869E+04  0.50400001928E-02 0. -1.
       -1    1    3    3    0  502  0.12990210655E+03  0.14426306049E+04  0.53311404066E+03  0.15434598147E+04  0.50400001928E-02 0.  1.
</event>
<event>
 5   0  0.3709747E-07  0.3294275E+04  0.7818609E-02  0.8164354E-01
        1   -1    0    0  501    0  0.00000000000E+00  0.00000000000E+00  0.27696233948E+04  0.27696233948E+04  0.50400001928E-02 0. -1.
       -1   -1    0    0    0  501  0.00000000000E+00  0.00000000000E+00 -0.97957776588E+03  0.97957776589E+03  0.50400001928E-02 0.  1.
    10030    2    1    2    0    0  0.00000000000E+00  0.00000000000E+00  0.17900456290E+04  0.37492011607E+04  0.32942747290E+04 0.  0.
        4    1    3    3  502    0 -0.82834879695E+03 -0.14159029907E+04  0.10642775470E+04  0.19554107800E+04  0.12699999809E+01 0.  1.
       -4    1    3    3    0  502  0.82834879695E+03  0.14159029907E+04  0.72576808195E+03  0.17937903808E+04  0.12699999809E+01 0. -1.
</event>
<event>
 5   0  0.1120545E-06  0.3289439E+04  0.7818609E-02  0.8165588E-01
       -2   -1    0    0    0  501  0.00000000000E+00  0.00000000000E+00  0.17930589365E+04  0.17930589365E+04  0.25500000920E-02 0.  1.
        2   -1    0    0  501    0  0.00000000000E+00  0.00000000000E+00 -0.15086518681E+04  0.15086518681E+04  0.25500000920E-02 0. -1.
    10030    2    1    2    0    0  0.00000000000E+00  0.00000000000E+00  0.28440706841E+03  0.33017108046E+04  0.32894386841E+04 0.  0.
        4    1    3    3  502    0 -0.88461946418E+03  0.10594383098E+04  0.10400455968E+04  0.17281948921E+04  0.12699999809E+01 0.  1.
       -4    1    3    3    0  502  0.88461946418E+03 -0.10594383098E+04 -0.75563852834E+03  0.15735159126E+04  0.12699999809E+01 0. -1.
</event>
<event>
 5   0  0.1120545E-06  0.3283705E+04  0.7818609E-02  0.8167054E-01
        2   -1    0    0  501    0  0.00000000000E+00  0.00000000000E+00  0.16947557257E+04  0.16947557257E+04  0.25500000920E-02 0. -1.
       -2   -1    0    0    0  501  0.00000000000E+00  0.00000000000E+00 -0.15906002509E+04  0.15906002509E+04  0.25500000920E-02 0.  1.
    10030    2    1    2    0    0  0.00000000000E+00  0.00000000000E+00  0.10415547486E+03  0.32853559766E+04  0.32837045436E+04 0.  0.
        4    1    3    3  502    0 -0.12399841665E+04 -0.95261532436E+03  0.55296968853E+03  0.16585577406E+04  0.12699999809E+01 0.  1.
       -4    1    3    3    0  502  0.12399841665E+04  0.95261532436E+03 -0.44881421367E+03  0.16267982360E+04  0.12699999809E+01 0. -1.
</event>
<event>
 5   0  0.3674967E-07  0.3374517E+04  0.7818609E-02  0.8144189E-01
       -1   -1    0    0    0  501  0.00000000000E+00  0.00000000000E+00  0.15987188524E+04  0.15987188524E+04  0.50400001928E-02 0.  1.
        1   -1    0    0  501    0  0.00000000000E+00  0.00000000000E+00 -0.17807017886E+04  0.17807017886E+04  0.50400001928E-02 0. -1.
    10030    2    1    2    0    0  0.00000000000E+00  0.00000000000E+00 -0.18198293625E+03  0.33794206411E+04  0.33745171625E+04 0.  0.
        2    1    3    3  502    0  0.33684262914E+03 -0.29210915340E+03  0.15386563808E+04  0.16019532367E+04  0.25500000920E-02 0.  1.
       -2    1    3    3    0  502 -0.33684262914E+03  0.29210915340E+03 -0.17206393170E+04  0.17774674044E+04  0.25500000920E-02 0. -1.
</event>
<event>
 5   0  0.3674967E-07  0.3304316E+04  0.7818609E-02  0.8161798E-01
        1   -1    0    0  501    0  0.00000000000E+00  0.00000000000E+00  0.21057433883E+04  0.21057433883E+04  0.50400001928E-02 0. -1.
       -1   -1    0    0    0  501  0.00000000000E+00  0.00000000000E+00 -0.12962770395E+04  0.12962770395E+04  0.50400001928E-02 0.  1.
    10030    2    1    2    0    0  0.00000000000E+00  0.00000000000E+00  0.80946634876E+03  0.34020204278E+04  0.33043164530E+04 0.  0.
        2    1    3    3  502    0  0.20679850827E+03  0.58928819579E+03 -0.11700695110E+04  0.13263064733E+04  0.25500000920E-02 0.  1.
       -2    1    3    3    0  502 -0.20679850827E+03 -0.58928819579E+03  0.19795358597E+04  0.20757139544E+04  0.25500000920E-02 0. -1.
</event>
<event>
 5   0  0.1126221E-06  0.3313176E+04  0.7818609E-02  0.8159551E-01
       -2   -1    0    0    0  501  0.00000000000E+00  0.00000000000E+00  0.10975334443E+04  0.10975334443E+04  0.25500000920E-02 0.  1.
        2   -1    0    0  501    0  0.00000000000E+00  0.00000000000E+00 -0.25004100754E+04  0.25004100754E+04  0.25500000920E-02 0. -1.
    10030    2    1    2    0    0  0.00000000000E+00  0.00000000000E+00 -0.14028766311E+04  0.35979435197E+04  0.33131759278E+04 0.  0.
        2    1    3    3  502    0 -0.12857954388E+04  0.20912991488E+03  0.40988628448E+03  0.13656544211E+04  0.25500000920E-02 0.  1.
       -2    1    3    3    0  502  0.12857954388E+04 -0.20912991488E+03 -0.18127629156E+04  0.22322890986E+04  0.25500000920E-02 0. -1.
</event>
<event>
 5   0  0.1129434E-06  0.3286846E+04  0.7818609E-02  0.8166251E-01
       -2   -1    0    0    0  501  0.00000000000E+00  0.00000000000E+00  0.13200040174E+04  0.13200040174E+04  0.25500000920E-02 0. -1.
        2   -1    0    0  501    0  0.00000000000E+00  0.00000000000E+00 -0.20460836840E+04  0.20460836840E+04  0.25500000920E-02 0.  1.
    10030    2    1    2    0    0  0.00000000000E+00  0.00000000000E+00 -0.72607966658E+03  0.33660877014E+04  0.32868457115E+04 0.  0.
        3    1    3    3  502    0  0.28273869716E+03 -0.32000404054E+03  0.12621969690E+04  0.13324732476E+04  0.10100000352E+00 0. -1.
       -3    1    3    3    0  502 -0.28273869716E+03  0.32000404054E+03 -0.19882766356E+04  0.20336144538E+04  0.10100000352E+00 0.  1.
</event>
<event>
 5   0  0.1126221E-06  0.3303270E+04  0.7818609E-02  0.8162064E-01
        2   -1    0    0  501    0  0.00000000000E+00  0.00000000000E+00  0.11998785982E+04  0.11998785982E+04  0.25500000920E-02 0. -1.
       -2   -1    0    0    0  501  0.00000000000E+00  0.00000000000E+00 -0.22734791288E+04  0.22734791288E+04  0.25500000920E-02 0.  1.
    10030    2    1    2    0    0  0.00000000000E+00  0.00000000000E+00 -0.10736005306E+04  0.34733577270E+04  0.33032704704E+04 0.  0.
        2    1    3    3  502    0  0.14032076267E+04 -0.76989074019E+03 -0.96543656578E+03  0.18691685740E+04  0.25500000920E-02 0.  1.
       -2    1    3    3    0  502 -0.14032076267E+04  0.76989074019E+03 -0.10816396486E+03  0.16041891530E+04  0.25500000920E-02 0. -1.
</event>
<event>
 5   0  0.1116462E-06  0.3299679E+04  0.7818609E-02  0.8162977E-01
       -2   -1    0    0    0  501  0.00000000000E+00  0.00000000000E+00  0.12359425985E+04  0.12359425985E+04  0.25500000920E-02 0.  1.
        2   -1    0    0  501    0  0.00000000000E+00  0.00000000000E+00 -0.22023438655E+04  0.22023438655E+04  0.25500000920E-02 0. -1.
    10030    2    1    2    0    0  0.00000000000E+00  0.00000000000E+00 -0.96640126698E+03  0.34382864639E+04  0.32996791358E+04 0.  0.
        1    1    3    3  502    0 -0.85911732454E+03 -0.46492117906E+02  0.98367132295E+03  0.13068486393E+04  0.50400001928E-02 0.  1.
       -1    1    3    3    0  502  0.85911732454E+03  0.46492117906E+02 -0.19500725899E+04  0.21314378247E+04  0.50400001928E-02 0. -1.
</event>
<event>
 5   0  0.3796529E-07  0.3298117E+04  0.7818609E-02  0.8163375E-01
        1   -1    0    0  501    0  0.00000000000E+00  0.00000000000E+00  0.13359256243E+04  0.13359256243E+04  0.50400001928E-02 0.  1.
       -1   -1    0    0    0  501  0.00000000000E+00  0.00000000000E+00 -0.20355877325E+04  0.20355877325E+04  0.50400001928E-02 0. -1.
    10030    2    1    2    0    0  0.00000000000E+00  0.00000000000E+00 -0.69966210819E+03  0.33715133568E+04  0.32981169248E+04 0.  0.
        5    1    3    3  502    0  0.87206240586E+03 -0.78309783868E+03  0.83599978672E+03  0.14396710729E+04  0.46999998093E+01 0.  1.
       -5    1    3    3    0  502 -0.87206240586E+03  0.78309783868E+03 -0.15356618949E+04  0.19318422840E+04  0.46999998093E+01 0. -1.
</event>
<event>
 5   0  0.1146799E-06  0.3281480E+04  0.7818609E-02  0.8167624E-01
        2   -1    0    0  501    0  0.00000000000E+00  0.00000000000E+00  0.28170417851E+04  0.28170417851E+04  0.25500000920E-02 0.  1.
       -2   -1    0    0    0  501  0.00000000000E+00  0.00000000000E+00 -0.95562243664E+03  0.95562243664E+03  0.25500000920E-02 0. -1.
    10030    2    1    2    0    0  0.00000000000E+00  0.00000000000E+00  0.18614193485E+04  0.37726642218E+04  0.32814803579E+04 0.  0.
        5    1    3    3  502    0  0.10643682935E+04 -0.12455903499E+04  0.10311413720E+04  0.19358847598E+04  0.46999998093E+01 0. -1.
       -5    1    3    3    0  502 -0.10643682935E+04  0.12455903499E+04  0.83027797647E+03  0.18367794620E+04  0.46999998093E+01 0.  1.
</event>
<event>
 5   0  0.1120545E-06  0.3309183E+04  0.7818609E-02  0.8160563E-01
       -2   -1    0    0    0  501  0.00000000000E+00  0.00000000000E+00  0.15418339033E+04  0.15418339033E+04  0.25500000920E-02 0.  1.
        2   -1    0    0  501    0  0.00000000000E+00  0.00000000000E+00 -0.17755949126E+04  0.17755949126E+04  0.25500000920E-02 0. -1.
    10030    2    1    2    0    0  0.00000000000E+00  0.00000000000E+00 -0.23376100927E+03  0.33174288159E+04  0.33091826391E+04 0.  0.
        4    1    3    3  502    0 -0.10304823306E+04  0.49853464772E+03 -0.13145290994E+04  0.17431061341E+04  0.12699999809E+01 0. -1.
       -4    1    3    3    0  502  0.10304823306E+04 -0.49853464772E+03  0.10807680901E+04  0.15743226817E+04  0.12699999809E+01 0.  1.
</event>
<event>
 5   0  0.1126221E-06  0.3267240E+04  0.7818609E-02  0.8171281E-01
        2   -1    0    0  501    0  0.00000000000E+00  0.00000000000E+00  0.18352510746E+04  0.18352510746E+04  0.25500000920E-02 0. -1.
       -2   -1    0    0    0  501  0.00000000000E+00  0.00000000000E+00 -0.14541415915E+04  0.14541415915E+04  0.25500000920E-02 0.  1.
    10030    2    1    2    0    0  0.00000000000E+00  0.00000000000E+00  0.38110948315E+03  0.32893926661E+04  0.32672403758E+04 0.  0.
        2    1    3    3  502    0  0.16998570988E+03  0.14056112261E+03 -0.14390806409E+04  0.14558865552E+04  0.25500000920E-02 0.  1.
       -2    1    3    3    0  502 -0.16998570988E+03 -0.14056112261E+03  0.18201901240E+04  0.18335061108E+04  0.25500000920E-02 0. -1.
</event>
<event>
 5   0  0.3796529E-07  0.3284502E+04  0.7818609E-02  0.8166850E-01
        1   -1    0    0  501    0  0.00000000000E+00  0.00000000000E+00  0.89667801000E+03  0.89667801002E+03  0.50400001928E-02 0. -1.
       -1   -1    0    0    0  501  0.00000000000E+00  0.00000000000E+00 -0.30077547858E+04  0.30077547858E+04  0.50400001928E-02 0.  1.
    10030    2    1    2    0    0  0.00000000000E+00  0.00000000000E+00 -0.21110767758E+04  0.39044327958E+04  0.32845015305E+04 0.  0.
        5    1    3    3  502    0 -0.29426693858E+03  0.87590058670E+03  0.55834166064E+03  0.10796121382E+04  0.46999998093E+01 0. -1.
       -5    1    3    3    0  502  0.29426693858E+03 -0.87590058670E+03 -0.26694184364E+04  0.28248206576E+04  0.46999998093E+01 0.  1.
</event>
<event>
 5   0  0.3796529E-07  0.3288683E+04  0.7818609E-02  0.8165781E-01
        1   -1    0    0  501    0  0.00000000000E+00  0.00000000000E+00  0.25858050947E+04  0.25858050947E+04  0.50400001928E-02 0. -1.
       -1   -1    0    0    0  501  0.00000000000E+00  0.00000000000E+00 -0.10456545506E+04  0.10456545506E+04  0.50400001928E-02 0.  1.
    10030    2    1    2    0    0  0.00000000000E+00  0.00000000000E+00  0.15401505442E+04  0.36314596453E+04  0.32886829365E+04 0.  0.
        5    1    3    3  502    0  0.36569940654E+03 -0.15977317301E+04  0.91554059568E+03  0.18774236095E+04  0.46999998093E+01 0.  1.
       -5    1    3    3    0  502 -0.36569940654E+03  0.15977317301E+04  0.62460994849E+03  0.17540360358E+04  0.46999998093E+01 0. -1.
</event>
<event>
 5   0  0.1116462E-06  0.3311250E+04  0.7818609E-02  0.8160039E-01
       -2   -1    0    0    0  501  0.00000000000E+00  0.00000000000E+00  0.11931111800E+04  0.11931111800E+04  0.25500000920E-02 0.  1.
        2   -1    0    0  501    0  0.00000000000E+00  0.00000000000E+00 -0.22974339408E+04  0.22974339408E+04  0.25500000920E-02 0. -1.
    10030    2    1    2    0    0  0.00000000000E+00  0.00000000000E+00 -0.11043227608E+04  0.34905451208E+04  0.33112499876E+04 0.  0.
        1    1    3    3  502    0 -0.12428642753E+04 -0.31263230952E+03 -0.16570784738E+04  0.20948411959E+04  0.50400001928E-02 0. -1.
       -1    1    3    3    0  502  0.12428642753E+04  0.31263230952E+03  0.55275571300E+03  0.13957039249E+04  0.50400001928E-02 0.  1.
</event>
<event>
 5   0  0.1146799E-06  0.3321953E+04  0.7818609E-02  0.8157332E-01
        2   -1    0    0  501    0  0.00000000000E+00  0.00000000000E+00  0.21117433398E+04  0.21117433398E+04  0.25500000920E-02 0. -1.
       -2   -1    0    0    0  501  0.00000000000E+00  0.00000000000E+00 -0.13064293790E+04  0.13064293790E+04  0.25500000920E-02 0.  1.
    10030    2    1    2    0    0  0.00000000000E+00  0.00000000000E+00  0.80531396083E+03  0.34181727188E+04  0.33219533651E+04 0.  0.
        5    1    3    3  502    0  0.82436858107E+03 -0.14200861049E+04  0.14522377747E+03  0.16484356640E+04  0.46999998093E+01 0. -1.
       -5    1    3    3    0  502 -0.82436858107E+03  0.14200861049E+04  0.66009018335E+03  0.17697370548E+04  0.46999998093E+01 0.  1.
</event>
<event>
 5   0  0.1146799E-06  0.3318496E+04  0.7818609E-02  0.8158205E-01
       -2   -1    0    0    0  501  0.00000000000E+00  0.00000000000E+00  0.17961747062E+04  0.17961747062E+04  0.25500000920E-02 0. -1.
        2   -1    0    0  501    0  0.00000000000E+00  0.00000000000E+00 -0.15327595265E+04  0.15327595265E+04  0.25500000920E-02 0.  1.
    10030    2    1    2    0    0  0.00000000000E+00  0.00000000000E+00  0.26341517961E+03  0.33289342327E+04  0.33184959799E+04 0.  0.
        5    1    3    3  502    0 -0.13522777582E+04  0.33873695763E+03 -0.77094718137E+03  0.15930409625E+04  0.46999998093E+01 0.  1.
       -5    1    3    3    0  502  0.13522777582E+04 -0.33873695763E+03  0.10343623610E+04  0.17358932702E+04  0.46999998093E+01 0. -1.
</event>
<event>
 5   0  0.3709747E-07  0.3298197E+04  0.7818609E-02  0.8163354E-01
       -1   -1    0    0    0  501  0.00000000000E+00  0.00000000000E+00  0.17238547928E+04  0.17238547928E+04  0.50400001928E-02 0.  1.
        1   -1    0    0  501    0  0.00000000000E+00  0.00000000000E+00 -0.15775840905E+04  0.15775840905E+04  0.50400001928E-02 0. -1.
    10030    2    1    2    0    0  0.00000000000E+00  0.00000000000E+00  0.14627070228E+03  0.33014388832E+04  0.32981970198E+04 0.  0.
        4    1    3    3  502    0  0.86495933877E+03 -0.12985267019E+04  0.60769962068E+03  0.16744033849E+04  0.12699999809E+01 0.  1.
       -4    1    3    3    0  502 -0.86495933877E+03  0.12985267019E+04 -0.46142891839E+03  0.16270354984E+04  0.12699999809E+01 0. -1.
</event>
<event>
 5   0  0.3709747E-07  0.3281195E+04  0.7818609E-02  0.8167697E-01
        1   -1    0    0  501    0  0.00000000000E+00  0.00000000000E+00  0.17434245990E+04  0.17434245990E+04  0.50400001928E-02 0.  1.
       -1   -1    0    0    0  501  0.00000000000E+00  0.00000000000E+00 -0.15438352416E+04  0.15438352416E+04  0.50400001928E-02 0. -1.
    10030    2    1    2    0    0  0.00000000000E+00  0.00000000000E+00  0.19958935748E+03  0.32872598406E+04  0.32811951097E+04 0.  0.
        4    1    3    3  502    0  0.79884023563E+03 -0.42204958128E+03  0.14717370456E+04  0.17269288102E+04  0.12699999809E+01 0.  1.
       -4    1    3    3    0  502 -0.79884023563E+03  0.42204958128E+03 -0.12721476881E+04  0.15603310304E+04  0.12699999809E+01 0. -1.
</event>
<event>
 5   0  0.3674967E-07  0.3294197E+04  0.7818609E-02  0.8164374E-01
        1   -1    0    0  501    0  0.00000000000E+00  0.00000000000E+00  0.16651870520E+04  0.16651870520E+04  0.50400001928E-02 0.  1.
       -1   -1    0    0    0  501  0.00000000000E+00  0.00000000000E+00 -0.16292061791E+04  0.16292061791E+04  0.50400001928E-02 0. -1.
    10030    2    1    2    0    0  0.00000000000E+00  0.00000000000E+00  0.35980872839E+02  0.32943932311E+04  0.32941967364E+04 0.  0.
        2    1    3    3  502    0 -0.45133547621E+02 -0.11809103876E+04  0.11653803856E+04  0.16597282379E+04  0.25500000920E-02 0.  1.
       -2    1    3    3    0  502  0.45133547621E+02  0.11809103876E+04 -0.11293995128E+04  0.16346649932E+04  0.25500000920E-02 0. -1.
</event>
<event>
 5   0  0.1116462E-06  0.3446883E+04  0.7818609E-02  0.8126495E-01
       -2   -1    0    0    0  501  0.00000000000E+00  0.00000000000E+00  0.10752971076E+04  0.10752971076E+04  0.25500000920E-02 0. -1.
        2   -1    0    0  501    0  0.00000000000E+00  0.00000000000E+00 -0.27622601634E+04  0.27622601634E+04  0.25500000920E-02 0.  1.
    10030    2    1    2    0    0  0.00000000000E+00  0.00000000000E+00 -0.16869630558E+04  0.38375572711E+04  0.34468828610E+04 0.  0.
        1    1    3    3  502    0 -0.55062318639E+03  0.25796918209E+03 -0.26388687975E+04  0.27080181910E+04  0.50400001928E-02 0.  1.
       -1    1    3    3    0  502  0.55062318639E+03 -0.25796918209E+03  0.95190574172E+03  0.11295390801E+04  0.50400001928E-02 0. -1.
</event>
<event>
 5   0  0.1146799E-06  0.3305780E+04  0.7818609E-02  0.8161426E-01
        2   -1    0    0  501    0  0.00000000000E+00  0.00000000000E+00  0.18051807268E+04  0.18051807268E+04  0.25500000920E-02 0.  1.
       -2   -1    0    0    0  501  0.00000000000E+00  0.00000000000E+00 -0.15134470040E+04  0.15134470040E+04  0.25500000920E-02 0. -1.
    10030    2    1    2    0    0  0.00000000000E+00  0.00000000000E+00  0.29173372282E+03  0.33186277308E+04  0.33057800064E+04 0.  0.
        5    1    3    3  502    0  0.38149564223E+03  0.14507075614E+04 -0.55104432361E+03  0.15980498397E+04  0.46999998093E+01 0. -1.
       -5    1    3    3    0  502 -0.38149564223E+03 -0.14507075614E+04  0.84277804643E+03  0.17205778911E+04  0.46999998093E+01 0.  1.
</event>
<event>
 5   0  0.1129434E-06  0.3309886E+04  0.7818609E-02  0.8160384E-01
        2   -1    0    0  501    0  0.00000000000E+00  0.00000000000E+00  0.32815236444E+04  0.32815236444E+04  0.25500000920E-02 0. -1.
       -2   -1    0    0    0  501  0.00000000000E+00  0.00000000000E+00 -0.83462334261E+03  0.83462334261E+03  0.25500000920E-02 0.  1.
    10030    2    1    2    0    0  0.00000000000E+00  0.00000000000E+00  0.24469003018E+04  0.41161469870E+04  0.33098859394E+04 0.  0.
        3    1    3    3  502    0 -0.18788990012E+03  0.54178678380E+03 -0.70712374824E+03  0.91041723358E+03  0.10100000352E+00 0.  1.
       -3    1    3    3    0  502  0.18788990012E+03 -0.54178678380E+03  0.31540240500E+04  0.32057297534E+04  0.10100000352E+00 0. -1.
</event>
<event>
 5   0  0.3757406E-07  0.3306640E+04  0.7818609E-02  0.8161208E-01
       -1   -1    0    0    0  501  0.00000000000E+00  0.00000000000E+00  0.99567325433E+03  0.99567325434E+03  0.50400001928E-02 0.  1.
        1   -1    0    0  501    0  0.00000000000E+00  0.00000000000E+00 -0.27453450677E+04  0.27453450677E+04  0.50400001928E-02 0. -1.
    10030    2    1    2    0    0  0.00000000000E+00  0.00000000000E+00 -0.17496718134E+04  0.37410183220E+04  0.33066397795E+04 0.  0.
        1    1    3    3  502    0 -0.15013824604E+04  0.55298320792E+03 -0.13461239260E+04  0.20909302583E+04  0.50400001928E-02 0. -1.
       -1    1    3    3    0  502  0.15013824604E+04 -0.55298320792E+03 -0.40354788732E+03  0.16500880638E+04  0.50400001928E-02 0.  1.
</event>
<event>
 5   0  0.1116462E-06  0.3290368E+04  0.7818609E-02  0.8165350E-01
       -2   -1    0    0    0  501  0.00000000000E+00  0.00000000000E+00  0.15816904254E+04  0.15816904254E+04  0.25500000920E-02 0. -1.
        2   -1    0    0  501    0  0.00000000000E+00  0.00000000000E+00 -0.17112268081E+04  0.17112268081E+04  0.25500000920E-02 0.  1.
    10030    2    1    2    0    0  0.00000000000E+00  0.00000000000E+00 -0.12953638274E+03  0.32929172335E+04  0.32903684037E+04 0.  0.
        1    1    3    3  502    0 -0.11956409444E+04 -0.92784420569E+03  0.58085084659E+03  0.16210613325E+04  0.50400001928E-02 0. -1.
       -1    1    3    3    0  502  0.11956409444E+04  0.92784420569E+03 -0.71038722933E+03  0.16718559009E+04  0.50400001928E-02 0.  1.
</event>
<event>
 5   0  0.3709747E-07  0.3317830E+04  0.7818609E-02  0.8158373E-01
       -1   -1    0    0    0  501  0.00000000000E+00  0.00000000000E+00  0.14994286041E+04  0.14994286041E+04  0.50400001928E-02 0. -1.
        1   -1    0    0  501    0  0.00000000000E+00  0.00000000000E+00 -0.18353652591E+04  0.18353652591E+04  0.50400001928E-02 0.  1.
    10030    2    1    2    0    0  0.00000000000E+00  0.00000000000E+00 -0.33593665499E+03  0.33347938633E+04  0.33178301153E+04 0.  0.
        4    1    3    3  502    0 -0.44944710825E+03  0.10283817608E+04 -0.13958633075E+04  0.17910912135E+04  0.12699999809E+01 0.  1.
       -4    1    3    3    0  502  0.44944710825E+03 -0.10283817608E+04  0.10599266525E+04  0.15437026497E+04  0.12699999809E+01 0. -1.
</event>
<event>
 5   0  0.1129434E-06  0.3311595E+04  0.7818609E-02  0.8159951E-01
        2   -1    0    0  501    0  0.00000000000E+00  0.00000000000E+00  0.11627193540E+04  0.11627193540E+04  0.25500000920E-02 0.  1.
       -2   -1    0    0    0  501  0.00000000000E+00  0.00000000000E+00 -0.23579773716E+04  0.23579773716E+04  0.25500000920E-02 0. -1.
    10030    2    1    2    0    0  0.00000000000E+00  0.00000000000E+00 -0.11952580176E+04  0.35206967256E+04  0.33115953414E+04 0.  0.
        3    1    3    3  502    0  0.72011767095E+02  0.33551383866E+03  0.11245007736E+04  0.11756943610E+04  0.10100000352E+00 0.  1.
       -3    1    3    3    0  502 -0.72011767095E+02 -0.33551383866E+03 -0.23197587912E+04  0.23450023646E+04  0.10100000352E+00 0. -1.
</event>
<event>
 5   0  0.1120545E-06  0.3337232E+04  0.7818609E-02  0.8153486E-01
       -2   -1    0    0    0  501  0.00000000000E+00  0.00000000000E+00  0.17365632244E+04  0.17365632244E+04  0.25500000920E-02 0. -1.
        2   -1    0    0  501    0  0.00000000000E+00  0.00000000000E+00 -0.16033273367E+04  0.16033273367E+04  0.25500000920E-02 0.  1.
    10030    2    1    2    0    0  0.00000000000E+00  0.00000000000E+00  0.13323588772E+03  0.33398905612E+04  0.33372319606E+04 0.  0.
        4    1    3    3  502    0  0.10475700982E+04  0.91721706687E+03  0.98690878209E+03  0.17066577909E+04  0.12699999809E+01 0. -1.
       -4    1    3    3    0  502 -0.10475700982E+04 -0.91721706687E+03 -0.85367289437E+03  0.16332327702E+04  0.12699999809E+01 0.  1.
</event>
<event>
 5   0  0.3757406E-07  0.3319838E+04  0.7818609E-02  0.8157866E-01
       -1   -1    0    0    0  501  0.00000000000E+00  0.00000000000E+00  0.11300593308E+04  0.11300593308E+04  0.50400001928E-02 0.  1.
        1   -1    0    0  501    0  0.00000000000E+00  0.00000000000E+00 -0.24382181813E+04  0.24382181814E+04  0.50400001928E-02 0. -1.
    10030    2    1    2    0    0  0.00000000000E+00  0.00000000000E+00 -0.13081588505E+04  0.35682775122E+04  0.33198380722E+04 0.  0.
        1    1    3    3  502    0 -0.99785507286E+03  0.12369681256E+04 -0.11690210097E+04  0.19729204270E+04  0.50400001928E-02 0. -1.
       -1    1    3    3    0  502  0.99785507286E+03 -0.12369681256E+04 -0.13913784084E+03  0.15953570851E+04  0.50400001928E-02 0.  1.
</event>
<event>
 5   0  0.1116462E-06  0.3322285E+04  0.7818609E-02  0.8157248E-01
        2   -1    0    0  501    0  0.00000000000E+00  0.00000000000E+00  0.19764659457E+04  0.19764659457E+04  0.25500000920E-02 0.  1.
       -2   -1    0    0    0  501  0.00000000000E+00  0.00000000000E+00 -0.13961255563E+04  0.13961255563E+04  0.25500000920E-02 0. -1.
    10030    2    1    2    0    0  0.00000000000E+00  0.00000000000E+00  0.58034038938E+03  0.33725915019E+04  0.33222851280E+04 0.  0.
        1    1    3    3  502    0  0.20224389637E+03 -0.12129333098E+04  0.14239002395E+04  0.18813829222E+04  0.50400001928E-02 0.  1.
       -1    1    3    3    0  502 -0.20224389637E+03  0.12129333098E+04 -0.84355985014E+03  0.14912085798E+04  0.50400001928E-02 0. -1.
</event>
<event>
 5   0  0.3796529E-07  0.3301497E+04  0.7818609E-02  0.8162515E-01
        1   -1    0    0  501    0  0.00000000000E+00  0.00000000000E+00  0.16498839546E+04  0.16498839546E+04  0.50400001928E-02 0. -1.
       -1   -1    0    0    0  501  0.00000000000E+00  0.00000000000E+00 -0.16516137774E+04  0.16516137774E+04  0.50400001928E-02 0.  1.
    10030    2    1    2    0    0  0.00000000000E+00  0.00000000000E+00 -0.17298228238E+01  0.33014977321E+04  0.33014972789E+04 0.  0.
        5    1    3    3  502    0 -0.57235784618E+03 -0.48527031776E+03  0.14694645716E+04  0.16499784855E+04  0.46999998093E+01 0. -1.
       -5    1    3    3    0  502  0.57235784618E+03  0.48527031776E+03 -0.14711943945E+04  0.16515192465E+04  0.46999998093E+01 0.  1.
</event>
<event>
 5   0  0.3796529E-07  0.3272958E+04  0.7818609E-02  0.8169810E-01
       -1   -1    0    0    0  501  0.00000000000E+00  0.00000000000E+00  0.11379826425E+04  0.11379826425E+04  0.50400001928E-02 0.  1.
        1   -1    0    0  501    0  0.00000000000E+00  0.00000000000E+00 -0.23533436380E+04  0.23533436380E+04  0.50400001928E-02 0. -1.
    10030    2    1    2    0    0  0.00000000000E+00  0.00000000000E+00 -0.12153609955E+04  0.34913262806E+04  0.32729584244E+04 0.  0.
        5    1    3    3  502    0 -0.73611005415E+03  0.90406582132E+03 -0.18327126933E+04  0.21721074852E+04  0.46999998093E+01 0. -1.
       -5    1    3    3    0  502  0.73611005415E+03 -0.90406582132E+03  0.61735169786E+03  0.13192187953E+04  0.46999998093E+01 0.  1.
</event>
<event>
 5   0  0.3757406E-07  0.3320825E+04  0.7818609E-02  0.8157617E-01
       -1   -1    0    0    0  501  0.00000000000E+00  0.00000000000E+00  0.96942210360E+03  0.96942210361E+03  0.50400001928E-02 0.  1.
        1   -1    0    0  501    0  0.00000000000E+00  0.00000000000E+00 -0.28439307346E+04  0.28439307346E+04  0.50400001928E-02 0. -1.
    10030    2    1    2    0    0  0.00000000000E+00  0.00000000000E+00 -0.18745086310E+04  0.38133528383E+04  0.33208247863E+04 0.  0.
        1    1    3    3  502    0  0.60141746174E+03  0.84400607760E+03  0.55242496393E+03  0.11744030667E+04  0.50400001928E-02 0.  1.
       -1    1    3    3    0  502 -0.60141746174E+03 -0.84400607760E+03 -0.24269335950E+04  0.26389497715E+04  0.50400001928E-02 0. -1.
</event>
<event>
 5   0  0.3749685E-07  0.3337968E+04  0.7818609E-02  0.8153301E-01
        1   -1    0    0  501    0  0.00000000000E+00  0.00000000000E+00  0.18504459010E+04  0.18504459010E+04  0.50400001928E-02 0.  1.
       -1   -1    0    0    0  501  0.00000000000E+00  0.00000000000E+00 -0.15053169157E+04  0.15053169157E+04  0.50400001928E-02 0. -1.
    10030    2    1    2    0    0  0.00000000000E+00  0.00000000000E+00  0.34512898529E+03  0.33557628166E+04  0.33379679545E+04 0.  0.
        3    1    3    3  502    0  0.49246239588E+03  0.44049363979E+03 -0.13682356785E+04  0.15194152626E+04  0.10100000352E+00 0. -1.
       -3    1    3    3    0  502 -0.49246239588E+03 -0.44049363979E+03  0.17133646638E+04  0.18363475541E+04  0.10100000352E+00 0.  1.
</event>
<event>
 5   0  0.3749685E-07  0.3304661E+04  0.7818609E-02  0.8161710E-01
       -1   -1    0    0    0  501  0.00000000000E+00  0.00000000000E+00  0.17969948006E+04  0.17969948006E+04  0.50400001928E-02 0.  1.
        1   -1    0    0  501    0  0.00000000000E+00  0.00000000000E+00 -0.15193123697E+04  0.15193123697E+04  0.50400001928E-02 0. -1.
    10030    2    1    2    0    0  0.00000000000E+00  0.00000000000E+00  0.27768243094E+03  0.33163071704E+04  0.33046612104E+04 0.  0.
        3    1    3    3  502    0  0.10525048889E+04 -0.44891106682E+03  0.13350607732E+04  0.17583159458E+04  0.10100000352E+00 0.  1.
       -3    1    3    3    0  502 -0.10525048889E+04  0.44891106682E+03 -0.10573783422E+04  0.15579912246E+04  0.10100000352E+00 0. -1.
</event>
<event>
 5   0  0.3709747E-07  0.3290514E+04  0.7818609E-02  0.8165313E-01
       -1   -1    0    0    0  501  0.00000000000E+00  0.00000000000E+00  0.11139847538E+04  0.11139847538E+04  0.50400001928E-02 0. -1.
        1   -1    0    0  501    0  0.00000000000E+00  0.00000000000E+00 -0.24298989234E+04  0.24298989234E+04  0.50400001928E-02 0.  1.
    10030    2    1    2    0    0  0.00000000000E+00  0.00000000000E+00 -0.13159141696E+04  0.35438836772E+04  0.32905138528E+04 0.  0.
        4    1    3    3  502    0 -0.51116115688E+03 -0.91457262514E+02  0.10234116801E+04  0.11476163292E+04  0.12699999809E+01 0. -1.
       -4    1    3    3    0  502  0.51116115688E+03  0.91457262514E+02 -0.23393258497E+04  0.23962673480E+04  0.12699999809E+01 0.  1.
</event>
<event>
 5   0  0.3749685E-07  0.3327116E+04  0.7818609E-02  0.8156030E-01
        1   -1    0    0  501    0  0.00000000000E+00  0.00000000000E+00  0.20389344443E+04  0.20389344443E+04  0.50400001928E-02 0.  1.
       -1   -1    0    0    0  501  0.00000000000E+00  0.00000000000E+00 -0.13572900546E+04  0.13572900546E+04  0.50400001928E-02 0. -1.
    10030    2    1    2    0    0  0.00000000000E+00  0.00000000000E+00  0.68164438977E+03  0.33962244989E+04  0.33271161346E+04 0.  0.
        3    1    3    3  502    0 -0.37772654615E+02 -0.99805151659E+03  0.16988285187E+04  0.19706729686E+04  0.10100000352E+00 0.  1.
       -3    1    3    3    0  502  0.37772654615E+02  0.99805151659E+03 -0.10171841289E+04  0.14255515303E+04  0.10100000352E+00 0. -1.
</event>
<event>
 5   0  0.3757406E-07  0.3394633E+04  0.7818609E-02  0.8139225E-01
       -1   -1    0    0    0  501  0.00000000000E+00  0.00000000000E+00  0.20378315767E+04  0.20378315767E+04  0.50400001928E-02 0. -1.
        1   -1    0    0  501    0  0.00000000000E+00  0.00000000000E+00 -0.14137006439E+04  0.14137006439E+04  0.50400001928E-02 0.  1.
    10030    2    1    2    0    0  0.00000000000E+00  0.00000000000E+00  0.62413093285E+03  0.34515322206E+04  0.33946333011E+04 0.  0.
        1    1    3    3  502    0  0.50899663154E+02  0.13557643528E+04  0.13490604752E+04  0.19132830219E+04  0.50400001928E-02 0. -1.
       -1    1    3    3    0  502 -0.50899663154E+02 -0.13557643528E+04 -0.72492954237E+03  0.15382491987E+04  0.50400001928E-02 0.  1.
</event>
<event>
 5   0  0.3796529E-07  0.3011473E+04  0.7818609E-02  0.8240462E-01
        1   -1    0    0  501    0  0.00000000000E+00  0.00000000000E+00  0.82161157825E+03  0.82161157827E+03  0.50400001928E-02 0.  1.
       -1   -1    0    0    0  501  0.00000000000E+00  0.00000000000E+00 -0.27595054937E+04  0.27595054937E+04  0.50400001928E-02 0. -1.
    10030    2    1    2    0    0  0.00000000000E+00  0.00000000000E+00 -0.19378939155E+04  0.35811170720E+04  0.30114725062E+04 0.  0.
        5    1    3    3  502    0 -0.92364666355E+02  0.11473216800E+03  0.81301550489E+03  0.82626327714E+03  0.46999998093E+01 0.  1.
       -5    1    3    3    0  502  0.92364666355E+02 -0.11473216800E+03 -0.27509094204E+04  0.27548537948E+04  0.46999998093E+01 0. -1.
</event>
<event>
 5   0  0.1129434E-06  0.3261713E+04  0.7818609E-02  0.8172707E-01
       -2   -1    0    0    0  501  0.00000000000E+00  0.00000000000E+00  0.14106273559E+04  0.14106273559E+04  0.25500000920E-02 0. -1.
        2   -1    0    0  501    0  0.00000000000E+00  0.00000000000E+00 -0.18854676368E+04  0.18854676368E+04  0.25500000920E-02 0.  1.
    10030    2    1    2    0    0  0.00000000000E+00  0.00000000000E+00 -0.47484028090E+03  0.32960949927E+04  0.32617125729E+04 0.  0.
        3    1    3    3  502    0  0.10008259403E+04 -0.74216919732E+03 -0.13007594826E+04  0.18012337222E+04  0.10100000352E+00 0.  1.
       -3    1    3    3    0  502 -0.10008259403E+04  0.74216919732E+03  0.82591920166E+03  0.14948612705E+04  0.10100000352E+00 0. -1.
</event>
<event>
 5   0  0.1126221E-06  0.3320196E+04  0.7818609E-02  0.8157776E-01
       -2   -1    0    0    0  501  0.00000000000E+00  0.00000000000E+00  0.19661446747E+04  0.19661446747E+04  0.25500000920E-02 0. -1.
        2   -1    0    0  501    0  0.00000000000E+00  0.00000000000E+00 -0.14016897640E+04  0.14016897640E+04  0.25500000920E-02 0.  1.
    10030    2    1    2    0    0  0.00000000000E+00  0.00000000000E+00  0.56445491070E+03  0.33678344388E+04  0.33201956962E+04 0.  0.
        2    1    3    3  502    0  0.10545969862E+04 -0.88535432694E+03 -0.65838443552E+03  0.15262690302E+04  0.25500000920E-02 0.  1.
       -2    1    3    3    0  502 -0.10545969862E+04  0.88535432694E+03  0.12228393462E+04  0.18415654086E+04  0.25500000920E-02 0. -1.
</event>
<event>
 5   0  0.3796529E-07  0.3277573E+04  0.7818609E-02  0.8168625E-01
        1   -1    0    0  501    0  0.00000000000E+00  0.00000000000E+00  0.17132688297E+04  0.17132688297E+04  0.50400001928E-02 0.  1.
       -1   -1    0    0    0  501  0.00000000000E+00  0.00000000000E+00 -0.15675422380E+04  0.15675422380E+04  0.50400001928E-02 0. -1.
    10030    2    1    2    0    0  0.00000000000E+00  0.00000000000E+00  0.14572659171E+03  0.32808110677E+04  0.32775730385E+04 0.  0.
        5    1    3    3  502    0  0.14828620660E+04  0.65810465248E+03 -0.15892004844E+03  0.16301102148E+04  0.46999998093E+01 0.  1.
       -5    1    3    3    0  502 -0.14828620660E+04 -0.65810465248E+03  0.30464664015E+03  0.16507008529E+04  0.46999998093E+01 0. -1.
</event>
<event>
 5   0  0.1129434E-06  0.3303180E+04  0.7818609E-02  0.8162087E-01
       -2   -1    0    0    0  501  0.00000000000E+00  0.00000000000E+00  0.11731290199E+04  0.11731290199E+04  0.25500000920E-02 0. -1.
        2   -1    0    0  501    0  0.00000000000E+00  0.00000000000E+00 -0.23251912279E+04  0.23251912279E+04  0.25500000920E-02 0.  1.
    10030    2    1    2    0    0  0.00000000000E+00  0.00000000000E+00 -0.11520622080E+04  0.34983202478E+04  0.33031798657E+04 0.  0.
        3    1    3    3  502    0 -0.15010808117E+04 -0.42033851922E+03 -0.11540009246E+04  0.19394963826E+04  0.10100000352E+00 0.  1.
       -3    1    3    3    0  502  0.15010808117E+04  0.42033851922E+03  0.19387166411E+01  0.15588238652E+04  0.10100000352E+00 0. -1.
</event>
<event>
 5   0  0.1116462E-06  0.3314968E+04  0.7818609E-02  0.8159097E-01
        2   -1    0    0  501    0  0.00000000000E+00  0.00000000000E+00  0.31604834879E+04  0.31604834879E+04  0.25500000920E-02 0.  1.
       -2   -1    0    0    0  501  0.00000000000E+00  0.00000000000E+00 -0.86925095808E+03  0.86925095808E+03  0.25500000920E-02 0. -1.
    10030    2    1    2    0    0  0.00000000000E+00  0.00000000000E+00  0.22912325298E+04  0.40297344460E+04  0.33149680541E+04 0.  0.
        1    1    3    3  502    0  0.10568068206E+04 -0.12239973251E+03  0.26906617870E+04  0.28933515519E+04  0.50400001928E-02 0.  1.
       -1    1    3    3    0  502 -0.10568068206E+04  0.12239973251E+03 -0.39942925718E+03  0.11363828941E+04  0.50400001928E-02 0. -1.
</event>
<event>
 5   0  0.1120545E-06  0.3296496E+04  0.7818609E-02  0.8163788E-01
        2   -1    0    0  501    0  0.00000000000E+00  0.00000000000E+00  0.29233055272E+04  0.29233055272E+04  0.25500000920E-02 0. -1.
       -2   -1    0    0    0  501  0.00000000000E+00  0.00000000000E+00 -0.92933212041E+03  0.92933212041E+03  0.25500000920E-02 0.  1.
    10030    2    1    2    0    0  0.00000000000E+00  0.00000000000E+00  0.19939734068E+04  0.38526376477E+04  0.32964961545E+04 0.  0.
        4    1    3    3  502    0  0.71219808629E+02 -0.12565957407E+04 -0.24680238997E+03  0.12825826091E+04  0.12699999809E+01 0.  1.
       -4    1    3    3    0  502 -0.71219808629E+02  0.12565957407E+04  0.22407757968E+04  0.25700550385E+04  0.12699999809E+01 0. -1.
</event>
<event>
 5   0  0.1126221E-06  0.3300039E+04  0.7818609E-02  0.8162885E-01
       -2   -1    0    0    0  501  0.00000000000E+00  0.00000000000E+00  0.16104064812E+04  0.16104064812E+04  0.25500000920E-02 0.  1.
        2   -1    0    0  501    0  0.00000000000E+00  0.00000000000E+00 -0.16906073816E+04  0.16906073816E+04  0.25500000920E-02 0. -1.
    10030    2    1    2    0    0  0.00000000000E+00  0.00000000000E+00 -0.80200900449E+02  0.33010138628E+04  0.33000394450E+04 0.  0.
        2    1    3    3  502    0  0.48724112079E+03  0.16700045992E+02 -0.16169168458E+04  0.16888170083E+04  0.25500000920E-02 0. -1.
       -2    1    3    3    0  502 -0.48724112079E+03 -0.16700045992E+02  0.15367159453E+04  0.16121968546E+04  0.25500000920E-02 0.  1.
</event>
<event>
 5   0  0.3796529E-07  0.3300661E+04  0.7818609E-02  0.8162727E-01
        1   -1    0    0  501    0  0.00000000000E+00  0.00000000000E+00  0.15619035091E+04  0.15619035091E+04  0.50400001928E-02 0. -1.
       -1   -1    0    0    0  501  0.00000000000E+00  0.00000000000E+00 -0.17437634491E+04  0.17437634491E+04  0.50400001928E-02 0.  1.
    10030    2    1    2    0    0  0.00000000000E+00  0.00000000000E+00 -0.18185994002E+03  0.33056669582E+04  0.33006606916E+04 0.  0.
        5    1    3    3  502    0  0.86917539081E+03 -0.59406624959E+03 -0.13637579114E+04  0.17228575971E+04  0.46999998093E+01 0.  1.
       -5    1    3    3    0  502 -0.86917539081E+03  0.59406624959E+03  0.11818979714E+04  0.15828093611E+04  0.46999998093E+01 0. -1.
</event>
<event>
 5   0  0.1126221E-06  0.3244061E+04  0.7818609E-02  0.8177277E-01
        2   -1    0    0  501    0  0.00000000000E+00  0.00000000000E+00  0.19740343187E+04  0.19740343187E+04  0.25500000920E-02 0. -1.
       -2   -1    0    0    0  501  0.00000000000E+00  0.00000000000E+00 -0.13327946450E+04  0.13327946450E+04  0.25500000920E-02 0.  1.
    10030    2    1    2    0    0  0.00000000000E+00  0.00000000000E+00  0.64123967364E+03  0.33068289637E+04  0.32440606462E+04 0.  0.
        2    1    3    3  502    0 -0.11515308217E+04  0.47353204052E+03 -0.73907465561E+03  0.14479251270E+04  0.25500000920E-02 0.  1.
       -2    1    3    3    0  502  0.11515308217E+04 -0.47353204052E+03  0.13803143293E+04  0.18589038368E+04  0.25500000920E-02 0. -1.
</event>
<event>
 5   0  0.3796529E-07  0.3346388E+04  0.7818609E-02  0.8151191E-01
        1   -1    0    0  501    0  0.00000000000E+00  0.00000000000E+00  0.23628249339E+04  0.23628249340E+04  0.50400001928E-02 0. -1.
       -1   -1    0    0    0  501  0.00000000000E+00  0.00000000000E+00 -0.11848439113E+04  0.11848439113E+04  0.50400001928E-02 0.  1.
    10030    2    1    2    0    0  0.00000000000E+00  0.00000000000E+00  0.11779810226E+04  0.35476688453E+04  0.33463883436E+04 0.  0.
        5    1    3    3  502    0 -0.94423097212E+03 -0.80976601932E+03 -0.59736430714E+03  0.13799128017E+04  0.46999998093E+01 0.  1.
       -5    1    3    3    0  502  0.94423097212E+03  0.80976601932E+03  0.17753453298E+04  0.21677560436E+04  0.46999998093E+01 0. -1.
</event>
<event>
 5   0  0.3709747E-07  0.3303955E+04  0.7818609E-02  0.8161890E-01
        1   -1    0    0  501    0  0.00000000000E+00  0.00000000000E+00  0.19707701973E+04  0.19707701973E+04  0.50400001928E-02 0.  1.
       -1   -1    0    0    0  501  0.00000000000E+00  0.00000000000E+00 -0.13847526427E+04  0.13847526427E+04  0.50400001928E-02 0. -1.
    10030    2    1    2    0    0  0.00000000000E+00  0.00000000000E+00  0.58601755458E+03  0.33555228400E+04  0.33039547447E+04 0.  0.
        4    1    3    3  502    0 -0.10733768552E+04  0.73817792861E+03  0.13247300887E+04  0.18579440111E+04  0.12699999809E+01 0. -1.
       -4    1    3    3    0  502  0.10733768552E+04 -0.73817792861E+03 -0.73871253416E+03  0.14975788288E+04  0.12699999809E+01 0.  1.
</event>
<event>
 5   0  0.3674967E-07  0.3360535E+04  0.7818609E-02  0.8147661E-01
       -1   -1    0    0    0  501  0.00000000000E+00  0.00000000000E+00  0.14377963652E+04  0.14377963652E+04  0.50400001928E-02 0.  1.
        1   -1    0    0  501    0  0.00000000000E+00  0.00000000000E+00 -0.19636293908E+04  0.19636293908E+04  0.50400001928E-02 0. -1.
    10030    2    1    2    0    0  0.00000000000E+00  0.00000000000E+00 -0.52583302565E+03  0.34014257560E+04  0.33605351959E+04 0.  0.
        2    1    3    3  502    0  0.58450722735E+03  0.53386271943E+03 -0.17630575794E+04  0.19326226043E+04  0.25500000920E-02 0. -1.
       -2    1    3    3    0  502 -0.58450722735E+03 -0.53386271943E+03  0.12372245538E+04  0.14688031517E+04  0.25500000920E-02 0.  1.
</event>
<event>
 5   0  0.3709747E-07  0.3281694E+04  0.7818609E-02  0.8167569E-01
       -1   -1    0    0    0  501  0.00000000000E+00  0.00000000000E+00  0.15351005979E+04  0.15351005979E+04  0.50400001928E-02 0.  1.
        1   -1    0    0  501    0  0.00000000000E+00  0.00000000000E+00 -0.17538776731E+04  0.17538776731E+04  0.50400001928E-02 0. -1.
    10030    2    1    2    0    0  0.00000000000E+00  0.00000000000E+00 -0.21877707527E+03  0.32889782710E+04  0.32816938703E+04 0.  0.
        4    1    3    3  502    0  0.58791190735E+03  0.15105039830E+03  0.14184362939E+04  0.15428609031E+04  0.12699999809E+01 0.  1.
       -4    1    3    3    0  502 -0.58791190735E+03 -0.15105039830E+03 -0.16372133691E+04  0.17461173679E+04  0.12699999809E+01 0. -1.
</event>
<event>
 5   0  0.1116462E-06  0.3282335E+04  0.7818609E-02  0.8167405E-01
        2   -1    0    0  501    0  0.00000000000E+00  0.00000000000E+00  0.19816276022E+04  0.19816276022E+04  0.25500000920E-02 0. -1.
       -2   -1    0    0    0  501  0.00000000000E+00  0.00000000000E+00 -0.13592014233E+04  0.13592014233E+04  0.25500000920E-02 0.  1.
    10030    2    1    2    0    0  0.00000000000E+00  0.00000000000E+00  0.62242617884E+03  0.33408290255E+04  0.32823351793E+04 0.  0.
        1    1    3    3  502    0 -0.95488676686E+03  0.10817327284E+04  0.11071181249E+04  0.18186987039E+04  0.50400001928E-02 0. -1.
       -1    1    3    3    0  502  0.95488676686E+03 -0.10817327284E+04 -0.48469194608E+03  0.15221303215E+04  0.50400001928E-02 0.  1.
</event>
<event>
 5   0  0.1120545E-06  0.3182122E+04  0.7818609E-02  0.8193555E-01
        2   -1    0    0  501    0  0.00000000000E+00  0.00000000000E+00  0.17666156792E+04  0.17666156792E+04  0.25500000920E-02 0.  1.
       -2   -1    0    0    0  501  0.00000000000E+00  0.00000000000E+00 -0.14329522423E+04  0.14329522423E+04  0.25500000920E-02 0. -1.
    10030    2    1    2    0    0  0.00000000000E+00  0.00000000000E+00  0.33366343683E+03  0.31995679215E+04  0.31821224985E+04 0.  0.
        4    1    3    3  502    0 -0.27350228801E+03 -0.12557188713E+04  0.11099724762E+04  0.16981383618E+04  0.12699999809E+01 0.  1.
       -4    1    3    3    0  502  0.27350228801E+03  0.12557188713E+04 -0.77630903934E+03  0.15014295597E+04  0.12699999809E+01 0. -1.
</event>
<event>
 5   0  0.3749685E-07  0.3301920E+04  0.7818609E-02  0.8162407E-01
       -1   -1    0    0    0  501  0.00000000000E+00  0.00000000000E+00  0.12332049626E+04  0.12332049626E+04  0.50400001928E-02 0.  1.
        1   -1    0    0  501    0  0.00000000000E+00  0.00000000000E+00 -0.22102325003E+04  0.22102325003E+04  0.50400001928E-02 0. -1.
    10030    2    1    2    0    0  0.00000000000E+00  0.00000000000E+00 -0.97702753775E+03  0.34434374629E+04  0.33019204641E+04 0.  0.
        3    1    3    3  502    0  0.73394158365E+03 -0.96173829424E+03  0.68304856669E+03  0.13893041962E+04  0.10100000352E+00 0.  1.
       -3    1    3    3    0  502 -0.73394158365E+03  0.96173829424E+03 -0.16600761044E+04  0.20541332667E+04  0.10100000352E+00 0. -1.
</event>
<event>
 5   0  0.1129434E-06  0.3215312E+04  0.7818609E-02  0.8184785E-01
        2   -1    0    0  501    0  0.00000000000E+00  0.00000000000E+00  0.12157379493E+04  0.12157379493E+04  0.25500000920E-02 0. -1.
       -2   -1    0    0    0  501  0.00000000000E+00  0.00000000000E+00 -0.21259165501E+04  0.21259165501E+04  0.25500000920E-02 0.  1.
    10030    2    1    2    0    0  0.00000000000E+00  0.00000000000E+00 -0.91017860075E+03  0.33416544994E+04  0.32153117591E+04 0.  0.
        3    1    3    3  502    0  0.60033832910E+03 -0.14762390734E+04 -0.67523697339E+03  0.17307896728E+04  0.10100000352E+00 0. -1.
       -3    1    3    3    0  502 -0.60033832910E+03  0.14762390734E+04 -0.23494162736E+03  0.16108648266E+04  0.10100000352E+00 0.  1.
</event>
<event>
 5   0  0.3749685E-07  0.3298033E+04  0.7818609E-02  0.8163396E-01
       -1   -1    0    0    0  501  0.00000000000E+00  0.00000000000E+00  0.17623030248E+04  0.17623030248E+04  0.50400001928E-02 0.  1.
        1   -1    0    0  501    0  0.00000000000E+00  0.00000000000E+00 -0.15430124643E+04  0.15430124643E+04  0.50400001928E-02 0. -1.
    10030    2    1    2    0    0  0.00000000000E+00  0.00000000000E+00  0.21929056050E+03  0.33053154891E+04  0.32980330702E+04 0.  0.
        3    1    3    3  502    0  0.88483186999E+03 -0.56991978277E+03 -0.11626142087E+04  0.15682499180E+04  0.10100000352E+00 0. -1.
       -3    1    3    3    0  502 -0.88483186999E+03  0.56991978277E+03  0.13819047692E+04  0.17370655711E+04  0.10100000352E+00 0.  1.
</event>
<event>
 5   0  0.3674967E-07  0.3292355E+04  0.7818609E-02  0.8164843E-01
       -1   -1    0    0    0  501  0.00000000000E+00  0.00000000000E+00  0.17285024586E+04  0.17285024586E+04  0.50400001928E-02 0.  1.
        1   -1    0    0  501    0  0.00000000000E+00  0.00000000000E+00 -0.15677732391E+04  0.15677732391E+04  0.50400001928E-02 0. -1.
    10030    2    1    2    0    0  0.00000000000E+00  0.00000000000E+00  0.16072921948E+03  0.32962756977E+04  0.32923547186E+04 0.  0.
        2    1    3    3  502    0 -0.14756699126E+04 -0.72163351943E+03  0.18793217868E+03  0.16533829354E+04  0.25500000920E-02 0.  1.
       -2    1    3    3    0  502  0.14756699126E+04  0.72163351943E+03 -0.27202959198E+02  0.16428927623E+04  0.25500000920E-02 0. -1.
</event>
<event>
 5   0  0.1126221E-06  0.3312072E+04  0.7818609E-02  0.8159830E-01
        2   -1    0    0  501    0  0.00000000000E+00  0.00000000000E+00  0.29401416269E+04  0.29401416269E+04  0.25500000920E-02 0. -1.
       -2   -1    0    0    0  501  0.00000000000E+00  0.00000000000E+00 -0.93276287547E+03  0.93276287548E+03  0.25500000920E-02 0.  1.
    10030    2    1    2    0    0  0.00000000000E+00  0.00000000000E+00  0.20073787514E+04  0.38729045023E+04  0.33120718339E+04 0.  0.
        2    1    3    3  502    0  0.55016932452E+03 -0.68659691265E+03  0.26442359828E+04  0.27867697320E+04  0.25500000920E-02 0. -1.
       -2    1    3    3    0  502 -0.55016932452E+03  0.68659691265E+03 -0.63685723146E+03  0.10861347704E+04  0.25500000920E-02 0.  1.
</event>
<event>
 5   0  0.3573375E-07  0.3323367E+04  0.7818609E-02  0.8156975E-01
       -3   -1    0    0    0  501  0.00000000000E+00  0.00000000000E+00  0.10619339497E+04  0.10619339545E+04  0.10100000352E+00 0. -1.
        3   -1    0    0  501    0  0.00000000000E+00  0.00000000000E+00 -0.26001545281E+04  0.26001545301E+04  0.10100000352E+00 0.  1.
    10030    2    1    2    0    0  0.00000000000E+00  0.00000000000E+00 -0.15382205784E+04  0.36620884846E+04  0.33233671962E+04 0.  0.
        1    1    3    3  502    0 -0.13583278397E+04 -0.82080581815E+03 -0.22657143137E+03  0.16031566751E+04  0.50400001928E-02 0. -1.
       -1    1    3    3    0  502  0.13583278397E+04  0.82080581815E+03 -0.13116491470E+04  0.20589318095E+04  0.50400001928E-02 0.  1.
</event>
<event>
 5   0  0.3757406E-07  0.3309580E+04  0.7818609E-02  0.8160462E-01
       -1   -1    0    0    0  501  0.00000000000E+00  0.00000000000E+00  0.12040101427E+04  0.12040101427E+04  0.50400001928E-02 0. -1.
        1   -1    0    0  501    0  0.00000000000E+00  0.00000000000E+00 -0.22743411389E+04  0.22743411389E+04  0.50400001928E-02 0.  1.
    10030    2    1    2    0    0  0.00000000000E+00  0.00000000000E+00 -0.10703309962E+04  0.34783512816E+04  0.33095799124E+04 0.  0.
        1    1    3    3  502    0  0.11941165096E+04  0.10201776684E+04 -0.10829476641E+04  0.19077348759E+04  0.50400001928E-02 0.  1.
       -1    1    3    3    0  502 -0.11941165096E+04 -0.10201776684E+04  0.12616667953E+02  0.15706164057E+04  0.50400001928E-02 0. -1.
</event>
<event>
 5   0  0.1120545E-06  0.3287216E+04  0.7818609E-02  0.8166156E-01
        2   -1    0    0  501    0  0.00000000000E+00  0.00000000000E+00  0.95666416538E+03  0.95666416539E+03  0.25500000920E-02 0.  1.
       -2   -1    0    0    0  501  0.00000000000E+00  0.00000000000E+00 -0.28238191906E+04  0.28238191906E+04  0.25500000920E-02 0. -1.
    10030    2    1    2    0    0  0.00000000000E+00  0.00000000000E+00 -0.18671550252E+04  0.37804833560E+04  0.32872156176E+04 0.  0.
        4    1    3    3  502    0  0.86850908239E+03 -0.13863877400E+04 -0.75149767015E+03  0.18003136818E+04  0.12699999809E+01 0. -1.
       -4    1    3    3    0  502 -0.86850908239E+03  0.13863877400E+04 -0.11156573551E+04  0.19801696742E+04  0.12699999809E+01 0.  1.
</event>
<event>
 5   0  0.3757406E-07  0.3249275E+04  0.7818609E-02  0.8175924E-01
        1   -1    0    0  501    0  0.00000000000E+00  0.00000000000E+00  0.14360345273E+04  0.14360345273E+04  0.50400001928E-02 0.  1.
       -1   -1    0    0    0  501  0.00000000000E+00  0.00000000000E+00 -0.18380110350E+04  0.18380110350E+04  0.50400001928E-02 0. -1.
    10030    2    1    2    0    0  0.00000000000E+00  0.00000000000E+00 -0.40197650769E+03  0.32740455623E+04  0.32492751855E+04 0.  0.
        1    1    3    3  502    0 -0.78250694180E+03 -0.11518198208E+04 -0.10442921287E+04  0.17405608475E+04  0.50400001928E-02 0. -1.
       -1    1    3    3    0  502  0.78250694180E+03  0.11518198208E+04  0.64231562100E+03  0.15334847148E+04  0.50400001928E-02 0.  1.
</event>
<event>
 5   0  0.1120545E-06  0.3312807E+04  0.7818609E-02  0.8159644E-01
        2   -1    0    0  501    0  0.00000000000E+00  0.00000000000E+00  0.27210943981E+04  0.27210943981E+04  0.25500000920E-02 0. -1.
       -2   -1    0    0    0  501  0.00000000000E+00  0.00000000000E+00 -0.10082971682E+04  0.10082971683E+04  0.25500000920E-02 0.  1.
    10030    2    1    2    0    0  0.00000000000E+00  0.00000000000E+00  0.17127972298E+04  0.37293915663E+04  0.33128065299E+04 0.  0.
        4    1    3    3  502    0  0.33230537154E+03 -0.38959286811E+03  0.26297533202E+04  0.26791441919E+04  0.12699999809E+01 0. -1.
       -4    1    3    3    0  502 -0.33230537154E+03  0.38959286811E+03 -0.91695609041E+03  0.10502473744E+04  0.12699999809E+01 0.  1.
</event>
<event>
 5   0  0.1146799E-06  0.3261522E+04  0.7818609E-02  0.8172756E-01
        2   -1    0    0  501    0  0.00000000000E+00  0.00000000000E+00  0.16121619268E+04  0.16121619268E+04  0.25500000920E-02 0.  1.
       -2   -1    0    0    0  501  0.00000000000E+00  0.00000000000E+00 -0.16495743512E+04  0.16495743512E+04  0.25500000920E-02 0. -1.
    10030    2    1    2    0    0  0.00000000000E+00  0.00000000000E+00 -0.37412424427E+02  0.32617362780E+04  0.32615217089E+04 0.  0.
        5    1    3    3  502    0  0.12360487808E+04 -0.26176991127E+03  0.10123896474E+04  0.16190413717E+04  0.46999998093E+01 0.  1.
       -5    1    3    3    0  502 -0.12360487808E+04  0.26176991127E+03 -0.10498020719E+04  0.16426949063E+04  0.46999998093E+01 0. -1.
</event>
<event>
 5   0  0.3709747E-07  0.3219779E+04  0.7818609E-02  0.8183613E-01
        1   -1    0    0  501    0  0.00000000000E+00  0.00000000000E+00  0.12956323749E+04  0.12956323749E+04  0.50400001928E-02 0. -1.
       -1   -1    0    0    0  501  0.00000000000E+00  0.00000000000E+00 -0.20003706122E+04  0.20003706122E+04  0.50400001928E-02 0.  1.
    10030    2    1    2    0    0  0.00000000000E+00  0.00000000000E+00 -0.70473823732E+03  0.32960029872E+04  0.32197794503E+04 0.  0.
        4    1    3    3  502    0  0.14666781387E+04  0.40146499470E+03 -0.89348919022E+03  0.17637016331E+04  0.12699999809E+01 0.  1.
       -4    1    3    3    0  502 -0.14666781387E+04 -0.40146499470E+03  0.18875095290E+03  0.15323013541E+04  0.12699999809E+01 0. -1.
</event>
<event>
 5   0  0.1146799E-06  0.3263007E+04  0.7818609E-02  0.8172372E-01
       -2   -1    0    0    0  501  0.00000000000E+00  0.00000000000E+00  0.24419549751E+04  0.24419549752E+04  0.25500000920E-02 0.  1.
        2   -1    0    0  501    0  0.00000000000E+00  0.00000000000E+00 -0.10900301222E+04  0.10900301222E+04  0.25500000920E-02 0. -1.
    10030    2    1    2    0    0  0.00000000000E+00  0.00000000000E+00  0.13519248530E+04  0.35319850973E+04  0.32630074961E+04 0.  0.
        5    1    3    3  502    0 -0.11452861240E+04 -0.43848747961E+03 -0.48876242699E+03  0.13201751307E+04  0.46999998093E+01 0. -1.
       -5    1    3    3    0  502  0.11452861240E+04  0.43848747961E+03  0.18406872800E+04  0.22118099666E+04  0.46999998093E+01 0.  1.
</event>
<event>
 5   0  0.3674967E-07  0.3325409E+04  0.7818609E-02  0.8156460E-01
        1   -1    0    0  501    0  0.00000000000E+00  0.00000000000E+00  0.15977430847E+04  0.15977430848E+04  0.50400001928E-02 0. -1.
       -1   -1    0    0    0  501  0.00000000000E+00  0.00000000000E+00 -0.17303070400E+04  0.17303070400E+04  0.50400001928E-02 0.  1.
    10030    2    1    2    0    0  0.00000000000E+00  0.00000000000E+00 -0.13256395526E+03  0.33280501248E+04  0.33254089118E+04 0.  0.
        2    1    3    3  502    0  0.35873327899E+03  0.10318649872E+04 -0.13207332368E+04  0.17139927655E+04  0.25500000920E-02 0.  1.
       -2    1    3    3    0  502 -0.35873327899E+03 -0.10318649872E+04  0.11881692816E+04  0.16140573593E+04  0.25500000920E-02 0. -1.
</event>
<event>
 5   0  0.1126221E-06  0.3309086E+04  0.7818609E-02  0.8160587E-01
        2   -1    0    0  501    0  0.00000000000E+00  0.00000000000E+00  0.12068405786E+04  0.12068405786E+04  0.25500000920E-02 0. -1.
       -2   -1    0    0    0  501  0.00000000000E+00  0.00000000000E+00 -0.22683292196E+04  0.22683292196E+04  0.25500000920E-02 0.  1.
    10030    2    1    2    0    0  0.00000000000E+00  0.00000000000E+00 -0.10614886410E+04  0.34751697982E+04  0.33090855219E+04 0.  0.
        2    1    3    3  502    0 -0.41708253619E+03  0.15896307710E+04 -0.73173418240E+03  0.17989771382E+04  0.25500000920E-02 0.  1.
       -2    1    3    3    0  502  0.41708253619E+03 -0.15896307710E+04 -0.32975445864E+03  0.16761926599E+04  0.25500000920E-02 0. -1.
</event>
<event>
 5   0  0.3796529E-07  0.3277490E+04  0.7818609E-02  0.8168647E-01
       -1   -1    0    0    0  501  0.00000000000E+00  0.00000000000E+00  0.16892081496E+04  0.16892081496E+04  0.50400001928E-02 0.  1.
        1   -1    0    0  501    0  0.00000000000E+00  0.00000000000E+00 -0.15897890520E+04  0.15897890520E+04  0.50400001928E-02 0. -1.
    10030    2    1    2    0    0  0.00000000000E+00  0.00000000000E+00  0.99419097557E+02  0.32789972016E+04  0.32774896630E+04 0.  0.
        5    1    3    3  502    0  0.62796001380E+03 -0.66177055390E+03 -0.13122352712E+04  0.15982044744E+04  0.46999998093E+01 0. -1.
       -5    1    3    3    0  502 -0.62796001380E+03  0.66177055390E+03  0.14116543688E+04  0.16807927272E+04  0.46999998093E+01 0.  1.
</event>
</LesHouchesEvents>
