<LesHouchesEvents version="3.0">
<header>
<!--
#*********************************************************************
#                                                                    *
#                        MadGraph5_aMC@NLO                           *
#                                                                    *
#                           Going Beyond                             *
#                                                                    *
#                   http://madgraph.hep.uiuc.edu                     *
#                   http://madgraph.phys.ucl.ac.be                   *
#                   http://amcatnlo.cern.ch                          *
#                                                                    *
#                     The MadGraph5_aMC@NLO team                     *
#                                                                    *
#....................................................................*
#                                                                    *
# This file contains all the information necessary to reproduce      *
# the events generated:                                              *
#                                                                    *
# 1. software version                                                *
# 2. proc_card          : code generation info including model       *
# 3. param_card         : model primary parameters in the LH format  *
# 4. run_card           : running parameters (collider and cuts)     *
# 5. pythia_card        : present only if pythia has been run        *
# 6. pgs_card           : present only if pgs has been run           *
# 7. delphes_cards      : present only if delphes has been run       *
#                                                                    *
#                                                                    *
#*********************************************************************
-->
<MGVersion>
#5.2.2.3
</MGVersion>
<MG5ProcCard>
#************************************************************
#*                     MadGraph5_aMC@NLO                    *
#*                                                          *
#*                *                       *                 *
#*                  *        * *        *                   *
#*                    * * * * 5 * * * *                     *
#*                  *        * *        *                   *
#*                *                       *                 *
#*                                                          *
#*                                                          *
#*         VERSION 2.2.3                 2015-02-10         *
#*                                                          *
#*    The MadGraph5_aMC@NLO Development Team - Find us at   *
#*    https://server06.fynu.ucl.ac.be/projects/madgraph     *
#*                                                          *
#************************************************************
#*                                                          *
#*               Command File for MadGraph5_aMC@NLO         *
#*                                                          *
#*     run as ./bin/mg5_aMC  filename                       *
#*                                                          *
#************************************************************
set group_subprocesses Auto
set ignore_six_quark_processes False
set loop_optimized_output True
set gauge unitary
set complex_mass_scheme False
import model sm
define p = g u c d s u~ c~ d~ s~
define j = g u c d s u~ c~ d~ s~
define l+ = e+ mu+
define l- = e- mu-
define vl = ve vm vt
define vl~ = ve~ vm~ vt~
import model Zprime_UFO
generate p p > zph, zph > j j
add process p p > zph, zph > b b~
output Dijet_signal
</MG5ProcCard>
<MGProcCard>
#*********************************************************************
#                        MadGraph/MadEvent                           *
#                   http://madgraph.hep.uiuc.edu                     *
#                                                                    *
#                          proc_card.dat                             *
#*********************************************************************
#                                                                    *
#            This Files is generated by MADGRAPH 5                   *
#                                                                    *
# WARNING: This Files is generated for MADEVENT (compatibility issue)*
#          This files is NOT a valid MG4 proc_card.dat               *
#          Running this in MG4 will NEVER reproduce the result of MG5*
#                                                                    *
#*********************************************************************
#*********************************************************************
# Process(es) requested : mg2 input                                  *
#*********************************************************************
# Begin PROCESS # This is TAG. Do not modify this line
p p > zph , zph > j j           #Process
# Be carefull the coupling are here in MG5 convention
          
end_coup           # End the couplings input

done               # this tells MG there are no more procs
# End PROCESS  # This is TAG. Do not modify this line
#*********************************************************************
# Model information                                                  *
#*********************************************************************
# Begin MODEL  # This is TAG. Do not modify this line
Zprime_UFO
# End   MODEL  # This is TAG. Do not modify this line
#*********************************************************************
# Start multiparticle definitions                                    *
#*********************************************************************
# Begin MULTIPARTICLES # This is TAG. Do not modify this line

# End  MULTIPARTICLES # This is TAG. Do not modify this line
</MGProcCard>
<MGRunCard>
#*********************************************************************
#                       MadGraph5_aMC@NLO                            *
#                                                                    *
#                     run_card.dat MadEvent                          *
#                                                                    *
#  This file is used to set the parameters of the run.               *
#                                                                    *
#  Some notation/conventions:                                        *
#                                                                    *
#   Lines starting with a '# ' are info or comments                  *
#                                                                    *
#   mind the format:   value    = variable     ! comment             *
#*********************************************************************
#
#*******************                                                 
# Running parameters
#*******************                                                 
#                                                                    
#*********************************************************************
# Tag name for the run (one word)                                    *
#*********************************************************************
  tag_1     = run_tag ! name of the run 
#*********************************************************************
# Run to generate the grid pack                                      *
#*********************************************************************
  .false.     = gridpack  !True = setting up the grid pack
#*********************************************************************
# Number of events and rnd seed                                      *
# Warning: Do not generate more than 1M events in a single run       *
# If you want to run Pythia, avoid more than 50k events in a run.    *
#*********************************************************************
  2000 = nevents ! Number of unweighted events requested 
 642 = iseed   ! rnd seed (0=assigned automatically=default))
#*********************************************************************
# Collider type and energy                                           *
# lpp: 0=No PDF, 1=proton, -1=antiproton, 2=photon from proton,      *
#                                         3=photon from electron     *
#*********************************************************************
        1     = lpp1    ! beam 1 type 
        1     = lpp2    ! beam 2 type
     4000     = ebeam1  ! beam 1 total energy in GeV
     4000     = ebeam2  ! beam 2 total energy in GeV
#*********************************************************************
# Beam polarization from -100 (left-handed) to 100 (right-handed)    *
#*********************************************************************
        0     = polbeam1 ! beam polarization for beam 1
        0     = polbeam2 ! beam polarization for beam 2
#*********************************************************************
# PDF CHOICE: this automatically fixes also alpha_s and its evol.    *
#*********************************************************************
 'nn23lo1'    = pdlabel     ! PDF set                                     
 230000    = lhaid     ! if pdlabel=lhapdf, this is the lhapdf number
#*********************************************************************
# Renormalization and factorization scales                           *
#*********************************************************************
 F        = fixed_ren_scale  ! if .true. use fixed ren scale
 F        = fixed_fac_scale  ! if .true. use fixed fac scale
 91.1880  = scale            ! fixed ren scale
 91.1880  = dsqrt_q2fact1    ! fixed fact scale for pdf1
 91.1880  = dsqrt_q2fact2    ! fixed fact scale for pdf2
 1        = scalefact        ! scale factor for event-by-event scales
#*********************************************************************
# Matching - Warning! ickkw > 1 is still beta
#*********************************************************************
 0        = ickkw            ! 0 no matching, 1 MLM, 2 CKKW matching
 1        = highestmult      ! for ickkw=2, highest mult group
 1        = ktscheme         ! for ickkw=1, 1 Durham kT, 2 Pythia pTE
 1        = alpsfact         ! scale factor for QCD emission vx
 F        = chcluster        ! cluster only according to channel diag
 T        = pdfwgt           ! for ickkw=1, perform pdf reweighting
 5        = asrwgtflavor     ! highest quark flavor for a_s reweight
 T        = clusinfo         ! include clustering tag in output
 3.0      = lhe_version       ! Change the way clustering information pass to shower.        
#*********************************************************************
#**********************************************************
#
#**********************************************************
# Automatic ptj and mjj cuts if xqcut > 0
# (turn off for VBF and single top processes)
#**********************************************************
   T  = auto_ptj_mjj  ! Automatic setting of ptj and mjj
#**********************************************************
#                                                                    
#**********************************
# BW cutoff (M+/-bwcutoff*Gamma)
#**********************************
  15  = bwcutoff      ! (M+/-bwcutoff*Gamma)
#**********************************************************
# Apply pt/E/eta/dr/mij cuts on decay products or not
# (note that etmiss/ptll/ptheavy/ht/sorted cuts always apply)
#**********************************************************
   T  = cut_decays    ! Cut decay products 
#*************************************************************
# Number of helicities to sum per event (0 = all helicities)
# 0 gives more stable result, but longer run time (needed for
# long decay chains e.g.).
# Use >=2 if most helicities contribute, e.g. pure QCD.
#*************************************************************
   0  = nhel          ! Number of helicities used per event
#*******************                                                 
# Standard Cuts
#*******************                                                 
#                                                                    
#*********************************************************************
# Minimum and maximum pt's (for max, -1 means no cut)                *
#*********************************************************************
 20  = ptj       ! minimum pt for the jets 
  0  = ptb       ! minimum pt for the b 
 10  = pta       ! minimum pt for the photons 
 10  = ptl       ! minimum pt for the charged leptons 
  0  = misset    ! minimum missing Et (sum of neutrino's momenta)
  0  = ptheavy   ! minimum pt for one heavy final state
 1.0 = ptonium   ! minimum pt for the quarkonium states
 -1  = ptjmax    ! maximum pt for the jets
 -1  = ptbmax    ! maximum pt for the b
 -1  = ptamax    ! maximum pt for the photons
 -1  = ptlmax    ! maximum pt for the charged leptons
 -1  = missetmax ! maximum missing Et (sum of neutrino's momenta)
#*********************************************************************
# Minimum and maximum E's (in the center of mass frame)              *
#*********************************************************************
  0  = ej     ! minimum E for the jets 
  0  = eb     ! minimum E for the b 
  0  = ea     ! minimum E for the photons 
  0  = el     ! minimum E for the charged leptons 
 -1   = ejmax ! maximum E for the jets
 -1   = ebmax ! maximum E for the b
 -1   = eamax ! maximum E for the photons
 -1   = elmax ! maximum E for the charged leptons
#*********************************************************************
# Maximum and minimum absolute rapidity (for max, -1 means no cut)   *
#*********************************************************************
   5  = etaj    ! max rap for the jets 
  -1  = etab    ! max rap for the b
 2.5  = etaa    ! max rap for the photons 
 2.5  = etal    ! max rap for the charged leptons 
 0.6  = etaonium ! max rap for the quarkonium states
   0  = etajmin ! min rap for the jets
   0  = etabmin ! min rap for the b
   0  = etaamin ! min rap for the photons
   0  = etalmin ! main rap for the charged leptons
#*********************************************************************
# Minimum and maximum DeltaR distance                                *
#*********************************************************************
 0.4 = drjj    ! min distance between jets 
 0   = drbb    ! min distance between b's 
 0.4 = drll    ! min distance between leptons 
 0.4 = draa    ! min distance between gammas 
 0   = drbj    ! min distance between b and jet 
 0.4 = draj    ! min distance between gamma and jet 
 0.4 = drjl    ! min distance between jet and lepton 
 0   = drab    ! min distance between gamma and b 
 0   = drbl    ! min distance between b and lepton 
 0.4 = dral    ! min distance between gamma and lepton 
 -1  = drjjmax ! max distance between jets
 -1  = drbbmax ! max distance between b's
 -1  = drllmax ! max distance between leptons
 -1  = draamax ! max distance between gammas
 -1  = drbjmax ! max distance between b and jet
 -1  = drajmax ! max distance between gamma and jet
 -1  = drjlmax ! max distance between jet and lepton
 -1  = drabmax ! max distance between gamma and b
 -1  = drblmax ! max distance between b and lepton
 -1  = dralmax ! maxdistance between gamma and lepton
#*********************************************************************
# Minimum and maximum invariant mass for pairs                       *
# WARNING: for four lepton final state mmll cut require to have      *
#          different lepton masses for each flavor!                  *           
#*********************************************************************
 0   = mmjj    ! min invariant mass of a jet pair 
 0   = mmbb    ! min invariant mass of a b pair 
 0   = mmaa    ! min invariant mass of gamma gamma pair
 0   = mmll    ! min invariant mass of l+l- (same flavour) lepton pair
 -1  = mmjjmax ! max invariant mass of a jet pair
 -1  = mmbbmax ! max invariant mass of a b pair
 -1  = mmaamax ! max invariant mass of gamma gamma pair
 -1  = mmllmax ! max invariant mass of l+l- (same flavour) lepton pair
#*********************************************************************
# Minimum and maximum invariant mass for all letpons                 *
#*********************************************************************
 0   = mmnl    ! min invariant mass for all letpons (l+- and vl) 
 -1  = mmnlmax ! max invariant mass for all letpons (l+- and vl) 
#*********************************************************************
# Minimum and maximum pt for 4-momenta sum of leptons                *
#*********************************************************************
 0   = ptllmin  ! Minimum pt for 4-momenta sum of leptons(l and vl)
 -1  = ptllmax  ! Maximum pt for 4-momenta sum of leptons(l and vl)
#*********************************************************************
# Inclusive cuts                                                     *
#*********************************************************************
 0  = xptj ! minimum pt for at least one jet  
 0  = xptb ! minimum pt for at least one b 
 0  = xpta ! minimum pt for at least one photon 
 0  = xptl ! minimum pt for at least one charged lepton 
#*********************************************************************
# Control the pt's of the jets sorted by pt                          *
#*********************************************************************
 0   = ptj1min ! minimum pt for the leading jet in pt
 0   = ptj2min ! minimum pt for the second jet in pt
 0   = ptj3min ! minimum pt for the third jet in pt
 0   = ptj4min ! minimum pt for the fourth jet in pt
 -1  = ptj1max ! maximum pt for the leading jet in pt 
 -1  = ptj2max ! maximum pt for the second jet in pt
 -1  = ptj3max ! maximum pt for the third jet in pt
 -1  = ptj4max ! maximum pt for the fourth jet in pt
 0   = cutuse  ! reject event if fails any (0) / all (1) jet pt cuts
#*********************************************************************
# Control the pt's of leptons sorted by pt                           *
#*********************************************************************
 0   = ptl1min ! minimum pt for the leading lepton in pt
 0   = ptl2min ! minimum pt for the second lepton in pt
 0   = ptl3min ! minimum pt for the third lepton in pt
 0   = ptl4min ! minimum pt for the fourth lepton in pt
 -1  = ptl1max ! maximum pt for the leading lepton in pt 
 -1  = ptl2max ! maximum pt for the second lepton in pt
 -1  = ptl3max ! maximum pt for the third lepton in pt
 -1  = ptl4max ! maximum pt for the fourth lepton in pt
#*********************************************************************
# Control the Ht(k)=Sum of k leading jets                            *
#*********************************************************************
 0   = htjmin ! minimum jet HT=Sum(jet pt)
 -1  = htjmax ! maximum jet HT=Sum(jet pt)
 0   = ihtmin  !inclusive Ht for all partons (including b)
 -1  = ihtmax  !inclusive Ht for all partons (including b)
 0   = ht2min ! minimum Ht for the two leading jets
 0   = ht3min ! minimum Ht for the three leading jets
 0   = ht4min ! minimum Ht for the four leading jets
 -1  = ht2max ! maximum Ht for the two leading jets
 -1  = ht3max ! maximum Ht for the three leading jets
 -1  = ht4max ! maximum Ht for the four leading jets
#***********************************************************************
# Photon-isolation cuts, according to hep-ph/9801442                   *
# When ptgmin=0, all the other parameters are ignored                  *
# When ptgmin>0, pta and draj are not going to be used                 *
#***********************************************************************
   0 = ptgmin ! Min photon transverse momentum
 0.4 = R0gamma ! Radius of isolation code
 1.0 = xn ! n parameter of eq.(3.4) in hep-ph/9801442
 1.0 = epsgamma ! epsilon_gamma parameter of eq.(3.4) in hep-ph/9801442
 .true. = isoEM ! isolate photons from EM energy (photons and leptons)
#*********************************************************************
# WBF cuts                                                           *
#*********************************************************************
 0   = xetamin ! minimum rapidity for two jets in the WBF case  
 0   = deltaeta ! minimum rapidity for two jets in the WBF case 
#*********************************************************************
# KT DURHAM CUT                                                      *
#*********************************************************************
 -1    =  ktdurham        
 0.4  =  dparameter 
#*********************************************************************
# maximal pdg code for quark to be considered as a light jet         *
# (otherwise b cuts are applied)                                     *
#*********************************************************************
 4 = maxjetflavor    ! Maximum jet pdg code
#*********************************************************************
# Jet measure cuts                                                   *
#*********************************************************************
 0   = xqcut   ! minimum kt jet measure between partons
#*********************************************************************
#
#*********************************************************************
# Store info for systematics studies                                 *
# WARNING: If use_syst is T, matched Pythia output is                *
#          meaningful ONLY if plotted taking matchscale              *
#          reweighting into account!                                 *
#*********************************************************************
   F  = use_syst      ! Enable systematics studies
#
#**************************************
# Parameter of the systematics study
#  will be used by SysCalc (if installed)
#**************************************                                  
#
0.5 1 2 = sys_scalefact  # factorization/renormalization scale factor
0.5 1 2 = sys_alpsfact  # \alpha_s emission scale factors
30 50 = sys_matchscale # variation of merging scale
# PDF sets and number of members (0 or none for all members).
CT10nlo.LHgrid = sys_pdf # matching scales
# MSTW2008nlo68cl.LHgrid 1  = sys_pdf
</MGRunCard>
<slha>
######################################################################
## PARAM_CARD AUTOMATICALY GENERATED BY MG5 FOLLOWING UFO MODEL   ####
######################################################################
##                                                                  ##
##  Width set on Auto will be computed following the information    ##
##        present in the decay.py files of the model.               ##
##        See  arXiv:1402.1178 for more details.                    ##
##                                                                  ##
######################################################################

###################################
## INFORMATION FOR CKMBLOCK
###################################
Block ckmblock 
    1 2.277360e-01 # cabi 

###################################
## INFORMATION FOR FRBLOCK
###################################
Block frblock 
    1 2.000000e-01 # gz 

###################################
## INFORMATION FOR MASS
###################################
Block mass 
    1 5.040000e-03 # MD 
    2 2.550000e-03 # MU 
    3 1.010000e-01 # MS 
    4 1.270000e+00 # MC 
    5 4.700000e+00 # MB 
    6 1.720000e+02 # MT 
   11 5.110000e-04 # Me 
   13 1.056600e-01 # MM 
   15 1.777000e+00 # MTA 
   23 9.118760e+01 # MZ 
   25 1.200000e+02 # MH 
  10030 2.100000e+03 # MZph 
  10031 3.000000e+02 # MZpl 
## Dependent parameters, given by model restrictions.
## Those values should be edited following the 
## analytical expression. MG5 ignores those values 
## but they are important for interfacing the output of MG5
## to external program such as Pythia.
  12 0.000000 # ve : 0.0 
  14 0.000000 # vm : 0.0 
  16 0.000000 # vt : 0.0 
  21 0.000000 # g : 0.0 
  22 0.000000 # a : 0.0 
  24 79.824360 # w+ : cmath.sqrt(MZ__exp__2/2. + cmath.sqrt(MZ__exp__4/4. - (aEW*cmath.pi*MZ__exp__2)/(Gf*sqrt__2))) 

###################################
## INFORMATION FOR SMINPUTS
###################################
Block sminputs 
    1 1.279000e+02 # aEWM1 
    2 1.166370e-05 # Gf 
    3 1.184000e-01 # aS 

###################################
## INFORMATION FOR YUKAWA
###################################
Block yukawa 
    1 5.040000e-03 # ymdo 
    2 2.550000e-03 # ymup 
    3 1.010000e-01 # yms 
    4 1.270000e+00 # ymc 
    5 4.700000e+00 # ymb 
    6 1.720000e+02 # ymt 
   11 5.110000e-04 # yme 
   13 1.056600e-01 # ymm 
   15 1.777000e+00 # ymtau 

###################################
## INFORMATION FOR DECAY
###################################
DECAY   6 1.508336e+00 # WT 
DECAY  23 2.495200e+00 # WZ 
DECAY  24 2.085000e+00 # WW 
DECAY  25 5.753088e-03 # WH 
## Dependent parameters, given by model restrictions.
## Those values should be edited following the 
## analytical expression. MG5 ignores those values 
## but they are important for interfacing the output of MG5
## to external program such as Pythia.
DECAY  1 0.000000 # d : 0.0 
DECAY  2 0.000000 # u : 0.0 
DECAY  3 0.000000 # s : 0.0 
DECAY  4 0.000000 # c : 0.0 
DECAY  5 0.000000 # b : 0.0 
DECAY  11 0.000000 # e- : 0.0 
DECAY  12 0.000000 # ve : 0.0 
DECAY  13 0.000000 # mu- : 0.0 
DECAY  14 0.000000 # vm : 0.0 
DECAY  15 0.000000 # ta- : 0.0 
DECAY  16 0.000000 # vt : 0.0 
DECAY  21 0.000000 # g : 0.0 
DECAY  22 0.000000 # a : 0.0 
DECAY  10030 0.308725 # zph : (gz__exp__2*MZph*(5 + cmath.sqrt(1 - (4*MT__exp__2)/MZph__exp__2)))/(144.*cmath.pi) 
DECAY  10031 0.132629 # zpl : (5*gz__exp__2*MZpl)/(144.*cmath.pi) 
#===========================================================
# QUANTUM NUMBERS OF NEW STATE(S) (NON SM PDG CODE)
#===========================================================

Block QNUMBERS 10030  # zph 
        1 0  # 3 times electric charge
        2 3  # number of spin states (2S+1)
        3 1  # colour rep (1: singlet, 3: triplet, 8: octet)
        4 0  # Particle/Antiparticle distinction (0=own anti)
Block QNUMBERS 10031  # zpl 
        1 0  # 3 times electric charge
        2 3  # number of spin states (2S+1)
        3 1  # colour rep (1: singlet, 3: triplet, 8: octet)
        4 0  # Particle/Antiparticle distinction (0=own anti)
</slha>
## END BANNER##
<MGGenerationInfo>
#  Number of Events        :         3953
#  Integrated weight (pb)  :  0.10057E-02
#  Max wgt                 :  0.37058E-06
#  Average wgt             :  0.25441E-06
</MGGenerationInfo>
</header>
<init>
     2212     2212  0.40000000000E+04  0.40000000000E+04 0 0  247000  247000 2   1
  0.10058752041E-02  0.24073193087E-05  0.37058280000E-06   0
</init>
<event>
 5   0  0.3480134E-06  0.2099036E+04  0.7818609E-02  0.8561668E-01
       -2   -1    0    0    0  501  0.00000000000E+00  0.00000000000E+00  0.86820375527E+03  0.86820375527E+03  0.25500000920E-02 0. -1.
        2   -1    0    0  501    0  0.00000000000E+00  0.00000000000E+00 -0.12686977085E+04  0.12686977085E+04  0.25500000920E-02 0.  1.
    10030    2    1    2    0    0  0.00000000000E+00  0.00000000000E+00 -0.40049395324E+03  0.21369014638E+04  0.20990360786E+04 0.  0.
        1    1    3    3  502    0  0.12976761299E+03  0.36950711735E+03 -0.11915230814E+04  0.12542337886E+04  0.50400001928E-02 0.  1.
       -1    1    3    3    0  502 -0.12976761299E+03 -0.36950711735E+03  0.79102912812E+03  0.88266767513E+03  0.50400001928E-02 0. -1.
</event>
<event>
 5   0  0.3480134E-06  0.2097350E+04  0.7818609E-02  0.8562412E-01
        2   -1    0    0  501    0  0.00000000000E+00  0.00000000000E+00  0.14318114860E+04  0.14318114860E+04  0.25500000920E-02 0. -1.
       -2   -1    0    0    0  501  0.00000000000E+00  0.00000000000E+00 -0.76806143564E+03  0.76806143564E+03  0.25500000920E-02 0.  1.
    10030    2    1    2    0    0  0.00000000000E+00  0.00000000000E+00  0.66375005040E+03  0.21998729217E+04  0.20973499332E+04 0.  0.
        1    1    3    3  502    0 -0.63210314609E+03  0.70452656380E+03 -0.14164284384E+03  0.95706570393E+03  0.50400001928E-02 0.  1.
       -1    1    3    3    0  502  0.63210314609E+03 -0.70452656380E+03  0.80539289424E+03  0.12428072178E+04  0.50400001928E-02 0. -1.
</event>
<event>
 5   0  0.3574927E-06  0.2100296E+04  0.7818609E-02  0.8561113E-01
       -2   -1    0    0    0  501  0.00000000000E+00  0.00000000000E+00  0.88298726491E+03  0.88298726492E+03  0.25500000920E-02 0.  1.
        2   -1    0    0  501    0  0.00000000000E+00  0.00000000000E+00 -0.12489542604E+04  0.12489542604E+04  0.25500000920E-02 0. -1.
    10030    2    1    2    0    0  0.00000000000E+00  0.00000000000E+00 -0.36596699546E+03  0.21319415253E+04  0.21002958900E+04 0.  0.
        3    1    3    3  502    0  0.97046137653E+02 -0.10399512356E+04 -0.29368713547E+03  0.10849740407E+04  0.10100000352E+00 0. -1.
       -3    1    3    3    0  502 -0.97046137653E+02  0.10399512356E+04 -0.72279859995E+02  0.10469674846E+04  0.10100000352E+00 0.  1.
</event>
<event>
 5   0  0.3480134E-06  0.2098053E+04  0.7818609E-02  0.8562102E-01
       -2   -1    0    0    0  501  0.00000000000E+00  0.00000000000E+00  0.89145702779E+03  0.89145702779E+03  0.25500000920E-02 0. -1.
        2   -1    0    0  501    0  0.00000000000E+00  0.00000000000E+00 -0.12344467571E+04  0.12344467571E+04  0.25500000920E-02 0.  1.
    10030    2    1    2    0    0  0.00000000000E+00  0.00000000000E+00 -0.34298972935E+03  0.21259037849E+04  0.20980526562E+04 0.  0.
        1    1    3    3  502    0  0.83289996804E+03 -0.63708032664E+03 -0.20125372290E+03  0.10677531364E+04  0.50400001928E-02 0.  1.
       -1    1    3    3    0  502 -0.83289996804E+03  0.63708032664E+03 -0.14173600645E+03  0.10581506485E+04  0.50400001928E-02 0. -1.
</event>
<event>
 5   0  0.3574927E-06  0.2099703E+04  0.7818609E-02  0.8561374E-01
       -2   -1    0    0    0  501  0.00000000000E+00  0.00000000000E+00  0.87017399142E+03  0.87017399143E+03  0.25500000920E-02 0. -1.
        2   -1    0    0  501    0  0.00000000000E+00  0.00000000000E+00 -0.12666294789E+04  0.12666294789E+04  0.25500000920E-02 0.  1.
    10030    2    1    2    0    0  0.00000000000E+00  0.00000000000E+00 -0.39645548752E+03  0.21368034704E+04  0.20997028641E+04 0.  0.
        3    1    3    3  502    0 -0.34864184315E+03  0.27194596342E+03 -0.11672512298E+04  0.12481911655E+04  0.10100000352E+00 0.  1.
       -3    1    3    3    0  502  0.34864184315E+03 -0.27194596342E+03  0.77079574233E+03  0.88861230489E+03  0.10100000352E+00 0. -1.
</event>
<event>
 5   0  0.1615098E-06  0.2101294E+04  0.7818609E-02  0.8560674E-01
        1   -1    0    0  501    0  0.00000000000E+00  0.00000000000E+00  0.21557426765E+04  0.21557426765E+04  0.50400001928E-02 0. -1.
       -1   -1    0    0    0  501  0.00000000000E+00  0.00000000000E+00 -0.51205493595E+03  0.51205493597E+03  0.50400001928E-02 0.  1.
    10030    2    1    2    0    0  0.00000000000E+00  0.00000000000E+00  0.16436877406E+04  0.26677976125E+04  0.21012935808E+04 0.  0.
        1    1    3    3  502    0 -0.78098585067E+03 -0.53797263225E+03  0.24770314813E+03  0.98015830436E+03  0.50400001928E-02 0.  1.
       -1    1    3    3    0  502  0.78098585067E+03  0.53797263225E+03  0.13959845924E+04  0.16876393081E+04  0.50400001928E-02 0. -1.
</event>
<event>
 5   0  0.1653260E-06  0.2093715E+04  0.7818609E-02  0.8564017E-01
       -1   -1    0    0    0  501  0.00000000000E+00  0.00000000000E+00  0.47890171405E+03  0.47890171408E+03  0.50400001928E-02 0.  1.
        1   -1    0    0  501    0  0.00000000000E+00  0.00000000000E+00 -0.22883826188E+04  0.22883826188E+04  0.50400001928E-02 0. -1.
    10030    2    1    2    0    0  0.00000000000E+00  0.00000000000E+00 -0.18094809048E+04  0.27672843329E+04  0.20937147452E+04 0.  0.
        3    1    3    3  502    0 -0.65841848838E+02  0.96458351035E+03 -0.14353274665E+04  0.17305841337E+04  0.10100000352E+00 0.  1.
       -3    1    3    3    0  502  0.65841848838E+02 -0.96458351035E+03 -0.37415343828E+03  0.10367001992E+04  0.10100000352E+00 0. -1.
</event>
<event>
 5   0  0.3480134E-06  0.2099855E+04  0.7818609E-02  0.8561307E-01
       -2   -1    0    0    0  501  0.00000000000E+00  0.00000000000E+00  0.66221550546E+03  0.66221550546E+03  0.25500000920E-02 0. -1.
        2   -1    0    0  501    0  0.00000000000E+00  0.00000000000E+00 -0.16646363396E+04  0.16646363396E+04  0.25500000920E-02 0.  1.
    10030    2    1    2    0    0  0.00000000000E+00  0.00000000000E+00 -0.10024208341E+04  0.23268518450E+04  0.20998552284E+04 0.  0.
        1    1    3    3  502    0  0.47704713097E+02 -0.19903565477E+03  0.63989540843E+03  0.67183112854E+03  0.50400001928E-02 0. -1.
       -1    1    3    3    0  502 -0.47704713097E+02  0.19903565477E+03 -0.16423162425E+04  0.16550207165E+04  0.50400001928E-02 0.  1.
</event>
<event>
 5   0  0.1579820E-06  0.2099739E+04  0.7818609E-02  0.8561358E-01
        1   -1    0    0  501    0  0.00000000000E+00  0.00000000000E+00  0.17581889448E+04  0.17581889448E+04  0.50400001928E-02 0.  1.
       -1   -1    0    0    0  501  0.00000000000E+00  0.00000000000E+00 -0.62690973623E+03  0.62690973625E+03  0.50400001928E-02 0. -1.
    10030    2    1    2    0    0  0.00000000000E+00  0.00000000000E+00  0.11312792085E+04  0.23850986810E+04  0.20997388101E+04 0.  0.
        2    1    3    3  502    0  0.18092118118E+03  0.42837372038E+03 -0.50355141660E+03  0.68541997875E+03  0.25500000920E-02 0. -1.
       -2    1    3    3    0  502 -0.18092118118E+03 -0.42837372038E+03  0.16348306251E+04  0.16996787023E+04  0.25500000920E-02 0.  1.
</event>
<event>
 5   0  0.3480134E-06  0.2099146E+04  0.7818609E-02  0.8561620E-01
        2   -1    0    0  501    0  0.00000000000E+00  0.00000000000E+00  0.13333145924E+04  0.13333145924E+04  0.25500000920E-02 0. -1.
       -2   -1    0    0    0  501  0.00000000000E+00  0.00000000000E+00 -0.82621407853E+03  0.82621407853E+03  0.25500000920E-02 0.  1.
    10030    2    1    2    0    0  0.00000000000E+00  0.00000000000E+00  0.50710051392E+03  0.21595286710E+04  0.20991458143E+04 0.  0.
        1    1    3    3  502    0  0.46580287645E+03  0.44587462607E+02  0.12200659044E+04  0.13067215360E+04  0.50400001928E-02 0. -1.
       -1    1    3    3    0  502 -0.46580287645E+03 -0.44587462607E+02 -0.71296539045E+03  0.85280713501E+03  0.50400001928E-02 0.  1.
</event>
<event>
 5   0  0.1579820E-06  0.2099329E+04  0.7818609E-02  0.8561539E-01
        1   -1    0    0  501    0  0.00000000000E+00  0.00000000000E+00  0.10639163816E+04  0.10639163816E+04  0.50400001928E-02 0. -1.
       -1   -1    0    0    0  501  0.00000000000E+00  0.00000000000E+00 -0.10356039492E+04  0.10356039492E+04  0.50400001928E-02 0.  1.
    10030    2    1    2    0    0  0.00000000000E+00  0.00000000000E+00  0.28312432456E+02  0.20995203308E+04  0.20993294228E+04 0.  0.
        2    1    3    3  502    0  0.23094634084E+03 -0.19939206139E+03 -0.99027699022E+03  0.10362151919E+04  0.25500000920E-02 0.  1.
       -2    1    3    3    0  502 -0.23094634084E+03  0.19939206139E+03  0.10185894227E+04  0.10633051389E+04  0.25500000920E-02 0. -1.
</event>
<event>
 5   0  0.3705828E-06  0.2100885E+04  0.7818609E-02  0.8560854E-01
        2   -1    0    0  501    0  0.00000000000E+00  0.00000000000E+00  0.13457557687E+04  0.13457557687E+04  0.25500000920E-02 0.  1.
       -2   -1    0    0    0  501  0.00000000000E+00  0.00000000000E+00 -0.81993258488E+03  0.81993258489E+03  0.25500000920E-02 0. -1.
    10030    2    1    2    0    0  0.00000000000E+00  0.00000000000E+00  0.52582318381E+03  0.21656883536E+04  0.21008845814E+04 0.  0.
        5    1    3    3  502    0  0.89666839819E+02 -0.10460695864E+04  0.29718151253E+03  0.10911648194E+04  0.46999998093E+01 0.  1.
       -5    1    3    3    0  502 -0.89666839819E+02  0.10460695864E+04  0.22864167128E+03  0.10745235342E+04  0.46999998093E+01 0. -1.
</event>
<event>
 5   0  0.1590067E-06  0.2099905E+04  0.7818609E-02  0.8561285E-01
       -1   -1    0    0    0  501  0.00000000000E+00  0.00000000000E+00  0.43457948741E+03  0.43457948744E+03  0.50400001928E-02 0. -1.
        1   -1    0    0  501    0  0.00000000000E+00  0.00000000000E+00 -0.25367064265E+04  0.25367064266E+04  0.50400001928E-02 0.  1.
    10030    2    1    2    0    0  0.00000000000E+00  0.00000000000E+00 -0.21021269391E+04  0.29712859140E+04  0.20999053108E+04 0.  0.
        5    1    3    3  502    0  0.16146290356E+02  0.35983647301E+03 -0.24465311748E+04  0.24729091915E+04  0.46999998093E+01 0.  1.
       -5    1    3    3    0  502 -0.16146290356E+02 -0.35983647301E+03  0.34440423567E+03  0.49837672252E+03  0.46999998093E+01 0. -1.
</event>
<event>
 5   0  0.1615098E-06  0.2100206E+04  0.7818609E-02  0.8561153E-01
       -1   -1    0    0    0  501  0.00000000000E+00  0.00000000000E+00  0.90001451294E+03  0.90001451295E+03  0.50400001928E-02 0. -1.
        1   -1    0    0  501    0  0.00000000000E+00  0.00000000000E+00 -0.12252208973E+04  0.12252208973E+04  0.50400001928E-02 0.  1.
    10030    2    1    2    0    0  0.00000000000E+00  0.00000000000E+00 -0.32520638438E+03  0.21252354103E+04  0.21002062653E+04 0.  0.
        1    1    3    3  502    0  0.19924101446E+03  0.39626215649E+03  0.80057848523E+03  0.91523034781E+03  0.50400001928E-02 0. -1.
       -1    1    3    3    0  502 -0.19924101446E+03 -0.39626215649E+03 -0.11257848696E+04  0.12100050625E+04  0.50400001928E-02 0.  1.
</event>
<event>
 5   0  0.1653260E-06  0.2099579E+04  0.7818609E-02  0.8561429E-01
        1   -1    0    0  501    0  0.00000000000E+00  0.00000000000E+00  0.20827122765E+04  0.20827122765E+04  0.50400001928E-02 0.  1.
       -1   -1    0    0    0  501  0.00000000000E+00  0.00000000000E+00 -0.52914570116E+03  0.52914570118E+03  0.50400001928E-02 0. -1.
    10030    2    1    2    0    0  0.00000000000E+00  0.00000000000E+00  0.15535665754E+04  0.26118579777E+04  0.20995792416E+04 0.  0.
        3    1    3    3  502    0 -0.27141660042E+02  0.59294455862E+03 -0.30035668208E+03  0.66523233984E+03  0.10100000352E+00 0. -1.
       -3    1    3    3    0  502  0.27141660042E+02 -0.59294455862E+03  0.18539232574E+04  0.19466256379E+04  0.10100000352E+00 0.  1.
</event>
<event>
 5   0  0.1653260E-06  0.2100507E+04  0.7818609E-02  0.8561020E-01
       -1   -1    0    0    0  501  0.00000000000E+00  0.00000000000E+00  0.66281212148E+03  0.66281212150E+03  0.50400001928E-02 0. -1.
        1   -1    0    0  501    0  0.00000000000E+00  0.00000000000E+00 -0.16641700144E+04  0.16641700144E+04  0.50400001928E-02 0.  1.
    10030    2    1    2    0    0  0.00000000000E+00  0.00000000000E+00 -0.10013578930E+04  0.23269821359E+04  0.21005066606E+04 0.  0.
        3    1    3    3  502    0 -0.69703000077E+02  0.72416586357E+03 -0.13398164164E+04  0.15245926492E+04  0.10100000352E+00 0.  1.
       -3    1    3    3    0  502  0.69703000077E+02 -0.72416586357E+03  0.33845852343E+03  0.80238948676E+03  0.10100000352E+00 0. -1.
</event>
<event>
 5   0  0.3480134E-06  0.2095060E+04  0.7818609E-02  0.8563423E-01
       -2   -1    0    0    0  501  0.00000000000E+00  0.00000000000E+00  0.86547877277E+03  0.86547877278E+03  0.25500000920E-02 0. -1.
        2   -1    0    0  501    0  0.00000000000E+00  0.00000000000E+00 -0.12678749134E+04  0.12678749134E+04  0.25500000920E-02 0.  1.
    10030    2    1    2    0    0  0.00000000000E+00  0.00000000000E+00 -0.40239614059E+03  0.21333536861E+04  0.20950597357E+04 0.  0.
        1    1    3    3  502    0 -0.53735807477E+03  0.89221085296E+03 -0.87237690801E+02  0.10451814777E+04  0.50400001928E-02 0. -1.
       -1    1    3    3    0  502  0.53735807477E+03 -0.89221085296E+03 -0.31515844979E+03  0.10881722084E+04  0.50400001928E-02 0.  1.
</event>
<event>
 5   0  0.1646510E-06  0.2100252E+04  0.7818609E-02  0.8561132E-01
        1   -1    0    0  501    0  0.00000000000E+00  0.00000000000E+00  0.13074416349E+04  0.13074416349E+04  0.50400001928E-02 0. -1.
       -1   -1    0    0    0  501  0.00000000000E+00  0.00000000000E+00 -0.84345264250E+03  0.84345264251E+03  0.50400001928E-02 0.  1.
    10030    2    1    2    0    0  0.00000000000E+00  0.00000000000E+00  0.46398899244E+03  0.21508942775E+04  0.21002524628E+04 0.  0.
        4    1    3    3  502    0  0.37504655903E+03 -0.50141828674E+03  0.10953419395E+04  0.12616876781E+04  0.12699999809E+01 0. -1.
       -4    1    3    3    0  502 -0.37504655903E+03  0.50141828674E+03 -0.63135294706E+03  0.88920659938E+03  0.12699999809E+01 0.  1.
</event>
<event>
 5   0  0.1615098E-06  0.2099902E+04  0.7818609E-02  0.8561287E-01
       -1   -1    0    0    0  501  0.00000000000E+00  0.00000000000E+00  0.12981455178E+04  0.12981455178E+04  0.50400001928E-02 0. -1.
        1   -1    0    0  501    0  0.00000000000E+00  0.00000000000E+00 -0.84920903555E+03  0.84920903556E+03  0.50400001928E-02 0.  1.
    10030    2    1    2    0    0  0.00000000000E+00  0.00000000000E+00  0.44893648224E+03  0.21473545534E+04  0.20999018103E+04 0.  0.
        1    1    3    3  502    0  0.81801300492E+03 -0.62607754638E+03  0.16705868579E+02  0.10302414554E+04  0.50400001928E-02 0.  1.
       -1    1    3    3    0  502 -0.81801300492E+03  0.62607754638E+03  0.43223061366E+03  0.11171130980E+04  0.50400001928E-02 0. -1.
</event>
<event>
 5   0  0.3547583E-06  0.2097437E+04  0.7818609E-02  0.8562373E-01
        2   -1    0    0  501    0  0.00000000000E+00  0.00000000000E+00  0.22669221208E+04  0.22669221208E+04  0.25500000920E-02 0.  1.
       -2   -1    0    0    0  501  0.00000000000E+00  0.00000000000E+00 -0.48515586156E+03  0.48515586156E+03  0.25500000920E-02 0. -1.
    10030    2    1    2    0    0  0.00000000000E+00  0.00000000000E+00  0.17817662592E+04  0.27520779824E+04  0.20974370595E+04 0.  0.
        2    1    3    3  502    0  0.85090202115E+03  0.39698060702E+03  0.15037723135E+04  0.17728392547E+04  0.25500000920E-02 0.  1.
       -2    1    3    3    0  502 -0.85090202115E+03 -0.39698060702E+03  0.27799394570E+03  0.97923872768E+03  0.25500000920E-02 0. -1.
</event>
<event>
 5   0  0.1653260E-06  0.2098841E+04  0.7818609E-02  0.8561754E-01
        1   -1    0    0  501    0  0.00000000000E+00  0.00000000000E+00  0.11313710984E+04  0.11313710984E+04  0.50400001928E-02 0.  1.
       -1   -1    0    0    0  501  0.00000000000E+00  0.00000000000E+00 -0.97340615260E+03  0.97340615261E+03  0.50400001928E-02 0. -1.
    10030    2    1    2    0    0  0.00000000000E+00  0.00000000000E+00  0.15796494576E+03  0.21047772510E+04  0.20988411927E+04 0.  0.
        3    1    3    3  502    0 -0.85755134152E+03 -0.42735612100E+03 -0.35031238588E+03  0.10201697581E+04  0.10100000352E+00 0. -1.
       -3    1    3    3    0  502  0.85755134152E+03  0.42735612100E+03  0.50827733164E+03  0.10846074929E+04  0.10100000352E+00 0.  1.
</event>
<event>
 5   0  0.3574927E-06  0.2099743E+04  0.7818609E-02  0.8561357E-01
       -2   -1    0    0    0  501  0.00000000000E+00  0.00000000000E+00  0.11576593224E+04  0.11576593224E+04  0.25500000920E-02 0. -1.
        2   -1    0    0  501    0  0.00000000000E+00  0.00000000000E+00 -0.95211959407E+03  0.95211959407E+03  0.25500000920E-02 0.  1.
    10030    2    1    2    0    0  0.00000000000E+00  0.00000000000E+00  0.20553972837E+03  0.21097789165E+04  0.20997429597E+04 0.  0.
        3    1    3    3  502    0 -0.63051463252E+03 -0.64102096854E+02  0.94377240026E+03  0.11368219449E+04  0.10100000352E+00 0. -1.
       -3    1    3    3    0  502  0.63051463252E+03  0.64102096854E+02 -0.73823267188E+03  0.97295697165E+03  0.10100000352E+00 0.  1.
</event>
<event>
 5   0  0.1615098E-06  0.2099801E+04  0.7818609E-02  0.8561331E-01
        1   -1    0    0  501    0  0.00000000000E+00  0.00000000000E+00  0.23501353340E+04  0.23501353340E+04  0.50400001928E-02 0.  1.
       -1   -1    0    0    0  501  0.00000000000E+00  0.00000000000E+00 -0.46903294373E+03  0.46903294375E+03  0.50400001928E-02 0. -1.
    10030    2    1    2    0    0  0.00000000000E+00  0.00000000000E+00  0.18811023903E+04  0.28191682778E+04  0.20998008419E+04 0.  0.
        1    1    3    3  502    0 -0.25698865094E+03  0.10931210142E+02 -0.42607471043E+03  0.49769701321E+03  0.50400001928E-02 0. -1.
       -1    1    3    3    0  502  0.25698865094E+03 -0.10931210142E+02  0.23071771007E+04  0.23214712646E+04  0.50400001928E-02 0.  1.
</event>
<event>
 5   0  0.3547583E-06  0.2098519E+04  0.7818609E-02  0.8561896E-01
       -2   -1    0    0    0  501  0.00000000000E+00  0.00000000000E+00  0.49344962750E+03  0.49344962751E+03  0.25500000920E-02 0. -1.
        2   -1    0    0  501    0  0.00000000000E+00  0.00000000000E+00 -0.22311197193E+04  0.22311197193E+04  0.25500000920E-02 0.  1.
    10030    2    1    2    0    0  0.00000000000E+00  0.00000000000E+00 -0.17376700918E+04  0.27245693468E+04  0.20985187104E+04 0.  0.
        2    1    3    3  502    0 -0.66613611600E+03 -0.50695571782E+03 -0.16901800275E+04  0.18861203436E+04  0.25500000920E-02 0.  1.
       -2    1    3    3    0  502  0.66613611600E+03  0.50695571782E+03 -0.47490064269E+02  0.83844900327E+03  0.25500000920E-02 0. -1.
</event>
<event>
 5   0  0.1579820E-06  0.2100813E+04  0.7818609E-02  0.8560885E-01
        1   -1    0    0  501    0  0.00000000000E+00  0.00000000000E+00  0.17467909923E+04  0.17467909923E+04  0.50400001928E-02 0. -1.
       -1   -1    0    0    0  501  0.00000000000E+00  0.00000000000E+00 -0.63164602356E+03  0.63164602358E+03  0.50400001928E-02 0.  1.
    10030    2    1    2    0    0  0.00000000000E+00  0.00000000000E+00  0.11151449687E+04  0.23784370158E+04  0.21008127801E+04 0.  0.
        2    1    3    3  502    0  0.12931185714E+03  0.10337831740E+04  0.40599791615E+03  0.11181518301E+04  0.25500000920E-02 0.  1.
       -2    1    3    3    0  502 -0.12931185714E+03 -0.10337831740E+04  0.70914705255E+03  0.12602851857E+04  0.25500000920E-02 0. -1.
</event>
<event>
 5   0  0.3574927E-06  0.2098701E+04  0.7818609E-02  0.8561816E-01
        2   -1    0    0  501    0  0.00000000000E+00  0.00000000000E+00  0.10774063459E+04  0.10774063459E+04  0.25500000920E-02 0.  1.
       -2   -1    0    0    0  501  0.00000000000E+00  0.00000000000E+00 -0.10220249811E+04  0.10220249811E+04  0.25500000920E-02 0. -1.
    10030    2    1    2    0    0  0.00000000000E+00  0.00000000000E+00  0.55381364768E+02  0.20994313271E+04  0.20987007413E+04 0.  0.
        3    1    3    3  502    0  0.35040459269E+03 -0.64706980694E+03 -0.72066965199E+03  0.10299745002E+04  0.10100000352E+00 0. -1.
       -3    1    3    3    0  502 -0.35040459269E+03  0.64706980694E+03  0.77605101675E+03  0.10694568268E+04  0.10100000352E+00 0.  1.
</event>
<event>
 5   0  0.3705828E-06  0.2099054E+04  0.7818609E-02  0.8561660E-01
        2   -1    0    0  501    0  0.00000000000E+00  0.00000000000E+00  0.95544185793E+03  0.95544185793E+03  0.25500000920E-02 0.  1.
       -2   -1    0    0    0  501  0.00000000000E+00  0.00000000000E+00 -0.11528768476E+04  0.11528768476E+04  0.25500000920E-02 0. -1.
    10030    2    1    2    0    0  0.00000000000E+00  0.00000000000E+00 -0.19743498972E+03  0.21083187056E+04  0.20990538795E+04 0.  0.
        5    1    3    3  502    0  0.42229440917E+03  0.14953285907E+03 -0.10520073056E+04  0.11434308484E+04  0.46999998093E+01 0. -1.
       -5    1    3    3    0  502 -0.42229440917E+03 -0.14953285907E+03  0.85457231587E+03  0.96488785722E+03  0.46999998093E+01 0.  1.
</event>
<event>
 5   0  0.1579820E-06  0.2100393E+04  0.7818609E-02  0.8561070E-01
       -1   -1    0    0    0  501  0.00000000000E+00  0.00000000000E+00  0.10887415201E+04  0.10887415201E+04  0.50400001928E-02 0.  1.
        1   -1    0    0  501    0  0.00000000000E+00  0.00000000000E+00 -0.10130158099E+04  0.10130158099E+04  0.50400001928E-02 0. -1.
    10030    2    1    2    0    0  0.00000000000E+00  0.00000000000E+00  0.75725710227E+02  0.21017573300E+04  0.21003926993E+04 0.  0.
        2    1    3    3  502    0  0.72331073942E+03 -0.64130198620E+03  0.44857526775E+03  0.10656765148E+04  0.25500000920E-02 0.  1.
       -2    1    3    3    0  502 -0.72331073942E+03  0.64130198620E+03 -0.37284955752E+03  0.10360808153E+04  0.25500000920E-02 0. -1.
</event>
<event>
 5   0  0.3574927E-06  0.2100509E+04  0.7818609E-02  0.8561019E-01
        2   -1    0    0  501    0  0.00000000000E+00  0.00000000000E+00  0.10038040969E+04  0.10038040969E+04  0.25500000920E-02 0.  1.
       -2   -1    0    0    0  501  0.00000000000E+00  0.00000000000E+00 -0.10988544307E+04  0.10988544307E+04  0.25500000920E-02 0. -1.
    10030    2    1    2    0    0  0.00000000000E+00  0.00000000000E+00 -0.95050333722E+02  0.21026585276E+04  0.21005090616E+04 0.  0.
        3    1    3    3  502    0 -0.38966324785E+03 -0.22966535574E+03  0.90131131554E+03  0.10084372663E+04  0.10100000352E+00 0.  1.
       -3    1    3    3    0  502  0.38966324785E+03  0.22966535574E+03 -0.99636164926E+03  0.10942212613E+04  0.10100000352E+00 0. -1.
</event>
<event>
 5   0  0.3480134E-06  0.2102404E+04  0.7818609E-02  0.8560185E-01
        2   -1    0    0  501    0  0.00000000000E+00  0.00000000000E+00  0.13093473691E+04  0.13093473691E+04  0.25500000920E-02 0.  1.
       -2   -1    0    0    0  501  0.00000000000E+00  0.00000000000E+00 -0.84395128127E+03  0.84395128127E+03  0.25500000920E-02 0. -1.
    10030    2    1    2    0    0  0.00000000000E+00  0.00000000000E+00  0.46539608779E+03  0.21532986503E+04  0.21024037574E+04 0.  0.
        1    1    3    3  502    0  0.24761187210E+03  0.81959411757E+03  0.85736350175E+03  0.12116593296E+04  0.50400001928E-02 0.  1.
       -1    1    3    3    0  502 -0.24761187210E+03 -0.81959411757E+03 -0.39196741396E+03  0.94163932076E+03  0.50400001928E-02 0. -1.
</event>
<event>
 5   0  0.1590067E-06  0.2099906E+04  0.7818609E-02  0.8561285E-01
        1   -1    0    0  501    0  0.00000000000E+00  0.00000000000E+00  0.10765424008E+04  0.10765424008E+04  0.50400001928E-02 0. -1.
       -1   -1    0    0    0  501  0.00000000000E+00  0.00000000000E+00 -0.10240207541E+04  0.10240207541E+04  0.50400001928E-02 0.  1.
    10030    2    1    2    0    0  0.00000000000E+00  0.00000000000E+00  0.52521646674E+02  0.21005631549E+04  0.20999064371E+04 0.  0.
        5    1    3    3  502    0  0.16389983602E+03 -0.94170150453E+03  0.46080983759E+03  0.10611468684E+04  0.46999998093E+01 0. -1.
       -5    1    3    3    0  502 -0.16389983602E+03  0.94170150453E+03 -0.40828819092E+03  0.10394162865E+04  0.46999998093E+01 0.  1.
</event>
<event>
 5   0  0.3574927E-06  0.2100068E+04  0.7818609E-02  0.8561213E-01
       -2   -1    0    0    0  501  0.00000000000E+00  0.00000000000E+00  0.56637393121E+03  0.56637393121E+03  0.25500000920E-02 0. -1.
        2   -1    0    0  501    0  0.00000000000E+00  0.00000000000E+00 -0.19467204240E+04  0.19467204240E+04  0.25500000920E-02 0.  1.
    10030    2    1    2    0    0  0.00000000000E+00  0.00000000000E+00 -0.13803464928E+04  0.25130943552E+04  0.21000682841E+04 0.  0.
        3    1    3    3  502    0  0.10493466964E+04  0.32968123171E+02 -0.66758487131E+03  0.12441402482E+04  0.10100000352E+00 0.  1.
       -3    1    3    3    0  502 -0.10493466964E+04 -0.32968123171E+02 -0.71276162145E+03  0.12689541070E+04  0.10100000352E+00 0. -1.
</event>
<event>
 5   0  0.1646510E-06  0.2100019E+04  0.7818609E-02  0.8561235E-01
       -1   -1    0    0    0  501  0.00000000000E+00  0.00000000000E+00  0.51154170207E+03  0.51154170210E+03  0.50400001928E-02 0.  1.
        1   -1    0    0  501    0  0.00000000000E+00  0.00000000000E+00 -0.21552894175E+04  0.21552894175E+04  0.50400001928E-02 0. -1.
    10030    2    1    2    0    0  0.00000000000E+00  0.00000000000E+00 -0.16437477154E+04  0.26668311196E+04  0.21000194448E+04 0.  0.
        4    1    3    3  502    0  0.13238041202E+03  0.64845303287E+03 -0.18570652137E+04  0.19714737458E+04  0.12699999809E+01 0. -1.
       -4    1    3    3    0  502 -0.13238041202E+03 -0.64845303287E+03  0.21331749832E+03  0.69535737381E+03  0.12699999809E+01 0.  1.
</event>
<event>
 5   0  0.1615098E-06  0.2100012E+04  0.7818609E-02  0.8561238E-01
       -1   -1    0    0    0  501  0.00000000000E+00  0.00000000000E+00  0.93090736435E+03  0.93090736437E+03  0.50400001928E-02 0. -1.
        1   -1    0    0  501    0  0.00000000000E+00  0.00000000000E+00 -0.11843415869E+04  0.11843415869E+04  0.50400001928E-02 0.  1.
    10030    2    1    2    0    0  0.00000000000E+00  0.00000000000E+00 -0.25343422255E+03  0.21152489513E+04  0.21000117192E+04 0.  0.
        1    1    3    3  502    0  0.50424490776E+03  0.50992713054E+03 -0.89923941913E+03  0.11501826544E+04  0.50400001928E-02 0.  1.
       -1    1    3    3    0  502 -0.50424490776E+03 -0.50992713054E+03  0.64580519658E+03  0.96506629691E+03  0.50400001928E-02 0. -1.
</event>
<event>
 5   0  0.1653260E-06  0.2098413E+04  0.7818609E-02  0.8561943E-01
        1   -1    0    0  501    0  0.00000000000E+00  0.00000000000E+00  0.22918698213E+04  0.22918698213E+04  0.50400001928E-02 0.  1.
       -1   -1    0    0    0  501  0.00000000000E+00  0.00000000000E+00 -0.48032127265E+03  0.48032127268E+03  0.50400001928E-02 0. -1.
    10030    2    1    2    0    0  0.00000000000E+00  0.00000000000E+00  0.18115485487E+04  0.27721910940E+04  0.20984125708E+04 0.  0.
        3    1    3    3  502    0  0.22191881447E+03 -0.13487551779E+03  0.22487412951E+04  0.22636865481E+04  0.10100000352E+00 0.  1.
       -3    1    3    3    0  502 -0.22191881447E+03  0.13487551779E+03 -0.43719274641E+03  0.50850454593E+03  0.10100000352E+00 0. -1.
</event>
<event>
 5   0  0.3636435E-06  0.2100667E+04  0.7818609E-02  0.8560949E-01
       -2   -1    0    0    0  501  0.00000000000E+00  0.00000000000E+00  0.95321205188E+03  0.95321205188E+03  0.25500000920E-02 0.  1.
        2   -1    0    0  501    0  0.00000000000E+00  0.00000000000E+00 -0.11573509779E+04  0.11573509779E+04  0.25500000920E-02 0. -1.
    10030    2    1    2    0    0  0.00000000000E+00  0.00000000000E+00 -0.20413892597E+03  0.21105630297E+04  0.21006674181E+04 0.  0.
        4    1    3    3  502    0  0.22264913966E+03 -0.54052992377E+03  0.77465450055E+03  0.97048258408E+03  0.12699999809E+01 0.  1.
       -4    1    3    3    0  502 -0.22264913966E+03  0.54052992377E+03 -0.97879342652E+03  0.11400804457E+04  0.12699999809E+01 0. -1.
</event>
<event>
 5   0  0.3636435E-06  0.2099040E+04  0.7818609E-02  0.8561666E-01
       -2   -1    0    0    0  501  0.00000000000E+00  0.00000000000E+00  0.55863651592E+03  0.55863651593E+03  0.25500000920E-02 0.  1.
        2   -1    0    0  501    0  0.00000000000E+00  0.00000000000E+00 -0.19717515686E+04  0.19717515686E+04  0.25500000920E-02 0. -1.
    10030    2    1    2    0    0  0.00000000000E+00  0.00000000000E+00 -0.14131150527E+04  0.25303880846E+04  0.20990401869E+04 0.  0.
        4    1    3    3  502    0  0.19203809934E+03 -0.82724858275E+03 -0.14499420828E+04  0.16803429726E+04  0.12699999809E+01 0. -1.
       -4    1    3    3    0  502 -0.19203809934E+03  0.82724858275E+03  0.36827030109E+02  0.85004511192E+03  0.12699999809E+01 0.  1.
</event>
<event>
 5   0  0.1579820E-06  0.2100320E+04  0.7818609E-02  0.8561103E-01
       -1   -1    0    0    0  501  0.00000000000E+00  0.00000000000E+00  0.68665656154E+03  0.68665656156E+03  0.50400001928E-02 0. -1.
        1   -1    0    0  501    0  0.00000000000E+00  0.00000000000E+00 -0.16060949634E+04  0.16060949634E+04  0.50400001928E-02 0.  1.
    10030    2    1    2    0    0  0.00000000000E+00  0.00000000000E+00 -0.91943840189E+03  0.22927515250E+04  0.21003196377E+04 0.  0.
        2    1    3    3  502    0 -0.89304783602E+03 -0.41054601058E+03 -0.86340206686E+03  0.13082605219E+04  0.25500000920E-02 0. -1.
       -2    1    3    3    0  502  0.89304783602E+03  0.41054601058E+03 -0.56036335026E+02  0.98449100304E+03  0.25500000920E-02 0.  1.
</event>
<event>
 5   0  0.1653260E-06  0.2102120E+04  0.7818609E-02  0.8560310E-01
       -1   -1    0    0    0  501  0.00000000000E+00  0.00000000000E+00  0.66102555073E+03  0.66102555075E+03  0.50400001928E-02 0. -1.
        1   -1    0    0  501    0  0.00000000000E+00  0.00000000000E+00 -0.16712318634E+04  0.16712318634E+04  0.50400001928E-02 0.  1.
    10030    2    1    2    0    0  0.00000000000E+00  0.00000000000E+00 -0.10102063127E+04  0.23322574142E+04  0.21021198471E+04 0.  0.
        3    1    3    3  502    0 -0.32895937793E+03  0.52465927695E+03 -0.14473409388E+04  0.15742545641E+04  0.10100000352E+00 0.  1.
       -3    1    3    3    0  502  0.32895937793E+03 -0.52465927695E+03  0.43713462611E+03  0.75800285010E+03  0.10100000352E+00 0. -1.
</event>
<event>
 5   0  0.1590067E-06  0.2100481E+04  0.7818609E-02  0.8561031E-01
       -1   -1    0    0    0  501  0.00000000000E+00  0.00000000000E+00  0.59125467804E+03  0.59125467806E+03  0.50400001928E-02 0. -1.
        1   -1    0    0  501    0  0.00000000000E+00  0.00000000000E+00 -0.18655335497E+04  0.18655335497E+04  0.50400001928E-02 0.  1.
    10030    2    1    2    0    0  0.00000000000E+00  0.00000000000E+00 -0.12742788717E+04  0.24567882278E+04  0.21004813147E+04 0.  0.
        5    1    3    3  502    0 -0.28015935340E+03  0.19877615782E+03  0.52367573230E+03  0.62630630430E+03  0.46999998093E+01 0. -1.
       -5    1    3    3    0  502  0.28015935340E+03 -0.19877615782E+03 -0.17979546040E+04  0.18304819235E+04  0.46999998093E+01 0.  1.
</event>
<event>
 5   0  0.3547583E-06  0.2107213E+04  0.7818609E-02  0.8558072E-01
       -2   -1    0    0    0  501  0.00000000000E+00  0.00000000000E+00  0.48003517986E+03  0.48003517987E+03  0.25500000920E-02 0.  1.
        2   -1    0    0  501    0  0.00000000000E+00  0.00000000000E+00 -0.23125118478E+04  0.23125118478E+04  0.25500000920E-02 0. -1.
    10030    2    1    2    0    0  0.00000000000E+00  0.00000000000E+00 -0.18324766680E+04  0.27925470277E+04  0.21072133644E+04 0.  0.
        2    1    3    3  502    0  0.97073536285E+02  0.27965197086E+03 -0.22562693108E+04  0.22756053478E+04  0.25500000920E-02 0. -1.
       -2    1    3    3    0  502 -0.97073536285E+02 -0.27965197086E+03  0.42379264283E+03  0.51694167986E+03  0.25500000920E-02 0.  1.
</event>
<event>
 5   0  0.3574927E-06  0.2100311E+04  0.7818609E-02  0.8561107E-01
        2   -1    0    0  501    0  0.00000000000E+00  0.00000000000E+00  0.12869493417E+04  0.12869493417E+04  0.25500000920E-02 0. -1.
       -2   -1    0    0    0  501  0.00000000000E+00  0.00000000000E+00 -0.85693050806E+03  0.85693050806E+03  0.25500000920E-02 0.  1.
    10030    2    1    2    0    0  0.00000000000E+00  0.00000000000E+00  0.43001883360E+03  0.21438798497E+04  0.21003105991E+04 0.  0.
        3    1    3    3  502    0 -0.56791404817E+03 -0.86201238873E+03  0.41197448311E+03  0.11114471240E+04  0.10100000352E+00 0.  1.
       -3    1    3    3    0  502  0.56791404817E+03  0.86201238873E+03  0.18044350490E+02  0.10324327258E+04  0.10100000352E+00 0. -1.
</event>
<event>
 5   0  0.3480134E-06  0.2100439E+04  0.7818609E-02  0.8561050E-01
        2   -1    0    0  501    0  0.00000000000E+00  0.00000000000E+00  0.72371727428E+03  0.72371727428E+03  0.25500000920E-02 0.  1.
       -2   -1    0    0    0  501  0.00000000000E+00  0.00000000000E+00 -0.15240219151E+04  0.15240219151E+04  0.25500000920E-02 0. -1.
    10030    2    1    2    0    0  0.00000000000E+00  0.00000000000E+00 -0.80030464086E+03  0.22477391894E+04  0.21004389888E+04 0.  0.
        1    1    3    3  502    0  0.55645084009E+03 -0.42783321817E+03  0.43583789257E+03  0.82621635704E+03  0.50400001928E-02 0.  1.
       -1    1    3    3    0  502 -0.55645084009E+03  0.42783321817E+03 -0.12361425334E+04  0.14215228324E+04  0.50400001928E-02 0. -1.
</event>
<event>
 5   0  0.3547583E-06  0.2099922E+04  0.7818609E-02  0.8561278E-01
       -2   -1    0    0    0  501  0.00000000000E+00  0.00000000000E+00  0.13555646011E+04  0.13555646011E+04  0.25500000920E-02 0.  1.
        2   -1    0    0  501    0  0.00000000000E+00  0.00000000000E+00 -0.81325353337E+03  0.81325353338E+03  0.25500000920E-02 0. -1.
    10030    2    1    2    0    0  0.00000000000E+00  0.00000000000E+00  0.54231106773E+03  0.21688181345E+04  0.20999216191E+04 0.  0.
        2    1    3    3  502    0 -0.59002354004E+02  0.52722196139E+03 -0.66464782871E+03  0.85041225918E+03  0.25500000920E-02 0. -1.
       -2    1    3    3    0  502  0.59002354004E+02 -0.52722196139E+03  0.12069588964E+04  0.13184058753E+04  0.25500000920E-02 0.  1.
</event>
<event>
 5   0  0.3574927E-06  0.2100344E+04  0.7818609E-02  0.8561092E-01
        2   -1    0    0  501    0  0.00000000000E+00  0.00000000000E+00  0.12558470608E+04  0.12558470608E+04  0.25500000920E-02 0. -1.
       -2   -1    0    0    0  501  0.00000000000E+00  0.00000000000E+00 -0.87818132399E+03  0.87818132400E+03  0.25500000920E-02 0.  1.
    10030    2    1    2    0    0  0.00000000000E+00  0.00000000000E+00  0.37766573679E+03  0.21340283848E+04  0.21003441952E+04 0.  0.
        3    1    3    3  502    0 -0.50293362014E+03  0.35941855075E+03  0.10514106779E+04  0.12196673091E+04  0.10100000352E+00 0. -1.
       -3    1    3    3    0  502  0.50293362014E+03 -0.35941855075E+03 -0.67374494114E+03  0.91436107573E+03  0.10100000352E+00 0.  1.
</event>
<event>
 5   0  0.1653260E-06  0.2095345E+04  0.7818609E-02  0.8563297E-01
       -1   -1    0    0    0  501  0.00000000000E+00  0.00000000000E+00  0.72284006181E+03  0.72284006183E+03  0.50400001928E-02 0. -1.
        1   -1    0    0  501    0  0.00000000000E+00  0.00000000000E+00 -0.15184793602E+04  0.15184793602E+04  0.50400001928E-02 0.  1.
    10030    2    1    2    0    0  0.00000000000E+00  0.00000000000E+00 -0.79563929839E+03  0.22413194220E+04  0.20953450452E+04 0.  0.
        3    1    3    3  502    0 -0.33018350622E+03 -0.22562592532E+03 -0.14336240006E+04  0.14883568091E+04  0.10100000352E+00 0.  1.
       -3    1    3    3    0  502  0.33018350622E+03  0.22562592532E+03  0.63798470223E+03  0.75296261290E+03  0.10100000352E+00 0. -1.
</event>
<event>
 5   0  0.3705828E-06  0.2099270E+04  0.7818609E-02  0.8561565E-01
        2   -1    0    0  501    0  0.00000000000E+00  0.00000000000E+00  0.16412137411E+04  0.16412137411E+04  0.25500000920E-02 0.  1.
       -2   -1    0    0    0  501  0.00000000000E+00  0.00000000000E+00 -0.67129180631E+03  0.67129180631E+03  0.25500000920E-02 0. -1.
    10030    2    1    2    0    0  0.00000000000E+00  0.00000000000E+00  0.96992193481E+03  0.23125055474E+04  0.20992697176E+04 0.  0.
        5    1    3    3  502    0 -0.22574603866E+03 -0.21715132908E+03  0.15885156192E+04  0.16191108474E+04  0.46999998093E+01 0.  1.
       -5    1    3    3    0  502  0.22574603866E+03  0.21715132908E+03 -0.61859368438E+03  0.69339470004E+03  0.46999998093E+01 0. -1.
</event>
<event>
 5   0  0.1590067E-06  0.2099629E+04  0.7818609E-02  0.8561407E-01
        1   -1    0    0  501    0  0.00000000000E+00  0.00000000000E+00  0.12149268658E+04  0.12149268658E+04  0.50400001928E-02 0.  1.
       -1   -1    0    0    0  501  0.00000000000E+00  0.00000000000E+00 -0.90714117261E+03  0.90714117262E+03  0.50400001928E-02 0. -1.
    10030    2    1    2    0    0  0.00000000000E+00  0.00000000000E+00  0.30778569318E+03  0.21220680384E+04  0.20996287116E+04 0.  0.
        5    1    3    3  502    0  0.88338710197E+03  0.49361225851E+03 -0.12848937852E+03  0.10200771755E+04  0.46999998093E+01 0. -1.
       -5    1    3    3    0  502 -0.88338710197E+03 -0.49361225851E+03  0.43627507170E+03  0.11019908629E+04  0.46999998093E+01 0.  1.
</event>
<event>
 5   0  0.1653260E-06  0.2099676E+04  0.7818609E-02  0.8561386E-01
        1   -1    0    0  501    0  0.00000000000E+00  0.00000000000E+00  0.24913986056E+04  0.24913986056E+04  0.50400001928E-02 0.  1.
       -1   -1    0    0    0  501  0.00000000000E+00  0.00000000000E+00 -0.44238600765E+03  0.44238600768E+03  0.50400001928E-02 0. -1.
    10030    2    1    2    0    0  0.00000000000E+00  0.00000000000E+00  0.20490125980E+04  0.29337846133E+04  0.20996760537E+04 0.  0.
        3    1    3    3  502    0 -0.11323294202E+03 -0.99171524381E+03  0.56993826233E+03  0.11494130924E+04  0.10100000352E+00 0.  1.
       -3    1    3    3    0  502  0.11323294202E+03  0.99171524381E+03  0.14790743356E+04  0.17843715209E+04  0.10100000352E+00 0. -1.
</event>
<event>
 5   0  0.3574927E-06  0.2099967E+04  0.7818609E-02  0.8561258E-01
       -2   -1    0    0    0  501  0.00000000000E+00  0.00000000000E+00  0.97627950720E+03  0.97627950720E+03  0.25500000920E-02 0. -1.
        2   -1    0    0  501    0  0.00000000000E+00  0.00000000000E+00 -0.11292513457E+04  0.11292513457E+04  0.25500000920E-02 0.  1.
    10030    2    1    2    0    0  0.00000000000E+00  0.00000000000E+00 -0.15297183846E+03  0.21055308529E+04  0.20999666162E+04 0.  0.
        3    1    3    3  502    0 -0.15548255682E+03  0.62525011494E+03 -0.90774987074E+03  0.11131587352E+04  0.10100000352E+00 0.  1.
       -3    1    3    3    0  502  0.15548255682E+03 -0.62525011494E+03  0.75477803228E+03  0.99237211767E+03  0.10100000352E+00 0. -1.
</event>
<event>
 5   0  0.1615098E-06  0.2100846E+04  0.7818609E-02  0.8560871E-01
       -1   -1    0    0    0  501  0.00000000000E+00  0.00000000000E+00  0.91128177463E+03  0.91128177464E+03  0.50400001928E-02 0. -1.
        1   -1    0    0  501    0  0.00000000000E+00  0.00000000000E+00 -0.12108090774E+04  0.12108090774E+04  0.50400001928E-02 0.  1.
    10030    2    1    2    0    0  0.00000000000E+00  0.00000000000E+00 -0.29952730281E+03  0.21220908521E+04  0.21008457772E+04 0.  0.
        1    1    3    3  502    0  0.10129777985E+04 -0.25989777336E+03 -0.24933725233E+03  0.10750999667E+04  0.50400001928E-02 0.  1.
       -1    1    3    3    0  502 -0.10129777985E+04  0.25989777336E+03 -0.50190050475E+02  0.10469908854E+04  0.50400001928E-02 0. -1.
</event>
<event>
 5   0  0.1653260E-06  0.2099741E+04  0.7818609E-02  0.8561357E-01
       -1   -1    0    0    0  501  0.00000000000E+00  0.00000000000E+00  0.63272199457E+03  0.63272199459E+03  0.50400001928E-02 0.  1.
        1   -1    0    0  501    0  0.00000000000E+00  0.00000000000E+00 -0.17420418699E+04  0.17420418699E+04  0.50400001928E-02 0. -1.
    10030    2    1    2    0    0  0.00000000000E+00  0.00000000000E+00 -0.11093198754E+04  0.23747638645E+04  0.20997411332E+04 0.  0.
        3    1    3    3  502    0 -0.95877805041E+03 -0.15197765058E+03 -0.10068758335E+04  0.13986248641E+04  0.10100000352E+00 0. -1.
       -3    1    3    3    0  502  0.95877805041E+03  0.15197765058E+03 -0.10244404188E+03  0.97613900042E+03  0.10100000352E+00 0.  1.
</event>
<event>
 5   0  0.1579820E-06  0.2099715E+04  0.7818609E-02  0.8561369E-01
       -1   -1    0    0    0  501  0.00000000000E+00  0.00000000000E+00  0.14276859229E+04  0.14276859229E+04  0.50400001928E-02 0. -1.
        1   -1    0    0  501    0  0.00000000000E+00  0.00000000000E+00 -0.77201885293E+03  0.77201885294E+03  0.50400001928E-02 0.  1.
    10030    2    1    2    0    0  0.00000000000E+00  0.00000000000E+00  0.65566706993E+03  0.21997047758E+04  0.20997146935E+04 0.  0.
        2    1    3    3  502    0  0.36212365020E+03  0.98478488698E+03  0.36510347294E+03  0.11109614564E+04  0.25500000920E-02 0.  1.
       -2    1    3    3    0  502 -0.36212365020E+03 -0.98478488698E+03  0.29056359699E+03  0.10887433194E+04  0.25500000920E-02 0. -1.
</event>
<event>
 5   0  0.1590067E-06  0.2101365E+04  0.7818609E-02  0.8560642E-01
       -1   -1    0    0    0  501  0.00000000000E+00  0.00000000000E+00  0.11478279930E+04  0.11478279930E+04  0.50400001928E-02 0.  1.
        1   -1    0    0  501    0  0.00000000000E+00  0.00000000000E+00 -0.96175921323E+03  0.96175921324E+03  0.50400001928E-02 0. -1.
    10030    2    1    2    0    0  0.00000000000E+00  0.00000000000E+00  0.18606877981E+03  0.21095872063E+04  0.21013654109E+04 0.  0.
        5    1    3    3  502    0  0.90786919547E+03 -0.52879016047E+03  0.84844798958E+02  0.10540712688E+04  0.46999998093E+01 0.  1.
       -5    1    3    3    0  502 -0.90786919547E+03  0.52879016047E+03  0.10122398085E+03  0.10555159374E+04  0.46999998093E+01 0. -1.
</event>
<event>
 5   0  0.3636435E-06  0.2099807E+04  0.7818609E-02  0.8561328E-01
        2   -1    0    0  501    0  0.00000000000E+00  0.00000000000E+00  0.12846833629E+04  0.12846833629E+04  0.25500000920E-02 0. -1.
       -2   -1    0    0    0  501  0.00000000000E+00  0.00000000000E+00 -0.85803070056E+03  0.85803070057E+03  0.25500000920E-02 0.  1.
    10030    2    1    2    0    0  0.00000000000E+00  0.00000000000E+00  0.42665266231E+03  0.21427140634E+04  0.20998073872E+04 0.  0.
        4    1    3    3  502    0 -0.99149639593E+03  0.22694485162E+03  0.47888834288E+03  0.11242351741E+04  0.12699999809E+01 0.  1.
       -4    1    3    3    0  502  0.99149639593E+03 -0.22694485162E+03 -0.52235680577E+02  0.10184788893E+04  0.12699999809E+01 0. -1.
</event>
<event>
 5   0  0.3480134E-06  0.2099425E+04  0.7818609E-02  0.8561497E-01
        2   -1    0    0  501    0  0.00000000000E+00  0.00000000000E+00  0.19791249095E+04  0.19791249095E+04  0.25500000920E-02 0.  1.
       -2   -1    0    0    0  501  0.00000000000E+00  0.00000000000E+00 -0.55675939785E+03  0.55675939786E+03  0.25500000920E-02 0. -1.
    10030    2    1    2    0    0  0.00000000000E+00  0.00000000000E+00  0.14223655117E+04  0.25358843074E+04  0.20994250574E+04 0.  0.
        1    1    3    3  502    0  0.51015561295E+03  0.50242570046E+03  0.16383597818E+04  0.17879913614E+04  0.50400001928E-02 0.  1.
       -1    1    3    3    0  502 -0.51015561295E+03 -0.50242570046E+03 -0.21599427010E+03  0.74789294598E+03  0.50400001928E-02 0. -1.
</event>
<event>
 5   0  0.1646510E-06  0.2100213E+04  0.7818609E-02  0.8561150E-01
       -1   -1    0    0    0  501  0.00000000000E+00  0.00000000000E+00  0.12970242395E+04  0.12970242395E+04  0.50400001928E-02 0.  1.
        1   -1    0    0  501    0  0.00000000000E+00  0.00000000000E+00 -0.85019519270E+03  0.85019519271E+03  0.50400001928E-02 0. -1.
    10030    2    1    2    0    0  0.00000000000E+00  0.00000000000E+00  0.44682904683E+03  0.21472194322E+04  0.21002131066E+04 0.  0.
        4    1    3    3  502    0  0.85126582589E+03  0.61162942431E+03  0.15893066930E+03  0.10601908458E+04  0.12699999809E+01 0. -1.
       -4    1    3    3    0  502 -0.85126582589E+03 -0.61162942431E+03  0.28789837753E+03  0.10870285864E+04  0.12699999809E+01 0.  1.
</event>
<event>
 5   0  0.3547583E-06  0.2099777E+04  0.7818609E-02  0.8561341E-01
        2   -1    0    0  501    0  0.00000000000E+00  0.00000000000E+00  0.94705194874E+03  0.94705194875E+03  0.25500000920E-02 0.  1.
       -2   -1    0    0    0  501  0.00000000000E+00  0.00000000000E+00 -0.11638920558E+04  0.11638920558E+04  0.25500000920E-02 0. -1.
    10030    2    1    2    0    0  0.00000000000E+00  0.00000000000E+00 -0.21684010703E+03  0.21109440045E+04  0.20997773592E+04 0.  0.
        2    1    3    3  502    0 -0.74759772929E+03  0.72130997448E+03  0.44294984532E+02  0.10397848286E+04  0.25500000920E-02 0. -1.
       -2    1    3    3    0  502  0.74759772929E+03 -0.72130997448E+03 -0.26113509156E+03  0.10711591759E+04  0.25500000920E-02 0.  1.
</event>
<event>
 5   0  0.1590067E-06  0.2099453E+04  0.7818609E-02  0.8561485E-01
        1   -1    0    0  501    0  0.00000000000E+00  0.00000000000E+00  0.85461840295E+03  0.85461840297E+03  0.50400001928E-02 0. -1.
       -1   -1    0    0    0  501  0.00000000000E+00  0.00000000000E+00 -0.12893770779E+04  0.12893770780E+04  0.50400001928E-02 0.  1.
    10030    2    1    2    0    0  0.00000000000E+00  0.00000000000E+00 -0.43475867499E+03  0.21439954809E+04  0.20994526708E+04 0.  0.
        5    1    3    3  502    0  0.57913280436E+03  0.65066110961E+03  0.38083786238E+03  0.95069145997E+03  0.46999998093E+01 0. -1.
       -5    1    3    3    0  502 -0.57913280436E+03 -0.65066110961E+03 -0.81559653737E+03  0.11933040209E+04  0.46999998093E+01 0.  1.
</event>
<event>
 5   0  0.3547583E-06  0.2100824E+04  0.7818609E-02  0.8560880E-01
        2   -1    0    0  501    0  0.00000000000E+00  0.00000000000E+00  0.13467515458E+04  0.13467515458E+04  0.25500000920E-02 0.  1.
       -2   -1    0    0    0  501  0.00000000000E+00  0.00000000000E+00 -0.81927931786E+03  0.81927931787E+03  0.25500000920E-02 0. -1.
    10030    2    1    2    0    0  0.00000000000E+00  0.00000000000E+00  0.52747222793E+03  0.21660308637E+04  0.21008243028E+04 0.  0.
        2    1    3    3  502    0  0.51126470823E+03  0.69564354836E+03  0.88068510357E+03  0.12332549614E+04  0.25500000920E-02 0.  1.
       -2    1    3    3    0  502 -0.51126470823E+03 -0.69564354836E+03 -0.35321287564E+03  0.93277590223E+03  0.25500000920E-02 0. -1.
</event>
<event>
 5   0  0.1646510E-06  0.2099049E+04  0.7818609E-02  0.8561662E-01
       -1   -1    0    0    0  501  0.00000000000E+00  0.00000000000E+00  0.94353129472E+03  0.94353129474E+03  0.50400001928E-02 0. -1.
        1   -1    0    0  501    0  0.00000000000E+00  0.00000000000E+00 -0.11674250189E+04  0.11674250190E+04  0.50400001928E-02 0.  1.
    10030    2    1    2    0    0  0.00000000000E+00  0.00000000000E+00 -0.22389372422E+03  0.21109563137E+04  0.20990493464E+04 0.  0.
        4    1    3    3  502    0  0.14485116583E+03 -0.40338326160E+02 -0.11565358904E+04  0.11662700886E+04  0.12699999809E+01 0.  1.
       -4    1    3    3    0  502 -0.14485116583E+03  0.40338326160E+02  0.93264216621E+03  0.94468622510E+03  0.12699999809E+01 0. -1.
</event>
<event>
 5   0  0.1646510E-06  0.2099493E+04  0.7818609E-02  0.8561467E-01
       -1   -1    0    0    0  501  0.00000000000E+00  0.00000000000E+00  0.96273677702E+03  0.96273677703E+03  0.50400001928E-02 0.  1.
        1   -1    0    0  501    0  0.00000000000E+00  0.00000000000E+00 -0.11446198906E+04  0.11446198906E+04  0.50400001928E-02 0. -1.
    10030    2    1    2    0    0  0.00000000000E+00  0.00000000000E+00 -0.18188311357E+03  0.21073566676E+04  0.20994929525E+04 0.  0.
        4    1    3    3  502    0 -0.64780894766E+03  0.21403618843E+03 -0.89173810070E+03  0.11227940042E+04  0.12699999809E+01 0. -1.
       -4    1    3    3    0  502  0.64780894766E+03 -0.21403618843E+03  0.70985498714E+03  0.98456266346E+03  0.12699999809E+01 0.  1.
</event>
<event>
 5   0  0.1579820E-06  0.2098619E+04  0.7818609E-02  0.8561852E-01
       -1   -1    0    0    0  501  0.00000000000E+00  0.00000000000E+00  0.11183775326E+04  0.11183775326E+04  0.50400001928E-02 0. -1.
        1   -1    0    0  501    0  0.00000000000E+00  0.00000000000E+00 -0.98450676814E+03  0.98450676815E+03  0.50400001928E-02 0.  1.
    10030    2    1    2    0    0  0.00000000000E+00  0.00000000000E+00  0.13387076443E+03  0.21028843007E+04  0.20986188317E+04 0.  0.
        2    1    3    3  502    0 -0.66554386919E+03  0.64204094102E+03  0.56381120474E+03  0.10830735369E+04  0.25500000920E-02 0. -1.
       -2    1    3    3    0  502  0.66554386919E+03 -0.64204094102E+03 -0.42994044031E+03  0.10198107638E+04  0.25500000920E-02 0.  1.
</event>
<event>
 5   0  0.3547583E-06  0.2100311E+04  0.7818609E-02  0.8561106E-01
        2   -1    0    0  501    0  0.00000000000E+00  0.00000000000E+00  0.19539032918E+04  0.19539032918E+04  0.25500000920E-02 0. -1.
       -2   -1    0    0    0  501  0.00000000000E+00  0.00000000000E+00 -0.56442218790E+03  0.56442218790E+03  0.25500000920E-02 0.  1.
    10030    2    1    2    0    0  0.00000000000E+00  0.00000000000E+00  0.13894811039E+04  0.25183254797E+04  0.21003108064E+04 0.  0.
        2    1    3    3  502    0 -0.69544767640E+02 -0.81895468104E+03 -0.89043329526E+02  0.82671153303E+03  0.25500000920E-02 0.  1.
       -2    1    3    3    0  502  0.69544767640E+02  0.81895468104E+03  0.14785244334E+04  0.16916139466E+04  0.25500000920E-02 0. -1.
</event>
<event>
 5   0  0.1590067E-06  0.2098200E+04  0.7818609E-02  0.8562037E-01
       -1   -1    0    0    0  501  0.00000000000E+00  0.00000000000E+00  0.76432877011E+03  0.76432877013E+03  0.50400001928E-02 0.  1.
        1   -1    0    0  501    0  0.00000000000E+00  0.00000000000E+00 -0.14399703362E+04  0.14399703362E+04  0.50400001928E-02 0. -1.
    10030    2    1    2    0    0  0.00000000000E+00  0.00000000000E+00 -0.67564156607E+03  0.22042991063E+04  0.20981999486E+04 0.  0.
        5    1    3    3  502    0 -0.55403891218E+03  0.77212076875E+03 -0.80465447740E+03  0.12452391400E+04  0.46999998093E+01 0.  1.
       -5    1    3    3    0  502  0.55403891218E+03 -0.77212076875E+03  0.12901291133E+03  0.95905996634E+03  0.46999998093E+01 0. -1.
</event>
<event>
 5   0  0.3705828E-06  0.2101541E+04  0.7818609E-02  0.8560565E-01
        2   -1    0    0  501    0  0.00000000000E+00  0.00000000000E+00  0.14454518746E+04  0.14454518746E+04  0.25500000920E-02 0. -1.
       -2   -1    0    0    0  501  0.00000000000E+00  0.00000000000E+00 -0.76385677165E+03  0.76385677165E+03  0.25500000920E-02 0.  1.
    10030    2    1    2    0    0  0.00000000000E+00  0.00000000000E+00  0.68159510294E+03  0.22093086462E+04  0.21015405802E+04 0.  0.
        5    1    3    3  502    0 -0.96286266994E+03  0.42050383733E+03  0.32716677065E+03  0.11004490830E+04  0.46999998093E+01 0.  1.
       -5    1    3    3    0  502  0.96286266994E+03 -0.42050383733E+03  0.35442833229E+03  0.11088595633E+04  0.46999998093E+01 0. -1.
</event>
<event>
 5   0  0.3705828E-06  0.2099555E+04  0.7818609E-02  0.8561440E-01
        2   -1    0    0  501    0  0.00000000000E+00  0.00000000000E+00  0.19165875587E+04  0.19165875587E+04  0.25500000920E-02 0. -1.
       -2   -1    0    0    0  501  0.00000000000E+00  0.00000000000E+00 -0.57499724800E+03  0.57499724801E+03  0.25500000920E-02 0.  1.
    10030    2    1    2    0    0  0.00000000000E+00  0.00000000000E+00  0.13415903107E+04  0.24915848067E+04  0.20995547831E+04 0.  0.
        5    1    3    3  502    0  0.78153663334E+03  0.29838281572E+03 -0.81794039155E+02  0.84056181736E+03  0.46999998093E+01 0.  1.
       -5    1    3    3    0  502 -0.78153663334E+03 -0.29838281572E+03  0.14233843499E+04  0.16510229894E+04  0.46999998093E+01 0. -1.
</event>
<event>
 5   0  0.3636435E-06  0.2100546E+04  0.7818609E-02  0.8561003E-01
        2   -1    0    0  501    0  0.00000000000E+00  0.00000000000E+00  0.22012627116E+04  0.22012627116E+04  0.25500000920E-02 0.  1.
       -2   -1    0    0    0  501  0.00000000000E+00  0.00000000000E+00 -0.50110921968E+03  0.50110921968E+03  0.25500000920E-02 0. -1.
    10030    2    1    2    0    0  0.00000000000E+00  0.00000000000E+00  0.17001534920E+04  0.27023719313E+04  0.21005456812E+04 0.  0.
        4    1    3    3  502    0 -0.65530942226E+03 -0.55513160585E+03  0.16278245451E+04  0.18404933852E+04  0.12699999809E+01 0.  1.
       -4    1    3    3    0  502  0.65530942226E+03  0.55513160585E+03  0.72328946893E+02  0.86187854607E+03  0.12699999809E+01 0. -1.
</event>
<event>
 5   0  0.1646510E-06  0.2099970E+04  0.7818609E-02  0.8561256E-01
        1   -1    0    0  501    0  0.00000000000E+00  0.00000000000E+00  0.17069672328E+04  0.17069672328E+04  0.50400001928E-02 0. -1.
       -1   -1    0    0    0  501  0.00000000000E+00  0.00000000000E+00 -0.64586415450E+03  0.64586415452E+03  0.50400001928E-02 0.  1.
    10030    2    1    2    0    0  0.00000000000E+00  0.00000000000E+00  0.10611030783E+04  0.23528313873E+04  0.20999704270E+04 0.  0.
        4    1    3    3  502    0 -0.87407837084E+03  0.37619321965E+03  0.33344952274E+02  0.95218056881E+03  0.12699999809E+01 0.  1.
       -4    1    3    3    0  502  0.87407837084E+03 -0.37619321965E+03  0.10277581260E+04  0.14006508185E+04  0.12699999809E+01 0. -1.
</event>
<event>
 5   0  0.1579820E-06  0.2093740E+04  0.7818609E-02  0.8564006E-01
       -1   -1    0    0    0  501  0.00000000000E+00  0.00000000000E+00  0.96209265319E+03  0.96209265320E+03  0.50400001928E-02 0. -1.
        1   -1    0    0  501    0  0.00000000000E+00  0.00000000000E+00 -0.11391175746E+04  0.11391175746E+04  0.50400001928E-02 0.  1.
    10030    2    1    2    0    0  0.00000000000E+00  0.00000000000E+00 -0.17702492142E+03  0.21012102278E+04  0.20937398594E+04 0.  0.
        2    1    3    3  502    0 -0.10151399775E+04  0.15748065108E+03  0.11376890336E+03  0.10335631054E+04  0.25500000920E-02 0. -1.
       -2    1    3    3    0  502  0.10151399775E+04 -0.15748065108E+03 -0.29079382478E+03  0.10676471224E+04  0.25500000920E-02 0.  1.
</event>
<event>
 5   0  0.3547583E-06  0.2099181E+04  0.7818609E-02  0.8561604E-01
        2   -1    0    0  501    0  0.00000000000E+00  0.00000000000E+00  0.11474158115E+04  0.11474158115E+04  0.25500000920E-02 0. -1.
       -2   -1    0    0    0  501  0.00000000000E+00  0.00000000000E+00 -0.96010541764E+03  0.96010541765E+03  0.25500000920E-02 0.  1.
    10030    2    1    2    0    0  0.00000000000E+00  0.00000000000E+00  0.18731039385E+03  0.21075212291E+04  0.20991809230E+04 0.  0.
        2    1    3    3  502    0 -0.49594298600E+03  0.89868637873E+03 -0.12640390437E+03  0.10342023979E+04  0.25500000920E-02 0.  1.
       -2    1    3    3    0  502  0.49594298600E+03 -0.89868637873E+03  0.31371429823E+03  0.10733188313E+04  0.25500000920E-02 0. -1.
</event>
<event>
 5   0  0.1579820E-06  0.2099945E+04  0.7818609E-02  0.8561268E-01
        1   -1    0    0  501    0  0.00000000000E+00  0.00000000000E+00  0.15320662851E+04  0.15320662851E+04  0.50400001928E-02 0.  1.
       -1   -1    0    0    0  501  0.00000000000E+00  0.00000000000E+00 -0.71957859544E+03  0.71957859546E+03  0.50400001928E-02 0. -1.
    10030    2    1    2    0    0  0.00000000000E+00  0.00000000000E+00  0.81248768962E+03  0.22516448805E+04  0.20999448617E+04 0.  0.
        2    1    3    3  502    0  0.19040946273E+03 -0.98448265476E+03  0.72330602703E+02  0.10053325704E+04  0.25500000920E-02 0. -1.
       -2    1    3    3    0  502 -0.19040946273E+03  0.98448265476E+03  0.74015708692E+03  0.12463123101E+04  0.25500000920E-02 0.  1.
</event>
<event>
 5   0  0.3574927E-06  0.2101320E+04  0.7818609E-02  0.8560662E-01
       -2   -1    0    0    0  501  0.00000000000E+00  0.00000000000E+00  0.75521424257E+03  0.75521424258E+03  0.25500000920E-02 0. -1.
        2   -1    0    0  501    0  0.00000000000E+00  0.00000000000E+00 -0.14616868740E+04  0.14616868740E+04  0.25500000920E-02 0.  1.
    10030    2    1    2    0    0  0.00000000000E+00  0.00000000000E+00 -0.70647263145E+03  0.22169011166E+04  0.21013202949E+04 0.  0.
        3    1    3    3  502    0  0.61970116889E+03  0.19905630131E+03  0.51689172873E+03  0.83116184900E+03  0.10100000352E+00 0. -1.
       -3    1    3    3    0  502 -0.61970116889E+03 -0.19905630131E+03 -0.12233643602E+04  0.13857392676E+04  0.10100000352E+00 0.  1.
</event>
<event>
 5   0  0.3705828E-06  0.2100388E+04  0.7818609E-02  0.8561073E-01
        2   -1    0    0  501    0  0.00000000000E+00  0.00000000000E+00  0.10487337346E+04  0.10487337346E+04  0.25500000920E-02 0.  1.
       -2   -1    0    0    0  501  0.00000000000E+00  0.00000000000E+00 -0.10516559412E+04  0.10516559412E+04  0.25500000920E-02 0. -1.
    10030    2    1    2    0    0  0.00000000000E+00  0.00000000000E+00 -0.29222066239E+01  0.21003896759E+04  0.21003876431E+04 0.  0.
        5    1    3    3  502    0  0.11323174895E+03  0.36461152172E+03 -0.97978816248E+03  0.10515559538E+04  0.46999998093E+01 0. -1.
       -5    1    3    3    0  502 -0.11323174895E+03 -0.36461152172E+03  0.97686595585E+03  0.10488337220E+04  0.46999998093E+01 0.  1.
</event>
<event>
 5   0  0.1590067E-06  0.2099076E+04  0.7818609E-02  0.8561650E-01
       -1   -1    0    0    0  501  0.00000000000E+00  0.00000000000E+00  0.83041340828E+03  0.83041340830E+03  0.50400001928E-02 0.  1.
        1   -1    0    0  501    0  0.00000000000E+00  0.00000000000E+00 -0.13264841979E+04  0.13264841979E+04  0.50400001928E-02 0. -1.
    10030    2    1    2    0    0  0.00000000000E+00  0.00000000000E+00 -0.49607078962E+03  0.21568976062E+04  0.20990762386E+04 0.  0.
        5    1    3    3  502    0 -0.10225749407E+04 -0.19733145624E+03 -0.11441899162E+03  0.10477180005E+04  0.46999998093E+01 0. -1.
       -5    1    3    3    0  502  0.10225749407E+04  0.19733145624E+03 -0.38165179800E+03  0.11091796057E+04  0.46999998093E+01 0.  1.
</event>
<event>
 5   0  0.1653260E-06  0.2099719E+04  0.7818609E-02  0.8561367E-01
       -1   -1    0    0    0  501  0.00000000000E+00  0.00000000000E+00  0.78052604223E+03  0.78052604224E+03  0.50400001928E-02 0. -1.
        1   -1    0    0  501    0  0.00000000000E+00  0.00000000000E+00 -0.14121311649E+04  0.14121311649E+04  0.50400001928E-02 0.  1.
    10030    2    1    2    0    0  0.00000000000E+00  0.00000000000E+00 -0.63160512266E+03  0.21926572071E+04  0.20997191710E+04 0.  0.
        3    1    3    3  502    0  0.71692101603E+03  0.13435270578E+03 -0.11043267853E+04  0.13234666795E+04  0.10100000352E+00 0.  1.
       -3    1    3    3    0  502 -0.71692101603E+03 -0.13435270578E+03  0.47272166267E+03  0.86919052763E+03  0.10100000352E+00 0. -1.
</event>
<event>
 5   0  0.3574927E-06  0.2099234E+04  0.7818609E-02  0.8561581E-01
       -2   -1    0    0    0  501  0.00000000000E+00  0.00000000000E+00  0.16933355481E+04  0.16933355481E+04  0.25500000920E-02 0.  1.
        2   -1    0    0  501    0  0.00000000000E+00  0.00000000000E+00 -0.65060690958E+03  0.65060690959E+03  0.25500000920E-02 0. -1.
    10030    2    1    2    0    0  0.00000000000E+00  0.00000000000E+00  0.10427286385E+04  0.23439424577E+04  0.20992339630E+04 0.  0.
        3    1    3    3  502    0 -0.39808804826E+03  0.87201321607E+03  0.43954216967E+02  0.95959008256E+03  0.10100000352E+00 0. -1.
       -3    1    3    3    0  502  0.39808804826E+03 -0.87201321607E+03  0.99877442153E+03  0.13843523751E+04  0.10100000352E+00 0.  1.
</event>
<event>
 5   0  0.3480134E-06  0.2095952E+04  0.7818609E-02  0.8563029E-01
       -2   -1    0    0    0  501  0.00000000000E+00  0.00000000000E+00  0.81936065469E+03  0.81936065470E+03  0.25500000920E-02 0.  1.
        2   -1    0    0  501    0  0.00000000000E+00  0.00000000000E+00 -0.13403784238E+04  0.13403784238E+04  0.25500000920E-02 0. -1.
    10030    2    1    2    0    0  0.00000000000E+00  0.00000000000E+00 -0.52101776907E+03  0.21597390785E+04  0.20959516625E+04 0.  0.
        1    1    3    3  502    0  0.68300667837E+03  0.58891339137E+03 -0.81054836934E+03  0.12125616538E+04  0.50400001928E-02 0. -1.
       -1    1    3    3    0  502 -0.68300667837E+03 -0.58891339137E+03  0.28953060028E+03  0.94717742465E+03  0.50400001928E-02 0.  1.
</event>
<event>
 5   0  0.3480134E-06  0.2100195E+04  0.7818609E-02  0.8561157E-01
       -2   -1    0    0    0  501  0.00000000000E+00  0.00000000000E+00  0.92396055673E+03  0.92396055674E+03  0.25500000920E-02 0.  1.
        2   -1    0    0  501    0  0.00000000000E+00  0.00000000000E+00 -0.11934548079E+04  0.11934548079E+04  0.25500000920E-02 0. -1.
    10030    2    1    2    0    0  0.00000000000E+00  0.00000000000E+00 -0.26949425118E+03  0.21174153646E+04  0.21001953897E+04 0.  0.
        1    1    3    3  502    0 -0.97113732778E+03  0.17363075117E+03  0.22799424316E+03  0.10125397385E+04  0.50400001928E-02 0.  1.
       -1    1    3    3    0  502  0.97113732778E+03 -0.17363075117E+03 -0.49748849433E+03  0.11048756261E+04  0.50400001928E-02 0. -1.
</event>
<event>
 5   0  0.3547583E-06  0.2099132E+04  0.7818609E-02  0.8561626E-01
       -2   -1    0    0    0  501  0.00000000000E+00  0.00000000000E+00  0.21358597063E+04  0.21358597063E+04  0.25500000920E-02 0.  1.
        2   -1    0    0  501    0  0.00000000000E+00  0.00000000000E+00 -0.51575908472E+03  0.51575908473E+03  0.25500000920E-02 0. -1.
    10030    2    1    2    0    0  0.00000000000E+00  0.00000000000E+00  0.16201006216E+04  0.26516187910E+04  0.20991322466E+04 0.  0.
        2    1    3    3  502    0  0.90253613319E+03  0.45756583633E+03  0.11620522375E+04  0.15408774672E+04  0.25500000920E-02 0.  1.
       -2    1    3    3    0  502 -0.90253613319E+03 -0.45756583633E+03  0.45804838413E+03  0.11107413239E+04  0.25500000920E-02 0. -1.
</event>
<event>
 5   0  0.1615098E-06  0.2099911E+04  0.7818609E-02  0.8561283E-01
       -1   -1    0    0    0  501  0.00000000000E+00  0.00000000000E+00  0.16202273856E+04  0.16202273856E+04  0.50400001928E-02 0. -1.
        1   -1    0    0  501    0  0.00000000000E+00  0.00000000000E+00 -0.68040206732E+03  0.68040206734E+03  0.50400001928E-02 0.  1.
    10030    2    1    2    0    0  0.00000000000E+00  0.00000000000E+00  0.93982531826E+03  0.23006294529E+04  0.20999105340E+04 0.  0.
        1    1    3    3  502    0  0.30682221241E+03 -0.85365629370E+03  0.10491621093E+04  0.13869427059E+04  0.50400001928E-02 0. -1.
       -1    1    3    3    0  502 -0.30682221241E+03  0.85365629370E+03 -0.10933679106E+03  0.91368674703E+03  0.50400001928E-02 0.  1.
</event>
<event>
 5   0  0.3480134E-06  0.2100410E+04  0.7818609E-02  0.8561063E-01
       -2   -1    0    0    0  501  0.00000000000E+00  0.00000000000E+00  0.13711067727E+04  0.13711067727E+04  0.25500000920E-02 0.  1.
        2   -1    0    0  501    0  0.00000000000E+00  0.00000000000E+00 -0.80440898157E+03  0.80440898157E+03  0.25500000920E-02 0. -1.
    10030    2    1    2    0    0  0.00000000000E+00  0.00000000000E+00  0.56669779118E+03  0.21755157543E+04  0.21004100578E+04 0.  0.
        1    1    3    3  502    0  0.71642652824E+03  0.53826359148E+03  0.85059614216E+03  0.12355195107E+04  0.50400001928E-02 0.  1.
       -1    1    3    3    0  502 -0.71642652824E+03 -0.53826359148E+03 -0.28389835098E+03  0.93999624360E+03  0.50400001928E-02 0. -1.
</event>
<event>
 5   0  0.3636435E-06  0.2100170E+04  0.7818609E-02  0.8561169E-01
        2   -1    0    0  501    0  0.00000000000E+00  0.00000000000E+00  0.12125529706E+04  0.12125529706E+04  0.25500000920E-02 0. -1.
       -2   -1    0    0    0  501  0.00000000000E+00  0.00000000000E+00 -0.90938556282E+03  0.90938556283E+03  0.25500000920E-02 0.  1.
    10030    2    1    2    0    0  0.00000000000E+00  0.00000000000E+00  0.30316740773E+03  0.21219385334E+04  0.21001696747E+04 0.  0.
        4    1    3    3  502    0  0.33149149875E+03  0.88372020623E+03 -0.31343524341E+03  0.99453068396E+03  0.12699999809E+01 0.  1.
       -4    1    3    3    0  502 -0.33149149875E+03 -0.88372020623E+03  0.61660265115E+03  0.11274078494E+04  0.12699999809E+01 0. -1.
</event>
<event>
 5   0  0.3574927E-06  0.2099956E+04  0.7818609E-02  0.8561263E-01
        2   -1    0    0  501    0  0.00000000000E+00  0.00000000000E+00  0.16775412311E+04  0.16775412311E+04  0.25500000920E-02 0.  1.
       -2   -1    0    0    0  501  0.00000000000E+00  0.00000000000E+00 -0.65718422679E+03  0.65718422680E+03  0.25500000920E-02 0. -1.
    10030    2    1    2    0    0  0.00000000000E+00  0.00000000000E+00  0.10203570043E+04  0.23347254579E+04  0.20999558442E+04 0.  0.
        3    1    3    3  502    0 -0.99412740732E+03 -0.33596385956E+03  0.47020618051E+03  0.11498934208E+04  0.10100000352E+00 0.  1.
       -3    1    3    3    0  502  0.99412740732E+03  0.33596385956E+03  0.55015082381E+03  0.11848320371E+04  0.10100000352E+00 0. -1.
</event>
<event>
 5   0  0.1590067E-06  0.2111197E+04  0.7818609E-02  0.8556327E-01
       -1   -1    0    0    0  501  0.00000000000E+00  0.00000000000E+00  0.87494274915E+03  0.87494274916E+03  0.50400001928E-02 0.  1.
        1   -1    0    0  501    0  0.00000000000E+00  0.00000000000E+00 -0.12735558422E+04  0.12735558422E+04  0.50400001928E-02 0. -1.
    10030    2    1    2    0    0  0.00000000000E+00  0.00000000000E+00 -0.39861309306E+03  0.21484985914E+04  0.21111972431E+04 0.  0.
        5    1    3    3  502    0  0.22955407468E+03 -0.10113453065E+04  0.10267265952E+01  0.10370812631E+04  0.46999998093E+01 0. -1.
       -5    1    3    3    0  502 -0.22955407468E+03  0.10113453065E+04 -0.39963981966E+03  0.11114173283E+04  0.46999998093E+01 0.  1.
</event>
<event>
 5   0  0.1579820E-06  0.2100114E+04  0.7818609E-02  0.8561193E-01
        1   -1    0    0  501    0  0.00000000000E+00  0.00000000000E+00  0.11291574570E+04  0.11291574570E+04  0.50400001928E-02 0.  1.
       -1   -1    0    0    0  501  0.00000000000E+00  0.00000000000E+00 -0.97649748769E+03  0.97649748770E+03  0.50400001928E-02 0. -1.
    10030    2    1    2    0    0  0.00000000000E+00  0.00000000000E+00  0.15265996931E+03  0.21056549447E+04  0.21001137302E+04 0.  0.
        2    1    3    3  502    0 -0.84129739678E+03  0.62104903202E+03 -0.19505739004E+02  0.10458793830E+04  0.25500000920E-02 0.  1.
       -2    1    3    3    0  502  0.84129739678E+03 -0.62104903202E+03  0.17216570831E+03  0.10597755617E+04  0.25500000920E-02 0. -1.
</event>
<event>
 5   0  0.3480134E-06  0.2099795E+04  0.7818609E-02  0.8561334E-01
        2   -1    0    0  501    0  0.00000000000E+00  0.00000000000E+00  0.95539652265E+03  0.95539652265E+03  0.25500000920E-02 0. -1.
       -2   -1    0    0    0  501  0.00000000000E+00  0.00000000000E+00 -0.11537460012E+04  0.11537460012E+04  0.25500000920E-02 0.  1.
    10030    2    1    2    0    0  0.00000000000E+00  0.00000000000E+00 -0.19834947853E+03  0.21091425238E+04  0.20997951496E+04 0.  0.
        1    1    3    3  502    0  0.13338358017E+03  0.15245359342E+02  0.94673927363E+03  0.95621067381E+03  0.50400001928E-02 0. -1.
       -1    1    3    3    0  502 -0.13338358017E+03 -0.15245359342E+02 -0.11450887522E+04  0.11529318500E+04  0.50400001928E-02 0.  1.
</event>
<event>
 5   0  0.3636435E-06  0.2100327E+04  0.7818609E-02  0.8561099E-01
        2   -1    0    0  501    0  0.00000000000E+00  0.00000000000E+00  0.19856344394E+04  0.19856344394E+04  0.25500000920E-02 0.  1.
       -2   -1    0    0    0  501  0.00000000000E+00  0.00000000000E+00 -0.55541121727E+03  0.55541121728E+03  0.25500000920E-02 0. -1.
    10030    2    1    2    0    0  0.00000000000E+00  0.00000000000E+00  0.14302232221E+04  0.25410456567E+04  0.21003272517E+04 0.  0.
        4    1    3    3  502    0 -0.16197963224E+03 -0.34840352221E+03  0.18975461757E+04  0.19360541102E+04  0.12699999809E+01 0.  1.
       -4    1    3    3    0  502  0.16197963224E+03  0.34840352221E+03 -0.46732295358E+03  0.60499154654E+03  0.12699999809E+01 0. -1.
</event>
<event>
 5   0  0.3574927E-06  0.2100073E+04  0.7818609E-02  0.8561211E-01
       -2   -1    0    0    0  501  0.00000000000E+00  0.00000000000E+00  0.71318694895E+03  0.71318694896E+03  0.25500000920E-02 0.  1.
        2   -1    0    0  501    0  0.00000000000E+00  0.00000000000E+00 -0.15459853650E+04  0.15459853650E+04  0.25500000920E-02 0. -1.
    10030    2    1    2    0    0  0.00000000000E+00  0.00000000000E+00 -0.83279841605E+03  0.22591723140E+04  0.21000729374E+04 0.  0.
        3    1    3    3  502    0 -0.13658307589E+03  0.94189496931E+03  0.60776608682E+02  0.95368489355E+03  0.10100000352E+00 0.  1.
       -3    1    3    3    0  502  0.13658307589E+03 -0.94189496931E+03 -0.89357502473E+03  0.13054874204E+04  0.10100000352E+00 0. -1.
</event>
<event>
 5   0  0.1615098E-06  0.2101361E+04  0.7818609E-02  0.8560644E-01
        1   -1    0    0  501    0  0.00000000000E+00  0.00000000000E+00  0.14378899591E+04  0.14378899591E+04  0.50400001928E-02 0. -1.
       -1   -1    0    0    0  501  0.00000000000E+00  0.00000000000E+00 -0.76774302766E+03  0.76774302767E+03  0.50400001928E-02 0.  1.
    10030    2    1    2    0    0  0.00000000000E+00  0.00000000000E+00  0.67014693144E+03  0.22056329868E+04  0.21013614545E+04 0.  0.
        1    1    3    3  502    0  0.59279854584E+03  0.21975248932E+03  0.12158978975E+04  0.13704411588E+04  0.50400001928E-02 0. -1.
       -1    1    3    3    0  502 -0.59279854584E+03 -0.21975248932E+03 -0.54575096608E+03  0.83519182798E+03  0.50400001928E-02 0.  1.
</event>
<event>
 5   0  0.3547583E-06  0.2101426E+04  0.7818609E-02  0.8560616E-01
       -2   -1    0    0    0  501  0.00000000000E+00  0.00000000000E+00  0.13222367103E+04  0.13222367103E+04  0.25500000920E-02 0.  1.
        2   -1    0    0  501    0  0.00000000000E+00  0.00000000000E+00 -0.83494706400E+03  0.83494706400E+03  0.25500000920E-02 0. -1.
    10030    2    1    2    0    0  0.00000000000E+00  0.00000000000E+00  0.48728964631E+03  0.21571837743E+04  0.21014258580E+04 0.  0.
        2    1    3    3  502    0 -0.18529256077E+03 -0.58257321356E+03 -0.63358952614E+03  0.88043203592E+03  0.25500000920E-02 0. -1.
       -2    1    3    3    0  502  0.18529256077E+03  0.58257321356E+03  0.11208791725E+04  0.12767517384E+04  0.25500000920E-02 0.  1.
</event>
<event>
 5   0  0.1615098E-06  0.2099586E+04  0.7818609E-02  0.8561426E-01
       -1   -1    0    0    0  501  0.00000000000E+00  0.00000000000E+00  0.82735886710E+03  0.82735886712E+03  0.50400001928E-02 0. -1.
        1   -1    0    0  501    0  0.00000000000E+00  0.00000000000E+00 -0.13320281681E+04  0.13320281681E+04  0.50400001928E-02 0.  1.
    10030    2    1    2    0    0  0.00000000000E+00  0.00000000000E+00 -0.50466930100E+03  0.21593870352E+04  0.20995859746E+04 0.  0.
        1    1    3    3  502    0 -0.72347035541E+03 -0.62469019246E+03 -0.69876957783E+03  0.11840296089E+04  0.50400001928E-02 0.  1.
       -1    1    3    3    0  502  0.72347035541E+03  0.62469019246E+03  0.19410027682E+03  0.97535742638E+03  0.50400001928E-02 0. -1.
</event>
<event>
 5   0  0.1579820E-06  0.2099997E+04  0.7818609E-02  0.8561245E-01
       -1   -1    0    0    0  501  0.00000000000E+00  0.00000000000E+00  0.98298231792E+03  0.98298231793E+03  0.50400001928E-02 0. -1.
        1   -1    0    0  501    0  0.00000000000E+00  0.00000000000E+00 -0.11215830937E+04  0.11215830937E+04  0.50400001928E-02 0.  1.
    10030    2    1    2    0    0  0.00000000000E+00  0.00000000000E+00 -0.13860077582E+03  0.21045654117E+04  0.20999965231E+04 0.  0.
        2    1    3    3  502    0  0.64125780240E+03 -0.79563071878E+03  0.17258865401E+03  0.10363525719E+04  0.25500000920E-02 0. -1.
       -2    1    3    3    0  502 -0.64125780240E+03  0.79563071878E+03 -0.31118942983E+03  0.10682128398E+04  0.25500000920E-02 0.  1.
</event>
<event>
 5   0  0.3705828E-06  0.2099499E+04  0.7818609E-02  0.8561464E-01
       -2   -1    0    0    0  501  0.00000000000E+00  0.00000000000E+00  0.75153006395E+03  0.75153006396E+03  0.25500000920E-02 0. -1.
        2   -1    0    0  501    0  0.00000000000E+00  0.00000000000E+00 -0.14663069463E+04  0.14663069463E+04  0.25500000920E-02 0.  1.
    10030    2    1    2    0    0  0.00000000000E+00  0.00000000000E+00 -0.71477688237E+03  0.22178370103E+04  0.20994987527E+04 0.  0.
        5    1    3    3  502    0  0.50400138977E+03  0.22260923114E+03 -0.13012725292E+04  0.14131187338E+04  0.46999998093E+01 0.  1.
       -5    1    3    3    0  502 -0.50400138977E+03 -0.22260923114E+03  0.58649564684E+03  0.80471827644E+03  0.46999998093E+01 0. -1.
</event>
<event>
 5   0  0.1615098E-06  0.2100093E+04  0.7818609E-02  0.8561202E-01
       -1   -1    0    0    0  501  0.00000000000E+00  0.00000000000E+00  0.12071108313E+04  0.12071108313E+04  0.50400001928E-02 0.  1.
        1   -1    0    0  501    0  0.00000000000E+00  0.00000000000E+00 -0.91341891675E+03  0.91341891676E+03  0.50400001928E-02 0. -1.
    10030    2    1    2    0    0  0.00000000000E+00  0.00000000000E+00  0.29369191451E+03  0.21205297480E+04  0.21000932055E+04 0.  0.
        1    1    3    3  502    0 -0.60573951472E+03 -0.82169278561E+03  0.39520387533E+03  0.10946622752E+04  0.50400001928E-02 0.  1.
       -1    1    3    3    0  502  0.60573951472E+03  0.82169278561E+03 -0.10151196082E+03  0.10258674728E+04  0.50400001928E-02 0. -1.
</event>
<event>
 5   0  0.3636435E-06  0.2100090E+04  0.7818609E-02  0.8561204E-01
        2   -1    0    0  501    0  0.00000000000E+00  0.00000000000E+00  0.17763121400E+04  0.17763121400E+04  0.25500000920E-02 0.  1.
       -2   -1    0    0    0  501  0.00000000000E+00  0.00000000000E+00 -0.62072100721E+03  0.62072100722E+03  0.25500000920E-02 0. -1.
    10030    2    1    2    0    0  0.00000000000E+00  0.00000000000E+00  0.11555911328E+04  0.23970331472E+04  0.21000897701E+04 0.  0.
        4    1    3    3  502    0 -0.20941530879E+03  0.13305343227E+03 -0.58678295186E+03  0.63708228110E+03  0.12699999809E+01 0. -1.
       -4    1    3    3    0  502  0.20941530879E+03 -0.13305343227E+03  0.17423740846E+04  0.17599508661E+04  0.12699999809E+01 0.  1.
</event>
<event>
 5   0  0.1257125E-06  0.2099801E+04  0.7818609E-02  0.8561331E-01
        3   -1    0    0  501    0  0.00000000000E+00  0.00000000000E+00  0.11761808131E+04  0.11761808175E+04  0.10100000352E+00 0. -1.
       -3   -1    0    0    0  501  0.00000000000E+00  0.00000000000E+00 -0.93717841108E+03  0.93717841652E+03  0.10100000352E+00 0.  1.
    10030    2    1    2    0    0  0.00000000000E+00  0.00000000000E+00  0.23900240207E+03  0.21133592340E+04  0.20998012058E+04 0.  0.
        2    1    3    3  502    0 -0.87874050489E+03 -0.46022364316E+03  0.46567055481E+03  0.10958283361E+04  0.25500000920E-02 0. -1.
       -2    1    3    3    0  502  0.87874050489E+03  0.46022364316E+03 -0.22666815274E+03  0.10175308979E+04  0.25500000920E-02 0.  1.
</event>
<event>
 5   0  0.3574927E-06  0.2101321E+04  0.7818609E-02  0.8560661E-01
        2   -1    0    0  501    0  0.00000000000E+00  0.00000000000E+00  0.18598564668E+04  0.18598564668E+04  0.25500000920E-02 0.  1.
       -2   -1    0    0    0  501  0.00000000000E+00  0.00000000000E+00 -0.59353395689E+03  0.59353395690E+03  0.25500000920E-02 0. -1.
    10030    2    1    2    0    0  0.00000000000E+00  0.00000000000E+00  0.12663225099E+04  0.24533904237E+04  0.21013214585E+04 0.  0.
        3    1    3    3  502    0  0.59500424923E+03  0.34316763467E+02 -0.37707363112E+03  0.70526039896E+03  0.10100000352E+00 0. -1.
       -3    1    3    3    0  502 -0.59500424923E+03 -0.34316763467E+02  0.16433961410E+04  0.17481300247E+04  0.10100000352E+00 0.  1.
</event>
<event>
 5   0  0.3574927E-06  0.2099905E+04  0.7818609E-02  0.8561285E-01
        2   -1    0    0  501    0  0.00000000000E+00  0.00000000000E+00  0.11358422864E+04  0.11358422864E+04  0.25500000920E-02 0.  1.
       -2   -1    0    0    0  501  0.00000000000E+00  0.00000000000E+00 -0.97055739971E+03  0.97055739972E+03  0.25500000920E-02 0. -1.
    10030    2    1    2    0    0  0.00000000000E+00  0.00000000000E+00  0.16528488667E+03  0.21063996861E+04  0.20999048892E+04 0.  0.
        3    1    3    3  502    0  0.66959866507E+02  0.68152894292E+03 -0.71570532743E+03  0.99055512197E+03  0.10100000352E+00 0. -1.
       -3    1    3    3    0  502 -0.66959866507E+02 -0.68152894292E+03  0.88099021410E+03  0.11158445641E+04  0.10100000352E+00 0.  1.
</event>
<event>
 5   0  0.1653260E-06  0.2099629E+04  0.7818609E-02  0.8561407E-01
       -1   -1    0    0    0  501  0.00000000000E+00  0.00000000000E+00  0.83198027825E+03  0.83198027827E+03  0.50400001928E-02 0. -1.
        1   -1    0    0  501    0  0.00000000000E+00  0.00000000000E+00 -0.13246834312E+04  0.13246834312E+04  0.50400001928E-02 0.  1.
    10030    2    1    2    0    0  0.00000000000E+00  0.00000000000E+00 -0.49270315296E+03  0.21566637095E+04  0.20996290051E+04 0.  0.
        3    1    3    3  502    0 -0.58531537953E+03 -0.11306480371E+03 -0.11339621402E+04  0.12811119736E+04  0.10100000352E+00 0.  1.
       -3    1    3    3    0  502  0.58531537953E+03  0.11306480371E+03  0.64125898721E+03  0.87555173589E+03  0.10100000352E+00 0. -1.
</event>
<event>
 5   0  0.3547583E-06  0.2100026E+04  0.7818609E-02  0.8561232E-01
        2   -1    0    0  501    0  0.00000000000E+00  0.00000000000E+00  0.71723462140E+03  0.71723462141E+03  0.25500000920E-02 0.  1.
       -2   -1    0    0    0  501  0.00000000000E+00  0.00000000000E+00 -0.15371925046E+04  0.15371925046E+04  0.25500000920E-02 0. -1.
    10030    2    1    2    0    0  0.00000000000E+00  0.00000000000E+00 -0.81995788317E+03  0.22544271260E+04  0.21000263656E+04 0.  0.
        2    1    3    3  502    0  0.55403049076E+03 -0.10240168659E+03  0.54122068927E+03  0.78125266374E+03  0.25500000920E-02 0.  1.
       -2    1    3    3    0  502 -0.55403049076E+03  0.10240168659E+03 -0.13611785724E+04  0.14731744622E+04  0.25500000920E-02 0. -1.
</event>
<event>
 5   0  0.3636435E-06  0.2100982E+04  0.7818609E-02  0.8560811E-01
       -2   -1    0    0    0  501  0.00000000000E+00  0.00000000000E+00  0.10410115623E+04  0.10410115623E+04  0.25500000920E-02 0. -1.
        2   -1    0    0  501    0  0.00000000000E+00  0.00000000000E+00 -0.10600567551E+04  0.10600567551E+04  0.25500000920E-02 0.  1.
    10030    2    1    2    0    0  0.00000000000E+00  0.00000000000E+00 -0.19045192773E+02  0.21010683175E+04  0.21009819978E+04 0.  0.
        4    1    3    3  502    0  0.30900692779E+03  0.47042235912E+03 -0.89654677726E+03  0.10585746143E+04  0.12699999809E+01 0.  1.
       -4    1    3    3    0  502 -0.30900692779E+03 -0.47042235912E+03  0.87750158449E+03  0.10424937031E+04  0.12699999809E+01 0. -1.
</event>
<event>
 5   0  0.3636435E-06  0.2098388E+04  0.7818609E-02  0.8561954E-01
       -2   -1    0    0    0  501  0.00000000000E+00  0.00000000000E+00  0.54969947492E+03  0.54969947493E+03  0.25500000920E-02 0. -1.
        2   -1    0    0  501    0  0.00000000000E+00  0.00000000000E+00 -0.20025626918E+04  0.20025626918E+04  0.25500000920E-02 0.  1.
    10030    2    1    2    0    0  0.00000000000E+00  0.00000000000E+00 -0.14528632168E+04  0.25522621667E+04  0.20983876288E+04 0.  0.
        4    1    3    3  502    0  0.69478492868E+03 -0.67747842728E+03 -0.12115845348E+04  0.15523021016E+04  0.12699999809E+01 0. -1.
       -4    1    3    3    0  502 -0.69478492868E+03  0.67747842728E+03 -0.24127868200E+03  0.99996006512E+03  0.12699999809E+01 0.  1.
</event>
<event>
 5   0  0.1646510E-06  0.2101082E+04  0.7818609E-02  0.8560767E-01
       -1   -1    0    0    0  501  0.00000000000E+00  0.00000000000E+00  0.59950170728E+03  0.59950170731E+03  0.50400001928E-02 0.  1.
        1   -1    0    0  501    0  0.00000000000E+00  0.00000000000E+00 -0.18409220187E+04  0.18409220188E+04  0.50400001928E-02 0. -1.
    10030    2    1    2    0    0  0.00000000000E+00  0.00000000000E+00 -0.12414203115E+04  0.24404237261E+04  0.21010815246E+04 0.  0.
        4    1    3    3  502    0  0.70726724769E+03  0.32638103197E+03  0.19803603310E+03  0.80372347296E+03  0.12699999809E+01 0.  1.
       -4    1    3    3    0  502 -0.70726724769E+03 -0.32638103197E+03 -0.14394563446E+04  0.16367002531E+04  0.12699999809E+01 0. -1.
</event>
<event>
 5   0  0.1653260E-06  0.2099655E+04  0.7818609E-02  0.8561395E-01
       -1   -1    0    0    0  501  0.00000000000E+00  0.00000000000E+00  0.10307446843E+04  0.10307446843E+04  0.50400001928E-02 0.  1.
        1   -1    0    0  501    0  0.00000000000E+00  0.00000000000E+00 -0.10692638326E+04  0.10692638326E+04  0.50400001928E-02 0. -1.
    10030    2    1    2    0    0  0.00000000000E+00  0.00000000000E+00 -0.38519148230E+02  0.21000085169E+04  0.20996552208E+04 0.  0.
        3    1    3    3  502    0 -0.75750532106E+03 -0.60503269652E+03 -0.42214136246E+03  0.10573940682E+04  0.10100000352E+00 0. -1.
       -3    1    3    3    0  502  0.75750532106E+03  0.60503269652E+03  0.38362221423E+03  0.10426144488E+04  0.10100000352E+00 0.  1.
</event>
<event>
 5   0  0.1615098E-06  0.2100507E+04  0.7818609E-02  0.8561020E-01
        1   -1    0    0  501    0  0.00000000000E+00  0.00000000000E+00  0.80602381216E+03  0.80602381218E+03  0.50400001928E-02 0. -1.
       -1   -1    0    0    0  501  0.00000000000E+00  0.00000000000E+00 -0.13684860722E+04  0.13684860722E+04  0.50400001928E-02 0.  1.
    10030    2    1    2    0    0  0.00000000000E+00  0.00000000000E+00 -0.56246226005E+03  0.21745098844E+04  0.21005069491E+04 0.  0.
        1    1    3    3  502    0 -0.37353763894E+03  0.54629471129E+03  0.56301486700E+03  0.86888090080E+03  0.50400001928E-02 0. -1.
       -1    1    3    3    0  502  0.37353763894E+03 -0.54629471129E+03 -0.11254771271E+04  0.13056289836E+04  0.50400001928E-02 0.  1.
</event>
<event>
 5   0  0.1646510E-06  0.2101250E+04  0.7818609E-02  0.8560693E-01
       -1   -1    0    0    0  501  0.00000000000E+00  0.00000000000E+00  0.14290927814E+04  0.14290927814E+04  0.50400001928E-02 0. -1.
        1   -1    0    0  501    0  0.00000000000E+00  0.00000000000E+00 -0.77238678559E+03  0.77238678560E+03  0.50400001928E-02 0.  1.
    10030    2    1    2    0    0  0.00000000000E+00  0.00000000000E+00  0.65670599584E+03  0.22014795670E+04  0.21012495138E+04 0.  0.
        4    1    3    3  502    0 -0.76862119466E+02 -0.94527850505E+03  0.80196857647E+03  0.12420203090E+04  0.12699999809E+01 0. -1.
       -4    1    3    3    0  502  0.76862119466E+02  0.94527850505E+03 -0.14526258063E+03  0.95945925800E+03  0.12699999809E+01 0.  1.
</event>
<event>
 5   0  0.1615098E-06  0.2099610E+04  0.7818609E-02  0.8561415E-01
       -1   -1    0    0    0  501  0.00000000000E+00  0.00000000000E+00  0.10347313245E+04  0.10347313245E+04  0.50400001928E-02 0. -1.
        1   -1    0    0  501    0  0.00000000000E+00  0.00000000000E+00 -0.10650979647E+04  0.10650979647E+04  0.50400001928E-02 0.  1.
    10030    2    1    2    0    0  0.00000000000E+00  0.00000000000E+00 -0.30366640196E+02  0.20998292892E+04  0.20996097045E+04 0.  0.
        1    1    3    3  502    0 -0.49370260060E+03 -0.72083065012E+03 -0.59726750910E+03  0.10583324437E+04  0.50400001928E-02 0.  1.
       -1    1    3    3    0  502  0.49370260060E+03  0.72083065012E+03  0.56690086890E+03  0.10414968455E+04  0.50400001928E-02 0. -1.
</event>
<event>
 5   0  0.3547583E-06  0.2099456E+04  0.7818609E-02  0.8561483E-01
       -2   -1    0    0    0  501  0.00000000000E+00  0.00000000000E+00  0.41804601231E+03  0.41804601232E+03  0.25500000920E-02 0. -1.
        2   -1    0    0  501    0  0.00000000000E+00  0.00000000000E+00 -0.26359039852E+04  0.26359039852E+04  0.25500000920E-02 0.  1.
    10030    2    1    2    0    0  0.00000000000E+00  0.00000000000E+00 -0.22178579729E+04  0.30539499975E+04  0.20994562628E+04 0.  0.
        2    1    3    3  502    0 -0.43184140455E+03 -0.95587061372E+03 -0.11698420687E+04  0.15712116645E+04  0.25500000920E-02 0.  1.
       -2    1    3    3    0  502  0.43184140455E+03  0.95587061372E+03 -0.10480159042E+04  0.14827383331E+04  0.25500000920E-02 0. -1.
</event>
<event>
 5   0  0.1646510E-06  0.2100221E+04  0.7818609E-02  0.8561146E-01
       -1   -1    0    0    0  501  0.00000000000E+00  0.00000000000E+00  0.11545585996E+04  0.11545585996E+04  0.50400001928E-02 0.  1.
        1   -1    0    0  501    0  0.00000000000E+00  0.00000000000E+00 -0.95511179361E+03  0.95511179362E+03  0.50400001928E-02 0. -1.
    10030    2    1    2    0    0  0.00000000000E+00  0.00000000000E+00  0.19944680598E+03  0.21096703932E+04  0.21002214501E+04 0.  0.
        4    1    3    3  502    0  0.14394299937E+03  0.17393136028E+03 -0.93044371064E+03  0.95744389743E+03  0.12699999809E+01 0. -1.
       -4    1    3    3    0  502 -0.14394299937E+03 -0.17393136028E+03  0.11298905166E+04  0.11522264958E+04  0.12699999809E+01 0.  1.
</event>
<event>
 5   0  0.3547583E-06  0.2099613E+04  0.7818609E-02  0.8561414E-01
       -2   -1    0    0    0  501  0.00000000000E+00  0.00000000000E+00  0.83423741586E+03  0.83423741587E+03  0.25500000920E-02 0.  1.
        2   -1    0    0  501    0  0.00000000000E+00  0.00000000000E+00 -0.13210789586E+04  0.13210789586E+04  0.25500000920E-02 0. -1.
    10030    2    1    2    0    0  0.00000000000E+00  0.00000000000E+00 -0.48684154272E+03  0.21553163744E+04  0.20996128182E+04 0.  0.
        2    1    3    3  502    0  0.10407572419E+03  0.10177875491E+04 -0.48497243638E+03  0.11322197294E+04  0.25500000920E-02 0. -1.
       -2    1    3    3    0  502 -0.10407572419E+03 -0.10177875491E+04 -0.18691063404E+01  0.10230966451E+04  0.25500000920E-02 0.  1.
</event>
<event>
 5   0  0.1615098E-06  0.2100184E+04  0.7818609E-02  0.8561162E-01
       -1   -1    0    0    0  501  0.00000000000E+00  0.00000000000E+00  0.12644606329E+04  0.12644606330E+04  0.50400001928E-02 0.  1.
        1   -1    0    0  501    0  0.00000000000E+00  0.00000000000E+00 -0.87206633332E+03  0.87206633333E+03  0.50400001928E-02 0. -1.
    10030    2    1    2    0    0  0.00000000000E+00  0.00000000000E+00  0.39239429962E+03  0.21365269663E+04  0.21001843232E+04 0.  0.
        1    1    3    3  502    0  0.34242708616E+03 -0.84660932617E+02  0.12023878103E+04  0.12530603454E+04  0.50400001928E-02 0.  1.
       -1    1    3    3    0  502 -0.34242708616E+03  0.84660932617E+02 -0.80999351067E+03  0.88346662088E+03  0.50400001928E-02 0. -1.
</event>
<event>
 5   0  0.1653260E-06  0.2099447E+04  0.7818609E-02  0.8561487E-01
       -1   -1    0    0    0  501  0.00000000000E+00  0.00000000000E+00  0.10318236968E+04  0.10318236968E+04  0.50400001928E-02 0. -1.
        1   -1    0    0  501    0  0.00000000000E+00  0.00000000000E+00 -0.10679334142E+04  0.10679334142E+04  0.50400001928E-02 0.  1.
    10030    2    1    2    0    0  0.00000000000E+00  0.00000000000E+00 -0.36109717459E+02  0.20997571110E+04  0.20994465970E+04 0.  0.
        3    1    3    3  502    0  0.79796522895E+03  0.68189525450E+03 -0.31817289460E+02  0.10501152293E+04  0.10100000352E+00 0.  1.
       -3    1    3    3    0  502 -0.79796522895E+03 -0.68189525450E+03 -0.42924279997E+01  0.10496418817E+04  0.10100000352E+00 0. -1.
</event>
<event>
 5   0  0.3547583E-06  0.2099738E+04  0.7818609E-02  0.8561359E-01
       -2   -1    0    0    0  501  0.00000000000E+00  0.00000000000E+00  0.55883305703E+03  0.55883305704E+03  0.25500000920E-02 0.  1.
        2   -1    0    0  501    0  0.00000000000E+00  0.00000000000E+00 -0.19723690193E+04  0.19723690193E+04  0.25500000920E-02 0. -1.
    10030    2    1    2    0    0  0.00000000000E+00  0.00000000000E+00 -0.14135359622E+04  0.25312020763E+04  0.20997380871E+04 0.  0.
        2    1    3    3  502    0  0.35217673322E+03  0.37978421055E+00  0.48550231737E+03  0.59978420772E+03  0.25500000920E-02 0.  1.
       -2    1    3    3    0  502 -0.35217673322E+03 -0.37978421055E+00 -0.18990382796E+04  0.19314178686E+04  0.25500000920E-02 0. -1.
</event>
<event>
 5   0  0.3480134E-06  0.2099319E+04  0.7818609E-02  0.8561544E-01
       -2   -1    0    0    0  501  0.00000000000E+00  0.00000000000E+00  0.72934245424E+03  0.72934245424E+03  0.25500000920E-02 0. -1.
        2   -1    0    0  501    0  0.00000000000E+00  0.00000000000E+00 -0.15106547455E+04  0.15106547455E+04  0.25500000920E-02 0.  1.
    10030    2    1    2    0    0  0.00000000000E+00  0.00000000000E+00 -0.78131229130E+03  0.22399971998E+04  0.20993185939E+04 0.  0.
        1    1    3    3  502    0  0.10442798023E+04  0.55267537507E+01 -0.27756404857E+03  0.10805520124E+04  0.50400001928E-02 0.  1.
       -1    1    3    3    0  502 -0.10442798023E+04 -0.55267537507E+01 -0.50374824272E+03  0.11594451874E+04  0.50400001928E-02 0. -1.
</event>
<event>
 5   0  0.3705828E-06  0.2097952E+04  0.7818609E-02  0.8562146E-01
        2   -1    0    0  501    0  0.00000000000E+00  0.00000000000E+00  0.90856995235E+03  0.90856995236E+03  0.25500000920E-02 0.  1.
       -2   -1    0    0    0  501  0.00000000000E+00  0.00000000000E+00 -0.12110799282E+04  0.12110799282E+04  0.25500000920E-02 0. -1.
    10030    2    1    2    0    0  0.00000000000E+00  0.00000000000E+00 -0.30250997587E+03  0.21196498806E+04  0.20979521755E+04 0.  0.
        5    1    3    3  502    0 -0.73223916943E+03 -0.15888081419E+03 -0.89295322004E+03  0.11656778532E+04  0.46999998093E+01 0. -1.
       -5    1    3    3    0  502  0.73223916943E+03  0.15888081419E+03  0.59044324417E+03  0.95397202734E+03  0.46999998093E+01 0.  1.
</event>
<event>
 5   0  0.1646510E-06  0.2100062E+04  0.7818609E-02  0.8561216E-01
       -1   -1    0    0    0  501  0.00000000000E+00  0.00000000000E+00  0.17553895035E+04  0.17553895035E+04  0.50400001928E-02 0.  1.
        1   -1    0    0  501    0  0.00000000000E+00  0.00000000000E+00 -0.62810307570E+03  0.62810307572E+03  0.50400001928E-02 0. -1.
    10030    2    1    2    0    0  0.00000000000E+00  0.00000000000E+00  0.11272864278E+04  0.23834925792E+04  0.21000624240E+04 0.  0.
        4    1    3    3  502    0 -0.16911762477E+03  0.75889581424E+03 -0.23732235092E+03  0.81292505130E+03  0.12699999809E+01 0. -1.
       -4    1    3    3    0  502  0.16911762477E+03 -0.75889581424E+03  0.13646087787E+04  0.15705675279E+04  0.12699999809E+01 0.  1.
</event>
<event>
 5   0  0.1615098E-06  0.2104142E+04  0.7818609E-02  0.8559421E-01
        1   -1    0    0  501    0  0.00000000000E+00  0.00000000000E+00  0.13452962464E+04  0.13452962464E+04  0.50400001928E-02 0.  1.
       -1   -1    0    0    0  501  0.00000000000E+00  0.00000000000E+00 -0.82275838472E+03  0.82275838474E+03  0.50400001928E-02 0. -1.
    10030    2    1    2    0    0  0.00000000000E+00  0.00000000000E+00  0.52253786166E+03  0.21680546311E+04  0.21041423589E+04 0.  0.
        1    1    3    3  502    0 -0.59340487071E+03 -0.35074176668E+03  0.10802090273E+04  0.12814057398E+04  0.50400001928E-02 0.  1.
       -1    1    3    3    0  502  0.59340487071E+03  0.35074176668E+03 -0.55767116560E+03  0.88664889130E+03  0.50400001928E-02 0. -1.
</event>
<event>
 5   0  0.1653260E-06  0.2100345E+04  0.7818609E-02  0.8561091E-01
       -1   -1    0    0    0  501  0.00000000000E+00  0.00000000000E+00  0.59991327309E+03  0.59991327311E+03  0.50400001928E-02 0.  1.
        1   -1    0    0  501    0  0.00000000000E+00  0.00000000000E+00 -0.18383696998E+04  0.18383696998E+04  0.50400001928E-02 0. -1.
    10030    2    1    2    0    0  0.00000000000E+00  0.00000000000E+00 -0.12384564267E+04  0.24382829729E+04  0.21003450991E+04 0.  0.
        3    1    3    3  502    0  0.22122479730E+03 -0.10249367146E+04 -0.68718472714E+03  0.12536580632E+04  0.10100000352E+00 0. -1.
       -3    1    3    3    0  502 -0.22122479730E+03  0.10249367146E+04 -0.55127169960E+03  0.11846249098E+04  0.10100000352E+00 0.  1.
</event>
<event>
 5   0  0.3574927E-06  0.2099632E+04  0.7818609E-02  0.8561405E-01
        2   -1    0    0  501    0  0.00000000000E+00  0.00000000000E+00  0.12019530449E+04  0.12019530449E+04  0.25500000920E-02 0.  1.
       -2   -1    0    0    0  501  0.00000000000E+00  0.00000000000E+00 -0.91693609583E+03  0.91693609583E+03  0.25500000920E-02 0. -1.
    10030    2    1    2    0    0  0.00000000000E+00  0.00000000000E+00  0.28501694907E+03  0.21188891407E+04  0.20996324749E+04 0.  0.
        3    1    3    3  502    0 -0.93986472201E+03 -0.20415872055E+03  0.56718580926E+03  0.11165689550E+04  0.10100000352E+00 0. -1.
       -3    1    3    3    0  502  0.93986472201E+03  0.20415872055E+03 -0.28216886019E+03  0.10023201857E+04  0.10100000352E+00 0.  1.
</event>
<event>
 5   0  0.3547583E-06  0.2099330E+04  0.7818609E-02  0.8561538E-01
       -2   -1    0    0    0  501  0.00000000000E+00  0.00000000000E+00  0.71327995483E+03  0.71327995484E+03  0.25500000920E-02 0.  1.
        2   -1    0    0  501    0  0.00000000000E+00  0.00000000000E+00 -0.15446907352E+04  0.15446907352E+04  0.25500000920E-02 0. -1.
    10030    2    1    2    0    0  0.00000000000E+00  0.00000000000E+00 -0.83141078040E+03  0.22579706901E+04  0.20993303102E+04 0.  0.
        2    1    3    3  502    0  0.70103173465E+02 -0.89493973980E+03  0.16943214099E+03  0.91353097550E+03  0.25500000920E-02 0.  1.
       -2    1    3    3    0  502 -0.70103173465E+02  0.89493973980E+03 -0.10008429214E+04  0.13444397146E+04  0.25500000920E-02 0. -1.
</event>
<event>
 5   0  0.1579820E-06  0.2099826E+04  0.7818609E-02  0.8561320E-01
        1   -1    0    0  501    0  0.00000000000E+00  0.00000000000E+00  0.11931490239E+04  0.11931490239E+04  0.50400001928E-02 0.  1.
       -1   -1    0    0    0  501  0.00000000000E+00  0.00000000000E+00 -0.92387188783E+03  0.92387188784E+03  0.50400001928E-02 0. -1.
    10030    2    1    2    0    0  0.00000000000E+00  0.00000000000E+00  0.26927713609E+03  0.21170209118E+04  0.20998255558E+04 0.  0.
        2    1    3    3  502    0 -0.10144589967E+04 -0.11559812742E+03  0.38123684004E+03  0.10898768331E+04  0.25500000920E-02 0. -1.
       -2    1    3    3    0  502  0.10144589967E+04  0.11559812742E+03 -0.11195970395E+03  0.10271440787E+04  0.25500000920E-02 0.  1.
</event>
<event>
 5   0  0.1579820E-06  0.2100787E+04  0.7818609E-02  0.8560897E-01
       -1   -1    0    0    0  501  0.00000000000E+00  0.00000000000E+00  0.16980995707E+04  0.16980995707E+04  0.50400001928E-02 0.  1.
        1   -1    0    0  501    0  0.00000000000E+00  0.00000000000E+00 -0.64974210862E+03  0.64974210864E+03  0.50400001928E-02 0. -1.
    10030    2    1    2    0    0  0.00000000000E+00  0.00000000000E+00  0.10483574620E+04  0.23478416793E+04  0.21007872769E+04 0.  0.
        2    1    3    3  502    0 -0.35261229093E+03  0.39747008278E+03 -0.48847428930E+03  0.72175136005E+03  0.25500000920E-02 0. -1.
       -2    1    3    3    0  502  0.35261229093E+03 -0.39747008278E+03  0.15368317513E+04  0.16260903192E+04  0.25500000920E-02 0.  1.
</event>
<event>
 5   0  0.3480134E-06  0.2099368E+04  0.7818609E-02  0.8561522E-01
        2   -1    0    0  501    0  0.00000000000E+00  0.00000000000E+00  0.19769411072E+04  0.19769411072E+04  0.25500000920E-02 0.  1.
       -2   -1    0    0    0  501  0.00000000000E+00  0.00000000000E+00 -0.55734400419E+03  0.55734400419E+03  0.25500000920E-02 0. -1.
    10030    2    1    2    0    0  0.00000000000E+00  0.00000000000E+00  0.14195971031E+04  0.25342851114E+04  0.20993677837E+04 0.  0.
        1    1    3    3  502    0 -0.41420266336E+03  0.53763898387E+03 -0.25685171030E+03  0.72566681364E+03  0.50400001928E-02 0. -1.
       -1    1    3    3    0  502  0.41420266336E+03 -0.53763898387E+03  0.16764488134E+04  0.18086182978E+04  0.50400001928E-02 0.  1.
</event>
<event>
 5   0  0.1653260E-06  0.2089082E+04  0.7818609E-02  0.8566068E-01
       -1   -1    0    0    0  501  0.00000000000E+00  0.00000000000E+00  0.89031610270E+03  0.89031610272E+03  0.50400001928E-02 0. -1.
        1   -1    0    0  501    0  0.00000000000E+00  0.00000000000E+00 -0.12254812271E+04  0.12254812271E+04  0.50400001928E-02 0.  1.
    10030    2    1    2    0    0  0.00000000000E+00  0.00000000000E+00 -0.33516512440E+03  0.21157973298E+04  0.20890817792E+04 0.  0.
        3    1    3    3  502    0  0.38345376707E+03 -0.96400197599E+03 -0.44667212908E+02  0.10384275475E+04  0.10100000352E+00 0. -1.
       -3    1    3    3    0  502 -0.38345376707E+03  0.96400197599E+03 -0.29049791149E+03  0.10773697824E+04  0.10100000352E+00 0.  1.
</event>
<event>
 5   0  0.3480134E-06  0.2100691E+04  0.7818609E-02  0.8560939E-01
       -2   -1    0    0    0  501  0.00000000000E+00  0.00000000000E+00  0.59277246663E+03  0.59277246663E+03  0.25500000920E-02 0.  1.
        2   -1    0    0  501    0  0.00000000000E+00  0.00000000000E+00 -0.18611283886E+04  0.18611283886E+04  0.25500000920E-02 0. -1.
    10030    2    1    2    0    0  0.00000000000E+00  0.00000000000E+00 -0.12683559220E+04  0.24539008552E+04  0.21006909964E+04 0.  0.
        1    1    3    3  502    0 -0.50927205661E+03 -0.91223131059E+03 -0.76054064267E+03  0.12922639285E+04  0.50400001928E-02 0.  1.
       -1    1    3    3    0  502  0.50927205661E+03  0.91223131059E+03 -0.50781527929E+03  0.11616369267E+04  0.50400001928E-02 0. -1.
</event>
<event>
 5   0  0.1579820E-06  0.2100882E+04  0.7818609E-02  0.8560855E-01
        1   -1    0    0  501    0  0.00000000000E+00  0.00000000000E+00  0.10203178323E+04  0.10203178323E+04  0.50400001928E-02 0.  1.
       -1   -1    0    0    0  501  0.00000000000E+00  0.00000000000E+00 -0.10814537626E+04  0.10814537626E+04  0.50400001928E-02 0. -1.
    10030    2    1    2    0    0  0.00000000000E+00  0.00000000000E+00 -0.61135930249E+02  0.21017715949E+04  0.21008822517E+04 0.  0.
        2    1    3    3  502    0 -0.90565461501E+03 -0.41942679044E+03  0.29713358494E+03  0.10413536774E+04  0.25500000920E-02 0.  1.
       -2    1    3    3    0  502  0.90565461501E+03  0.41942679044E+03 -0.35826951519E+03  0.10604179175E+04  0.25500000920E-02 0. -1.
</event>
<event>
 5   0  0.1646510E-06  0.2100259E+04  0.7818609E-02  0.8561129E-01
        1   -1    0    0  501    0  0.00000000000E+00  0.00000000000E+00  0.71640122811E+03  0.71640122813E+03  0.50400001928E-02 0.  1.
       -1   -1    0    0    0  501  0.00000000000E+00  0.00000000000E+00 -0.15393213333E+04  0.15393213333E+04  0.50400001928E-02 0. -1.
    10030    2    1    2    0    0  0.00000000000E+00  0.00000000000E+00 -0.82292010514E+03  0.22557225614E+04  0.21002587399E+04 0.  0.
        4    1    3    3  502    0 -0.37475847561E+03 -0.18140293795E+03 -0.14468851525E+04  0.15055992821E+04  0.12699999809E+01 0. -1.
       -4    1    3    3    0  502  0.37475847561E+03  0.18140293795E+03  0.62396504733E+03  0.75012327928E+03  0.12699999809E+01 0.  1.
</event>
<event>
 5   0  0.3636435E-06  0.2098473E+04  0.7818609E-02  0.8561916E-01
       -2   -1    0    0    0  501  0.00000000000E+00  0.00000000000E+00  0.15971524118E+04  0.15971524118E+04  0.25500000920E-02 0. -1.
        2   -1    0    0  501    0  0.00000000000E+00  0.00000000000E+00 -0.68928770997E+03  0.68928770997E+03  0.25500000920E-02 0.  1.
    10030    2    1    2    0    0  0.00000000000E+00  0.00000000000E+00  0.90786470185E+03  0.22864401218E+04  0.20984732816E+04 0.  0.
        4    1    3    3  502    0 -0.48268520918E+03 -0.93009310107E+03  0.39589043390E+03  0.11201736635E+04  0.12699999809E+01 0.  1.
       -4    1    3    3    0  502  0.48268520918E+03  0.93009310107E+03  0.51197426795E+03  0.11662664583E+04  0.12699999809E+01 0. -1.
</event>
<event>
 5   0  0.3547583E-06  0.2099375E+04  0.7818609E-02  0.8561519E-01
       -2   -1    0    0    0  501  0.00000000000E+00  0.00000000000E+00  0.44562159017E+03  0.44562159017E+03  0.25500000920E-02 0. -1.
        2   -1    0    0  501    0  0.00000000000E+00  0.00000000000E+00 -0.24725991946E+04  0.24725991946E+04  0.25500000920E-02 0.  1.
    10030    2    1    2    0    0  0.00000000000E+00  0.00000000000E+00 -0.20269776044E+04  0.29182207848E+04  0.20993747497E+04 0.  0.
        2    1    3    3  502    0  0.25275194132E+03  0.38400189637E+03 -0.23252227828E+04  0.23702324759E+04  0.25500000920E-02 0.  1.
       -2    1    3    3    0  502 -0.25275194132E+03 -0.38400189637E+03  0.29824517834E+03  0.54798830888E+03  0.25500000920E-02 0. -1.
</event>
<event>
 5   0  0.1590067E-06  0.2100055E+04  0.7818609E-02  0.8561219E-01
       -1   -1    0    0    0  501  0.00000000000E+00  0.00000000000E+00  0.10343300831E+04  0.10343300831E+04  0.50400001928E-02 0. -1.
        1   -1    0    0  501    0  0.00000000000E+00  0.00000000000E+00 -0.10659632832E+04  0.10659632832E+04  0.50400001928E-02 0.  1.
    10030    2    1    2    0    0  0.00000000000E+00  0.00000000000E+00 -0.31633200152E+02  0.21002933663E+04  0.21000551338E+04 0.  0.
        5    1    3    3  502    0 -0.58274076815E+03 -0.18165027956E+02  0.85756307946E+03  0.10369924283E+04  0.46999998093E+01 0. -1.
       -5    1    3    3    0  502  0.58274076815E+03  0.18165027956E+02 -0.88919627961E+03  0.10633009380E+04  0.46999998093E+01 0.  1.
</event>
<event>
 5   0  0.3705828E-06  0.2097389E+04  0.7818609E-02  0.8562395E-01
       -2   -1    0    0    0  501  0.00000000000E+00  0.00000000000E+00  0.10492927243E+04  0.10492927243E+04  0.25500000920E-02 0.  1.
        2   -1    0    0  501    0  0.00000000000E+00  0.00000000000E+00 -0.10480962108E+04  0.10480962108E+04  0.25500000920E-02 0. -1.
    10030    2    1    2    0    0  0.00000000000E+00  0.00000000000E+00  0.11965135304E+01  0.20973889351E+04  0.20973885938E+04 0.  0.
        5    1    3    3  502    0 -0.22571011482E+03 -0.62669331360E+03 -0.80936982074E+03  0.10482323988E+04  0.46999998093E+01 0. -1.
       -5    1    3    3    0  502  0.22571011482E+03  0.62669331360E+03  0.81056633427E+03  0.10491565362E+04  0.46999998093E+01 0.  1.
</event>
<event>
 5   0  0.3547583E-06  0.2099869E+04  0.7818609E-02  0.8561301E-01
        2   -1    0    0  501    0  0.00000000000E+00  0.00000000000E+00  0.16350815588E+04  0.16350815588E+04  0.25500000920E-02 0.  1.
       -2   -1    0    0    0  501  0.00000000000E+00  0.00000000000E+00 -0.67419418179E+03  0.67419418180E+03  0.25500000920E-02 0. -1.
    10030    2    1    2    0    0  0.00000000000E+00  0.00000000000E+00  0.96088737698E+03  0.23092757406E+04  0.20998690185E+04 0.  0.
        2    1    3    3  502    0 -0.23916420927E+03  0.93383703334E+03  0.93800190512E+03  0.13450273967E+04  0.25500000920E-02 0.  1.
       -2    1    3    3    0  502  0.23916420927E+03 -0.93383703334E+03  0.22885471852E+02  0.96424834387E+03  0.25500000920E-02 0. -1.
</event>
<event>
 5   0  0.1257125E-06  0.2099984E+04  0.7818609E-02  0.8561250E-01
        4   -1    0    0  501    0  0.00000000000E+00  0.00000000000E+00  0.11312113751E+04  0.11312120881E+04  0.12699999809E+01 0. -1.
       -4   -1    0    0    0  501  0.00000000000E+00  0.00000000000E+00 -0.97460271328E+03  0.97460354074E+03  0.12699999809E+01 0.  1.
    10030    2    1    2    0    0  0.00000000000E+00  0.00000000000E+00  0.15660866187E+03  0.21058156288E+04  0.20999840927E+04 0.  0.
        5    1    3    3  502    0 -0.91829442340E+03  0.34611326319E+03  0.45270714491E+03  0.10807520012E+04  0.46999998093E+01 0. -1.
       -5    1    3    3    0  502  0.91829442340E+03 -0.34611326319E+03 -0.29609848304E+03  0.10250636276E+04  0.46999998093E+01 0.  1.
</event>
<event>
 5   0  0.1653260E-06  0.2100193E+04  0.7818609E-02  0.8561158E-01
       -1   -1    0    0    0  501  0.00000000000E+00  0.00000000000E+00  0.11107817357E+04  0.11107817357E+04  0.50400001928E-02 0.  1.
        1   -1    0    0  501    0  0.00000000000E+00  0.00000000000E+00 -0.99272691360E+03  0.99272691361E+03  0.50400001928E-02 0. -1.
    10030    2    1    2    0    0  0.00000000000E+00  0.00000000000E+00  0.11805482209E+03  0.21035086493E+04  0.21001932522E+04 0.  0.
        3    1    3    3  502    0 -0.80571540080E+03 -0.29904166430E+03 -0.54533187274E+03  0.10178359817E+04  0.10100000352E+00 0. -1.
       -3    1    3    3    0  502  0.80571540080E+03  0.29904166430E+03  0.66338669483E+03  0.10856726676E+04  0.10100000352E+00 0.  1.
</event>
<event>
 5   0  0.3480134E-06  0.2099215E+04  0.7818609E-02  0.8561589E-01
       -2   -1    0    0    0  501  0.00000000000E+00  0.00000000000E+00  0.45877855883E+03  0.45877855884E+03  0.25500000920E-02 0. -1.
        2   -1    0    0  501    0  0.00000000000E+00  0.00000000000E+00 -0.24013249859E+04  0.24013249859E+04  0.25500000920E-02 0.  1.
    10030    2    1    2    0    0  0.00000000000E+00  0.00000000000E+00 -0.19425464270E+04  0.28601035447E+04  0.20992154880E+04 0.  0.
        1    1    3    3  502    0 -0.36892917045E+03  0.97912354244E+03 -0.10843229408E+04  0.15068337281E+04  0.50400001928E-02 0. -1.
       -1    1    3    3    0  502  0.36892917045E+03 -0.97912354244E+03 -0.85822348619E+03  0.13532698166E+04  0.50400001928E-02 0.  1.
</event>
<event>
 5   0  0.1653260E-06  0.2099744E+04  0.7818609E-02  0.8561356E-01
        1   -1    0    0  501    0  0.00000000000E+00  0.00000000000E+00  0.19232797200E+04  0.19232797200E+04  0.50400001928E-02 0.  1.
       -1   -1    0    0    0  501  0.00000000000E+00  0.00000000000E+00 -0.57310004933E+03  0.57310004935E+03  0.50400001928E-02 0. -1.
    10030    2    1    2    0    0  0.00000000000E+00  0.00000000000E+00  0.13501796707E+04  0.24963797694E+04  0.20997444630E+04 0.  0.
        3    1    3    3  502    0 -0.42293239219E+03 -0.83599969543E+03  0.12383615446E+04  0.15528382480E+04  0.10100000352E+00 0.  1.
       -3    1    3    3    0  502  0.42293239219E+03  0.83599969543E+03  0.11181812615E+03  0.94354152142E+03  0.10100000352E+00 0. -1.
</event>
<event>
 5   0  0.3547583E-06  0.2099108E+04  0.7818609E-02  0.8561636E-01
        2   -1    0    0  501    0  0.00000000000E+00  0.00000000000E+00  0.75468378157E+03  0.75468378158E+03  0.25500000920E-02 0. -1.
       -2   -1    0    0    0  501  0.00000000000E+00  0.00000000000E+00 -0.14596364163E+04  0.14596364163E+04  0.25500000920E-02 0.  1.
    10030    2    1    2    0    0  0.00000000000E+00  0.00000000000E+00 -0.70495263472E+03  0.22143201979E+04  0.20991083158E+04 0.  0.
        2    1    3    3  502    0 -0.37237377987E+03 -0.85040514035E+03 -0.86895354896E+03  0.12715861768E+04  0.25500000920E-02 0.  1.
       -2    1    3    3    0  502  0.37237377987E+03  0.85040514035E+03  0.16400091424E+03  0.94273402111E+03  0.25500000920E-02 0. -1.
</event>
<event>
 5   0  0.3574927E-06  0.2099562E+04  0.7818609E-02  0.8561436E-01
        2   -1    0    0  501    0  0.00000000000E+00  0.00000000000E+00  0.16408270280E+04  0.16408270280E+04  0.25500000920E-02 0.  1.
       -2   -1    0    0    0  501  0.00000000000E+00  0.00000000000E+00 -0.67163692394E+03  0.67163692394E+03  0.25500000920E-02 0. -1.
    10030    2    1    2    0    0  0.00000000000E+00  0.00000000000E+00  0.96919010405E+03  0.23124639519E+04  0.20995618760E+04 0.  0.
        3    1    3    3  502    0 -0.15409976263E+03  0.63117383283E+03 -0.42358701510E+03  0.77559855186E+03  0.10100000352E+00 0. -1.
       -3    1    3    3    0  502  0.15409976263E+03 -0.63117383283E+03  0.13927771192E+04  0.15368654001E+04  0.10100000352E+00 0.  1.
</event>
<event>
 5   0  0.3480134E-06  0.2099106E+04  0.7818609E-02  0.8561637E-01
       -2   -1    0    0    0  501  0.00000000000E+00  0.00000000000E+00  0.63907348522E+03  0.63907348522E+03  0.25500000920E-02 0. -1.
        2   -1    0    0  501    0  0.00000000000E+00  0.00000000000E+00 -0.17236859266E+04  0.17236859266E+04  0.25500000920E-02 0.  1.
    10030    2    1    2    0    0  0.00000000000E+00  0.00000000000E+00 -0.10846124414E+04  0.23627594119E+04  0.20991064504E+04 0.  0.
        1    1    3    3  502    0 -0.95009227749E+03 -0.24536897457E+03 -0.96147898442E+03  0.13737987869E+04  0.50400001928E-02 0.  1.
       -1    1    3    3    0  502  0.95009227749E+03  0.24536897457E+03 -0.12313345701E+03  0.98896062494E+03  0.50400001928E-02 0. -1.
</event>
<event>
 5   0  0.3705828E-06  0.2099907E+04  0.7818609E-02  0.8561284E-01
        2   -1    0    0  501    0  0.00000000000E+00  0.00000000000E+00  0.22010169733E+04  0.22010169733E+04  0.25500000920E-02 0. -1.
       -2   -1    0    0    0  501  0.00000000000E+00  0.00000000000E+00 -0.50086029025E+03  0.50086029026E+03  0.25500000920E-02 0.  1.
    10030    2    1    2    0    0  0.00000000000E+00  0.00000000000E+00  0.17001566831E+04  0.27018772636E+04  0.20999066647E+04 0.  0.
        5    1    3    3  502    0  0.52925091140E+03 -0.14761757636E+03  0.20012538143E+04  0.20753159749E+04  0.46999998093E+01 0. -1.
       -5    1    3    3    0  502 -0.52925091140E+03  0.14761757636E+03 -0.30109713127E+03  0.62656128873E+03  0.46999998093E+01 0.  1.
</event>
<event>
 5   0  0.1646510E-06  0.2101472E+04  0.7818609E-02  0.8560595E-01
        1   -1    0    0  501    0  0.00000000000E+00  0.00000000000E+00  0.17252370766E+04  0.17252370766E+04  0.50400001928E-02 0.  1.
       -1   -1    0    0    0  501  0.00000000000E+00  0.00000000000E+00 -0.63993906211E+03  0.63993906213E+03  0.50400001928E-02 0. -1.
    10030    2    1    2    0    0  0.00000000000E+00  0.00000000000E+00  0.10852980145E+04  0.23651761387E+04  0.21014724330E+04 0.  0.
        4    1    3    3  502    0  0.40176951072E+03 -0.96984822875E+03  0.59324150471E+03  0.12058032271E+04  0.12699999809E+01 0. -1.
       -4    1    3    3    0  502 -0.40176951072E+03  0.96984822875E+03  0.49205650974E+03  0.11593729116E+04  0.12699999809E+01 0.  1.
</event>
<event>
 5   0  0.1590067E-06  0.2099436E+04  0.7818609E-02  0.8561492E-01
       -1   -1    0    0    0  501  0.00000000000E+00  0.00000000000E+00  0.98336756875E+03  0.98336756877E+03  0.50400001928E-02 0. -1.
        1   -1    0    0  501    0  0.00000000000E+00  0.00000000000E+00 -0.11205448789E+04  0.11205448789E+04  0.50400001928E-02 0.  1.
    10030    2    1    2    0    0  0.00000000000E+00  0.00000000000E+00 -0.13717731013E+03  0.21039124477E+04  0.20994356320E+04 0.  0.
        5    1    3    3  502    0  0.84934690825E+03 -0.19302918729E+03  0.51852321497E+03  0.10136759108E+04  0.46999998093E+01 0. -1.
       -5    1    3    3    0  502 -0.84934690825E+03  0.19302918729E+03 -0.65570052510E+03  0.10902365369E+04  0.46999998093E+01 0.  1.
</event>
<event>
 5   0  0.3636435E-06  0.2099519E+04  0.7818609E-02  0.8561455E-01
        2   -1    0    0  501    0  0.00000000000E+00  0.00000000000E+00  0.10733434213E+04  0.10733434213E+04  0.25500000920E-02 0. -1.
       -2   -1    0    0    0  501  0.00000000000E+00  0.00000000000E+00 -0.10266937878E+04  0.10266937878E+04  0.25500000920E-02 0.  1.
    10030    2    1    2    0    0  0.00000000000E+00  0.00000000000E+00  0.46649633520E+02  0.21000372091E+04  0.20995190143E+04 0.  0.
        4    1    3    3  502    0  0.26293128543E+03 -0.17512788244E+03  0.10246666906E+04  0.10722621302E+04  0.12699999809E+01 0. -1.
       -4    1    3    3    0  502 -0.26293128543E+03  0.17512788244E+03 -0.97801705707E+03  0.10277750789E+04  0.12699999809E+01 0.  1.
</event>
<event>
 5   0  0.1646510E-06  0.2100247E+04  0.7818609E-02  0.8561135E-01
       -1   -1    0    0    0  501  0.00000000000E+00  0.00000000000E+00  0.70441330679E+03  0.70441330681E+03  0.50400001928E-02 0. -1.
        1   -1    0    0  501    0  0.00000000000E+00  0.00000000000E+00 -0.15655004081E+04  0.15655004081E+04  0.50400001928E-02 0.  1.
    10030    2    1    2    0    0  0.00000000000E+00  0.00000000000E+00 -0.86108710128E+03  0.22699137149E+04  0.21002469562E+04 0.  0.
        4    1    3    3  502    0  0.26204647629E+03 -0.97794593295E+03 -0.73183063947E+03  0.12492494952E+04  0.12699999809E+01 0.  1.
       -4    1    3    3    0  502 -0.26204647629E+03  0.97794593295E+03 -0.12925646181E+03  0.10206642197E+04  0.12699999809E+01 0. -1.
</event>
<event>
 5   0  0.1615098E-06  0.2100383E+04  0.7818609E-02  0.8561075E-01
        1   -1    0    0  501    0  0.00000000000E+00  0.00000000000E+00  0.72325917326E+03  0.72325917328E+03  0.50400001928E-02 0.  1.
       -1   -1    0    0    0  501  0.00000000000E+00  0.00000000000E+00 -0.15249063170E+04  0.15249063170E+04  0.50400001928E-02 0. -1.
    10030    2    1    2    0    0  0.00000000000E+00  0.00000000000E+00 -0.80164714370E+03  0.22481654902E+04  0.21003832813E+04 0.  0.
        1    1    3    3  502    0  0.97371048417E+03  0.34538020194E+03 -0.19914415110E+03  0.10521682298E+04  0.50400001928E-02 0.  1.
       -1    1    3    3    0  502 -0.97371048417E+03 -0.34538020194E+03 -0.60250299260E+03  0.11959972604E+04  0.50400001928E-02 0. -1.
</event>
<event>
 5   0  0.3480134E-06  0.2100270E+04  0.7818609E-02  0.8561124E-01
        2   -1    0    0  501    0  0.00000000000E+00  0.00000000000E+00  0.89704357546E+03  0.89704357546E+03  0.25500000920E-02 0.  1.
       -2   -1    0    0    0  501  0.00000000000E+00  0.00000000000E+00 -0.12293538190E+04  0.12293538190E+04  0.25500000920E-02 0. -1.
    10030    2    1    2    0    0  0.00000000000E+00  0.00000000000E+00 -0.33231024350E+03  0.21263973944E+04  0.21002704067E+04 0.  0.
        1    1    3    3  502    0  0.65472431729E+03 -0.81917317893E+00  0.66510627502E+03  0.93329039414E+03  0.50400001928E-02 0.  1.
       -1    1    3    3    0  502 -0.65472431729E+03  0.81917317893E+00 -0.99741651852E+03  0.11931070003E+04  0.50400001928E-02 0. -1.
</event>
<event>
 5   0  0.1590067E-06  0.2100227E+04  0.7818609E-02  0.8561143E-01
        1   -1    0    0  501    0  0.00000000000E+00  0.00000000000E+00  0.14576116463E+04  0.14576116463E+04  0.50400001928E-02 0. -1.
       -1   -1    0    0    0  501  0.00000000000E+00  0.00000000000E+00 -0.75653794302E+03  0.75653794304E+03  0.50400001928E-02 0.  1.
    10030    2    1    2    0    0  0.00000000000E+00  0.00000000000E+00  0.70107370330E+03  0.22141495894E+04  0.21002271464E+04 0.  0.
        5    1    3    3  502    0 -0.40071662364E+03  0.23101096493E+03  0.13444237928E+04  0.14217725919E+04  0.46999998093E+01 0. -1.
       -5    1    3    3    0  502  0.40071662364E+03 -0.23101096493E+03 -0.64335008954E+03  0.79237699745E+03  0.46999998093E+01 0.  1.
</event>
<event>
 5   0  0.3636435E-06  0.2092681E+04  0.7818609E-02  0.8564474E-01
        2   -1    0    0  501    0  0.00000000000E+00  0.00000000000E+00  0.12584196570E+04  0.12584196570E+04  0.25500000920E-02 0. -1.
       -2   -1    0    0    0  501  0.00000000000E+00  0.00000000000E+00 -0.87000280660E+03  0.87000280660E+03  0.25500000920E-02 0.  1.
    10030    2    1    2    0    0  0.00000000000E+00  0.00000000000E+00  0.38841685040E+03  0.21284224636E+04  0.20926811831E+04 0.  0.
        4    1    3    3  502    0 -0.73363963367E+03 -0.60246979601E+03 -0.25334114790E+03  0.98253769257E+03  0.12699999809E+01 0.  1.
       -4    1    3    3    0  502  0.73363963367E+03  0.60246979601E+03  0.64175799831E+03  0.11458847710E+04  0.12699999809E+01 0. -1.
</event>
<event>
 5   0  0.3480134E-06  0.2099871E+04  0.7818609E-02  0.8561300E-01
       -2   -1    0    0    0  501  0.00000000000E+00  0.00000000000E+00  0.53731056649E+03  0.53731056649E+03  0.25500000920E-02 0.  1.
        2   -1    0    0  501    0  0.00000000000E+00  0.00000000000E+00 -0.20516336167E+04  0.20516336167E+04  0.25500000920E-02 0. -1.
    10030    2    1    2    0    0  0.00000000000E+00  0.00000000000E+00 -0.15143230502E+04  0.25889441832E+04  0.20998708730E+04 0.  0.
        1    1    3    3  502    0 -0.36806175706E+03  0.78245744609E+03 -0.22929488062E+02  0.86500570715E+03  0.50400001928E-02 0.  1.
       -1    1    3    3    0  502  0.36806175706E+03 -0.78245744609E+03 -0.14913935622E+04  0.17239384761E+04  0.50400001928E-02 0. -1.
</event>
<event>
 5   0  0.3574927E-06  0.2097503E+04  0.7818609E-02  0.8562344E-01
       -2   -1    0    0    0  501  0.00000000000E+00  0.00000000000E+00  0.79770505287E+03  0.79770505287E+03  0.25500000920E-02 0.  1.
        2   -1    0    0  501    0  0.00000000000E+00  0.00000000000E+00 -0.13788050535E+04  0.13788050535E+04  0.25500000920E-02 0. -1.
    10030    2    1    2    0    0  0.00000000000E+00  0.00000000000E+00 -0.58110000065E+03  0.21765101064E+04  0.20975030471E+04 0.  0.
        3    1    3    3  502    0 -0.39723153939E+02 -0.26909568398E+03 -0.13415636214E+04  0.13688620736E+04  0.10100000352E+00 0. -1.
       -3    1    3    3    0  502  0.39723153939E+02  0.26909568398E+03  0.76046362078E+03  0.80764803276E+03  0.10100000352E+00 0.  1.
</event>
<event>
 5   0  0.3547583E-06  0.2101313E+04  0.7818609E-02  0.8560665E-01
        2   -1    0    0  501    0  0.00000000000E+00  0.00000000000E+00  0.20118745965E+04  0.20118745965E+04  0.25500000920E-02 0.  1.
       -2   -1    0    0    0  501  0.00000000000E+00  0.00000000000E+00 -0.54868195552E+03  0.54868195553E+03  0.25500000920E-02 0. -1.
    10030    2    1    2    0    0  0.00000000000E+00  0.00000000000E+00  0.14631926410E+04  0.25605565521E+04  0.21013131969E+04 0.  0.
        2    1    3    3  502    0  0.81901563818E+02 -0.19702030741E+03  0.19851967954E+04  0.19966299567E+04  0.25500000920E-02 0.  1.
       -2    1    3    3    0  502 -0.81901563818E+02  0.19702030741E+03 -0.52200415439E+03  0.56392659531E+03  0.25500000920E-02 0. -1.
</event>
<event>
 5   0  0.3480134E-06  0.2100210E+04  0.7818609E-02  0.8561151E-01
        2   -1    0    0  501    0  0.00000000000E+00  0.00000000000E+00  0.17668326341E+04  0.17668326341E+04  0.25500000920E-02 0. -1.
       -2   -1    0    0    0  501  0.00000000000E+00  0.00000000000E+00 -0.62412283432E+03  0.62412283432E+03  0.25500000920E-02 0.  1.
    10030    2    1    2    0    0  0.00000000000E+00  0.00000000000E+00  0.11427097998E+04  0.23909554685E+04  0.21002100765E+04 0.  0.
        1    1    3    3  502    0  0.44724216309E+03  0.89711564206E+03  0.92752096931E+03  0.13657002512E+04  0.50400001928E-02 0. -1.
       -1    1    3    3    0  502 -0.44724216309E+03 -0.89711564206E+03  0.21518883052E+03  0.10252552172E+04  0.50400001928E-02 0.  1.
</event>
<event>
 5   0  0.3705828E-06  0.2097704E+04  0.7818609E-02  0.8562256E-01
       -2   -1    0    0    0  501  0.00000000000E+00  0.00000000000E+00  0.14565577374E+04  0.14565577374E+04  0.25500000920E-02 0.  1.
        2   -1    0    0  501    0  0.00000000000E+00  0.00000000000E+00 -0.75526712801E+03  0.75526712801E+03  0.25500000920E-02 0. -1.
    10030    2    1    2    0    0  0.00000000000E+00  0.00000000000E+00  0.70129060939E+03  0.22118248654E+04  0.20977036770E+04 0.  0.
        5    1    3    3  502    0  0.31199058575E+02 -0.17469744159E+03 -0.73931129485E+03  0.76032615241E+03  0.46999998093E+01 0. -1.
       -5    1    3    3    0  502 -0.31199058575E+02  0.17469744159E+03  0.14406019042E+04  0.14514987130E+04  0.46999998093E+01 0.  1.
</event>
<event>
 5   0  0.3547583E-06  0.2100346E+04  0.7818609E-02  0.8561091E-01
        2   -1    0    0  501    0  0.00000000000E+00  0.00000000000E+00  0.18673560557E+04  0.18673560557E+04  0.25500000920E-02 0. -1.
       -2   -1    0    0    0  501  0.00000000000E+00  0.00000000000E+00 -0.59060142628E+03  0.59060142628E+03  0.25500000920E-02 0.  1.
    10030    2    1    2    0    0  0.00000000000E+00  0.00000000000E+00  0.12767546294E+04  0.24579574819E+04  0.21003458285E+04 0.  0.
        2    1    3    3  502    0 -0.17699781975E+03 -0.15473689247E+03 -0.55940948635E+03  0.60680368120E+03  0.25500000920E-02 0.  1.
       -2    1    3    3    0  502  0.17699781975E+03  0.15473689247E+03  0.18361641157E+04  0.18511538007E+04  0.25500000920E-02 0. -1.
</event>
<event>
 5   0  0.1653260E-06  0.2099916E+04  0.7818609E-02  0.8561280E-01
       -1   -1    0    0    0  501  0.00000000000E+00  0.00000000000E+00  0.10860710394E+04  0.10860710394E+04  0.50400001928E-02 0. -1.
        1   -1    0    0  501    0  0.00000000000E+00  0.00000000000E+00 -0.10150457577E+04  0.10150457577E+04  0.50400001928E-02 0.  1.
    10030    2    1    2    0    0  0.00000000000E+00  0.00000000000E+00  0.71025281680E+02  0.21011167971E+04  0.20999159993E+04 0.  0.
        3    1    3    3  502    0 -0.54259514864E+03  0.87464820873E+03 -0.17195299444E+03  0.10435453162E+04  0.10100000352E+00 0.  1.
       -3    1    3    3    0  502  0.54259514864E+03 -0.87464820873E+03  0.24297827612E+03  0.10575714809E+04  0.10100000352E+00 0. -1.
</event>
<event>
 5   0  0.1615098E-06  0.2100476E+04  0.7818609E-02  0.8561034E-01
       -1   -1    0    0    0  501  0.00000000000E+00  0.00000000000E+00  0.87994296256E+03  0.87994296257E+03  0.50400001928E-02 0. -1.
        1   -1    0    0  501    0  0.00000000000E+00  0.00000000000E+00 -0.12534902312E+04  0.12534902313E+04  0.50400001928E-02 0.  1.
    10030    2    1    2    0    0  0.00000000000E+00  0.00000000000E+00 -0.37354726868E+03  0.21334331938E+04  0.21004760486E+04 0.  0.
        1    1    3    3  502    0 -0.48704839186E+03  0.11120336972E+03 -0.11250744789E+04  0.12310056493E+04  0.50400001928E-02 0.  1.
       -1    1    3    3    0  502  0.48704839186E+03 -0.11120336972E+03  0.75152721021E+03  0.90242754455E+03  0.50400001928E-02 0. -1.
</event>
<event>
 5   0  0.3547583E-06  0.2100277E+04  0.7818609E-02  0.8561121E-01
       -2   -1    0    0    0  501  0.00000000000E+00  0.00000000000E+00  0.10088984392E+04  0.10088984392E+04  0.25500000920E-02 0. -1.
        2   -1    0    0  501    0  0.00000000000E+00  0.00000000000E+00 -0.10930643783E+04  0.10930643783E+04  0.25500000920E-02 0.  1.
    10030    2    1    2    0    0  0.00000000000E+00  0.00000000000E+00 -0.84165939178E+02  0.21019628175E+04  0.21002770724E+04 0.  0.
        2    1    3    3  502    0  0.20298796418E+03 -0.94287693756E+03  0.37366580420E+03  0.10343341656E+04  0.25500000920E-02 0. -1.
       -2    1    3    3    0  502 -0.20298796418E+03  0.94287693756E+03 -0.45783174338E+03  0.10676286518E+04  0.25500000920E-02 0.  1.
</event>
<event>
 5   0  0.3705828E-06  0.2101782E+04  0.7818609E-02  0.8560459E-01
        2   -1    0    0  501    0  0.00000000000E+00  0.00000000000E+00  0.10000097066E+04  0.10000097066E+04  0.25500000920E-02 0.  1.
       -2   -1    0    0    0  501  0.00000000000E+00  0.00000000000E+00 -0.11043607020E+04  0.11043607020E+04  0.25500000920E-02 0. -1.
    10030    2    1    2    0    0  0.00000000000E+00  0.00000000000E+00 -0.10435099535E+03  0.21043704086E+04  0.21017815506E+04 0.  0.
        5    1    3    3  502    0 -0.96077532742E+03 -0.42144787834E+03 -0.11259705609E+03  0.10551813735E+04  0.46999998093E+01 0.  1.
       -5    1    3    3    0  502  0.96077532742E+03  0.42144787834E+03  0.82460607395E+01  0.10491890351E+04  0.46999998093E+01 0. -1.
</event>
<event>
 5   0  0.3705828E-06  0.2101890E+04  0.7818609E-02  0.8560411E-01
       -2   -1    0    0    0  501  0.00000000000E+00  0.00000000000E+00  0.51088875059E+03  0.51088875060E+03  0.25500000920E-02 0.  1.
        2   -1    0    0  501    0  0.00000000000E+00  0.00000000000E+00 -0.21618908835E+04  0.21618908835E+04  0.25500000920E-02 0. -1.
    10030    2    1    2    0    0  0.00000000000E+00  0.00000000000E+00 -0.16510021329E+04  0.26727796341E+04  0.21018903229E+04 0.  0.
        5    1    3    3  502    0 -0.99085945589E+03  0.34959936174E+03 -0.79878316111E+03  0.13198859055E+04  0.46999998093E+01 0. -1.
       -5    1    3    3    0  502  0.99085945589E+03 -0.34959936174E+03 -0.85221897182E+03  0.13528937286E+04  0.46999998093E+01 0.  1.
</event>
<event>
 5   0  0.1646510E-06  0.2100111E+04  0.7818609E-02  0.8561194E-01
       -1   -1    0    0    0  501  0.00000000000E+00  0.00000000000E+00  0.57344860068E+03  0.57344860070E+03  0.50400001928E-02 0.  1.
        1   -1    0    0  501    0  0.00000000000E+00  0.00000000000E+00 -0.19227820139E+04  0.19227820139E+04  0.50400001928E-02 0. -1.
    10030    2    1    2    0    0  0.00000000000E+00  0.00000000000E+00 -0.13493334132E+04  0.24962306146E+04  0.21001110974E+04 0.  0.
        4    1    3    3  502    0  0.38757532697E+03 -0.73072721047E+03  0.94212424057E+02  0.83249893930E+03  0.12699999809E+01 0.  1.
       -4    1    3    3    0  502 -0.38757532697E+03  0.73072721047E+03 -0.14435458373E+04  0.16637316753E+04  0.12699999809E+01 0. -1.
</event>
<event>
 5   0  0.1590067E-06  0.2100612E+04  0.7818609E-02  0.8560974E-01
        1   -1    0    0  501    0  0.00000000000E+00  0.00000000000E+00  0.99940270182E+03  0.99940270183E+03  0.50400001928E-02 0. -1.
       -1   -1    0    0    0  501  0.00000000000E+00  0.00000000000E+00 -0.11038021953E+04  0.11038021953E+04  0.50400001928E-02 0.  1.
    10030    2    1    2    0    0  0.00000000000E+00  0.00000000000E+00 -0.10439949343E+03  0.21032048971E+04  0.21006121929E+04 0.  0.
        5    1    3    3  502    0 -0.56335872078E+03 -0.67790754737E+03  0.51963485984E+03  0.10232175568E+04  0.46999998093E+01 0. -1.
       -5    1    3    3    0  502  0.56335872078E+03  0.67790754737E+03 -0.62403435327E+03  0.10799873403E+04  0.46999998093E+01 0.  1.
</event>
<event>
 5   0  0.3480134E-06  0.2099067E+04  0.7818609E-02  0.8561654E-01
       -2   -1    0    0    0  501  0.00000000000E+00  0.00000000000E+00  0.50855878286E+03  0.50855878286E+03  0.25500000920E-02 0. -1.
        2   -1    0    0  501    0  0.00000000000E+00  0.00000000000E+00 -0.21659658544E+04  0.21659658544E+04  0.25500000920E-02 0.  1.
    10030    2    1    2    0    0  0.00000000000E+00  0.00000000000E+00 -0.16574070715E+04  0.26745246372E+04  0.20990673725E+04 0.  0.
        1    1    3    3  502    0 -0.41249380500E+03 -0.89847966234E+03 -0.37984104285E+03  0.10591015346E+04  0.50400001928E-02 0. -1.
       -1    1    3    3    0  502  0.41249380500E+03  0.89847966234E+03 -0.12775660287E+04  0.16154231026E+04  0.50400001928E-02 0.  1.
</event>
<event>
 5   0  0.3636435E-06  0.2100474E+04  0.7818609E-02  0.8561035E-01
       -2   -1    0    0    0  501  0.00000000000E+00  0.00000000000E+00  0.77485145709E+03  0.77485145710E+03  0.25500000920E-02 0. -1.
        2   -1    0    0  501    0  0.00000000000E+00  0.00000000000E+00 -0.14234959816E+04  0.14234959816E+04  0.25500000920E-02 0.  1.
    10030    2    1    2    0    0  0.00000000000E+00  0.00000000000E+00 -0.64864452452E+03  0.21983474387E+04  0.21004741708E+04 0.  0.
        4    1    3    3  502    0  0.10055016759E+04 -0.46653022408E+02 -0.63792783891E+03  0.11917061992E+04  0.12699999809E+01 0.  1.
       -4    1    3    3    0  502 -0.10055016759E+04  0.46653022408E+02 -0.10716685610E+02  0.10066412395E+04  0.12699999809E+01 0. -1.
</event>
<event>
 5   0  0.3547583E-06  0.2100686E+04  0.7818609E-02  0.8560941E-01
        2   -1    0    0  501    0  0.00000000000E+00  0.00000000000E+00  0.71226331533E+03  0.71226331533E+03  0.25500000920E-02 0. -1.
       -2   -1    0    0    0  501  0.00000000000E+00  0.00000000000E+00 -0.15488943726E+04  0.15488943726E+04  0.25500000920E-02 0.  1.
    10030    2    1    2    0    0  0.00000000000E+00  0.00000000000E+00 -0.83663105731E+03  0.22611576880E+04  0.21006862126E+04 0.  0.
        2    1    3    3  502    0  0.10329363671E+04  0.11563305811E+03 -0.25545626531E+03  0.10703207212E+04  0.25500000920E-02 0. -1.
       -2    1    3    3    0  502 -0.10329363671E+04 -0.11563305811E+03 -0.58117479200E+03  0.11908369668E+04  0.25500000920E-02 0.  1.
</event>
<event>
 5   0  0.3547583E-06  0.2107683E+04  0.7818609E-02  0.8557867E-01
        2   -1    0    0  501    0  0.00000000000E+00  0.00000000000E+00  0.23978662525E+04  0.23978662525E+04  0.25500000920E-02 0. -1.
       -2   -1    0    0    0  501  0.00000000000E+00  0.00000000000E+00 -0.46315414491E+03  0.46315414492E+03  0.25500000920E-02 0.  1.
    10030    2    1    2    0    0  0.00000000000E+00  0.00000000000E+00  0.19347121076E+04  0.28610203974E+04  0.21076827976E+04 0.  0.
        2    1    3    3  502    0  0.34973295260E+03 -0.95405368593E+03  0.58812622433E+03  0.11740630433E+04  0.25500000920E-02 0. -1.
       -2    1    3    3    0  502 -0.34973295260E+03  0.95405368593E+03  0.13465858833E+04  0.16869573542E+04  0.25500000920E-02 0.  1.
</event>
<event>
 5   0  0.1579820E-06  0.2099780E+04  0.7818609E-02  0.8561340E-01
        1   -1    0    0  501    0  0.00000000000E+00  0.00000000000E+00  0.96052620790E+03  0.96052620791E+03  0.50400001928E-02 0. -1.
       -1   -1    0    0    0  501  0.00000000000E+00  0.00000000000E+00 -0.11475679769E+04  0.11475679769E+04  0.50400001928E-02 0.  1.
    10030    2    1    2    0    0  0.00000000000E+00  0.00000000000E+00 -0.18704176897E+03  0.21080941848E+04  0.20997801001E+04 0.  0.
        2    1    3    3  502    0  0.88496310542E+03 -0.35628579548E+03  0.34658666823E+03  0.10149983175E+04  0.25500000920E-02 0. -1.
       -2    1    3    3    0  502 -0.88496310542E+03  0.35628579548E+03 -0.53362843720E+03  0.10930958673E+04  0.25500000920E-02 0.  1.
</event>
<event>
 5   0  0.1653260E-06  0.2094914E+04  0.7818609E-02  0.8563487E-01
        1   -1    0    0  501    0  0.00000000000E+00  0.00000000000E+00  0.26817981917E+04  0.26817981917E+04  0.50400001928E-02 0.  1.
       -1   -1    0    0    0  501  0.00000000000E+00  0.00000000000E+00 -0.40911583467E+03  0.40911583471E+03  0.50400001928E-02 0. -1.
    10030    2    1    2    0    0  0.00000000000E+00  0.00000000000E+00  0.22726823570E+04  0.30909140264E+04  0.20949139416E+04 0.  0.
        3    1    3    3  502    0  0.75003965530E+03 -0.14854645115E+03  0.80047066170E+02  0.76878675566E+03  0.10100000352E+00 0. -1.
       -3    1    3    3    0  502 -0.75003965530E+03  0.14854645115E+03  0.21926352909E+04  0.23221272708E+04  0.10100000352E+00 0.  1.
</event>
<event>
 5   0  0.3705828E-06  0.2100708E+04  0.7818609E-02  0.8560932E-01
        2   -1    0    0  501    0  0.00000000000E+00  0.00000000000E+00  0.55906526139E+03  0.55906526140E+03  0.25500000920E-02 0.  1.
       -2   -1    0    0    0  501  0.00000000000E+00  0.00000000000E+00 -0.19733716385E+04  0.19733716385E+04  0.25500000920E-02 0. -1.
    10030    2    1    2    0    0  0.00000000000E+00  0.00000000000E+00 -0.14143063771E+04  0.25324368999E+04  0.21007080053E+04 0.  0.
        5    1    3    3  502    0  0.61155429879E+03 -0.84637214953E+03 -0.57035520333E+03  0.11898199964E+04  0.46999998093E+01 0.  1.
       -5    1    3    3    0  502 -0.61155429879E+03  0.84637214953E+03 -0.84395117379E+03  0.13426169035E+04  0.46999998093E+01 0. -1.
</event>
<event>
 5   0  0.3480134E-06  0.2101136E+04  0.7818609E-02  0.8560743E-01
        2   -1    0    0  501    0  0.00000000000E+00  0.00000000000E+00  0.21469306612E+04  0.21469306612E+04  0.25500000920E-02 0.  1.
       -2   -1    0    0    0  501  0.00000000000E+00  0.00000000000E+00 -0.51407963796E+03  0.51407963797E+03  0.25500000920E-02 0. -1.
    10030    2    1    2    0    0  0.00000000000E+00  0.00000000000E+00  0.16328510232E+04  0.26610102992E+04  0.21011362041E+04 0.  0.
        1    1    3    3  502    0 -0.57917709365E+03 -0.65087182500E+03  0.72964428912E+02  0.87430203379E+03  0.50400001928E-02 0. -1.
       -1    1    3    3    0  502  0.57917709365E+03  0.65087182500E+03  0.15598865943E+04  0.17867082654E+04  0.50400001928E-02 0.  1.
</event>
<event>
 5   0  0.1646510E-06  0.2099677E+04  0.7818609E-02  0.8561386E-01
       -1   -1    0    0    0  501  0.00000000000E+00  0.00000000000E+00  0.99036809655E+03  0.99036809657E+03  0.50400001928E-02 0.  1.
        1   -1    0    0  501    0  0.00000000000E+00  0.00000000000E+00 -0.11128801930E+04  0.11128801930E+04  0.50400001928E-02 0. -1.
    10030    2    1    2    0    0  0.00000000000E+00  0.00000000000E+00 -0.12251209644E+03  0.21032482896E+04  0.20996771547E+04 0.  0.
        4    1    3    3  502    0  0.70652566537E+03  0.30357267210E+02  0.71598847895E+03  0.10063504332E+04  0.12699999809E+01 0.  1.
       -4    1    3    3    0  502 -0.70652566537E+03 -0.30357267210E+02 -0.83850057539E+03  0.10968978564E+04  0.12699999809E+01 0. -1.
</event>
<event>
 5   0  0.1653260E-06  0.2098130E+04  0.7818609E-02  0.8562068E-01
        1   -1    0    0  501    0  0.00000000000E+00  0.00000000000E+00  0.10191052396E+04  0.10191052396E+04  0.50400001928E-02 0. -1.
       -1   -1    0    0    0  501  0.00000000000E+00  0.00000000000E+00 -0.10799055753E+04  0.10799055753E+04  0.50400001928E-02 0.  1.
    10030    2    1    2    0    0  0.00000000000E+00  0.00000000000E+00 -0.60800335733E+02  0.20990108150E+04  0.20981300533E+04 0.  0.
        3    1    3    3  502    0  0.97616632849E+03  0.23574990185E+03 -0.33393930636E+03  0.10582977783E+04  0.10100000352E+00 0.  1.
       -3    1    3    3    0  502 -0.97616632849E+03 -0.23574990185E+03  0.27313897063E+03  0.10407130366E+04  0.10100000352E+00 0. -1.
</event>
<event>
 5   0  0.3705828E-06  0.2099600E+04  0.7818609E-02  0.8561420E-01
        2   -1    0    0  501    0  0.00000000000E+00  0.00000000000E+00  0.14924317200E+04  0.14924317200E+04  0.25500000920E-02 0. -1.
       -2   -1    0    0    0  501  0.00000000000E+00  0.00000000000E+00 -0.73844601319E+03  0.73844601319E+03  0.25500000920E-02 0.  1.
    10030    2    1    2    0    0  0.00000000000E+00  0.00000000000E+00  0.75398570679E+03  0.22308777332E+04  0.20996002034E+04 0.  0.
        5    1    3    3  502    0 -0.42751420549E+03  0.22207688669E+03 -0.61404833915E+03  0.78048958501E+03  0.46999998093E+01 0.  1.
       -5    1    3    3    0  502  0.42751420549E+03 -0.22207688669E+03  0.13680340459E+04  0.14503881482E+04  0.46999998093E+01 0. -1.
</event>
<event>
 5   0  0.1257125E-06  0.2099627E+04  0.7818609E-02  0.8561408E-01
       -4   -1    0    0    0  501  0.00000000000E+00  0.00000000000E+00  0.11597568104E+04  0.11597575057E+04  0.12699999809E+01 0. -1.
        4   -1    0    0  501    0  0.00000000000E+00  0.00000000000E+00 -0.95029092891E+03  0.95029177754E+03  0.12699999809E+01 0.  1.
    10030    2    1    2    0    0  0.00000000000E+00  0.00000000000E+00  0.20946588147E+03  0.21100492833E+04  0.20996266388E+04 0.  0.
        4    1    3    3  502    0  0.43649912409E+02 -0.57487249029E+03  0.98642650641E+03  0.11425509006E+04  0.12699999809E+01 0. -1.
       -4    1    3    3    0  502 -0.43649912409E+02  0.57487249029E+03 -0.77696062494E+03  0.96749838271E+03  0.12699999809E+01 0.  1.
</event>
<event>
 5   0  0.3547583E-06  0.2099520E+04  0.7818609E-02  0.8561455E-01
       -2   -1    0    0    0  501  0.00000000000E+00  0.00000000000E+00  0.99935286045E+03  0.99935286045E+03  0.25500000920E-02 0. -1.
        2   -1    0    0  501    0  0.00000000000E+00  0.00000000000E+00 -0.11027093885E+04  0.11027093885E+04  0.25500000920E-02 0.  1.
    10030    2    1    2    0    0  0.00000000000E+00  0.00000000000E+00 -0.10335652802E+03  0.21020622489E+04  0.20995197371E+04 0.  0.
        2    1    3    3  502    0  0.39998339404E+03 -0.51506711366E+03 -0.87530131266E+03  0.10915279360E+04  0.25500000920E-02 0.  1.
       -2    1    3    3    0  502 -0.39998339404E+03  0.51506711366E+03  0.77194478464E+03  0.10105343129E+04  0.25500000920E-02 0. -1.
</event>
<event>
 5   0  0.3636435E-06  0.2094940E+04  0.7818609E-02  0.8563475E-01
       -2   -1    0    0    0  501  0.00000000000E+00  0.00000000000E+00  0.95046874642E+03  0.95046874643E+03  0.25500000920E-02 0. -1.
        2   -1    0    0  501    0  0.00000000000E+00  0.00000000000E+00 -0.11543713213E+04  0.11543713213E+04  0.25500000920E-02 0.  1.
    10030    2    1    2    0    0  0.00000000000E+00  0.00000000000E+00 -0.20390257484E+03  0.21048400677E+04  0.20949404408E+04 0.  0.
        4    1    3    3  502    0  0.42534469092E+02 -0.83683718634E+03 -0.73348067919E+03  0.11135983015E+04  0.12699999809E+01 0.  1.
       -4    1    3    3    0  502 -0.42534469092E+02  0.83683718634E+03  0.52957810435E+03  0.99124176617E+03  0.12699999809E+01 0. -1.
</event>
<event>
 5   0  0.1615098E-06  0.2099959E+04  0.7818609E-02  0.8561262E-01
        1   -1    0    0  501    0  0.00000000000E+00  0.00000000000E+00  0.14490645766E+04  0.14490645766E+04  0.50400001928E-02 0.  1.
       -1   -1    0    0    0  501  0.00000000000E+00  0.00000000000E+00 -0.76080562859E+03  0.76080562861E+03  0.50400001928E-02 0. -1.
    10030    2    1    2    0    0  0.00000000000E+00  0.00000000000E+00  0.68825894798E+03  0.22098702052E+04  0.20999585578E+04 0.  0.
        1    1    3    3  502    0  0.92907892504E+03 -0.46828047508E+03  0.49288669615E+03  0.11512651943E+04  0.50400001928E-02 0.  1.
       -1    1    3    3    0  502 -0.92907892504E+03  0.46828047508E+03  0.19537225183E+03  0.10586050109E+04  0.50400001928E-02 0. -1.
</event>
<event>
 5   0  0.1615098E-06  0.2103350E+04  0.7818609E-02  0.8559769E-01
        1   -1    0    0  501    0  0.00000000000E+00  0.00000000000E+00  0.79385828207E+03  0.79385828208E+03  0.50400001928E-02 0.  1.
       -1   -1    0    0    0  501  0.00000000000E+00  0.00000000000E+00 -0.13932211110E+04  0.13932211110E+04  0.50400001928E-02 0. -1.
    10030    2    1    2    0    0  0.00000000000E+00  0.00000000000E+00 -0.59936282892E+03  0.21870793931E+04  0.21033498213E+04 0.  0.
        1    1    3    3  502    0 -0.23433086060E+03  0.56119144472E+03  0.59247926596E+03  0.84904562332E+03  0.50400001928E-02 0.  1.
       -1    1    3    3    0  502  0.23433086060E+03 -0.56119144472E+03 -0.11918420949E+04  0.13380337698E+04  0.50400001928E-02 0. -1.
</event>
<event>
 5   0  0.1653260E-06  0.2105815E+04  0.7818609E-02  0.8558686E-01
       -1   -1    0    0    0  501  0.00000000000E+00  0.00000000000E+00  0.73949622561E+03  0.73949622563E+03  0.50400001928E-02 0.  1.
        1   -1    0    0  501    0  0.00000000000E+00  0.00000000000E+00 -0.14991480732E+04  0.14991480732E+04  0.50400001928E-02 0. -1.
    10030    2    1    2    0    0  0.00000000000E+00  0.00000000000E+00 -0.75965184762E+03  0.22386442989E+04  0.21058151313E+04 0.  0.
        3    1    3    3  502    0 -0.61691323090E+03 -0.78621278566E+03 -0.73225145140E+03  0.12389126995E+04  0.10100000352E+00 0. -1.
       -3    1    3    3    0  502  0.61691323090E+03  0.78621278566E+03 -0.27400396218E+02  0.99973159933E+03  0.10100000352E+00 0.  1.
</event>
<event>
 5   0  0.3480134E-06  0.2097965E+04  0.7818609E-02  0.8562140E-01
       -2   -1    0    0    0  501  0.00000000000E+00  0.00000000000E+00  0.59497619023E+03  0.59497619023E+03  0.25500000920E-02 0. -1.
        2   -1    0    0  501    0  0.00000000000E+00  0.00000000000E+00 -0.18494254133E+04  0.18494254133E+04  0.25500000920E-02 0.  1.
    10030    2    1    2    0    0  0.00000000000E+00  0.00000000000E+00 -0.12544492231E+04  0.24444016036E+04  0.20979648105E+04 0.  0.
        1    1    3    3  502    0 -0.16632916837E+03 -0.15326420664E+01 -0.18339619785E+04  0.18414896904E+04  0.50400001928E-02 0.  1.
       -1    1    3    3    0  502  0.16632916837E+03  0.15326420664E+01  0.57951275544E+03  0.60291191312E+03  0.50400001928E-02 0. -1.
</event>
<event>
 5   0  0.1257125E-06  0.2099683E+04  0.7818609E-02  0.8561383E-01
        3   -1    0    0  501    0  0.00000000000E+00  0.00000000000E+00  0.17789320674E+04  0.17789320702E+04  0.10100000352E+00 0. -1.
       -3   -1    0    0    0  501  0.00000000000E+00  0.00000000000E+00 -0.61956658756E+03  0.61956659579E+03  0.10100000352E+00 0.  1.
    10030    2    1    2    0    0  0.00000000000E+00  0.00000000000E+00  0.11593654798E+04  0.23984986660E+04  0.20996827225E+04 0.  0.
        5    1    3    3  502    0 -0.60812755137E+03  0.51693972551E+03 -0.19935501803E+03  0.82268481922E+03  0.46999998093E+01 0.  1.
       -5    1    3    3    0  502  0.60812755137E+03 -0.51693972551E+03  0.13587204978E+04  0.15758138468E+04  0.46999998093E+01 0. -1.
</event>
<event>
 5   0  0.3636435E-06  0.2102325E+04  0.7818609E-02  0.8560220E-01
       -2   -1    0    0    0  501  0.00000000000E+00  0.00000000000E+00  0.99959376388E+03  0.99959376389E+03  0.25500000920E-02 0.  1.
        2   -1    0    0  501    0  0.00000000000E+00  0.00000000000E+00 -0.11053916570E+04  0.11053916570E+04  0.25500000920E-02 0. -1.
    10030    2    1    2    0    0  0.00000000000E+00  0.00000000000E+00 -0.10579789311E+03  0.21049854209E+04  0.21023250053E+04 0.  0.
        4    1    3    3  502    0  0.29150397759E+03  0.96752873860E+03 -0.34284192232E+03  0.10670654270E+04  0.12699999809E+01 0.  1.
       -4    1    3    3    0  502 -0.29150397759E+03 -0.96752873860E+03  0.23704402921E+03  0.10379199939E+04  0.12699999809E+01 0. -1.
</event>
<event>
 5   0  0.1646510E-06  0.2096933E+04  0.7818609E-02  0.8562595E-01
       -1   -1    0    0    0  501  0.00000000000E+00  0.00000000000E+00  0.70067522631E+03  0.70067522633E+03  0.50400001928E-02 0. -1.
        1   -1    0    0  501    0  0.00000000000E+00  0.00000000000E+00 -0.15688898965E+04  0.15688898965E+04  0.50400001928E-02 0.  1.
    10030    2    1    2    0    0  0.00000000000E+00  0.00000000000E+00 -0.86821467014E+03  0.22695651228E+04  0.20969332686E+04 0.  0.
        4    1    3    3  502    0  0.47435695855E+03 -0.68418662583E+02 -0.14433929118E+04  0.15208814379E+04  0.12699999809E+01 0.  1.
       -4    1    3    3    0  502 -0.47435695855E+03  0.68418662583E+02  0.57517824161E+03  0.74868368490E+03  0.12699999809E+01 0. -1.
</event>
<event>
 5   0  0.1590067E-06  0.2099239E+04  0.7818609E-02  0.8561579E-01
       -1   -1    0    0    0  501  0.00000000000E+00  0.00000000000E+00  0.40872620130E+03  0.40872620133E+03  0.50400001928E-02 0.  1.
        1   -1    0    0  501    0  0.00000000000E+00  0.00000000000E+00 -0.26954492788E+04  0.26954492789E+04  0.50400001928E-02 0. -1.
    10030    2    1    2    0    0  0.00000000000E+00  0.00000000000E+00 -0.22867230775E+04  0.31041754802E+04  0.20992386664E+04 0.  0.
        5    1    3    3  502    0 -0.10194086997E+04 -0.16457565060E+03 -0.86514529962E+03  0.13471368606E+04  0.46999998093E+01 0. -1.
       -5    1    3    3    0  502  0.10194086997E+04  0.16457565060E+03 -0.14215777779E+04  0.17570386195E+04  0.46999998093E+01 0.  1.
</event>
<event>
 5   0  0.3480134E-06  0.2100233E+04  0.7818609E-02  0.8561141E-01
       -2   -1    0    0    0  501  0.00000000000E+00  0.00000000000E+00  0.10262376787E+04  0.10262376787E+04  0.25500000920E-02 0. -1.
        2   -1    0    0  501    0  0.00000000000E+00  0.00000000000E+00 -0.10745505032E+04  0.10745505032E+04  0.25500000920E-02 0.  1.
    10030    2    1    2    0    0  0.00000000000E+00  0.00000000000E+00 -0.48312824463E+02  0.21007881819E+04  0.21002325719E+04 0.  0.
        1    1    3    3  502    0 -0.58167294269E+03 -0.22483887876E+03  0.82096252790E+03  0.10309584889E+04  0.50400001928E-02 0. -1.
       -1    1    3    3    0  502  0.58167294269E+03  0.22483887876E+03 -0.86927535236E+03  0.10698296929E+04  0.50400001928E-02 0.  1.
</event>
<event>
 5   0  0.1653260E-06  0.2105352E+04  0.7818609E-02  0.8558889E-01
        1   -1    0    0  501    0  0.00000000000E+00  0.00000000000E+00  0.18716132276E+04  0.18716132276E+04  0.50400001928E-02 0. -1.
       -1   -1    0    0    0  501  0.00000000000E+00  0.00000000000E+00 -0.59207032940E+03  0.59207032942E+03  0.50400001928E-02 0.  1.
    10030    2    1    2    0    0  0.00000000000E+00  0.00000000000E+00  0.12795428982E+04  0.24636835570E+04  0.21053519043E+04 0.  0.
        3    1    3    3  502    0  0.31964540362E+03  0.14241551347E+03  0.18015578280E+04  0.18352291357E+04  0.10100000352E+00 0. -1.
       -3    1    3    3    0  502 -0.31964540362E+03 -0.14241551347E+03 -0.52201492984E+03  0.62845442134E+03  0.10100000352E+00 0.  1.
</event>
<event>
 5   0  0.3547583E-06  0.2100694E+04  0.7818609E-02  0.8560938E-01
        2   -1    0    0  501    0  0.00000000000E+00  0.00000000000E+00  0.14358153125E+04  0.14358153125E+04  0.25500000920E-02 0.  1.
       -2   -1    0    0    0  501  0.00000000000E+00  0.00000000000E+00 -0.76836386650E+03  0.76836386651E+03  0.25500000920E-02 0. -1.
    10030    2    1    2    0    0  0.00000000000E+00  0.00000000000E+00  0.66745144595E+03  0.22041791790E+04  0.21006937950E+04 0.  0.
        2    1    3    3  502    0  0.87578271583E+03  0.45927099465E+03  0.70514595666E+03  0.12145600158E+04  0.25500000920E-02 0.  1.
       -2    1    3    3    0  502 -0.87578271583E+03 -0.45927099465E+03 -0.37694510707E+02  0.98961916312E+03  0.25500000920E-02 0. -1.
</event>
<event>
 5   0  0.3547583E-06  0.2099611E+04  0.7818609E-02  0.8561415E-01
       -2   -1    0    0    0  501  0.00000000000E+00  0.00000000000E+00  0.89661303282E+03  0.89661303282E+03  0.25500000920E-02 0.  1.
        2   -1    0    0  501    0  0.00000000000E+00  0.00000000000E+00 -0.12291720465E+04  0.12291720465E+04  0.25500000920E-02 0. -1.
    10030    2    1    2    0    0  0.00000000000E+00  0.00000000000E+00 -0.33255901369E+03  0.21257850793E+04  0.20996110844E+04 0.  0.
        2    1    3    3  502    0 -0.79765986691E+03  0.68179513922E+03 -0.19806838469E+03  0.10678656096E+04  0.25500000920E-02 0.  1.
       -2    1    3    3    0  502  0.79765986691E+03 -0.68179513922E+03 -0.13449062900E+03  0.10579194697E+04  0.25500000920E-02 0. -1.
</event>
<event>
 5   0  0.3636435E-06  0.2100049E+04  0.7818609E-02  0.8561222E-01
       -2   -1    0    0    0  501  0.00000000000E+00  0.00000000000E+00  0.60111310820E+03  0.60111310821E+03  0.25500000920E-02 0.  1.
        2   -1    0    0  501    0  0.00000000000E+00  0.00000000000E+00 -0.18341829736E+04  0.18341829736E+04  0.25500000920E-02 0. -1.
    10030    2    1    2    0    0  0.00000000000E+00  0.00000000000E+00 -0.12330698654E+04  0.24352960819E+04  0.21000489788E+04 0.  0.
        4    1    3    3  502    0 -0.81193364163E+03 -0.62945969292E+03 -0.36487998814E+03  0.10902269315E+04  0.12699999809E+01 0.  1.
       -4    1    3    3    0  502  0.81193364163E+03  0.62945969292E+03 -0.86818987730E+03  0.13450691504E+04  0.12699999809E+01 0. -1.
</event>
<event>
 5   0  0.3574927E-06  0.2100199E+04  0.7818609E-02  0.8561156E-01
       -2   -1    0    0    0  501  0.00000000000E+00  0.00000000000E+00  0.63999077307E+03  0.63999077307E+03  0.25500000920E-02 0.  1.
        2   -1    0    0  501    0  0.00000000000E+00  0.00000000000E+00 -0.17230077225E+04  0.17230077225E+04  0.25500000920E-02 0. -1.
    10030    2    1    2    0    0  0.00000000000E+00  0.00000000000E+00 -0.10830169494E+04  0.23629984955E+04  0.21001990804E+04 0.  0.
        3    1    3    3  502    0  0.19662986566E+03  0.10312267935E+04 -0.51356012075E+03  0.11686898697E+04  0.10100000352E+00 0. -1.
       -3    1    3    3    0  502 -0.19662986566E+03 -0.10312267935E+04 -0.56945682864E+03  0.11943086258E+04  0.10100000352E+00 0.  1.
</event>
<event>
 5   0  0.3480134E-06  0.2100456E+04  0.7818609E-02  0.8561042E-01
       -2   -1    0    0    0  501  0.00000000000E+00  0.00000000000E+00  0.88184998935E+03  0.88184998935E+03  0.25500000920E-02 0. -1.
        2   -1    0    0  501    0  0.00000000000E+00  0.00000000000E+00 -0.12507561390E+04  0.12507561390E+04  0.25500000920E-02 0.  1.
    10030    2    1    2    0    0  0.00000000000E+00  0.00000000000E+00 -0.36890614964E+03  0.21326061283E+04  0.21004564150E+04 0.  0.
        1    1    3    3  502    0 -0.34911892391E+02  0.26288579466E+03  0.84729548211E+03  0.88782735669E+03  0.50400001928E-02 0. -1.
       -1    1    3    3    0  502  0.34911892391E+02 -0.26288579466E+03 -0.12162016317E+04  0.12447787716E+04  0.50400001928E-02 0.  1.
</event>
<event>
 5   0  0.3705828E-06  0.2098703E+04  0.7818609E-02  0.8561815E-01
        2   -1    0    0  501    0  0.00000000000E+00  0.00000000000E+00  0.18234283771E+04  0.18234283771E+04  0.25500000920E-02 0. -1.
       -2   -1    0    0    0  501  0.00000000000E+00  0.00000000000E+00 -0.60388380698E+03  0.60388380699E+03  0.25500000920E-02 0.  1.
    10030    2    1    2    0    0  0.00000000000E+00  0.00000000000E+00  0.12195445701E+04  0.24273121841E+04  0.20987032855E+04 0.  0.
        5    1    3    3  502    0  0.96403290694E+03  0.34765802682E+03  0.34885907323E+03  0.10825665302E+04  0.46999998093E+01 0.  1.
       -5    1    3    3    0  502 -0.96403290694E+03 -0.34765802682E+03  0.87068549692E+03  0.13447456540E+04  0.46999998093E+01 0. -1.
</event>
<event>
 5   0  0.1646510E-06  0.2101200E+04  0.7818609E-02  0.8560715E-01
       -1   -1    0    0    0  501  0.00000000000E+00  0.00000000000E+00  0.72526724305E+03  0.72526724307E+03  0.50400001928E-02 0.  1.
        1   -1    0    0  501    0  0.00000000000E+00  0.00000000000E+00 -0.15218675084E+04  0.15218675085E+04  0.50400001928E-02 0. -1.
    10030    2    1    2    0    0  0.00000000000E+00  0.00000000000E+00 -0.79660026540E+03  0.22471347515E+04  0.21012002781E+04 0.  0.
        4    1    3    3  502    0  0.41775086165E+03 -0.71052271494E+03 -0.10950064152E+04  0.13705469613E+04  0.12699999809E+01 0. -1.
       -4    1    3    3    0  502 -0.41775086165E+03  0.71052271494E+03  0.29840614981E+03  0.87658779024E+03  0.12699999809E+01 0.  1.
</event>
<event>
 5   0  0.1590067E-06  0.2101271E+04  0.7818609E-02  0.8560684E-01
       -1   -1    0    0    0  501  0.00000000000E+00  0.00000000000E+00  0.11236633816E+04  0.11236633816E+04  0.50400001928E-02 0. -1.
        1   -1    0    0  501    0  0.00000000000E+00  0.00000000000E+00 -0.98235334247E+03  0.98235334249E+03  0.50400001928E-02 0.  1.
    10030    2    1    2    0    0  0.00000000000E+00  0.00000000000E+00  0.14131003913E+03  0.21060167241E+04  0.21012705478E+04 0.  0.
        5    1    3    3  502    0 -0.94184291907E+03  0.14466660103E+03  0.51416540681E+03  0.10827671334E+04  0.46999998093E+01 0. -1.
       -5    1    3    3    0  502  0.94184291907E+03 -0.14466660103E+03 -0.37285536767E+03  0.10232495907E+04  0.46999998093E+01 0.  1.
</event>
<event>
 5   0  0.3636435E-06  0.2100875E+04  0.7818609E-02  0.8560858E-01
       -2   -1    0    0    0  501  0.00000000000E+00  0.00000000000E+00  0.11679981443E+04  0.11679981443E+04  0.25500000920E-02 0. -1.
        2   -1    0    0  501    0  0.00000000000E+00  0.00000000000E+00 -0.94470957127E+03  0.94470957127E+03  0.25500000920E-02 0.  1.
    10030    2    1    2    0    0  0.00000000000E+00  0.00000000000E+00  0.22328857304E+03  0.21127077156E+04  0.21008750807E+04 0.  0.
        4    1    3    3  502    0 -0.70292631958E+03 -0.56545446083E+03  0.65279522098E+03  0.11135472022E+04  0.12699999809E+01 0. -1.
       -4    1    3    3    0  502  0.70292631958E+03  0.56545446083E+03 -0.42950664794E+03  0.99916051341E+03  0.12699999809E+01 0.  1.
</event>
<event>
 5   0  0.3547583E-06  0.2100197E+04  0.7818609E-02  0.8561156E-01
        2   -1    0    0  501    0  0.00000000000E+00  0.00000000000E+00  0.12340729510E+04  0.12340729510E+04  0.25500000920E-02 0.  1.
       -2   -1    0    0    0  501  0.00000000000E+00  0.00000000000E+00 -0.89355104072E+03  0.89355104072E+03  0.25500000920E-02 0. -1.
    10030    2    1    2    0    0  0.00000000000E+00  0.00000000000E+00  0.34052191027E+03  0.21276239917E+04  0.21001972952E+04 0.  0.
        2    1    3    3  502    0 -0.45994416100E+03 -0.51327158481E+02 -0.78466430265E+03  0.91097814260E+03  0.25500000920E-02 0. -1.
       -2    1    3    3    0  502  0.45994416100E+03  0.51327158481E+02  0.11251862129E+04  0.12166458491E+04  0.25500000920E-02 0.  1.
</event>
<event>
 5   0  0.1590067E-06  0.2100055E+04  0.7818609E-02  0.8561219E-01
        1   -1    0    0  501    0  0.00000000000E+00  0.00000000000E+00  0.91206651581E+03  0.91206651582E+03  0.50400001928E-02 0. -1.
       -1   -1    0    0    0  501  0.00000000000E+00  0.00000000000E+00 -0.12088571335E+04  0.12088571335E+04  0.50400001928E-02 0.  1.
    10030    2    1    2    0    0  0.00000000000E+00  0.00000000000E+00 -0.29679061770E+03  0.21209236493E+04  0.21000553458E+04 0.  0.
        5    1    3    3  502    0 -0.63364074156E+03  0.44583813142E+03 -0.86414345391E+03  0.11606197602E+04  0.46999998093E+01 0.  1.
       -5    1    3    3    0  502  0.63364074156E+03 -0.44583813142E+03  0.56735283621E+03  0.96030388916E+03  0.46999998093E+01 0. -1.
</event>
<event>
 5   0  0.1579820E-06  0.2100495E+04  0.7818609E-02  0.8561025E-01
       -1   -1    0    0    0  501  0.00000000000E+00  0.00000000000E+00  0.69436463111E+03  0.69436463113E+03  0.50400001928E-02 0.  1.
        1   -1    0    0  501    0  0.00000000000E+00  0.00000000000E+00 -0.15885309431E+04  0.15885309431E+04  0.50400001928E-02 0. -1.
    10030    2    1    2    0    0  0.00000000000E+00  0.00000000000E+00 -0.89416631203E+03  0.22828955743E+04  0.21004948963E+04 0.  0.
        2    1    3    3  502    0  0.59860866506E+03  0.78048901376E+03 -0.46979103301E+02  0.98473472095E+03  0.25500000920E-02 0.  1.
       -2    1    3    3    0  502 -0.59860866506E+03 -0.78048901376E+03 -0.84718720873E+03  0.12981608533E+04  0.25500000920E-02 0. -1.
</event>
<event>
 5   0  0.3705828E-06  0.2100648E+04  0.7818609E-02  0.8560958E-01
        2   -1    0    0  501    0  0.00000000000E+00  0.00000000000E+00  0.15209189605E+04  0.15209189605E+04  0.25500000920E-02 0.  1.
       -2   -1    0    0    0  501  0.00000000000E+00  0.00000000000E+00 -0.72533790020E+03  0.72533790021E+03  0.25500000920E-02 0. -1.
    10030    2    1    2    0    0  0.00000000000E+00  0.00000000000E+00  0.79558106032E+03  0.22462568607E+04  0.21006476765E+04 0.  0.
        5    1    3    3  502    0 -0.50959532378E+03  0.87595769976E+03  0.69290786839E+03  0.12276533264E+04  0.46999998093E+01 0. -1.
       -5    1    3    3    0  502  0.50959532378E+03 -0.87595769976E+03  0.10267319193E+03  0.10186035343E+04  0.46999998093E+01 0.  1.
</event>
<event>
 5   0  0.1579820E-06  0.2099407E+04  0.7818609E-02  0.8561505E-01
       -1   -1    0    0    0  501  0.00000000000E+00  0.00000000000E+00  0.10500001306E+04  0.10500001306E+04  0.50400001928E-02 0. -1.
        1   -1    0    0  501    0  0.00000000000E+00  0.00000000000E+00 -0.10494069741E+04  0.10494069741E+04  0.50400001928E-02 0.  1.
    10030    2    1    2    0    0  0.00000000000E+00  0.00000000000E+00  0.59315647136E+00  0.20994071047E+04  0.20994070209E+04 0.  0.
        2    1    3    3  502    0  0.62087194917E+02  0.35536856613E+03 -0.98547007767E+03  0.10494250386E+04  0.25500000920E-02 0.  1.
       -2    1    3    3    0  502 -0.62087194917E+02 -0.35536856613E+03  0.98606323414E+03  0.10499820662E+04  0.25500000920E-02 0. -1.
</event>
<event>
 5   0  0.1653260E-06  0.2099717E+04  0.7818609E-02  0.8561368E-01
        1   -1    0    0  501    0  0.00000000000E+00  0.00000000000E+00  0.83370404432E+03  0.83370404434E+03  0.50400001928E-02 0.  1.
       -1   -1    0    0    0  501  0.00000000000E+00  0.00000000000E+00 -0.13220556748E+04  0.13220556748E+04  0.50400001928E-02 0. -1.
    10030    2    1    2    0    0  0.00000000000E+00  0.00000000000E+00 -0.48835163049E+03  0.21557597192E+04  0.20997172790E+04 0.  0.
        3    1    3    3  502    0 -0.65016406653E+03 -0.82040386984E+03 -0.16186539503E+03  0.10592337983E+04  0.10100000352E+00 0.  1.
       -3    1    3    3    0  502  0.65016406653E+03  0.82040386984E+03 -0.32648623546E+03  0.10965259209E+04  0.10100000352E+00 0. -1.
</event>
<event>
 5   0  0.1615098E-06  0.2099503E+04  0.7818609E-02  0.8561462E-01
        1   -1    0    0  501    0  0.00000000000E+00  0.00000000000E+00  0.12956275418E+04  0.12956275418E+04  0.50400001928E-02 0.  1.
       -1   -1    0    0    0  501  0.00000000000E+00  0.00000000000E+00 -0.85053628997E+03  0.85053628999E+03  0.50400001928E-02 0. -1.
    10030    2    1    2    0    0  0.00000000000E+00  0.00000000000E+00  0.44509125185E+03  0.21461638318E+04  0.20995030294E+04 0.  0.
        1    1    3    3  502    0 -0.12239926484E+03 -0.15001207203E+03  0.12772185075E+04  0.12918097065E+04  0.50400001928E-02 0.  1.
       -1    1    3    3    0  502  0.12239926484E+03  0.15001207203E+03 -0.83212725568E+03  0.85435412533E+03  0.50400001928E-02 0. -1.
</event>
<event>
 5   0  0.3480134E-06  0.2101268E+04  0.7818609E-02  0.8560685E-01
       -2   -1    0    0    0  501  0.00000000000E+00  0.00000000000E+00  0.83198293680E+03  0.83198293680E+03  0.25500000920E-02 0. -1.
        2   -1    0    0  501    0  0.00000000000E+00  0.00000000000E+00 -0.13267480346E+04  0.13267480347E+04  0.25500000920E-02 0.  1.
    10030    2    1    2    0    0  0.00000000000E+00  0.00000000000E+00 -0.49476509785E+03  0.21587309715E+04  0.21012679280E+04 0.  0.
        1    1    3    3  502    0 -0.67668289246E+03  0.63241444800E+02  0.57573483805E+03  0.89071309694E+03  0.50400001928E-02 0. -1.
       -1    1    3    3    0  502  0.67668289246E+03 -0.63241444800E+02 -0.10704999359E+04  0.12680178745E+04  0.50400001928E-02 0.  1.
</event>
<event>
 5   0  0.3574927E-06  0.2101826E+04  0.7818609E-02  0.8560439E-01
       -2   -1    0    0    0  501  0.00000000000E+00  0.00000000000E+00  0.11598325955E+04  0.11598325955E+04  0.25500000920E-02 0. -1.
        2   -1    0    0  501    0  0.00000000000E+00  0.00000000000E+00 -0.95222209771E+03  0.95222209772E+03  0.25500000920E-02 0.  1.
    10030    2    1    2    0    0  0.00000000000E+00  0.00000000000E+00  0.20761049778E+03  0.21120546932E+04  0.21018260890E+04 0.  0.
        3    1    3    3  502    0 -0.51548542692E+03  0.14743878842E+03  0.10120594076E+04  0.11453068045E+04  0.10100000352E+00 0. -1.
       -3    1    3    3    0  502  0.51548542692E+03 -0.14743878842E+03 -0.80444890980E+03  0.96674788874E+03  0.10100000352E+00 0.  1.
</event>
<event>
 5   0  0.3705828E-06  0.2099881E+04  0.7818609E-02  0.8561296E-01
       -2   -1    0    0    0  501  0.00000000000E+00  0.00000000000E+00  0.64013002173E+03  0.64013002174E+03  0.25500000920E-02 0. -1.
        2   -1    0    0  501    0  0.00000000000E+00  0.00000000000E+00 -0.17221109985E+04  0.17221109985E+04  0.25500000920E-02 0.  1.
    10030    2    1    2    0    0  0.00000000000E+00  0.00000000000E+00 -0.10819809767E+04  0.23622410202E+04  0.20998809022E+04 0.  0.
        5    1    3    3  502    0  0.64329430468E+03  0.40651278493E+03  0.27276431041E+03  0.80839511736E+03  0.46999998093E+01 0. -1.
       -5    1    3    3    0  502 -0.64329430468E+03 -0.40651278493E+03 -0.13547452871E+04  0.15538459028E+04  0.46999998093E+01 0.  1.
</event>
<event>
 5   0  0.3636435E-06  0.2104123E+04  0.7818609E-02  0.8559429E-01
        2   -1    0    0  501    0  0.00000000000E+00  0.00000000000E+00  0.62934682655E+03  0.62934682656E+03  0.25500000920E-02 0. -1.
       -2   -1    0    0    0  501  0.00000000000E+00  0.00000000000E+00 -0.17587016166E+04  0.17587016166E+04  0.25500000920E-02 0.  1.
    10030    2    1    2    0    0  0.00000000000E+00  0.00000000000E+00 -0.11293547900E+04  0.23880484431E+04  0.21041228873E+04 0.  0.
        4    1    3    3  502    0 -0.31756813369E+03 -0.93717541433E+03 -0.97022415668E+03  0.13858152127E+04  0.12699999809E+01 0.  1.
       -4    1    3    3    0  502  0.31756813369E+03  0.93717541433E+03 -0.15913063335E+03  0.10022332304E+04  0.12699999809E+01 0. -1.
</event>
<event>
 5   0  0.3480134E-06  0.2099504E+04  0.7818609E-02  0.8561462E-01
        2   -1    0    0  501    0  0.00000000000E+00  0.00000000000E+00  0.16351985232E+04  0.16351985232E+04  0.25500000920E-02 0. -1.
       -2   -1    0    0    0  501  0.00000000000E+00  0.00000000000E+00 -0.67391140393E+03  0.67391140394E+03  0.25500000920E-02 0.  1.
    10030    2    1    2    0    0  0.00000000000E+00  0.00000000000E+00  0.96128711929E+03  0.23091099272E+04  0.20995036866E+04 0.  0.
        1    1    3    3  502    0  0.53762813302E+03  0.59340301098E+03 -0.26595624638E+03  0.84374395872E+03  0.50400001928E-02 0.  1.
       -1    1    3    3    0  502 -0.53762813302E+03 -0.59340301098E+03  0.12272433657E+04  0.14653659684E+04  0.50400001928E-02 0. -1.
</event>
<event>
 5   0  0.1579820E-06  0.2100695E+04  0.7818609E-02  0.8560937E-01
        1   -1    0    0  501    0  0.00000000000E+00  0.00000000000E+00  0.93043188370E+03  0.93043188372E+03  0.50400001928E-02 0.  1.
       -1   -1    0    0    0  501  0.00000000000E+00  0.00000000000E+00 -0.11857178118E+04  0.11857178118E+04  0.50400001928E-02 0. -1.
    10030    2    1    2    0    0  0.00000000000E+00  0.00000000000E+00 -0.25528592811E+03  0.21161496955E+04  0.21006947967E+04 0.  0.
        2    1    3    3  502    0 -0.83074259561E+01 -0.26867838092E+03  0.89519533696E+03  0.93468271463E+03  0.25500000920E-02 0.  1.
       -2    1    3    3    0  502  0.83074259561E+01  0.26867838092E+03 -0.11504812651E+04  0.11814669809E+04  0.25500000920E-02 0. -1.
</event>
<event>
 5   0  0.1653260E-06  0.2099915E+04  0.7818609E-02  0.8561281E-01
        1   -1    0    0  501    0  0.00000000000E+00  0.00000000000E+00  0.16277278188E+04  0.16277278188E+04  0.50400001928E-02 0.  1.
       -1   -1    0    0    0  501  0.00000000000E+00  0.00000000000E+00 -0.67726973977E+03  0.67726973979E+03  0.50400001928E-02 0. -1.
    10030    2    1    2    0    0  0.00000000000E+00  0.00000000000E+00  0.95045807903E+03  0.23049975586E+04  0.20999150424E+04 0.  0.
        3    1    3    3  502    0 -0.46746782343E+03 -0.90383179200E+03  0.75929401382E+03  0.12696320269E+04  0.10100000352E+00 0.  1.
       -3    1    3    3    0  502  0.46746782343E+03  0.90383179200E+03  0.19116406521E+03  0.10353655317E+04  0.10100000352E+00 0. -1.
</event>
<event>
 5   0  0.3574927E-06  0.2099781E+04  0.7818609E-02  0.8561340E-01
        2   -1    0    0  501    0  0.00000000000E+00  0.00000000000E+00  0.10106180151E+04  0.10106180151E+04  0.25500000920E-02 0.  1.
       -2   -1    0    0    0  501  0.00000000000E+00  0.00000000000E+00 -0.10906887236E+04  0.10906887236E+04  0.25500000920E-02 0. -1.
    10030    2    1    2    0    0  0.00000000000E+00  0.00000000000E+00 -0.80070708473E+02  0.21013067387E+04  0.20997806294E+04 0.  0.
        3    1    3    3  502    0  0.23928185372E+02  0.89624475722E+03 -0.58673125710E+03  0.10714853248E+04  0.10100000352E+00 0. -1.
       -3    1    3    3    0  502 -0.23928185372E+02 -0.89624475722E+03  0.50666054863E+03  0.10298214140E+04  0.10100000352E+00 0.  1.
</event>
<event>
 5   0  0.3574927E-06  0.2100738E+04  0.7818609E-02  0.8560919E-01
       -2   -1    0    0    0  501  0.00000000000E+00  0.00000000000E+00  0.81937973172E+03  0.81937973172E+03  0.25500000920E-02 0.  1.
        2   -1    0    0  501    0  0.00000000000E+00  0.00000000000E+00 -0.13464753035E+04  0.13464753035E+04  0.25500000920E-02 0. -1.
    10030    2    1    2    0    0  0.00000000000E+00  0.00000000000E+00 -0.52709557175E+03  0.21658550352E+04  0.21007375590E+04 0.  0.
        3    1    3    3  502    0  0.85694602374E+03 -0.53285186168E+03  0.37013994261E+02  0.10097809862E+04  0.10100000352E+00 0.  1.
       -3    1    3    3    0  502 -0.85694602374E+03  0.53285186168E+03 -0.56410956601E+03  0.11560740490E+04  0.10100000352E+00 0. -1.
</event>
<event>
 5   0  0.1579820E-06  0.2100457E+04  0.7818609E-02  0.8561042E-01
       -1   -1    0    0    0  501  0.00000000000E+00  0.00000000000E+00  0.54117411995E+03  0.54117411998E+03  0.50400001928E-02 0.  1.
        1   -1    0    0  501    0  0.00000000000E+00  0.00000000000E+00 -0.20381234994E+04  0.20381234995E+04  0.50400001928E-02 0. -1.
    10030    2    1    2    0    0  0.00000000000E+00  0.00000000000E+00 -0.14969493795E+04  0.25792976194E+04  0.21004567991E+04 0.  0.
        2    1    3    3  502    0  0.37491308211E+03 -0.28197700533E+03  0.40536543206E+03  0.61999353560E+03  0.25500000920E-02 0.  1.
       -2    1    3    3    0  502 -0.37491308211E+03  0.28197700533E+03 -0.19023148115E+04  0.19593040838E+04  0.25500000920E-02 0. -1.
</event>
<event>
 5   0  0.1615098E-06  0.2100111E+04  0.7818609E-02  0.8561195E-01
        1   -1    0    0  501    0  0.00000000000E+00  0.00000000000E+00  0.18463622495E+04  0.18463622495E+04  0.50400001928E-02 0.  1.
       -1   -1    0    0    0  501  0.00000000000E+00  0.00000000000E+00 -0.59718297668E+03  0.59718297670E+03  0.50400001928E-02 0. -1.
    10030    2    1    2    0    0  0.00000000000E+00  0.00000000000E+00  0.12491792728E+04  0.24435452262E+04  0.21001105725E+04 0.  0.
        1    1    3    3  502    0  0.63500153336E+02 -0.56734220769E+03  0.16500213226E+04  0.17459896377E+04  0.50400001928E-02 0.  1.
       -1    1    3    3    0  502 -0.63500153336E+02  0.56734220769E+03 -0.40084204977E+03  0.69755558845E+03  0.50400001928E-02 0. -1.
</event>
<event>
 5   0  0.3705828E-06  0.2099419E+04  0.7818609E-02  0.8561499E-01
        2   -1    0    0  501    0  0.00000000000E+00  0.00000000000E+00  0.86929561864E+03  0.86929561864E+03  0.25500000920E-02 0.  1.
       -2   -1    0    0    0  501  0.00000000000E+00  0.00000000000E+00 -0.12675661645E+04  0.12675661645E+04  0.25500000920E-02 0. -1.
    10030    2    1    2    0    0  0.00000000000E+00  0.00000000000E+00 -0.39827054581E+03  0.21368617831E+04  0.20994186939E+04 0.  0.
        5    1    3    3  502    0  0.27019094321E+03 -0.10122633296E+04 -0.26499972629E+03  0.10807067776E+04  0.46999998093E+01 0. -1.
       -5    1    3    3    0  502 -0.27019094321E+03  0.10122633296E+04 -0.13327081952E+03  0.10561550055E+04  0.46999998093E+01 0.  1.
</event>
<event>
 5   0  0.1646510E-06  0.2099956E+04  0.7818609E-02  0.8561263E-01
        1   -1    0    0  501    0  0.00000000000E+00  0.00000000000E+00  0.11253617181E+04  0.11253617181E+04  0.50400001928E-02 0.  1.
       -1   -1    0    0    0  501  0.00000000000E+00  0.00000000000E+00 -0.97964363829E+03  0.97964363830E+03  0.50400001928E-02 0. -1.
    10030    2    1    2    0    0  0.00000000000E+00  0.00000000000E+00  0.14571807980E+03  0.21050053564E+04  0.20999556642E+04 0.  0.
        4    1    3    3  502    0  0.74017516635E+03  0.68107852764E+03 -0.22907049934E+03  0.10316017372E+04  0.12699999809E+01 0.  1.
       -4    1    3    3    0  502 -0.74017516635E+03 -0.68107852764E+03  0.37478857914E+03  0.10734036192E+04  0.12699999809E+01 0. -1.
</event>
<event>
 5   0  0.1615098E-06  0.2099121E+04  0.7818609E-02  0.8561631E-01
       -1   -1    0    0    0  501  0.00000000000E+00  0.00000000000E+00  0.85543819015E+03  0.85543819016E+03  0.50400001928E-02 0.  1.
        1   -1    0    0  501    0  0.00000000000E+00  0.00000000000E+00 -0.12877347838E+04  0.12877347838E+04  0.50400001928E-02 0. -1.
    10030    2    1    2    0    0  0.00000000000E+00  0.00000000000E+00 -0.43229659364E+03  0.21431729740E+04  0.20991212570E+04 0.  0.
        1    1    3    3  502    0  0.27517959493E+03  0.10081857123E+04 -0.11707966736E+03  0.10516034844E+04  0.50400001928E-02 0. -1.
       -1    1    3    3    0  502 -0.27517959493E+03 -0.10081857123E+04 -0.31521692628E+03  0.10915694896E+04  0.50400001928E-02 0.  1.
</event>
<event>
 5   0  0.3636435E-06  0.2099908E+04  0.7818609E-02  0.8561284E-01
        2   -1    0    0  501    0  0.00000000000E+00  0.00000000000E+00  0.19140354233E+04  0.19140354233E+04  0.25500000920E-02 0.  1.
       -2   -1    0    0    0  501  0.00000000000E+00  0.00000000000E+00 -0.57595776637E+03  0.57595776637E+03  0.25500000920E-02 0. -1.
    10030    2    1    2    0    0  0.00000000000E+00  0.00000000000E+00  0.13380776569E+04  0.24899931896E+04  0.20999081572E+04 0.  0.
        4    1    3    3  502    0 -0.54338881091E+03  0.66277107965E+03 -0.50148659480E+02  0.85851814471E+03  0.12699999809E+01 0. -1.
       -4    1    3    3    0  502  0.54338881091E+03 -0.66277107965E+03  0.13882263164E+04  0.16314750449E+04  0.12699999809E+01 0.  1.
</event>
<event>
 5   0  0.1653260E-06  0.2100813E+04  0.7818609E-02  0.8560885E-01
       -1   -1    0    0    0  501  0.00000000000E+00  0.00000000000E+00  0.93277560879E+03  0.93277560880E+03  0.50400001928E-02 0.  1.
        1   -1    0    0  501    0  0.00000000000E+00  0.00000000000E+00 -0.11828715565E+04  0.11828715565E+04  0.50400001928E-02 0. -1.
    10030    2    1    2    0    0  0.00000000000E+00  0.00000000000E+00 -0.25009594766E+03  0.21156471653E+04  0.21008129248E+04 0.  0.
        3    1    3    3  502    0 -0.90732237439E+03 -0.43088551550E+03  0.18446160938E+03  0.10212356800E+04  0.10100000352E+00 0. -1.
       -3    1    3    3    0  502  0.90732237439E+03  0.43088551550E+03 -0.43455755704E+03  0.10944114853E+04  0.10100000352E+00 0.  1.
</event>
<event>
 5   0  0.1615098E-06  0.2105856E+04  0.7818609E-02  0.8558668E-01
       -1   -1    0    0    0  501  0.00000000000E+00  0.00000000000E+00  0.88104514779E+03  0.88104514781E+03  0.50400001928E-02 0.  1.
        1   -1    0    0  501    0  0.00000000000E+00  0.00000000000E+00 -0.12583430804E+04  0.12583430805E+04  0.50400001928E-02 0. -1.
    10030    2    1    2    0    0  0.00000000000E+00  0.00000000000E+00 -0.37729793266E+03  0.21393882283E+04  0.21058557076E+04 0.  0.
        1    1    3    3  502    0 -0.81095195696E+03  0.40557177852E+03  0.35515534612E+03  0.97378994857E+03  0.50400001928E-02 0.  1.
       -1    1    3    3    0  502  0.81095195696E+03 -0.40557177852E+03 -0.73245327878E+03  0.11655982797E+04  0.50400001928E-02 0. -1.
</event>
<event>
 5   0  0.1615098E-06  0.2100292E+04  0.7818609E-02  0.8561115E-01
        1   -1    0    0  501    0  0.00000000000E+00  0.00000000000E+00  0.76389323399E+03  0.76389323401E+03  0.50400001928E-02 0.  1.
       -1   -1    0    0    0  501  0.00000000000E+00  0.00000000000E+00 -0.14436652741E+04  0.14436652741E+04  0.50400001928E-02 0. -1.
    10030    2    1    2    0    0  0.00000000000E+00  0.00000000000E+00 -0.67977204009E+03  0.22075585081E+04  0.21002915370E+04 0.  0.
        1    1    3    3  502    0 -0.42858735350E+03 -0.93807775347E+03 -0.54779957938E+03  0.11678019397E+04  0.50400001928E-02 0. -1.
       -1    1    3    3    0  502  0.42858735350E+03  0.93807775347E+03 -0.13197246071E+03  0.10397565684E+04  0.50400001928E-02 0.  1.
</event>
<event>
 5   0  0.1590067E-06  0.2099200E+04  0.7818609E-02  0.8561596E-01
        1   -1    0    0  501    0  0.00000000000E+00  0.00000000000E+00  0.18181474690E+04  0.18181474690E+04  0.50400001928E-02 0.  1.
       -1   -1    0    0    0  501  0.00000000000E+00  0.00000000000E+00 -0.60592479768E+03  0.60592479770E+03  0.50400001928E-02 0. -1.
    10030    2    1    2    0    0  0.00000000000E+00  0.00000000000E+00  0.12122226713E+04  0.24240722667E+04  0.20992004548E+04 0.  0.
        5    1    3    3  502    0 -0.18491219295E+03 -0.39734628010E+03  0.17074168050E+04  0.17627736160E+04  0.46999998093E+01 0.  1.
       -5    1    3    3    0  502  0.18491219295E+03  0.39734628010E+03 -0.49519413365E+03  0.66129865069E+03  0.46999998093E+01 0. -1.
</event>
<event>
 5   0  0.1590067E-06  0.2098644E+04  0.7818609E-02  0.8561841E-01
        1   -1    0    0  501    0  0.00000000000E+00  0.00000000000E+00  0.15513151756E+04  0.15513151756E+04  0.50400001928E-02 0. -1.
       -1   -1    0    0    0  501  0.00000000000E+00  0.00000000000E+00 -0.70977008139E+03  0.70977008141E+03  0.50400001928E-02 0.  1.
    10030    2    1    2    0    0  0.00000000000E+00  0.00000000000E+00  0.84154509419E+03  0.22610852570E+04  0.20986444182E+04 0.  0.
        5    1    3    3  502    0  0.40166818824E+02  0.77048322728E+03  0.11870151619E+04  0.14157276791E+04  0.46999998093E+01 0. -1.
       -5    1    3    3    0  502 -0.40166818824E+02 -0.77048322728E+03 -0.34547006767E+03  0.84535757790E+03  0.46999998093E+01 0.  1.
</event>
<event>
 5   0  0.1579820E-06  0.2101420E+04  0.7818609E-02  0.8560618E-01
       -1   -1    0    0    0  501  0.00000000000E+00  0.00000000000E+00  0.97513368686E+03  0.97513368688E+03  0.50400001928E-02 0.  1.
        1   -1    0    0  501    0  0.00000000000E+00  0.00000000000E+00 -0.11321438172E+04  0.11321438172E+04  0.50400001928E-02 0. -1.
    10030    2    1    2    0    0  0.00000000000E+00  0.00000000000E+00 -0.15701013033E+03  0.21072775041E+04  0.21014200670E+04 0.  0.
        2    1    3    3  502    0  0.83849062755E+01  0.10635162159E+03  0.96968867232E+03  0.97553938686E+03  0.25500000920E-02 0.  1.
       -2    1    3    3    0  502 -0.83849062755E+01 -0.10635162159E+03 -0.11266988027E+04  0.11317381172E+04  0.25500000920E-02 0. -1.
</event>
<event>
 5   0  0.1579820E-06  0.2099645E+04  0.7818609E-02  0.8561400E-01
        1   -1    0    0  501    0  0.00000000000E+00  0.00000000000E+00  0.68997600789E+03  0.68997600790E+03  0.50400001928E-02 0. -1.
       -1   -1    0    0    0  501  0.00000000000E+00  0.00000000000E+00 -0.15973410608E+04  0.15973410608E+04  0.50400001928E-02 0.  1.
    10030    2    1    2    0    0  0.00000000000E+00  0.00000000000E+00 -0.90736505295E+03  0.22873170687E+04  0.20996447399E+04 0.  0.
        2    1    3    3  502    0  0.31941288601E+03  0.91493855948E+03 -0.89348820388E+03  0.13181268262E+04  0.25500000920E-02 0.  1.
       -2    1    3    3    0  502 -0.31941288601E+03 -0.91493855948E+03 -0.13876849067E+02  0.96919024258E+03  0.25500000920E-02 0. -1.
</event>
<event>
 5   0  0.1579820E-06  0.2100648E+04  0.7818609E-02  0.8560958E-01
       -1   -1    0    0    0  501  0.00000000000E+00  0.00000000000E+00  0.89894638595E+03  0.89894638596E+03  0.50400001928E-02 0.  1.
        1   -1    0    0  501    0  0.00000000000E+00  0.00000000000E+00 -0.12271931056E+04  0.12271931056E+04  0.50400001928E-02 0. -1.
    10030    2    1    2    0    0  0.00000000000E+00  0.00000000000E+00 -0.32824671964E+03  0.21261394916E+04  0.21006482877E+04 0.  0.
        2    1    3    3  502    0 -0.28495207493E+03 -0.82127289701E+02 -0.11839406988E+04  0.12205155284E+04  0.25500000920E-02 0. -1.
       -2    1    3    3    0  502  0.28495207493E+03  0.82127289701E+02  0.85569397916E+03  0.90562396319E+03  0.25500000920E-02 0.  1.
</event>
<event>
 5   0  0.3705828E-06  0.2107857E+04  0.7818609E-02  0.8557790E-01
        2   -1    0    0  501    0  0.00000000000E+00  0.00000000000E+00  0.99644353148E+03  0.99644353149E+03  0.25500000920E-02 0. -1.
       -2   -1    0    0    0  501  0.00000000000E+00  0.00000000000E+00 -0.11147302758E+04  0.11147302758E+04  0.25500000920E-02 0.  1.
    10030    2    1    2    0    0  0.00000000000E+00  0.00000000000E+00 -0.11828674432E+03  0.21111738073E+04  0.21078574645E+04 0.  0.
        5    1    3    3  502    0 -0.82524181167E+03 -0.28409801235E+03 -0.65084179486E+03  0.10887391149E+04  0.46999998093E+01 0.  1.
       -5    1    3    3    0  502  0.82524181167E+03  0.28409801235E+03  0.53255505055E+03  0.10224346924E+04  0.46999998093E+01 0. -1.
</event>
<event>
 5   0  0.1615098E-06  0.2100342E+04  0.7818609E-02  0.8561093E-01
        1   -1    0    0  501    0  0.00000000000E+00  0.00000000000E+00  0.13809477695E+04  0.13809477695E+04  0.50400001928E-02 0. -1.
       -1   -1    0    0    0  501  0.00000000000E+00  0.00000000000E+00 -0.79862486137E+03  0.79862486138E+03  0.50400001928E-02 0.  1.
    10030    2    1    2    0    0  0.00000000000E+00  0.00000000000E+00  0.58232290808E+03  0.21795726308E+04  0.21003420873E+04 0.  0.
        1    1    3    3  502    0 -0.46601656329E+03  0.81687961680E+03 -0.19379543051E+03  0.96021894092E+03  0.50400001928E-02 0.  1.
       -1    1    3    3    0  502  0.46601656329E+03 -0.81687961680E+03  0.77611833860E+03  0.12193536899E+04  0.50400001928E-02 0. -1.
</event>
<event>
 5   0  0.1257125E-06  0.2101251E+04  0.7818609E-02  0.8560692E-01
       -3   -1    0    0    0  501  0.00000000000E+00  0.00000000000E+00  0.10451636405E+04  0.10451636454E+04  0.10100000352E+00 0.  1.
        3   -1    0    0  501    0  0.00000000000E+00  0.00000000000E+00 -0.10561163902E+04  0.10561163951E+04  0.10100000352E+00 0. -1.
    10030    2    1    2    0    0  0.00000000000E+00  0.00000000000E+00 -0.10952749689E+02  0.21012800405E+04  0.21012514951E+04 0.  0.
        4    1    3    3  502    0  0.30277209259E+03  0.65698347215E+02 -0.10093952054E+04  0.10558728647E+04  0.12699999809E+01 0. -1.
       -4    1    3    3    0  502 -0.30277209259E+03 -0.65698347215E+02  0.99844245570E+03  0.10454071758E+04  0.12699999809E+01 0.  1.
</event>
<event>
 5   0  0.3574927E-06  0.2099970E+04  0.7818609E-02  0.8561257E-01
        2   -1    0    0  501    0  0.00000000000E+00  0.00000000000E+00  0.12853035616E+04  0.12853035616E+04  0.25500000920E-02 0. -1.
       -2   -1    0    0    0  501  0.00000000000E+00  0.00000000000E+00 -0.85774914942E+03  0.85774914943E+03  0.25500000920E-02 0.  1.
    10030    2    1    2    0    0  0.00000000000E+00  0.00000000000E+00  0.42755441221E+03  0.21430527111E+04  0.20999695586E+04 0.  0.
        3    1    3    3  502    0 -0.68345557781E+03  0.55762563751E+03 -0.36747828623E+03  0.95556170889E+03  0.10100000352E+00 0.  1.
       -3    1    3    3    0  502  0.68345557781E+03 -0.55762563751E+03  0.79503269844E+03  0.11874910022E+04  0.10100000352E+00 0. -1.
</event>
<event>
 5   0  0.1646510E-06  0.2100445E+04  0.7818609E-02  0.8561048E-01
        1   -1    0    0  501    0  0.00000000000E+00  0.00000000000E+00  0.24691675579E+04  0.24691675579E+04  0.50400001928E-02 0. -1.
       -1   -1    0    0    0  501  0.00000000000E+00  0.00000000000E+00 -0.44669580788E+03  0.44669580791E+03  0.50400001928E-02 0.  1.
    10030    2    1    2    0    0  0.00000000000E+00  0.00000000000E+00  0.20224717500E+04  0.29158633658E+04  0.21004445216E+04 0.  0.
        4    1    3    3  502    0  0.14577238907E+03 -0.10337024182E+04  0.11705776714E+04  0.15684527332E+04  0.12699999809E+01 0. -1.
       -4    1    3    3    0  502 -0.14577238907E+03  0.10337024182E+04  0.85189407865E+03  0.13474106326E+04  0.12699999809E+01 0.  1.
</event>
<event>
 5   0  0.3636435E-06  0.2099736E+04  0.7818609E-02  0.8561360E-01
       -2   -1    0    0    0  501  0.00000000000E+00  0.00000000000E+00  0.97583887791E+03  0.97583887791E+03  0.25500000920E-02 0.  1.
        2   -1    0    0  501    0  0.00000000000E+00  0.00000000000E+00 -0.11295130506E+04  0.11295130506E+04  0.25500000920E-02 0. -1.
    10030    2    1    2    0    0  0.00000000000E+00  0.00000000000E+00 -0.15367417272E+03  0.21053519285E+04  0.20997359338E+04 0.  0.
        4    1    3    3  502    0 -0.83524529163E+03  0.12824161752E+03  0.54783847617E+03  0.10070795493E+04  0.12699999809E+01 0.  1.
       -4    1    3    3    0  502  0.83524529163E+03 -0.12824161752E+03 -0.70151264890E+03  0.10982723793E+04  0.12699999809E+01 0. -1.
</event>
<event>
 5   0  0.3480134E-06  0.2100265E+04  0.7818609E-02  0.8561126E-01
        2   -1    0    0  501    0  0.00000000000E+00  0.00000000000E+00  0.13147086348E+04  0.13147086348E+04  0.25500000920E-02 0.  1.
       -2   -1    0    0    0  501  0.00000000000E+00  0.00000000000E+00 -0.83880082676E+03  0.83880082676E+03  0.25500000920E-02 0. -1.
    10030    2    1    2    0    0  0.00000000000E+00  0.00000000000E+00  0.47590780807E+03  0.21535094616E+04  0.21002654021E+04 0.  0.
        1    1    3    3  502    0  0.59464444782E+03  0.39109482520E+03  0.10296826715E+04  0.12517202506E+04  0.50400001928E-02 0.  1.
       -1    1    3    3    0  502 -0.59464444782E+03 -0.39109482520E+03 -0.55377486348E+03  0.90178921100E+03  0.50400001928E-02 0. -1.
</event>
<event>
 5   0  0.1653260E-06  0.2099776E+04  0.7818609E-02  0.8561342E-01
        1   -1    0    0  501    0  0.00000000000E+00  0.00000000000E+00  0.20232260417E+04  0.20232260417E+04  0.50400001928E-02 0. -1.
       -1   -1    0    0    0  501  0.00000000000E+00  0.00000000000E+00 -0.54480576107E+03  0.54480576109E+03  0.50400001928E-02 0.  1.
    10030    2    1    2    0    0  0.00000000000E+00  0.00000000000E+00  0.14784202806E+04  0.25680318028E+04  0.20997763724E+04 0.  0.
        3    1    3    3  502    0 -0.28384661987E+03  0.86192015247E+03  0.13849623527E+04  0.16557765494E+04  0.10100000352E+00 0. -1.
       -3    1    3    3    0  502  0.28384661987E+03 -0.86192015247E+03  0.93457927877E+02  0.91225525338E+03  0.10100000352E+00 0.  1.
</event>
<event>
 5   0  0.3574927E-06  0.2100293E+04  0.7818609E-02  0.8561114E-01
       -2   -1    0    0    0  501  0.00000000000E+00  0.00000000000E+00  0.83884619467E+03  0.83884619467E+03  0.25500000920E-02 0.  1.
        2   -1    0    0  501    0  0.00000000000E+00  0.00000000000E+00 -0.13146721649E+04  0.13146721649E+04  0.25500000920E-02 0. -1.
    10030    2    1    2    0    0  0.00000000000E+00  0.00000000000E+00 -0.47582597027E+03  0.21535183596E+04  0.21002930679E+04 0.  0.
        3    1    3    3  502    0  0.74362143137E+03  0.30503495041E+03  0.45507594594E+03  0.92364131617E+03  0.10100000352E+00 0.  1.
       -3    1    3    3    0  502 -0.74362143137E+03 -0.30503495041E+03 -0.93090191621E+03  0.12298770434E+04  0.10100000352E+00 0. -1.
</event>
<event>
 5   0  0.1646510E-06  0.2099777E+04  0.7818609E-02  0.8561342E-01
        1   -1    0    0  501    0  0.00000000000E+00  0.00000000000E+00  0.68653717411E+03  0.68653717413E+03  0.50400001928E-02 0.  1.
       -1   -1    0    0    0  501  0.00000000000E+00  0.00000000000E+00 -0.16055439709E+04  0.16055439709E+04  0.50400001928E-02 0. -1.
    10030    2    1    2    0    0  0.00000000000E+00  0.00000000000E+00 -0.91900679681E+03  0.22920811451E+04  0.20997767698E+04 0.  0.
        4    1    3    3  502    0 -0.63485626654E+02 -0.97653347165E+03 -0.87461510106E+03  0.13124790413E+04  0.12699999809E+01 0.  1.
       -4    1    3    3    0  502  0.63485626654E+02  0.97653347165E+03 -0.44391695748E+02  0.97960210371E+03  0.12699999809E+01 0. -1.
</event>
<event>
 5   0  0.3547583E-06  0.2099660E+04  0.7818609E-02  0.8561393E-01
        2   -1    0    0  501    0  0.00000000000E+00  0.00000000000E+00  0.12922079703E+04  0.12922079703E+04  0.25500000920E-02 0. -1.
       -2   -1    0    0    0  501  0.00000000000E+00  0.00000000000E+00 -0.85291438832E+03  0.85291438832E+03  0.25500000920E-02 0.  1.
    10030    2    1    2    0    0  0.00000000000E+00  0.00000000000E+00  0.43929358195E+03  0.21451223586E+04  0.20996597539E+04 0.  0.
        2    1    3    3  502    0  0.87234298816E+03 -0.40448719977E+03  0.65013791522E+03  0.11607202473E+04  0.25500000920E-02 0. -1.
       -2    1    3    3    0  502 -0.87234298816E+03  0.40448719977E+03 -0.21084433328E+03  0.98440211126E+03  0.25500000920E-02 0.  1.
</event>
<event>
 5   0  0.1646510E-06  0.2101314E+04  0.7818609E-02  0.8560665E-01
       -1   -1    0    0    0  501  0.00000000000E+00  0.00000000000E+00  0.74449390887E+03  0.74449390889E+03  0.50400001928E-02 0. -1.
        1   -1    0    0  501    0  0.00000000000E+00  0.00000000000E+00 -0.14827252680E+04  0.14827252681E+04  0.50400001928E-02 0.  1.
    10030    2    1    2    0    0  0.00000000000E+00  0.00000000000E+00 -0.73823135918E+03  0.22272191769E+04  0.21013138087E+04 0.  0.
        4    1    3    3  502    0 -0.29452989580E+03 -0.98107091068E+03 -0.12137978259E+03  0.10314953494E+04  0.12699999809E+01 0. -1.
       -4    1    3    3    0  502  0.29452989580E+03  0.98107091068E+03 -0.61685157659E+03  0.11957238275E+04  0.12699999809E+01 0.  1.
</event>
<event>
 5   0  0.1646510E-06  0.2101088E+04  0.7818609E-02  0.8560764E-01
        1   -1    0    0  501    0  0.00000000000E+00  0.00000000000E+00  0.15986706961E+04  0.15986706961E+04  0.50400001928E-02 0.  1.
       -1   -1    0    0    0  501  0.00000000000E+00  0.00000000000E+00 -0.69035024993E+03  0.69035024995E+03  0.50400001928E-02 0. -1.
    10030    2    1    2    0    0  0.00000000000E+00  0.00000000000E+00  0.90832044613E+03  0.22890209460E+04  0.21010880178E+04 0.  0.
        4    1    3    3  502    0 -0.49768450527E+03  0.29513381949E+03  0.14094289432E+04  0.15235765150E+04  0.12699999809E+01 0.  1.
       -4    1    3    3    0  502  0.49768450527E+03 -0.29513381949E+03 -0.50110849710E+03  0.76544443101E+03  0.12699999809E+01 0. -1.
</event>
<event>
 5   0  0.1579820E-06  0.2099136E+04  0.7818609E-02  0.8561624E-01
        1   -1    0    0  501    0  0.00000000000E+00  0.00000000000E+00  0.72466970776E+03  0.72466970777E+03  0.50400001928E-02 0.  1.
       -1   -1    0    0    0  501  0.00000000000E+00  0.00000000000E+00 -0.15201312280E+04  0.15201312280E+04  0.50400001928E-02 0. -1.
    10030    2    1    2    0    0  0.00000000000E+00  0.00000000000E+00 -0.79546152020E+03  0.22448009357E+04  0.20991360630E+04 0.  0.
        2    1    3    3  502    0  0.95695773692E+03  0.39599532869E+03 -0.21558004296E+03  0.10578540379E+04  0.25500000920E-02 0.  1.
       -2    1    3    3    0  502 -0.95695773692E+03 -0.39599532869E+03 -0.57988147724E+03  0.11869468978E+04  0.25500000920E-02 0. -1.
</event>
<event>
 5   0  0.3547583E-06  0.2099554E+04  0.7818609E-02  0.8561440E-01
        2   -1    0    0  501    0  0.00000000000E+00  0.00000000000E+00  0.87010909011E+03  0.87010909012E+03  0.25500000920E-02 0. -1.
       -2   -1    0    0    0  501  0.00000000000E+00  0.00000000000E+00 -0.12665445398E+04  0.12665445398E+04  0.25500000920E-02 0.  1.
    10030    2    1    2    0    0  0.00000000000E+00  0.00000000000E+00 -0.39643544969E+03  0.21366536299E+04  0.20995541595E+04 0.  0.
        2    1    3    3  502    0 -0.26808060205E+03  0.23363897708E+03  0.80694861935E+03  0.88182790559E+03  0.25500000920E-02 0. -1.
       -2    1    3    3    0  502  0.26808060205E+03 -0.23363897708E+03 -0.12033840690E+04  0.12548257243E+04  0.25500000920E-02 0.  1.
</event>
<event>
 5   0  0.3480134E-06  0.2098551E+04  0.7818609E-02  0.8561882E-01
       -2   -1    0    0    0  501  0.00000000000E+00  0.00000000000E+00  0.17307194801E+04  0.17307194801E+04  0.25500000920E-02 0.  1.
        2   -1    0    0  501    0  0.00000000000E+00  0.00000000000E+00 -0.63613924687E+03  0.63613924687E+03  0.25500000920E-02 0. -1.
    10030    2    1    2    0    0  0.00000000000E+00  0.00000000000E+00  0.10945802333E+04  0.23668587270E+04  0.20985505347E+04 0.  0.
        1    1    3    3  502    0  0.98497146679E+03 -0.26299474619E+03  0.26726514649E+03  0.10539286909E+04  0.50400001928E-02 0. -1.
       -1    1    3    3    0  502 -0.98497146679E+03  0.26299474619E+03  0.82731508679E+03  0.13129300361E+04  0.50400001928E-02 0.  1.
</event>
<event>
 5   0  0.1257125E-06  0.2100283E+04  0.7818609E-02  0.8561119E-01
       -4   -1    0    0    0  501  0.00000000000E+00  0.00000000000E+00  0.76687154495E+03  0.76687259656E+03  0.12699999809E+01 0. -1.
        4   -1    0    0  501    0  0.00000000000E+00  0.00000000000E+00 -0.14380444194E+04  0.14380449802E+04  0.12699999809E+01 0.  1.
    10030    2    1    2    0    0  0.00000000000E+00  0.00000000000E+00 -0.67117287449E+03  0.22049175768E+04  0.21002829555E+04 0.  0.
        1    1    3    3  502    0  0.59383319241E+03  0.23969342486E+03  0.53816746452E+03  0.83648970002E+03  0.50400001928E-02 0. -1.
       -1    1    3    3    0  502 -0.59383319241E+03 -0.23969342486E+03 -0.12093403390E+04  0.13684278768E+04  0.50400001928E-02 0.  1.
</event>
<event>
 5   0  0.3480134E-06  0.2100588E+04  0.7818609E-02  0.8560985E-01
       -2   -1    0    0    0  501  0.00000000000E+00  0.00000000000E+00  0.95102108433E+03  0.95102108433E+03  0.25500000920E-02 0.  1.
        2   -1    0    0  501    0  0.00000000000E+00  0.00000000000E+00 -0.11599290543E+04  0.11599290543E+04  0.25500000920E-02 0. -1.
    10030    2    1    2    0    0  0.00000000000E+00  0.00000000000E+00 -0.20890796996E+03  0.21109501386E+04  0.21005875244E+04 0.  0.
        1    1    3    3  502    0 -0.52182509710E+03 -0.35416135219E+03  0.73956145847E+03  0.97194796477E+03  0.50400001928E-02 0.  1.
       -1    1    3    3    0  502  0.52182509710E+03  0.35416135219E+03 -0.94846942843E+03  0.11390021739E+04  0.50400001928E-02 0. -1.
</event>
<event>
 5   0  0.1615098E-06  0.2099584E+04  0.7818609E-02  0.8561427E-01
       -1   -1    0    0    0  501  0.00000000000E+00  0.00000000000E+00  0.41418037607E+03  0.41418037611E+03  0.50400001928E-02 0. -1.
        1   -1    0    0  501    0  0.00000000000E+00  0.00000000000E+00 -0.26608296581E+04  0.26608296581E+04  0.50400001928E-02 0.  1.
    10030    2    1    2    0    0  0.00000000000E+00  0.00000000000E+00 -0.22466492821E+04  0.30750100342E+04  0.20995841765E+04 0.  0.
        1    1    3    3  502    0 -0.18102667684E+03  0.60672955342E+03 -0.23497059838E+04  0.24335179513E+04  0.50400001928E-02 0.  1.
       -1    1    3    3    0  502  0.18102667684E+03 -0.60672955342E+03  0.10305670176E+03  0.64149208298E+03  0.50400001928E-02 0. -1.
</event>
<event>
 5   0  0.3705828E-06  0.2100243E+04  0.7818609E-02  0.8561136E-01
        2   -1    0    0  501    0  0.00000000000E+00  0.00000000000E+00  0.18483783998E+04  0.18483783998E+04  0.25500000920E-02 0.  1.
       -2   -1    0    0    0  501  0.00000000000E+00  0.00000000000E+00 -0.59660689690E+03  0.59660689691E+03  0.25500000920E-02 0. -1.
    10030    2    1    2    0    0  0.00000000000E+00  0.00000000000E+00  0.12517715029E+04  0.24449852967E+04  0.21002431301E+04 0.  0.
        5    1    3    3  502    0  0.70929669454E+03  0.40172562571E+03  0.13965524922E+04  0.16170548020E+04  0.46999998093E+01 0.  1.
       -5    1    3    3    0  502 -0.70929669454E+03 -0.40172562571E+03 -0.14478098928E+03  0.82793049472E+03  0.46999998093E+01 0. -1.
</event>
<event>
 5   0  0.1257125E-06  0.2100498E+04  0.7818609E-02  0.8561024E-01
        3   -1    0    0  501    0  0.00000000000E+00  0.00000000000E+00  0.10992573314E+04  0.10992573360E+04  0.10100000352E+00 0.  1.
       -3   -1    0    0    0  501  0.00000000000E+00  0.00000000000E+00 -0.10034251555E+04  0.10034251605E+04  0.10100000352E+00 0. -1.
    10030    2    1    2    0    0  0.00000000000E+00  0.00000000000E+00  0.95832175904E+02  0.21026824965E+04  0.21004975304E+04 0.  0.
        3    1    3    3  502    0 -0.84427282252E+03  0.59844785880E+03 -0.13139595136E+03  0.10431688956E+04  0.10100000352E+00 0. -1.
       -3    1    3    3    0  502  0.84427282252E+03 -0.59844785880E+03  0.22722812727E+03  0.10595136009E+04  0.10100000352E+00 0.  1.
</event>
<event>
 5   0  0.3636435E-06  0.2088998E+04  0.7818609E-02  0.8566105E-01
        2   -1    0    0  501    0  0.00000000000E+00  0.00000000000E+00  0.11177323995E+04  0.11177323995E+04  0.25500000920E-02 0. -1.
       -2   -1    0    0    0  501  0.00000000000E+00  0.00000000000E+00 -0.97606360039E+03  0.97606360039E+03  0.25500000920E-02 0.  1.
    10030    2    1    2    0    0  0.00000000000E+00  0.00000000000E+00  0.14166879913E+03  0.20937959999E+04  0.20889977598E+04 0.  0.
        4    1    3    3  502    0  0.22150556040E+03 -0.18692269736E+03  0.10766189927E+04  0.11149506161E+04  0.12699999809E+01 0. -1.
       -4    1    3    3    0  502 -0.22150556040E+03  0.18692269736E+03 -0.93495019355E+03  0.97884538380E+03  0.12699999809E+01 0.  1.
</event>
<event>
 5   0  0.3636435E-06  0.2100325E+04  0.7818609E-02  0.8561100E-01
        2   -1    0    0  501    0  0.00000000000E+00  0.00000000000E+00  0.18752960907E+04  0.18752960907E+04  0.25500000920E-02 0.  1.
       -2   -1    0    0    0  501  0.00000000000E+00  0.00000000000E+00 -0.58808923080E+03  0.58808923081E+03  0.25500000920E-02 0. -1.
    10030    2    1    2    0    0  0.00000000000E+00  0.00000000000E+00  0.12872068599E+04  0.24633853216E+04  0.21003251515E+04 0.  0.
        4    1    3    3  502    0 -0.88461042168E+03  0.60413193061E+02  0.13035953643E+04  0.15765620314E+04  0.12699999809E+01 0.  1.
       -4    1    3    3    0  502  0.88461042168E+03 -0.60413193061E+02 -0.16388504350E+02  0.88682329019E+03  0.12699999809E+01 0. -1.
</event>
<event>
 5   0  0.1579820E-06  0.2099450E+04  0.7818609E-02  0.8561486E-01
        1   -1    0    0  501    0  0.00000000000E+00  0.00000000000E+00  0.11377122146E+04  0.11377122146E+04  0.50400001928E-02 0.  1.
       -1   -1    0    0    0  501  0.00000000000E+00  0.00000000000E+00 -0.96854205927E+03  0.96854205929E+03  0.50400001928E-02 0. -1.
    10030    2    1    2    0    0  0.00000000000E+00  0.00000000000E+00  0.16917015529E+03  0.21062542739E+04  0.20994495766E+04 0.  0.
        2    1    3    3  502    0 -0.35930758818E+03 -0.44373182429E+03 -0.79913445786E+03  0.98214854099E+03  0.25500000920E-02 0. -1.
       -2    1    3    3    0  502  0.35930758818E+03  0.44373182429E+03  0.96830461315E+03  0.11241057329E+04  0.25500000920E-02 0.  1.
</event>
<event>
 5   0  0.1653260E-06  0.2099825E+04  0.7818609E-02  0.8561320E-01
       -1   -1    0    0    0  501  0.00000000000E+00  0.00000000000E+00  0.12233999169E+04  0.12233999169E+04  0.50400001928E-02 0.  1.
        1   -1    0    0  501    0  0.00000000000E+00  0.00000000000E+00 -0.90102707062E+03  0.90102707063E+03  0.50400001928E-02 0. -1.
    10030    2    1    2    0    0  0.00000000000E+00  0.00000000000E+00  0.32237284627E+03  0.21244269875E+04  0.20998251768E+04 0.  0.
        3    1    3    3  502    0 -0.17942380594E+03  0.10181533913E+04 -0.23952659279E+02  0.10341194179E+04  0.10100000352E+00 0. -1.
       -3    1    3    3    0  502  0.17942380594E+03 -0.10181533913E+04  0.34632550555E+03  0.10903075696E+04  0.10100000352E+00 0.  1.
</event>
<event>
 5   0  0.1590067E-06  0.2095064E+04  0.7818609E-02  0.8563421E-01
        1   -1    0    0  501    0  0.00000000000E+00  0.00000000000E+00  0.84794064289E+03  0.84794064291E+03  0.50400001928E-02 0.  1.
       -1   -1    0    0    0  501  0.00000000000E+00  0.00000000000E+00 -0.12941039905E+04  0.12941039905E+04  0.50400001928E-02 0. -1.
    10030    2    1    2    0    0  0.00000000000E+00  0.00000000000E+00 -0.44616334761E+03  0.21420446334E+04  0.20950640751E+04 0.  0.
        5    1    3    3  502    0 -0.55677078386E+03 -0.70428062224E+02  0.68125687775E+03  0.88265896086E+03  0.46999998093E+01 0.  1.
       -5    1    3    3    0  502  0.55677078386E+03  0.70428062224E+02 -0.11274202254E+04  0.12593856726E+04  0.46999998093E+01 0. -1.
</event>
<event>
 5   0  0.3636435E-06  0.2100044E+04  0.7818609E-02  0.8561224E-01
       -2   -1    0    0    0  501  0.00000000000E+00  0.00000000000E+00  0.71264906509E+03  0.71264906510E+03  0.25500000920E-02 0. -1.
        2   -1    0    0  501    0  0.00000000000E+00  0.00000000000E+00 -0.15471098087E+04  0.15471098087E+04  0.25500000920E-02 0.  1.
    10030    2    1    2    0    0  0.00000000000E+00  0.00000000000E+00 -0.83446074358E+03  0.22597588738E+04  0.21000441507E+04 0.  0.
        4    1    3    3  502    0 -0.62533860025E+03  0.83753955081E+03 -0.30949665533E+03  0.10900966272E+04  0.12699999809E+01 0. -1.
       -4    1    3    3    0  502  0.62533860025E+03 -0.83753955081E+03 -0.52496408824E+03  0.11696622465E+04  0.12699999809E+01 0.  1.
</event>
<event>
 5   0  0.3705828E-06  0.2099201E+04  0.7818609E-02  0.8561595E-01
        2   -1    0    0  501    0  0.00000000000E+00  0.00000000000E+00  0.12438128145E+04  0.12438128145E+04  0.25500000920E-02 0. -1.
       -2   -1    0    0    0  501  0.00000000000E+00  0.00000000000E+00 -0.88571310463E+03  0.88571310464E+03  0.25500000920E-02 0.  1.
    10030    2    1    2    0    0  0.00000000000E+00  0.00000000000E+00  0.35809970991E+03  0.21295259192E+04  0.20992010952E+04 0.  0.
        5    1    3    3  502    0 -0.28350196683E+03  0.63172339274E+03 -0.62113603937E+03  0.93020421389E+03  0.46999998093E+01 0.  1.
       -5    1    3    3    0  502  0.28350196683E+03 -0.63172339274E+03  0.97923574927E+03  0.11993217053E+04  0.46999998093E+01 0. -1.
</event>
<event>
 5   0  0.3480134E-06  0.2098849E+04  0.7818609E-02  0.8561750E-01
       -2   -1    0    0    0  501  0.00000000000E+00  0.00000000000E+00  0.78208572786E+03  0.78208572786E+03  0.25500000920E-02 0.  1.
        2   -1    0    0  501    0  0.00000000000E+00  0.00000000000E+00 -0.14081476815E+04  0.14081476815E+04  0.25500000920E-02 0. -1.
    10030    2    1    2    0    0  0.00000000000E+00  0.00000000000E+00 -0.62606195360E+03  0.21902334093E+04  0.20988494033E+04 0.  0.
        1    1    3    3  502    0 -0.25893007727E+03 -0.32980263324E+03 -0.13169347509E+04  0.13820751427E+04  0.50400001928E-02 0. -1.
       -1    1    3    3    0  502  0.25893007727E+03  0.32980263324E+03  0.69087279733E+03  0.80815826663E+03  0.50400001928E-02 0.  1.
</event>
<event>
 5   0  0.3480134E-06  0.2098924E+04  0.7818609E-02  0.8561718E-01
        2   -1    0    0  501    0  0.00000000000E+00  0.00000000000E+00  0.25995161505E+04  0.25995161505E+04  0.25500000920E-02 0.  1.
       -2   -1    0    0    0  501  0.00000000000E+00  0.00000000000E+00 -0.42368279161E+03  0.42368279162E+03  0.25500000920E-02 0. -1.
    10030    2    1    2    0    0  0.00000000000E+00  0.00000000000E+00  0.21758333589E+04  0.30231989421E+04  0.20989237809E+04 0.  0.
        1    1    3    3  502    0 -0.70581268983E+02 -0.99806906798E+03  0.63187445343E+03  0.11833802875E+04  0.50400001928E-02 0. -1.
       -1    1    3    3    0  502  0.70581268983E+02  0.99806906798E+03  0.15439589054E+04  0.18398186546E+04  0.50400001928E-02 0.  1.
</event>
<event>
 5   0  0.1590067E-06  0.2099502E+04  0.7818609E-02  0.8561463E-01
       -1   -1    0    0    0  501  0.00000000000E+00  0.00000000000E+00  0.95525594921E+03  0.95525594922E+03  0.50400001928E-02 0.  1.
        1   -1    0    0  501    0  0.00000000000E+00  0.00000000000E+00 -0.11535937898E+04  0.11535937898E+04  0.50400001928E-02 0. -1.
    10030    2    1    2    0    0  0.00000000000E+00  0.00000000000E+00 -0.19833784059E+03  0.21088497390E+04  0.20995021607E+04 0.  0.
        5    1    3    3  502    0 -0.47097311992E+03  0.74081117251E+03 -0.67735172902E+03  0.11088031060E+04  0.46999998093E+01 0. -1.
       -5    1    3    3    0  502  0.47097311992E+03 -0.74081117251E+03  0.47901388843E+03  0.10000466331E+04  0.46999998093E+01 0.  1.
</event>
<event>
 5   0  0.1590067E-06  0.2097423E+04  0.7818609E-02  0.8562379E-01
        1   -1    0    0  501    0  0.00000000000E+00  0.00000000000E+00  0.17306238404E+04  0.17306238404E+04  0.50400001928E-02 0. -1.
       -1   -1    0    0    0  501  0.00000000000E+00  0.00000000000E+00 -0.63549113069E+03  0.63549113071E+03  0.50400001928E-02 0.  1.
    10030    2    1    2    0    0  0.00000000000E+00  0.00000000000E+00  0.10951327097E+04  0.23661149711E+04  0.20974232774E+04 0.  0.
        5    1    3    3  502    0 -0.57725230174E+03  0.20573403606E+03  0.15076016613E+04  0.16274002497E+04  0.46999998093E+01 0. -1.
       -5    1    3    3    0  502  0.57725230174E+03 -0.20573403606E+03 -0.41246895168E+03  0.73871472137E+03  0.46999998093E+01 0.  1.
</event>
<event>
 5   0  0.3636435E-06  0.2101261E+04  0.7818609E-02  0.8560688E-01
        2   -1    0    0  501    0  0.00000000000E+00  0.00000000000E+00  0.10530313309E+04  0.10530313309E+04  0.25500000920E-02 0. -1.
       -2   -1    0    0    0  501  0.00000000000E+00  0.00000000000E+00 -0.10482350445E+04  0.10482350445E+04  0.25500000920E-02 0.  1.
    10030    2    1    2    0    0  0.00000000000E+00  0.00000000000E+00  0.47962864579E+01  0.21012663754E+04  0.21012609015E+04 0.  0.
        4    1    3    3  502    0  0.69982166077E+03  0.71787519790E+02 -0.77793646371E+03  0.10488520198E+04  0.12699999809E+01 0.  1.
       -4    1    3    3    0  502 -0.69982166077E+03 -0.71787519790E+02  0.78273275017E+03  0.10524143556E+04  0.12699999809E+01 0. -1.
</event>
<event>
 5   0  0.1646510E-06  0.2101182E+04  0.7818609E-02  0.8560723E-01
        1   -1    0    0  501    0  0.00000000000E+00  0.00000000000E+00  0.10227945198E+04  0.10227945198E+04  0.50400001928E-02 0. -1.
       -1   -1    0    0    0  501  0.00000000000E+00  0.00000000000E+00 -0.10791432613E+04  0.10791432613E+04  0.50400001928E-02 0.  1.
    10030    2    1    2    0    0  0.00000000000E+00  0.00000000000E+00 -0.56348741469E+02  0.21019377811E+04  0.21011823469E+04 0.  0.
        4    1    3    3  502    0 -0.47158864585E+03  0.64402645988E+02  0.90875012797E+03  0.10258518215E+04  0.12699999809E+01 0. -1.
       -4    1    3    3    0  502  0.47158864585E+03 -0.64402645988E+02 -0.96509886944E+03  0.10760859596E+04  0.12699999809E+01 0.  1.
</event>
<event>
 5   0  0.3636435E-06  0.2099708E+04  0.7818609E-02  0.8561372E-01
        2   -1    0    0  501    0  0.00000000000E+00  0.00000000000E+00  0.10665362539E+04  0.10665362539E+04  0.25500000920E-02 0.  1.
       -2   -1    0    0    0  501  0.00000000000E+00  0.00000000000E+00 -0.10334331157E+04  0.10334331157E+04  0.25500000920E-02 0. -1.
    10030    2    1    2    0    0  0.00000000000E+00  0.00000000000E+00  0.33103138223E+02  0.20999693697E+04  0.20997084407E+04 0.  0.
        4    1    3    3  502    0  0.50706129836E+03 -0.69278296453E+03  0.62088891693E+03  0.10595112346E+04  0.12699999809E+01 0.  1.
       -4    1    3    3    0  502 -0.50706129836E+03  0.69278296453E+03 -0.58778577871E+03  0.10404581350E+04  0.12699999809E+01 0. -1.
</event>
<event>
 5   0  0.1653260E-06  0.2100057E+04  0.7818609E-02  0.8561218E-01
       -1   -1    0    0    0  501  0.00000000000E+00  0.00000000000E+00  0.95018158721E+03  0.95018158723E+03  0.50400001928E-02 0. -1.
        1   -1    0    0  501    0  0.00000000000E+00  0.00000000000E+00 -0.11603670774E+04  0.11603670775E+04  0.50400001928E-02 0.  1.
    10030    2    1    2    0    0  0.00000000000E+00  0.00000000000E+00 -0.21018549023E+03  0.21105486647E+04  0.21000566006E+04 0.  0.
        3    1    3    3  502    0 -0.99819771267E+03 -0.57068714636E+02 -0.42748181388E+03  0.10873804409E+04  0.10100000352E+00 0. -1.
       -3    1    3    3    0  502  0.99819771267E+03  0.57068714636E+02  0.21729632365E+03  0.10231682238E+04  0.10100000352E+00 0.  1.
</event>
<event>
 5   0  0.1646510E-06  0.2101130E+04  0.7818609E-02  0.8560746E-01
        1   -1    0    0  501    0  0.00000000000E+00  0.00000000000E+00  0.19717143377E+04  0.19717143377E+04  0.50400001928E-02 0. -1.
       -1   -1    0    0    0  501  0.00000000000E+00  0.00000000000E+00 -0.55975975060E+03  0.55975975062E+03  0.50400001928E-02 0.  1.
    10030    2    1    2    0    0  0.00000000000E+00  0.00000000000E+00  0.14119545871E+04  0.25314740883E+04  0.21011295305E+04 0.  0.
        4    1    3    3  502    0  0.41520847171E+03  0.85611140066E+03  0.12425735130E+04  0.15650288667E+04  0.12699999809E+01 0. -1.
       -4    1    3    3    0  502 -0.41520847171E+03 -0.85611140066E+03  0.16938107407E+03  0.96644522166E+03  0.12699999809E+01 0.  1.
</event>
<event>
 5   0  0.1579820E-06  0.2103865E+04  0.7818609E-02  0.8559543E-01
       -1   -1    0    0    0  501  0.00000000000E+00  0.00000000000E+00  0.14321829057E+04  0.14321829058E+04  0.50400001928E-02 0.  1.
        1   -1    0    0  501    0  0.00000000000E+00  0.00000000000E+00 -0.77263995160E+03  0.77263995162E+03  0.50400001928E-02 0. -1.
    10030    2    1    2    0    0  0.00000000000E+00  0.00000000000E+00  0.65954295414E+03  0.22048228574E+04  0.21038647590E+04 0.  0.
        2    1    3    3  502    0 -0.68737575703E+03  0.12365603044E+03 -0.49460566766E+03  0.85581014934E+03  0.25500000920E-02 0. -1.
       -2    1    3    3    0  502  0.68737575703E+03 -0.12365603044E+03  0.11541486218E+04  0.13490127080E+04  0.25500000920E-02 0.  1.
</event>
<event>
 5   0  0.3480134E-06  0.2105297E+04  0.7818609E-02  0.8558914E-01
        2   -1    0    0  501    0  0.00000000000E+00  0.00000000000E+00  0.11676492894E+04  0.11676492894E+04  0.25500000920E-02 0. -1.
       -2   -1    0    0    0  501  0.00000000000E+00  0.00000000000E+00 -0.94897361087E+03  0.94897361088E+03  0.25500000920E-02 0.  1.
    10030    2    1    2    0    0  0.00000000000E+00  0.00000000000E+00  0.21867567848E+03  0.21166229002E+04  0.21052965229E+04 0.  0.
        1    1    3    3  502    0 -0.11633784600E+03 -0.13245409321E+03  0.11527022256E+04  0.11661050562E+04  0.50400001928E-02 0. -1.
       -1    1    3    3    0  502  0.11633784600E+03  0.13245409321E+03 -0.93402654707E+03  0.95051784406E+03  0.50400001928E-02 0.  1.
</event>
<event>
 5   0  0.1615098E-06  0.2099785E+04  0.7818609E-02  0.8561338E-01
        1   -1    0    0  501    0  0.00000000000E+00  0.00000000000E+00  0.11687111192E+04  0.11687111192E+04  0.50400001928E-02 0.  1.
       -1   -1    0    0    0  501  0.00000000000E+00  0.00000000000E+00 -0.94315335606E+03  0.94315335607E+03  0.50400001928E-02 0. -1.
    10030    2    1    2    0    0  0.00000000000E+00  0.00000000000E+00  0.22555776313E+03  0.21118644753E+04  0.20997845740E+04 0.  0.
        1    1    3    3  502    0 -0.42558232874E+02 -0.10479549756E+04  0.16051751706E+03  0.10610309644E+04  0.50400001928E-02 0.  1.
       -1    1    3    3    0  502  0.42558232874E+02  0.10479549756E+04  0.65040246065E+02  0.10508335109E+04  0.50400001928E-02 0. -1.
</event>
<event>
 5   0  0.3480134E-06  0.2100426E+04  0.7818609E-02  0.8561056E-01
       -2   -1    0    0    0  501  0.00000000000E+00  0.00000000000E+00  0.10286275545E+04  0.10286275545E+04  0.25500000920E-02 0.  1.
        2   -1    0    0  501    0  0.00000000000E+00  0.00000000000E+00 -0.10722517007E+04  0.10722517007E+04  0.25500000920E-02 0. -1.
    10030    2    1    2    0    0  0.00000000000E+00  0.00000000000E+00 -0.43624146172E+02  0.21008792551E+04  0.21004262850E+04 0.  0.
        1    1    3    3  502    0  0.79504998401E+02 -0.38763042890E+03 -0.99483698307E+03  0.10706442066E+04  0.50400001928E-02 0. -1.
       -1    1    3    3    0  502 -0.79504998401E+02  0.38763042890E+03  0.95121283690E+03  0.10302350486E+04  0.50400001928E-02 0.  1.
</event>
<event>
 5   0  0.3547583E-06  0.2099316E+04  0.7818609E-02  0.8561545E-01
       -2   -1    0    0    0  501  0.00000000000E+00  0.00000000000E+00  0.58658823396E+03  0.58658823396E+03  0.25500000920E-02 0.  1.
        2   -1    0    0  501    0  0.00000000000E+00  0.00000000000E+00 -0.18782884160E+04  0.18782884160E+04  0.25500000920E-02 0. -1.
    10030    2    1    2    0    0  0.00000000000E+00  0.00000000000E+00 -0.12917001820E+04  0.24648766500E+04  0.20993159694E+04 0.  0.
        2    1    3    3  502    0 -0.47750890962E+03  0.80238677252E+03 -0.82825849986E+02  0.93738968040E+03  0.25500000920E-02 0.  1.
       -2    1    3    3    0  502  0.47750890962E+03 -0.80238677252E+03 -0.12088743321E+04  0.15274869696E+04  0.25500000920E-02 0. -1.
</event>
<event>
 5   0  0.3636435E-06  0.2100222E+04  0.7818609E-02  0.8561146E-01
        2   -1    0    0  501    0  0.00000000000E+00  0.00000000000E+00  0.94146739862E+03  0.94146739863E+03  0.25500000920E-02 0.  1.
       -2   -1    0    0    0  501  0.00000000000E+00  0.00000000000E+00 -0.11712915805E+04  0.11712915805E+04  0.25500000920E-02 0. -1.
    10030    2    1    2    0    0  0.00000000000E+00  0.00000000000E+00 -0.22982418187E+03  0.21127589791E+04  0.21002217381E+04 0.  0.
        4    1    3    3  502    0  0.78286478661E+03 -0.68703013052E+03 -0.24928924490E+03  0.10709969257E+04  0.12699999809E+01 0. -1.
       -4    1    3    3    0  502 -0.78286478661E+03  0.68703013052E+03  0.19465063034E+02  0.10417620534E+04  0.12699999809E+01 0.  1.
</event>
<event>
 5   0  0.1646510E-06  0.2099134E+04  0.7818609E-02  0.8561625E-01
        1   -1    0    0  501    0  0.00000000000E+00  0.00000000000E+00  0.11390124950E+04  0.11390124950E+04  0.50400001928E-02 0.  1.
       -1   -1    0    0    0  501  0.00000000000E+00  0.00000000000E+00 -0.96714539132E+03  0.96714539134E+03  0.50400001928E-02 0. -1.
    10030    2    1    2    0    0  0.00000000000E+00  0.00000000000E+00  0.17186710367E+03  0.21061578863E+04  0.20991338073E+04 0.  0.
        4    1    3    3  502    0 -0.88276148131E+03  0.27248888020E+03 -0.41380038525E+03  0.10122995577E+04  0.12699999809E+01 0. -1.
       -4    1    3    3    0  502  0.88276148131E+03 -0.27248888020E+03  0.58566748892E+03  0.10938583287E+04  0.12699999809E+01 0.  1.
</event>
<event>
 5   0  0.1615098E-06  0.2101020E+04  0.7818609E-02  0.8560794E-01
       -1   -1    0    0    0  501  0.00000000000E+00  0.00000000000E+00  0.77183789243E+03  0.77183789245E+03  0.50400001928E-02 0. -1.
        1   -1    0    0  501    0  0.00000000000E+00  0.00000000000E+00 -0.14297970059E+04  0.14297970059E+04  0.50400001928E-02 0.  1.
    10030    2    1    2    0    0  0.00000000000E+00  0.00000000000E+00 -0.65795911344E+03  0.22016348983E+04  0.21010202356E+04 0.  0.
        1    1    3    3  502    0 -0.65631072663E+03  0.32576266662E+03 -0.11178290171E+04  0.13365652982E+04  0.50400001928E-02 0.  1.
       -1    1    3    3    0  502  0.65631072663E+03 -0.32576266662E+03  0.45986990361E+03  0.86506960017E+03  0.50400001928E-02 0. -1.
</event>
<event>
 5   0  0.3636435E-06  0.2099631E+04  0.7818609E-02  0.8561406E-01
       -2   -1    0    0    0  501  0.00000000000E+00  0.00000000000E+00  0.79120324091E+03  0.79120324091E+03  0.25500000920E-02 0.  1.
        2   -1    0    0  501    0  0.00000000000E+00  0.00000000000E+00 -0.13929574953E+04  0.13929574953E+04  0.25500000920E-02 0. -1.
    10030    2    1    2    0    0  0.00000000000E+00  0.00000000000E+00 -0.60175425444E+03  0.21841607363E+04  0.20996309054E+04 0.  0.
        4    1    3    3  502    0  0.66656502827E+03 -0.52457537141E+03 -0.94434513089E+03  0.12693610977E+04  0.12699999809E+01 0. -1.
       -4    1    3    3    0  502 -0.66656502827E+03  0.52457537141E+03  0.34259087645E+03  0.91479963857E+03  0.12699999809E+01 0.  1.
</event>
<event>
 5   0  0.3705828E-06  0.2093805E+04  0.7818609E-02  0.8563977E-01
       -2   -1    0    0    0  501  0.00000000000E+00  0.00000000000E+00  0.95975838255E+03  0.95975838255E+03  0.25500000920E-02 0. -1.
        2   -1    0    0  501    0  0.00000000000E+00  0.00000000000E+00 -0.11419585894E+04  0.11419585894E+04  0.25500000920E-02 0.  1.
    10030    2    1    2    0    0  0.00000000000E+00  0.00000000000E+00 -0.18220020683E+03  0.21017169719E+04  0.20938045073E+04 0.  0.
        5    1    3    3  502    0  0.56407944958E+03  0.87538198259E+03  0.16557230231E+02  0.10415255507E+04  0.46999998093E+01 0. -1.
       -5    1    3    3    0  502 -0.56407944958E+03 -0.87538198259E+03 -0.19875743706E+03  0.10601914212E+04  0.46999998093E+01 0.  1.
</event>
<event>
 5   0  0.1579820E-06  0.2100078E+04  0.7818609E-02  0.8561209E-01
       -1   -1    0    0    0  501  0.00000000000E+00  0.00000000000E+00  0.10894071281E+04  0.10894071281E+04  0.50400001928E-02 0.  1.
        1   -1    0    0  501    0  0.00000000000E+00  0.00000000000E+00 -0.10120934365E+04  0.10120934365E+04  0.50400001928E-02 0. -1.
    10030    2    1    2    0    0  0.00000000000E+00  0.00000000000E+00  0.77313691610E+02  0.21015005647E+04  0.21000779072E+04 0.  0.
        2    1    3    3  502    0  0.74304035252E+03 -0.50546799744E+03  0.58214072576E+03  0.10707449213E+04  0.25500000920E-02 0.  1.
       -2    1    3    3    0  502 -0.74304035252E+03  0.50546799744E+03 -0.50482703415E+03  0.10307556434E+04  0.25500000920E-02 0. -1.
</event>
<event>
 5   0  0.1653260E-06  0.2099759E+04  0.7818609E-02  0.8561349E-01
       -1   -1    0    0    0  501  0.00000000000E+00  0.00000000000E+00  0.82446540970E+03  0.82446540972E+03  0.50400001928E-02 0. -1.
        1   -1    0    0  501    0  0.00000000000E+00  0.00000000000E+00 -0.13369235842E+04  0.13369235842E+04  0.50400001928E-02 0.  1.
    10030    2    1    2    0    0  0.00000000000E+00  0.00000000000E+00 -0.51245817453E+03  0.21613889940E+04  0.20997592725E+04 0.  0.
        3    1    3    3  502    0  0.29152461207E+03  0.10003655822E+04 -0.38856911514E+03  0.11120718794E+04  0.10100000352E+00 0.  1.
       -3    1    3    3    0  502 -0.29152461207E+03 -0.10003655822E+04 -0.12388905938E+03  0.10493171145E+04  0.10100000352E+00 0. -1.
</event>
<event>
 5   0  0.3547583E-06  0.2100985E+04  0.7818609E-02  0.8560810E-01
        2   -1    0    0  501    0  0.00000000000E+00  0.00000000000E+00  0.18348296166E+04  0.18348296166E+04  0.25500000920E-02 0. -1.
       -2   -1    0    0    0  501  0.00000000000E+00  0.00000000000E+00 -0.60143697085E+03  0.60143697086E+03  0.25500000920E-02 0.  1.
    10030    2    1    2    0    0  0.00000000000E+00  0.00000000000E+00  0.12333926458E+04  0.24362665875E+04  0.21009848802E+04 0.  0.
        2    1    3    3  502    0  0.82357700858E+03  0.56930807834E+03  0.24791317819E+03  0.10314318790E+04  0.25500000920E-02 0.  1.
       -2    1    3    3    0  502 -0.82357700858E+03 -0.56930807834E+03  0.98547946758E+03  0.14048347085E+04  0.25500000920E-02 0. -1.
</event>
<event>
 5   0  0.3636435E-06  0.2100006E+04  0.7818609E-02  0.8561241E-01
        2   -1    0    0  501    0  0.00000000000E+00  0.00000000000E+00  0.13822117804E+04  0.13822117804E+04  0.25500000920E-02 0. -1.
       -2   -1    0    0    0  501  0.00000000000E+00  0.00000000000E+00 -0.79763949434E+03  0.79763949435E+03  0.25500000920E-02 0.  1.
    10030    2    1    2    0    0  0.00000000000E+00  0.00000000000E+00  0.58457228603E+03  0.21798512747E+04  0.21000063863E+04 0.  0.
        4    1    3    3  502    0 -0.74542668650E+03  0.73148439139E+03  0.40492332599E+03  0.11201316318E+04  0.12699999809E+01 0.  1.
       -4    1    3    3    0  502  0.74542668650E+03 -0.73148439139E+03  0.17964896004E+03  0.10597196429E+04  0.12699999809E+01 0. -1.
</event>
<event>
 5   0  0.1615098E-06  0.2100252E+04  0.7818609E-02  0.8561132E-01
       -1   -1    0    0    0  501  0.00000000000E+00  0.00000000000E+00  0.62143512755E+03  0.62143512757E+03  0.50400001928E-02 0. -1.
        1   -1    0    0  501    0  0.00000000000E+00  0.00000000000E+00 -0.17745454292E+04  0.17745454292E+04  0.50400001928E-02 0.  1.
    10030    2    1    2    0    0  0.00000000000E+00  0.00000000000E+00 -0.11531103016E+04  0.23959805568E+04  0.21002522374E+04 0.  0.
        1    1    3    3  502    0  0.32826861113E+03 -0.55746971545E+03 -0.15202108257E+04  0.16521421607E+04  0.50400001928E-02 0.  1.
       -1    1    3    3    0  502 -0.32826861113E+03  0.55746971545E+03  0.36710052402E+03  0.74383839607E+03  0.50400001928E-02 0. -1.
</event>
<event>
 5   0  0.1615098E-06  0.2099249E+04  0.7818609E-02  0.8561574E-01
        1   -1    0    0  501    0  0.00000000000E+00  0.00000000000E+00  0.20526940443E+04  0.20526940443E+04  0.50400001928E-02 0. -1.
       -1   -1    0    0    0  501  0.00000000000E+00  0.00000000000E+00 -0.53671511813E+03  0.53671511815E+03  0.50400001928E-02 0.  1.
    10030    2    1    2    0    0  0.00000000000E+00  0.00000000000E+00  0.15159789262E+04  0.25894091625E+04  0.20992493197E+04 0.  0.
        1    1    3    3  502    0 -0.10086182602E+04  0.13754438032E+02  0.40003851787E+03  0.10851409103E+04  0.50400001928E-02 0.  1.
       -1    1    3    3    0  502  0.10086182602E+04 -0.13754438032E+02  0.11159404083E+04  0.15042682522E+04  0.50400001928E-02 0. -1.
</event>
<event>
 5   0  0.3574927E-06  0.2099608E+04  0.7818609E-02  0.8561416E-01
       -2   -1    0    0    0  501  0.00000000000E+00  0.00000000000E+00  0.82330931626E+03  0.82330931626E+03  0.25500000920E-02 0.  1.
        2   -1    0    0  501    0  0.00000000000E+00  0.00000000000E+00 -0.13386082512E+04  0.13386082512E+04  0.25500000920E-02 0. -1.
    10030    2    1    2    0    0  0.00000000000E+00  0.00000000000E+00 -0.51529893493E+03  0.21619175675E+04  0.20996081959E+04 0.  0.
        3    1    3    3  502    0 -0.98386101708E+01 -0.43694764395E+03 -0.12404749511E+04  0.13152179121E+04  0.10100000352E+00 0. -1.
       -3    1    3    3    0  502  0.98386101708E+01  0.43694764395E+03  0.72517601615E+03  0.84669965537E+03  0.10100000352E+00 0.  1.
</event>
<event>
 5   0  0.1646510E-06  0.2099546E+04  0.7818609E-02  0.8561444E-01
       -1   -1    0    0    0  501  0.00000000000E+00  0.00000000000E+00  0.91402269348E+03  0.91402269349E+03  0.50400001928E-02 0. -1.
        1   -1    0    0  501    0  0.00000000000E+00  0.00000000000E+00 -0.12056844635E+04  0.12056844635E+04  0.50400001928E-02 0.  1.
    10030    2    1    2    0    0  0.00000000000E+00  0.00000000000E+00 -0.29166177005E+03  0.21197071570E+04  0.20995456279E+04 0.  0.
        4    1    3    3  502    0 -0.59631964386E+03 -0.67354832218E+03  0.40043503868E+03  0.98468994769E+03  0.12699999809E+01 0.  1.
       -4    1    3    3    0  502  0.59631964386E+03  0.67354832218E+03 -0.69209680873E+03  0.11350172094E+04  0.12699999809E+01 0. -1.
</event>
<event>
 5   0  0.1615098E-06  0.2101100E+04  0.7818609E-02  0.8560759E-01
        1   -1    0    0  501    0  0.00000000000E+00  0.00000000000E+00  0.12567794184E+04  0.12567794184E+04  0.50400001928E-02 0.  1.
       -1   -1    0    0    0  501  0.00000000000E+00  0.00000000000E+00 -0.87816187112E+03  0.87816187114E+03  0.50400001928E-02 0. -1.
    10030    2    1    2    0    0  0.00000000000E+00  0.00000000000E+00  0.37861754731E+03  0.21349412896E+04  0.21011004409E+04 0.  0.
        1    1    3    3  502    0 -0.48681156103E+03 -0.76586567012E+03 -0.34847936142E+03  0.97209751876E+03  0.50400001928E-02 0.  1.
       -1    1    3    3    0  502  0.48681156103E+03  0.76586567012E+03  0.72709690874E+03  0.11628437708E+04  0.50400001928E-02 0. -1.
</event>
<event>
 5   0  0.1615098E-06  0.2099978E+04  0.7818609E-02  0.8561253E-01
        1   -1    0    0  501    0  0.00000000000E+00  0.00000000000E+00  0.18712427274E+04  0.18712427274E+04  0.50400001928E-02 0. -1.
       -1   -1    0    0    0  501  0.00000000000E+00  0.00000000000E+00 -0.58916830837E+03  0.58916830839E+03  0.50400001928E-02 0.  1.
    10030    2    1    2    0    0  0.00000000000E+00  0.00000000000E+00  0.12820744190E+04  0.24604110357E+04  0.20999780116E+04 0.  0.
        1    1    3    3  502    0  0.41566892696E+03  0.14498161360E+03  0.17578942546E+04  0.18121789468E+04  0.50400001928E-02 0. -1.
       -1    1    3    3    0  502 -0.41566892696E+03 -0.14498161360E+03 -0.47581983558E+03  0.64823208890E+03  0.50400001928E-02 0.  1.
</event>
<event>
 5   0  0.1653260E-06  0.2100322E+04  0.7818609E-02  0.8561102E-01
        1   -1    0    0  501    0  0.00000000000E+00  0.00000000000E+00  0.18367263249E+04  0.18367263249E+04  0.50400001928E-02 0. -1.
       -1   -1    0    0    0  501  0.00000000000E+00  0.00000000000E+00 -0.60043675650E+03  0.60043675652E+03  0.50400001928E-02 0.  1.
    10030    2    1    2    0    0  0.00000000000E+00  0.00000000000E+00  0.12362895684E+04  0.24371630814E+04  0.21003218774E+04 0.  0.
        3    1    3    3  502    0 -0.82461059830E+03  0.60508509003E+03  0.89451746100E+03  0.13587759577E+04  0.10100000352E+00 0.  1.
       -3    1    3    3    0  502  0.82461059830E+03 -0.60508509003E+03  0.34177210739E+03  0.10783871237E+04  0.10100000352E+00 0. -1.
</event>
<event>
 5   0  0.1257125E-06  0.2098778E+04  0.7818609E-02  0.8561782E-01
        4   -1    0    0  501    0  0.00000000000E+00  0.00000000000E+00  0.11194638730E+04  0.11194645934E+04  0.12699999809E+01 0.  1.
       -4   -1    0    0    0  501  0.00000000000E+00  0.00000000000E+00 -0.98369901615E+03  0.98369983596E+03  0.12699999809E+01 0. -1.
    10030    2    1    2    0    0  0.00000000000E+00  0.00000000000E+00  0.13576485688E+03  0.21031644294E+04  0.20987778636E+04 0.  0.
        2    1    3    3  502    0  0.84454997456E+02  0.67245956718E+03  0.87073270140E+03  0.11034083348E+04  0.25500000920E-02 0.  1.
       -2    1    3    3    0  502 -0.84454997456E+02 -0.67245956718E+03 -0.73496784452E+03  0.99975609454E+03  0.25500000920E-02 0. -1.
</event>
<event>
 5   0  0.1646510E-06  0.2100493E+04  0.7818609E-02  0.8561026E-01
       -1   -1    0    0    0  501  0.00000000000E+00  0.00000000000E+00  0.72728848431E+03  0.72728848432E+03  0.50400001928E-02 0.  1.
        1   -1    0    0  501    0  0.00000000000E+00  0.00000000000E+00 -0.15166162294E+04  0.15166162294E+04  0.50400001928E-02 0. -1.
    10030    2    1    2    0    0  0.00000000000E+00  0.00000000000E+00 -0.78932774508E+03  0.22439047137E+04  0.21004928172E+04 0.  0.
        4    1    3    3  502    0  0.56860587901E+03  0.38472826995E+03 -0.12437159396E+04  0.14206193856E+04  0.12699999809E+01 0. -1.
       -4    1    3    3    0  502 -0.56860587901E+03 -0.38472826995E+03  0.45438819451E+03  0.82328532816E+03  0.12699999809E+01 0.  1.
</event>
<event>
 5   0  0.1615098E-06  0.2099136E+04  0.7818609E-02  0.8561624E-01
       -1   -1    0    0    0  501  0.00000000000E+00  0.00000000000E+00  0.61111939377E+03  0.61111939380E+03  0.50400001928E-02 0. -1.
        1   -1    0    0  501    0  0.00000000000E+00  0.00000000000E+00 -0.18025817028E+04  0.18025817028E+04  0.50400001928E-02 0.  1.
    10030    2    1    2    0    0  0.00000000000E+00  0.00000000000E+00 -0.11914623090E+04  0.24137010966E+04  0.20991356674E+04 0.  0.
        1    1    3    3  502    0  0.79956375036E+02  0.92450537335E+02 -0.17943699339E+04  0.17985281714E+04  0.50400001928E-02 0.  1.
       -1    1    3    3    0  502 -0.79956375036E+02 -0.92450537335E+02  0.60290762485E+03  0.61517292519E+03  0.50400001928E-02 0. -1.
</event>
<event>
 5   0  0.1615098E-06  0.2100526E+04  0.7818609E-02  0.8561012E-01
       -1   -1    0    0    0  501  0.00000000000E+00  0.00000000000E+00  0.51007903406E+03  0.51007903408E+03  0.50400001928E-02 0.  1.
        1   -1    0    0  501    0  0.00000000000E+00  0.00000000000E+00 -0.21625132823E+04  0.21625132823E+04  0.50400001928E-02 0. -1.
    10030    2    1    2    0    0  0.00000000000E+00  0.00000000000E+00 -0.16524342482E+04  0.26725923164E+04  0.21005263019E+04 0.  0.
        1    1    3    3  502    0  0.60231676450E+03 -0.46147546672E+03  0.97707633918E+02  0.76504370655E+03  0.50400001928E-02 0.  1.
       -1    1    3    3    0  502 -0.60231676450E+03  0.46147546672E+03 -0.17501418822E+04  0.19075486098E+04  0.50400001928E-02 0. -1.
</event>
<event>
 5   0  0.3705828E-06  0.2097368E+04  0.7818609E-02  0.8562404E-01
       -2   -1    0    0    0  501  0.00000000000E+00  0.00000000000E+00  0.14514470620E+04  0.14514470620E+04  0.25500000920E-02 0. -1.
        2   -1    0    0  501    0  0.00000000000E+00  0.00000000000E+00 -0.75768374928E+03  0.75768374929E+03  0.25500000920E-02 0.  1.
    10030    2    1    2    0    0  0.00000000000E+00  0.00000000000E+00  0.69376331272E+03  0.22091308113E+04  0.20973677330E+04 0.  0.
        5    1    3    3  502    0 -0.36514122905E+03  0.13126766506E+03  0.13730432379E+04  0.14268248457E+04  0.46999998093E+01 0. -1.
       -5    1    3    3    0  502  0.36514122905E+03 -0.13126766506E+03 -0.67927992521E+03  0.78230596561E+03  0.46999998093E+01 0.  1.
</event>
<event>
 5   0  0.3636435E-06  0.2099753E+04  0.7818609E-02  0.8561352E-01
       -2   -1    0    0    0  501  0.00000000000E+00  0.00000000000E+00  0.10574213001E+04  0.10574213001E+04  0.25500000920E-02 0. -1.
        2   -1    0    0  501    0  0.00000000000E+00  0.00000000000E+00 -0.10423860279E+04  0.10423860279E+04  0.25500000920E-02 0.  1.
    10030    2    1    2    0    0  0.00000000000E+00  0.00000000000E+00  0.15035272270E+02  0.20998073280E+04  0.20997534987E+04 0.  0.
        4    1    3    3  502    0  0.46007321114E+03  0.94262821116E+03 -0.37475426342E+02  0.10495814997E+04  0.12699999809E+01 0.  1.
       -4    1    3    3    0  502 -0.46007321114E+03 -0.94262821116E+03  0.52510698612E+02  0.10502258283E+04  0.12699999809E+01 0. -1.
</event>
<event>
 5   0  0.1590067E-06  0.2100970E+04  0.7818609E-02  0.8560816E-01
        1   -1    0    0  501    0  0.00000000000E+00  0.00000000000E+00  0.86892725397E+03  0.86892725398E+03  0.50400001928E-02 0. -1.
       -1   -1    0    0    0  501  0.00000000000E+00  0.00000000000E+00 -0.12699781478E+04  0.12699781478E+04  0.50400001928E-02 0.  1.
    10030    2    1    2    0    0  0.00000000000E+00  0.00000000000E+00 -0.40105089386E+03  0.21389054018E+04  0.21009698947E+04 0.  0.
        5    1    3    3  502    0  0.53508455655E+03 -0.48175522864E+03  0.57819966735E+03  0.92343950982E+03  0.46999998093E+01 0. -1.
       -5    1    3    3    0  502 -0.53508455655E+03  0.48175522864E+03 -0.97925056121E+03  0.12154658920E+04  0.46999998093E+01 0.  1.
</event>
<event>
 5   0  0.3636435E-06  0.2101964E+04  0.7818609E-02  0.8560378E-01
       -2   -1    0    0    0  501  0.00000000000E+00  0.00000000000E+00  0.79088967346E+03  0.79088967346E+03  0.25500000920E-02 0.  1.
        2   -1    0    0  501    0  0.00000000000E+00  0.00000000000E+00 -0.13966090618E+04  0.13966090618E+04  0.25500000920E-02 0. -1.
    10030    2    1    2    0    0  0.00000000000E+00  0.00000000000E+00 -0.60571938836E+03  0.21874987353E+04  0.21019644953E+04 0.  0.
        4    1    3    3  502    0 -0.72307745044E+03 -0.75249873914E+03 -0.17343368814E+03  0.10579112481E+04  0.12699999809E+01 0.  1.
       -4    1    3    3    0  502  0.72307745044E+03  0.75249873914E+03 -0.43228570022E+03  0.11295874872E+04  0.12699999809E+01 0. -1.
</event>
<event>
 5   0  0.1653260E-06  0.2107741E+04  0.7818609E-02  0.8557841E-01
        1   -1    0    0  501    0  0.00000000000E+00  0.00000000000E+00  0.11830078341E+04  0.11830078342E+04  0.50400001928E-02 0.  1.
       -1   -1    0    0    0  501  0.00000000000E+00  0.00000000000E+00 -0.93882960993E+03  0.93882960994E+03  0.50400001928E-02 0. -1.
    10030    2    1    2    0    0  0.00000000000E+00  0.00000000000E+00  0.24417822422E+03  0.21218374441E+04  0.21077407654E+04 0.  0.
        3    1    3    3  502    0  0.42009845146E+03 -0.63985174882E+03  0.85133007597E+03  0.11448387999E+04  0.10100000352E+00 0.  1.
       -3    1    3    3    0  502 -0.42009845146E+03  0.63985174882E+03 -0.60715185175E+03  0.97699864415E+03  0.10100000352E+00 0. -1.
</event>
<event>
 5   0  0.3547583E-06  0.2099683E+04  0.7818609E-02  0.8561383E-01
       -2   -1    0    0    0  501  0.00000000000E+00  0.00000000000E+00  0.83852337726E+03  0.83852337727E+03  0.25500000920E-02 0. -1.
        2   -1    0    0  501    0  0.00000000000E+00  0.00000000000E+00 -0.13144147208E+04  0.13144147208E+04  0.25500000920E-02 0.  1.
    10030    2    1    2    0    0  0.00000000000E+00  0.00000000000E+00 -0.47589134355E+03  0.21529380981E+04  0.20996832817E+04 0.  0.
        2    1    3    3  502    0 -0.88642075739E+03  0.53391276676E+03 -0.56358298689E+02  0.10363304779E+04  0.25500000920E-02 0. -1.
       -2    1    3    3    0  502  0.88642075739E+03 -0.53391276676E+03 -0.41953304486E+03  0.11166076202E+04  0.25500000920E-02 0.  1.
</event>
<event>
 5   0  0.3480134E-06  0.2099812E+04  0.7818609E-02  0.8561326E-01
        2   -1    0    0  501    0  0.00000000000E+00  0.00000000000E+00  0.13039300794E+04  0.13039300794E+04  0.25500000920E-02 0.  1.
       -2   -1    0    0    0  501  0.00000000000E+00  0.00000000000E+00 -0.84536943495E+03  0.84536943495E+03  0.25500000920E-02 0. -1.
    10030    2    1    2    0    0  0.00000000000E+00  0.00000000000E+00  0.45856064443E+03  0.21492995143E+04  0.20998120244E+04 0.  0.
        1    1    3    3  502    0  0.80114669047E+03 -0.23007555456E+03  0.88270766299E+03  0.12140607888E+04  0.50400001928E-02 0.  1.
       -1    1    3    3    0  502 -0.80114669047E+03  0.23007555456E+03 -0.42414701856E+03  0.93523872558E+03  0.50400001928E-02 0. -1.
</event>
<event>
 5   0  0.1646510E-06  0.2095450E+04  0.7818609E-02  0.8563250E-01
        1   -1    0    0  501    0  0.00000000000E+00  0.00000000000E+00  0.10534685439E+04  0.10534685439E+04  0.50400001928E-02 0.  1.
       -1   -1    0    0    0  501  0.00000000000E+00  0.00000000000E+00 -0.10420129957E+04  0.10420129957E+04  0.50400001928E-02 0. -1.
    10030    2    1    2    0    0  0.00000000000E+00  0.00000000000E+00  0.11455548236E+02  0.20954815396E+04  0.20954502268E+04 0.  0.
        4    1    3    3  502    0 -0.33806666514E+03  0.95929996899E+03  0.25708944194E+03  0.10491149101E+04  0.12699999809E+01 0.  1.
       -4    1    3    3    0  502  0.33806666514E+03 -0.95929996899E+03 -0.24563389370E+03  0.10463666294E+04  0.12699999809E+01 0. -1.
</event>
<event>
 5   0  0.3480134E-06  0.2098697E+04  0.7818609E-02  0.8561817E-01
       -2   -1    0    0    0  501  0.00000000000E+00  0.00000000000E+00  0.11611982942E+04  0.11611982942E+04  0.25500000920E-02 0. -1.
        2   -1    0    0  501    0  0.00000000000E+00  0.00000000000E+00 -0.94827268583E+03  0.94827268584E+03  0.25500000920E-02 0.  1.
    10030    2    1    2    0    0  0.00000000000E+00  0.00000000000E+00  0.21292560836E+03  0.21094709800E+04  0.20986973343E+04 0.  0.
        1    1    3    3  502    0  0.85362451167E+03  0.53797934519E+03 -0.18317621313E+03  0.10254999307E+04  0.50400001928E-02 0.  1.
       -1    1    3    3    0  502 -0.85362451167E+03 -0.53797934519E+03  0.39610182149E+03  0.10839710493E+04  0.50400001928E-02 0. -1.
</event>
<event>
 5   0  0.1579820E-06  0.2099425E+04  0.7818609E-02  0.8561497E-01
        1   -1    0    0  501    0  0.00000000000E+00  0.00000000000E+00  0.26677695163E+04  0.26677695163E+04  0.50400001928E-02 0. -1.
       -1   -1    0    0    0  501  0.00000000000E+00  0.00000000000E+00 -0.41304018529E+03  0.41304018532E+03  0.50400001928E-02 0.  1.
    10030    2    1    2    0    0  0.00000000000E+00  0.00000000000E+00  0.22547293310E+04  0.30808097016E+04  0.20994246977E+04 0.  0.
        2    1    3    3  502    0 -0.95441474081E+03 -0.58000033542E+02  0.17630019467E+04  0.20056039902E+04  0.25500000920E-02 0. -1.
       -2    1    3    3    0  502  0.95441474081E+03  0.58000033542E+02  0.49172738424E+03  0.10752057114E+04  0.25500000920E-02 0.  1.
</event>
<event>
 5   0  0.3636435E-06  0.2101674E+04  0.7818609E-02  0.8560506E-01
        2   -1    0    0  501    0  0.00000000000E+00  0.00000000000E+00  0.13545773749E+04  0.13545773749E+04  0.25500000920E-02 0.  1.
       -2   -1    0    0    0  501  0.00000000000E+00  0.00000000000E+00 -0.81520487801E+03  0.81520487801E+03  0.25500000920E-02 0. -1.
    10030    2    1    2    0    0  0.00000000000E+00  0.00000000000E+00  0.53937249689E+03  0.21697822529E+04  0.21016736984E+04 0.  0.
        4    1    3    3  502    0 -0.34922661676E+03  0.92120854235E+03  0.64714646773E+03  0.11787215837E+04  0.12699999809E+01 0.  1.
       -4    1    3    3    0  502  0.34922661676E+03 -0.92120854235E+03 -0.10777397083E+03  0.99106066920E+03  0.12699999809E+01 0. -1.
</event>
<event>
 5   0  0.3574927E-06  0.2100643E+04  0.7818609E-02  0.8560960E-01
       -2   -1    0    0    0  501  0.00000000000E+00  0.00000000000E+00  0.11404995027E+04  0.11404995027E+04  0.25500000920E-02 0.  1.
        2   -1    0    0  501    0  0.00000000000E+00  0.00000000000E+00 -0.96727412775E+03  0.96727412775E+03  0.25500000920E-02 0. -1.
    10030    2    1    2    0    0  0.00000000000E+00  0.00000000000E+00  0.17322537498E+03  0.21077736305E+04  0.21006433888E+04 0.  0.
        3    1    3    3  502    0 -0.58640360243E+03 -0.83041425879E+03  0.35155177921E+03  0.10756605830E+04  0.10100000352E+00 0.  1.
       -3    1    3    3    0  502  0.58640360243E+03  0.83041425879E+03 -0.17832640424E+03  0.10321130475E+04  0.10100000352E+00 0. -1.
</event>
<event>
 5   0  0.1579820E-06  0.2100173E+04  0.7818609E-02  0.8561167E-01
        1   -1    0    0  501    0  0.00000000000E+00  0.00000000000E+00  0.11259771890E+04  0.11259771890E+04  0.50400001928E-02 0. -1.
       -1   -1    0    0    0  501  0.00000000000E+00  0.00000000000E+00 -0.97931111914E+03  0.97931111916E+03  0.50400001928E-02 0.  1.
    10030    2    1    2    0    0  0.00000000000E+00  0.00000000000E+00  0.14666606989E+03  0.21052883082E+04  0.21001733082E+04 0.  0.
        2    1    3    3  502    0  0.48107322922E+03  0.45938356555E+03 -0.74118346031E+03  0.99590041370E+03  0.25500000920E-02 0.  1.
       -2    1    3    3    0  502 -0.48107322922E+03 -0.45938356555E+03  0.88784953020E+03  0.11093878945E+04  0.25500000920E-02 0. -1.
</event>
<event>
 5   0  0.1646510E-06  0.2093915E+04  0.7818609E-02  0.8563929E-01
       -1   -1    0    0    0  501  0.00000000000E+00  0.00000000000E+00  0.83243854077E+03  0.83243854078E+03  0.50400001928E-02 0. -1.
        1   -1    0    0  501    0  0.00000000000E+00  0.00000000000E+00 -0.13167579638E+04  0.13167579638E+04  0.50400001928E-02 0.  1.
    10030    2    1    2    0    0  0.00000000000E+00  0.00000000000E+00 -0.48431942300E+03  0.21491965046E+04  0.20939150679E+04 0.  0.
        4    1    3    3  502    0  0.31707027025E+02 -0.11001872860E+03 -0.13103118100E+04  0.13153053291E+04  0.12699999809E+01 0.  1.
       -4    1    3    3    0  502 -0.31707027025E+02  0.11001872860E+03  0.82599238705E+03  0.83389117550E+03  0.12699999809E+01 0. -1.
</event>
<event>
 5   0  0.1653260E-06  0.2099264E+04  0.7818609E-02  0.8561568E-01
       -1   -1    0    0    0  501  0.00000000000E+00  0.00000000000E+00  0.83273114596E+03  0.83273114598E+03  0.50400001928E-02 0. -1.
        1   -1    0    0  501    0  0.00000000000E+00  0.00000000000E+00 -0.13230291691E+04  0.13230291691E+04  0.50400001928E-02 0.  1.
    10030    2    1    2    0    0  0.00000000000E+00  0.00000000000E+00 -0.49029802310E+03  0.21557603150E+04  0.20992642484E+04 0.  0.
        3    1    3    3  502    0  0.24539617949E+03 -0.10100343772E+04 -0.95139447612E+02  0.10437625461E+04  0.10100000352E+00 0. -1.
       -3    1    3    3    0  502 -0.24539617949E+03  0.10100343772E+04 -0.39515857549E+03  0.11119977689E+04  0.10100000352E+00 0.  1.
</event>
<event>
 5   0  0.1653260E-06  0.2099460E+04  0.7818609E-02  0.8561481E-01
        1   -1    0    0  501    0  0.00000000000E+00  0.00000000000E+00  0.13969300120E+04  0.13969300120E+04  0.50400001928E-02 0. -1.
       -1   -1    0    0    0  501  0.00000000000E+00  0.00000000000E+00 -0.78882477808E+03  0.78882477809E+03  0.50400001928E-02 0.  1.
    10030    2    1    2    0    0  0.00000000000E+00  0.00000000000E+00  0.60810523394E+03  0.21857547901E+04  0.20994599370E+04 0.  0.
        3    1    3    3  502    0 -0.60407169370E+03 -0.21052707993E+03  0.11705538378E+04  0.13339492344E+04  0.10100000352E+00 0. -1.
       -3    1    3    3    0  502  0.60407169370E+03  0.21052707993E+03 -0.56244860389E+03  0.85180555571E+03  0.10100000352E+00 0.  1.
</event>
<event>
 5   0  0.3480134E-06  0.2099143E+04  0.7818609E-02  0.8561621E-01
       -2   -1    0    0    0  501  0.00000000000E+00  0.00000000000E+00  0.11069255894E+04  0.11069255894E+04  0.25500000920E-02 0. -1.
        2   -1    0    0  501    0  0.00000000000E+00  0.00000000000E+00 -0.99518875674E+03  0.99518875674E+03  0.25500000920E-02 0.  1.
    10030    2    1    2    0    0  0.00000000000E+00  0.00000000000E+00  0.11173683269E+03  0.21021143462E+04  0.20991425880E+04 0.  0.
        1    1    3    3  502    0  0.28309650722E+03  0.95960986533E+03 -0.26176380874E+03  0.10341735916E+04  0.50400001928E-02 0.  1.
       -1    1    3    3    0  502 -0.28309650722E+03 -0.95960986533E+03  0.37350064144E+03  0.10679407545E+04  0.50400001928E-02 0. -1.
</event>
<event>
 5   0  0.3705828E-06  0.2099412E+04  0.7818609E-02  0.8561503E-01
       -2   -1    0    0    0  501  0.00000000000E+00  0.00000000000E+00  0.77972948423E+03  0.77972948424E+03  0.25500000920E-02 0. -1.
        2   -1    0    0  501    0  0.00000000000E+00  0.00000000000E+00 -0.14131599268E+04  0.14131599268E+04  0.25500000920E-02 0.  1.
    10030    2    1    2    0    0  0.00000000000E+00  0.00000000000E+00 -0.63343044259E+03  0.21928894111E+04  0.20994117851E+04 0.  0.
        5    1    3    3  502    0  0.57750436389E+03  0.26195982397E+03 -0.11904570880E+04  0.13488307559E+04  0.46999998093E+01 0.  1.
       -5    1    3    3    0  502 -0.57750436389E+03 -0.26195982397E+03  0.55702664540E+03  0.84405865517E+03  0.46999998093E+01 0. -1.
</event>
<event>
 5   0  0.3547583E-06  0.2098228E+04  0.7818609E-02  0.8562024E-01
        2   -1    0    0  501    0  0.00000000000E+00  0.00000000000E+00  0.88774259343E+03  0.88774259343E+03  0.25500000920E-02 0.  1.
       -2   -1    0    0    0  501  0.00000000000E+00  0.00000000000E+00 -0.12398195970E+04  0.12398195970E+04  0.25500000920E-02 0. -1.
    10030    2    1    2    0    0  0.00000000000E+00  0.00000000000E+00 -0.35207700361E+03  0.21275621905E+04  0.20982284570E+04 0.  0.
        2    1    3    3  502    0  0.62879929559E+03  0.83526313594E+03 -0.26436313065E+03  0.10783973874E+04  0.25500000920E-02 0. -1.
       -2    1    3    3    0  502 -0.62879929559E+03 -0.83526313594E+03 -0.87713872956E+02  0.10491648030E+04  0.25500000920E-02 0.  1.
</event>
<event>
 5   0  0.1615098E-06  0.2099514E+04  0.7818609E-02  0.8561457E-01
        1   -1    0    0  501    0  0.00000000000E+00  0.00000000000E+00  0.10425563795E+04  0.10425563795E+04  0.50400001928E-02 0. -1.
       -1   -1    0    0    0  501  0.00000000000E+00  0.00000000000E+00 -0.10570073751E+04  0.10570073751E+04  0.50400001928E-02 0.  1.
    10030    2    1    2    0    0  0.00000000000E+00  0.00000000000E+00 -0.14450995546E+02  0.20995637546E+04  0.20995140219E+04 0.  0.
        1    1    3    3  502    0  0.18885332514E+03 -0.10011755888E+04 -0.26015765220E+03  0.10515227730E+04  0.50400001928E-02 0. -1.
       -1    1    3    3    0  502 -0.18885332514E+03  0.10011755888E+04  0.24570665666E+03  0.10480409816E+04  0.50400001928E-02 0.  1.
</event>
<event>
 5   0  0.3547583E-06  0.2101199E+04  0.7818609E-02  0.8560715E-01
        2   -1    0    0  501    0  0.00000000000E+00  0.00000000000E+00  0.11773164574E+04  0.11773164574E+04  0.25500000920E-02 0.  1.
       -2   -1    0    0    0  501  0.00000000000E+00  0.00000000000E+00 -0.93752116744E+03  0.93752116744E+03  0.25500000920E-02 0. -1.
    10030    2    1    2    0    0  0.00000000000E+00  0.00000000000E+00  0.23979528995E+03  0.21148376248E+04  0.21011988003E+04 0.  0.
        2    1    3    3  502    0 -0.78394758958E+03 -0.46490873261E+03  0.64582664033E+03  0.11170523722E+04  0.25500000920E-02 0.  1.
       -2    1    3    3    0  502  0.78394758958E+03  0.46490873261E+03 -0.40603135038E+03  0.99778525263E+03  0.25500000920E-02 0. -1.
</event>
<event>
 5   0  0.1615098E-06  0.2092992E+04  0.7818609E-02  0.8564337E-01
       -1   -1    0    0    0  501  0.00000000000E+00  0.00000000000E+00  0.45567915832E+03  0.45567915834E+03  0.50400001928E-02 0.  1.
        1   -1    0    0  501    0  0.00000000000E+00  0.00000000000E+00 -0.24033451743E+04  0.24033451743E+04  0.50400001928E-02 0. -1.
    10030    2    1    2    0    0  0.00000000000E+00  0.00000000000E+00 -0.19476660160E+04  0.28590243326E+04  0.20929924092E+04 0.  0.
        1    1    3    3  502    0  0.51376806153E+03 -0.69994423888E+03 -0.17718318762E+04  0.19731365275E+04  0.50400001928E-02 0. -1.
       -1    1    3    3    0  502 -0.51376806153E+03  0.69994423888E+03 -0.17583413980E+03  0.88588780516E+03  0.50400001928E-02 0.  1.
</event>
<event>
 5   0  0.1590067E-06  0.2104020E+04  0.7818609E-02  0.8559475E-01
       -1   -1    0    0    0  501  0.00000000000E+00  0.00000000000E+00  0.72069494827E+03  0.72069494828E+03  0.50400001928E-02 0. -1.
        1   -1    0    0  501    0  0.00000000000E+00  0.00000000000E+00 -0.15356361073E+04  0.15356361073E+04  0.50400001928E-02 0.  1.
    10030    2    1    2    0    0  0.00000000000E+00  0.00000000000E+00 -0.81494115907E+03  0.22563310556E+04  0.21040201377E+04 0.  0.
        5    1    3    3  502    0 -0.43230341701E+03  0.22214998260E+03  0.59305660697E+03  0.76679533658E+03  0.46999998093E+01 0. -1.
       -5    1    3    3    0  502  0.43230341701E+03 -0.22214998260E+03 -0.14079977660E+04  0.14895357190E+04  0.46999998093E+01 0.  1.
</event>
<event>
 5   0  0.3636435E-06  0.2099788E+04  0.7818609E-02  0.8561337E-01
        2   -1    0    0  501    0  0.00000000000E+00  0.00000000000E+00  0.60475621746E+03  0.60475621746E+03  0.25500000920E-02 0. -1.
       -2   -1    0    0    0  501  0.00000000000E+00  0.00000000000E+00 -0.18226798401E+04  0.18226798401E+04  0.25500000920E-02 0.  1.
    10030    2    1    2    0    0  0.00000000000E+00  0.00000000000E+00 -0.12179236226E+04  0.24274360576E+04  0.20997875757E+04 0.  0.
        4    1    3    3  502    0 -0.88801186191E+03  0.60708145348E+02  0.34719144289E+02  0.89076235758E+03  0.12699999809E+01 0. -1.
       -4    1    3    3    0  502  0.88801186191E+03 -0.60708145348E+02 -0.12526427669E+04  0.15366737000E+04  0.12699999809E+01 0.  1.
</event>
<event>
 5   0  0.1653260E-06  0.2098726E+04  0.7818609E-02  0.8561805E-01
       -1   -1    0    0    0  501  0.00000000000E+00  0.00000000000E+00  0.55008406629E+03  0.55008406631E+03  0.50400001928E-02 0.  1.
        1   -1    0    0  501    0  0.00000000000E+00  0.00000000000E+00 -0.20018080372E+04  0.20018080372E+04  0.50400001928E-02 0. -1.
    10030    2    1    2    0    0  0.00000000000E+00  0.00000000000E+00 -0.14517239709E+04  0.25518921036E+04  0.20987259994E+04 0.  0.
        3    1    3    3  502    0  0.80865740060E+03  0.20302162732E+03  0.48919572168E+02  0.83518722898E+03  0.10100000352E+00 0.  1.
       -3    1    3    3    0  502 -0.80865740060E+03 -0.20302162732E+03 -0.15006435431E+04  0.17167048746E+04  0.10100000352E+00 0. -1.
</event>
<event>
 5   0  0.1257125E-06  0.2100355E+04  0.7818609E-02  0.8561087E-01
       -3   -1    0    0    0  501  0.00000000000E+00  0.00000000000E+00  0.13761767251E+04  0.13761767288E+04  0.10100000352E+00 0.  1.
        3   -1    0    0  501    0  0.00000000000E+00  0.00000000000E+00 -0.80140348236E+03  0.80140348872E+03  0.10100000352E+00 0. -1.
    10030    2    1    2    0    0  0.00000000000E+00  0.00000000000E+00  0.57477324276E+03  0.21775802175E+04  0.21003550469E+04 0.  0.
        4    1    3    3  502    0  0.60453373805E+03  0.76667129028E+03  0.68842319360E+03  0.11946438859E+04  0.12699999809E+01 0.  1.
       -4    1    3    3    0  502 -0.60453373805E+03 -0.76667129028E+03 -0.11364995084E+03  0.98293633162E+03  0.12699999809E+01 0. -1.
</event>
<event>
 5   0  0.1615098E-06  0.2100511E+04  0.7818609E-02  0.8561018E-01
        1   -1    0    0  501    0  0.00000000000E+00  0.00000000000E+00  0.11287615193E+04  0.11287615193E+04  0.50400001928E-02 0. -1.
       -1   -1    0    0    0  501  0.00000000000E+00  0.00000000000E+00 -0.97720926210E+03  0.97720926211E+03  0.50400001928E-02 0.  1.
    10030    2    1    2    0    0  0.00000000000E+00  0.00000000000E+00  0.15155225720E+03  0.21059707814E+04  0.21005106154E+04 0.  0.
        1    1    3    3  502    0  0.74665343084E+03  0.11439297959E+03  0.80737089905E+03  0.11056332431E+04  0.50400001928E-02 0.  1.
       -1    1    3    3    0  502 -0.74665343084E+03 -0.11439297959E+03 -0.65581864185E+03  0.10003375383E+04  0.50400001928E-02 0. -1.
</event>
<event>
 5   0  0.1579820E-06  0.2099572E+04  0.7818609E-02  0.8561432E-01
        1   -1    0    0  501    0  0.00000000000E+00  0.00000000000E+00  0.17313001323E+04  0.17313001324E+04  0.50400001928E-02 0. -1.
       -1   -1    0    0    0  501  0.00000000000E+00  0.00000000000E+00 -0.63654487773E+03  0.63654487775E+03  0.50400001928E-02 0.  1.
    10030    2    1    2    0    0  0.00000000000E+00  0.00000000000E+00  0.10947552546E+04  0.23678450101E+04  0.20995716050E+04 0.  0.
        2    1    3    3  502    0  0.64720982061E+03 -0.66081487343E+03 -0.12541383321E+02  0.92504817991E+03  0.25500000920E-02 0.  1.
       -2    1    3    3    0  502 -0.64720982061E+03  0.66081487343E+03  0.11072966379E+04  0.14427968302E+04  0.25500000920E-02 0. -1.
</event>
<event>
 5   0  0.1646510E-06  0.2099412E+04  0.7818609E-02  0.8561502E-01
       -1   -1    0    0    0  501  0.00000000000E+00  0.00000000000E+00  0.89177567332E+03  0.89177567334E+03  0.50400001928E-02 0.  1.
        1   -1    0    0  501    0  0.00000000000E+00  0.00000000000E+00 -0.12356053523E+04  0.12356053523E+04  0.50400001928E-02 0. -1.
    10030    2    1    2    0    0  0.00000000000E+00  0.00000000000E+00 -0.34382967898E+03  0.21273810256E+04  0.20994121035E+04 0.  0.
        4    1    3    3  502    0  0.30147324006E+03 -0.20987026814E+02  0.84674099980E+03  0.89905422718E+03  0.12699999809E+01 0.  1.
       -4    1    3    3    0  502 -0.30147324006E+03  0.20987026814E+02 -0.11905706788E+04  0.12283267985E+04  0.12699999809E+01 0. -1.
</event>
<event>
 5   0  0.1590067E-06  0.2100210E+04  0.7818609E-02  0.8561151E-01
        1   -1    0    0  501    0  0.00000000000E+00  0.00000000000E+00  0.11701265785E+04  0.11701265785E+04  0.50400001928E-02 0.  1.
       -1   -1    0    0    0  501  0.00000000000E+00  0.00000000000E+00 -0.94239401272E+03  0.94239401274E+03  0.50400001928E-02 0. -1.
    10030    2    1    2    0    0  0.00000000000E+00  0.00000000000E+00  0.22773256578E+03  0.21125205913E+04  0.21002097817E+04 0.  0.
        5    1    3    3  502    0  0.14813700697E+03  0.10395373469E+04  0.10304574956E+03  0.10550938276E+04  0.46999998093E+01 0. -1.
       -5    1    3    3    0  502 -0.14813700697E+03 -0.10395373469E+04  0.12468681622E+03  0.10574267637E+04  0.46999998093E+01 0.  1.
</event>
<event>
 5   0  0.3480134E-06  0.2100264E+04  0.7818609E-02  0.8561127E-01
       -2   -1    0    0    0  501  0.00000000000E+00  0.00000000000E+00  0.80379107618E+03  0.80379107618E+03  0.25500000920E-02 0.  1.
        2   -1    0    0  501    0  0.00000000000E+00  0.00000000000E+00 -0.13719693591E+04  0.13719693591E+04  0.25500000920E-02 0. -1.
    10030    2    1    2    0    0  0.00000000000E+00  0.00000000000E+00 -0.56817828290E+03  0.21757604353E+04  0.21002635336E+04 0.  0.
        1    1    3    3  502    0  0.22860596793E+03 -0.98274458932E+03 -0.58563516690E+03  0.11666259748E+04  0.50400001928E-02 0. -1.
       -1    1    3    3    0  502 -0.22860596793E+03  0.98274458932E+03  0.17456884000E+02  0.10091344604E+04  0.50400001928E-02 0.  1.
</event>
<event>
 5   0  0.1579820E-06  0.2099217E+04  0.7818609E-02  0.8561588E-01
        1   -1    0    0  501    0  0.00000000000E+00  0.00000000000E+00  0.13509378144E+04  0.13509378144E+04  0.50400001928E-02 0.  1.
       -1   -1    0    0    0  501  0.00000000000E+00  0.00000000000E+00 -0.81549155450E+03  0.81549155452E+03  0.50400001928E-02 0. -1.
    10030    2    1    2    0    0  0.00000000000E+00  0.00000000000E+00  0.53544625990E+03  0.21664293689E+04  0.20992173573E+04 0.  0.
        2    1    3    3  502    0 -0.48939277727E+03  0.63401509855E+03 -0.43237587801E+03  0.91018093560E+03  0.25500000920E-02 0. -1.
       -2    1    3    3    0  502  0.48939277727E+03 -0.63401509855E+03  0.96782213791E+03  0.12562484333E+04  0.25500000920E-02 0.  1.
</event>
<event>
 5   0  0.3574927E-06  0.2099900E+04  0.7818609E-02  0.8561287E-01
        2   -1    0    0  501    0  0.00000000000E+00  0.00000000000E+00  0.15634846150E+04  0.15634846150E+04  0.25500000920E-02 0.  1.
       -2   -1    0    0    0  501  0.00000000000E+00  0.00000000000E+00 -0.70508841082E+03  0.70508841082E+03  0.25500000920E-02 0. -1.
    10030    2    1    2    0    0  0.00000000000E+00  0.00000000000E+00  0.85839620419E+03  0.22685730258E+04  0.20998998857E+04 0.  0.
        3    1    3    3  502    0  0.19825103741E+03  0.92989350468E+03 -0.51988449347E+02  0.95221227305E+03  0.10100000352E+00 0. -1.
       -3    1    3    3    0  502 -0.19825103741E+03 -0.92989350468E+03  0.91038465354E+03  0.13163607528E+04  0.10100000352E+00 0.  1.
</event>
<event>
 5   0  0.1646510E-06  0.2100663E+04  0.7818609E-02  0.8560952E-01
       -1   -1    0    0    0  501  0.00000000000E+00  0.00000000000E+00  0.12022778555E+04  0.12022778555E+04  0.50400001928E-02 0. -1.
        1   -1    0    0  501    0  0.00000000000E+00  0.00000000000E+00 -0.91758818260E+03  0.91758818261E+03  0.50400001928E-02 0.  1.
    10030    2    1    2    0    0  0.00000000000E+00  0.00000000000E+00  0.28468967287E+03  0.21198660381E+04  0.21006627072E+04 0.  0.
        4    1    3    3  502    0 -0.43771032439E+03 -0.84956654178E+03 -0.29734533504E+03  0.10008843580E+04  0.12699999809E+01 0.  1.
       -4    1    3    3    0  502  0.43771032439E+03  0.84956654178E+03  0.58203500791E+03  0.11189816801E+04  0.12699999809E+01 0. -1.
</event>
<event>
 5   0  0.3480134E-06  0.2092924E+04  0.7818609E-02  0.8564367E-01
        2   -1    0    0  501    0  0.00000000000E+00  0.00000000000E+00  0.79141546352E+03  0.79141546353E+03  0.25500000920E-02 0.  1.
       -2   -1    0    0    0  501  0.00000000000E+00  0.00000000000E+00 -0.13837011944E+04  0.13837011944E+04  0.25500000920E-02 0. -1.
    10030    2    1    2    0    0  0.00000000000E+00  0.00000000000E+00 -0.59228573086E+03  0.21751166579E+04  0.20929238134E+04 0.  0.
        1    1    3    3  502    0 -0.21954457136E+02 -0.36428927493E+03 -0.13154210016E+04  0.13651084519E+04  0.50400001928E-02 0. -1.
       -1    1    3    3    0  502  0.21954457136E+02  0.36428927493E+03  0.72313527073E+03  0.81000820601E+03  0.50400001928E-02 0.  1.
</event>
<event>
 5   0  0.1653260E-06  0.2101165E+04  0.7818609E-02  0.8560730E-01
       -1   -1    0    0    0  501  0.00000000000E+00  0.00000000000E+00  0.10614872694E+04  0.10614872694E+04  0.50400001928E-02 0. -1.
        1   -1    0    0  501    0  0.00000000000E+00  0.00000000000E+00 -0.10397897399E+04  0.10397897399E+04  0.50400001928E-02 0.  1.
    10030    2    1    2    0    0  0.00000000000E+00  0.00000000000E+00  0.21697529557E+02  0.21012770093E+04  0.21011649833E+04 0.  0.
        3    1    3    3  502    0 -0.28869415902E+03  0.10091902082E+04  0.54604587134E+02  0.10510903219E+04  0.10100000352E+00 0. -1.
       -3    1    3    3    0  502  0.28869415902E+03 -0.10091902082E+04 -0.32907057577E+02  0.10501866874E+04  0.10100000352E+00 0.  1.
</event>
<event>
 5   0  0.3636435E-06  0.2100998E+04  0.7818609E-02  0.8560804E-01
       -2   -1    0    0    0  501  0.00000000000E+00  0.00000000000E+00  0.10765581829E+04  0.10765581829E+04  0.25500000920E-02 0. -1.
        2   -1    0    0  501    0  0.00000000000E+00  0.00000000000E+00 -0.10250705653E+04  0.10250705653E+04  0.25500000920E-02 0.  1.
    10030    2    1    2    0    0  0.00000000000E+00  0.00000000000E+00  0.51487617584E+02  0.21016287482E+04  0.21009979582E+04 0.  0.
        4    1    3    3  502    0 -0.99180153835E+03 -0.32178064444E+02 -0.31909259245E+03  0.10423662575E+04  0.12699999809E+01 0.  1.
       -4    1    3    3    0  502  0.99180153835E+03  0.32178064444E+02  0.37058021003E+03  0.10592624907E+04  0.12699999809E+01 0. -1.
</event>
<event>
 5   0  0.3636435E-06  0.2100073E+04  0.7818609E-02  0.8561211E-01
       -2   -1    0    0    0  501  0.00000000000E+00  0.00000000000E+00  0.10210819116E+04  0.10210819116E+04  0.25500000920E-02 0. -1.
        2   -1    0    0  501    0  0.00000000000E+00  0.00000000000E+00 -0.10798123414E+04  0.10798123414E+04  0.25500000920E-02 0.  1.
    10030    2    1    2    0    0  0.00000000000E+00  0.00000000000E+00 -0.58730429842E+02  0.21008942530E+04  0.21000731889E+04 0.  0.
        4    1    3    3  502    0  0.27285951724E+03 -0.79145733894E+03  0.60469502013E+03  0.10327219935E+04  0.12699999809E+01 0. -1.
       -4    1    3    3    0  502 -0.27285951724E+03  0.79145733894E+03 -0.66342544997E+03  0.10681722595E+04  0.12699999809E+01 0.  1.
</event>
<event>
 5   0  0.3705828E-06  0.2099979E+04  0.7818609E-02  0.8561253E-01
       -2   -1    0    0    0  501  0.00000000000E+00  0.00000000000E+00  0.60275569954E+03  0.60275569954E+03  0.25500000920E-02 0. -1.
        2   -1    0    0  501    0  0.00000000000E+00  0.00000000000E+00 -0.18290627193E+04  0.18290627193E+04  0.25500000920E-02 0.  1.
    10030    2    1    2    0    0  0.00000000000E+00  0.00000000000E+00 -0.12263070198E+04  0.24318184188E+04  0.20999790274E+04 0.  0.
        5    1    3    3  502    0  0.17471277818E+03 -0.99714883718E+02  0.58021904913E+03  0.61412038548E+03  0.46999998093E+01 0. -1.
       -5    1    3    3    0  502 -0.17471277818E+03  0.99714883718E+02 -0.18065260689E+04  0.18176980334E+04  0.46999998093E+01 0.  1.
</event>
<event>
 5   0  0.3547583E-06  0.2099652E+04  0.7818609E-02  0.8561397E-01
       -2   -1    0    0    0  501  0.00000000000E+00  0.00000000000E+00  0.69119335302E+03  0.69119335302E+03  0.25500000920E-02 0. -1.
        2   -1    0    0  501    0  0.00000000000E+00  0.00000000000E+00 -0.15945392235E+04  0.15945392235E+04  0.25500000920E-02 0.  1.
    10030    2    1    2    0    0  0.00000000000E+00  0.00000000000E+00 -0.90334587048E+03  0.22857325765E+04  0.20996522687E+04 0.  0.
        2    1    3    3  502    0  0.53327513742E+03  0.12385889053E+03  0.52348872640E+03  0.75747200848E+03  0.25500000920E-02 0. -1.
       -2    1    3    3    0  502 -0.53327513742E+03 -0.12385889053E+03 -0.14268345969E+04  0.15282605680E+04  0.25500000920E-02 0.  1.
</event>
<event>
 5   0  0.3574927E-06  0.2099492E+04  0.7818609E-02  0.8561467E-01
       -2   -1    0    0    0  501  0.00000000000E+00  0.00000000000E+00  0.58700325845E+03  0.58700325846E+03  0.25500000920E-02 0. -1.
        2   -1    0    0  501    0  0.00000000000E+00  0.00000000000E+00 -0.18772743591E+04  0.18772743591E+04  0.25500000920E-02 0.  1.
    10030    2    1    2    0    0  0.00000000000E+00  0.00000000000E+00 -0.12902711006E+04  0.24642776175E+04  0.20994915249E+04 0.  0.
        3    1    3    3  502    0 -0.10527493504E+03  0.12317788217E+03  0.57223620471E+03  0.59473514002E+03  0.10100000352E+00 0. -1.
       -3    1    3    3    0  502  0.10527493504E+03 -0.12317788217E+03 -0.18625073053E+04  0.18695424775E+04  0.10100000352E+00 0.  1.
</event>
<event>
 5   0  0.3574927E-06  0.2100495E+04  0.7818609E-02  0.8561026E-01
       -2   -1    0    0    0  501  0.00000000000E+00  0.00000000000E+00  0.11349520864E+04  0.11349520864E+04  0.25500000920E-02 0.  1.
        2   -1    0    0  501    0  0.00000000000E+00  0.00000000000E+00 -0.97186430666E+03  0.97186430667E+03  0.25500000920E-02 0. -1.
    10030    2    1    2    0    0  0.00000000000E+00  0.00000000000E+00  0.16308777975E+03  0.21068163931E+04  0.21004946299E+04 0.  0.
        3    1    3    3  502    0 -0.85303949094E+03 -0.38846269551E+03 -0.39363268657E+03  0.10166249756E+04  0.10100000352E+00 0. -1.
       -3    1    3    3    0  502  0.85303949094E+03  0.38846269551E+03  0.55672046632E+03  0.10901914175E+04  0.10100000352E+00 0.  1.
</event>
<event>
 5   0  0.3547583E-06  0.2099960E+04  0.7818609E-02  0.8561261E-01
       -2   -1    0    0    0  501  0.00000000000E+00  0.00000000000E+00  0.62341039269E+03  0.62341039270E+03  0.25500000920E-02 0.  1.
        2   -1    0    0  501    0  0.00000000000E+00  0.00000000000E+00 -0.17684310430E+04  0.17684310430E+04  0.25500000920E-02 0. -1.
    10030    2    1    2    0    0  0.00000000000E+00  0.00000000000E+00 -0.11450206503E+04  0.23918414357E+04  0.20999602768E+04 0.  0.
        2    1    3    3  502    0 -0.19809132339E+03 -0.85753024631E+03 -0.12246873868E+04  0.15081304623E+04  0.25500000920E-02 0. -1.
       -2    1    3    3    0  502  0.19809132339E+03  0.85753024631E+03  0.79666736485E+02  0.88371097347E+03  0.25500000920E-02 0.  1.
</event>
<event>
 5   0  0.1257125E-06  0.2100071E+04  0.7818609E-02  0.8561212E-01
        3   -1    0    0  501    0  0.00000000000E+00  0.00000000000E+00  0.10285886998E+04  0.10285887048E+04  0.10100000352E+00 0. -1.
       -3   -1    0    0    0  501  0.00000000000E+00  0.00000000000E+00 -0.10719295567E+04  0.10719295615E+04  0.10100000352E+00 0.  1.
    10030    2    1    2    0    0  0.00000000000E+00  0.00000000000E+00 -0.43340856915E+02  0.21005182662E+04  0.21000710838E+04 0.  0.
        3    1    3    3  502    0 -0.45247136803E+03  0.71064722814E+03 -0.64856126331E+03  0.10631940294E+04  0.10100000352E+00 0.  1.
       -3    1    3    3    0  502  0.45247136803E+03 -0.71064722814E+03  0.60522040639E+03  0.10373242368E+04  0.10100000352E+00 0. -1.
</event>
<event>
 5   0  0.1257125E-06  0.2110872E+04  0.7818609E-02  0.8556469E-01
        4   -1    0    0  501    0  0.00000000000E+00  0.00000000000E+00  0.13596918862E+04  0.13596924793E+04  0.12699999809E+01 0. -1.
       -4   -1    0    0    0  501  0.00000000000E+00  0.00000000000E+00 -0.81926185975E+03  0.81926284411E+03  0.12699999809E+01 0.  1.
    10030    2    1    2    0    0  0.00000000000E+00  0.00000000000E+00  0.54043002648E+03  0.21789553234E+04  0.21108722576E+04 0.  0.
        3    1    3    3  502    0  0.47564008453E+03  0.74948785706E+03  0.85957652014E+03  0.12356525976E+04  0.10100000352E+00 0. -1.
       -3    1    3    3    0  502 -0.47564008453E+03 -0.74948785706E+03 -0.31914649366E+03  0.94330272580E+03  0.10100000352E+00 0.  1.
</event>
<event>
 5   0  0.3574927E-06  0.2099622E+04  0.7818609E-02  0.8561410E-01
       -2   -1    0    0    0  501  0.00000000000E+00  0.00000000000E+00  0.66291132420E+03  0.66291132421E+03  0.25500000920E-02 0.  1.
        2   -1    0    0  501    0  0.00000000000E+00  0.00000000000E+00 -0.16625198257E+04  0.16625198257E+04  0.25500000920E-02 0. -1.
    10030    2    1    2    0    0  0.00000000000E+00  0.00000000000E+00 -0.99960850149E+03  0.23254311499E+04  0.20996220795E+04 0.  0.
        3    1    3    3  502    0 -0.68163795674E+03  0.35328964956E+03  0.29320232154E+03  0.82183422423E+03  0.10100000352E+00 0.  1.
       -3    1    3    3    0  502  0.68163795674E+03 -0.35328964956E+03 -0.12928108230E+04  0.15035969257E+04  0.10100000352E+00 0. -1.
</event>
<event>
 5   0  0.1646510E-06  0.2099622E+04  0.7818609E-02  0.8561410E-01
       -1   -1    0    0    0  501  0.00000000000E+00  0.00000000000E+00  0.66955896442E+03  0.66955896444E+03  0.50400001928E-02 0. -1.
        1   -1    0    0  501    0  0.00000000000E+00  0.00000000000E+00 -0.16460131583E+04  0.16460131583E+04  0.50400001928E-02 0.  1.
    10030    2    1    2    0    0  0.00000000000E+00  0.00000000000E+00 -0.97645419384E+03  0.23155721227E+04  0.20996217428E+04 0.  0.
        4    1    3    3  502    0  0.10452157398E+04 -0.20879407894E+02 -0.59394776409E+03  0.12023674362E+04  0.12699999809E+01 0.  1.
       -4    1    3    3    0  502 -0.10452157398E+04  0.20879407894E+02 -0.38250642975E+03  0.11132046865E+04  0.12699999809E+01 0. -1.
</event>
<event>
 5   0  0.3480134E-06  0.2100395E+04  0.7818609E-02  0.8561070E-01
        2   -1    0    0  501    0  0.00000000000E+00  0.00000000000E+00  0.11481579142E+04  0.11481579142E+04  0.25500000920E-02 0. -1.
       -2   -1    0    0    0  501  0.00000000000E+00  0.00000000000E+00 -0.96059477656E+03  0.96059477656E+03  0.25500000920E-02 0.  1.
    10030    2    1    2    0    0  0.00000000000E+00  0.00000000000E+00  0.18756313768E+03  0.21087526908E+04  0.21003947201E+04 0.  0.
        1    1    3    3  502    0 -0.91952941263E+03  0.50490590700E+03  0.44085312078E+02  0.10499561088E+04  0.50400001928E-02 0. -1.
       -1    1    3    3    0  502  0.91952941263E+03 -0.50490590700E+03  0.14347782560E+03  0.10587965820E+04  0.50400001928E-02 0.  1.
</event>
<event>
 5   0  0.3547583E-06  0.2102931E+04  0.7818609E-02  0.8559954E-01
        2   -1    0    0  501    0  0.00000000000E+00  0.00000000000E+00  0.94434588939E+03  0.94434588939E+03  0.25500000920E-02 0. -1.
       -2   -1    0    0    0  501  0.00000000000E+00  0.00000000000E+00 -0.11707354383E+04  0.11707354383E+04  0.25500000920E-02 0.  1.
    10030    2    1    2    0    0  0.00000000000E+00  0.00000000000E+00 -0.22638954893E+03  0.21150813277E+04  0.21029305255E+04 0.  0.
        2    1    3    3  502    0  0.42252195931E+03 -0.71312123687E+03  0.53746859826E+03  0.98789635017E+03  0.25500000920E-02 0. -1.
       -2    1    3    3    0  502 -0.42252195931E+03  0.71312123687E+03 -0.76385814718E+03  0.11271849775E+04  0.25500000920E-02 0.  1.
</event>
<event>
 5   0  0.1579820E-06  0.2102569E+04  0.7818609E-02  0.8560113E-01
        1   -1    0    0  501    0  0.00000000000E+00  0.00000000000E+00  0.12745591817E+04  0.12745591817E+04  0.50400001928E-02 0. -1.
       -1   -1    0    0    0  501  0.00000000000E+00  0.00000000000E+00 -0.86712248454E+03  0.86712248456E+03  0.50400001928E-02 0.  1.
    10030    2    1    2    0    0  0.00000000000E+00  0.00000000000E+00  0.40743669716E+03  0.21416816663E+04  0.21025688330E+04 0.  0.
        2    1    3    3  502    0  0.16068181620E+03 -0.35699288792E+03 -0.79010375885E+03  0.88177464118E+03  0.25500000920E-02 0.  1.
       -2    1    3    3    0  502 -0.16068181620E+03  0.35699288792E+03  0.11975404560E+04  0.12599070251E+04  0.25500000920E-02 0. -1.
</event>
<event>
 5   0  0.3705828E-06  0.2101044E+04  0.7818609E-02  0.8560784E-01
        2   -1    0    0  501    0  0.00000000000E+00  0.00000000000E+00  0.73710071921E+03  0.73710071922E+03  0.25500000920E-02 0. -1.
       -2   -1    0    0    0  501  0.00000000000E+00  0.00000000000E+00 -0.14972124884E+04  0.14972124884E+04  0.25500000920E-02 0.  1.
    10030    2    1    2    0    0  0.00000000000E+00  0.00000000000E+00 -0.76011176922E+03  0.22343132077E+04  0.21010439330E+04 0.  0.
        5    1    3    3  502    0  0.18286193026E+03 -0.85826390557E+02  0.71624178869E+03  0.74419691259E+03  0.46999998093E+01 0. -1.
       -5    1    3    3    0  502 -0.18286193026E+03  0.85826390557E+02 -0.14763535579E+04  0.14901162951E+04  0.46999998093E+01 0.  1.
</event>
<event>
 5   0  0.1653260E-06  0.2100501E+04  0.7818609E-02  0.8561023E-01
        1   -1    0    0  501    0  0.00000000000E+00  0.00000000000E+00  0.79962675178E+03  0.79962675180E+03  0.50400001928E-02 0.  1.
       -1   -1    0    0    0  501  0.00000000000E+00  0.00000000000E+00 -0.13794263787E+04  0.13794263788E+04  0.50400001928E-02 0. -1.
    10030    2    1    2    0    0  0.00000000000E+00  0.00000000000E+00 -0.57979962696E+03  0.21790531306E+04  0.21005011160E+04 0.  0.
        3    1    3    3  502    0 -0.52788303038E+03 -0.14119158174E+03 -0.12203416128E+04  0.13370973108E+04  0.10100000352E+00 0. -1.
       -3    1    3    3    0  502  0.52788303038E+03  0.14119158174E+03  0.64054198584E+03  0.84195581971E+03  0.10100000352E+00 0.  1.
</event>
<event>
 5   0  0.1653260E-06  0.2099719E+04  0.7818609E-02  0.8561367E-01
       -1   -1    0    0    0  501  0.00000000000E+00  0.00000000000E+00  0.89028149042E+03  0.89028149043E+03  0.50400001928E-02 0.  1.
        1   -1    0    0  501    0  0.00000000000E+00  0.00000000000E+00 -0.12380412733E+04  0.12380412733E+04  0.50400001928E-02 0. -1.
    10030    2    1    2    0    0  0.00000000000E+00  0.00000000000E+00 -0.34775978286E+03  0.21283227637E+04  0.20997192479E+04 0.  0.
        3    1    3    3  502    0 -0.36426697104E+03  0.68289160342E+03 -0.89289049101E+03  0.11816449582E+04  0.10100000352E+00 0. -1.
       -3    1    3    3    0  502  0.36426697104E+03 -0.68289160342E+03  0.54513070815E+03  0.94667780547E+03  0.10100000352E+00 0.  1.
</event>
<event>
 5   0  0.1646510E-06  0.2099735E+04  0.7818609E-02  0.8561360E-01
       -1   -1    0    0    0  501  0.00000000000E+00  0.00000000000E+00  0.11064537609E+04  0.11064537609E+04  0.50400001928E-02 0.  1.
        1   -1    0    0  501    0  0.00000000000E+00  0.00000000000E+00 -0.99617500092E+03  0.99617500093E+03  0.50400001928E-02 0. -1.
    10030    2    1    2    0    0  0.00000000000E+00  0.00000000000E+00  0.11027875999E+03  0.21026287619E+04  0.20997348179E+04 0.  0.
        4    1    3    3  502    0 -0.59132540946E+03  0.11971534132E+03  0.91552229603E+03  0.10964397796E+04  0.12699999809E+01 0.  1.
       -4    1    3    3    0  502  0.59132540946E+03 -0.11971534132E+03 -0.80524353604E+03  0.10061889823E+04  0.12699999809E+01 0. -1.
</event>
<event>
 5   0  0.3636435E-06  0.2099949E+04  0.7818609E-02  0.8561266E-01
        2   -1    0    0  501    0  0.00000000000E+00  0.00000000000E+00  0.16542881111E+04  0.16542881111E+04  0.25500000920E-02 0. -1.
       -2   -1    0    0    0  501  0.00000000000E+00  0.00000000000E+00 -0.66641755761E+03  0.66641755762E+03  0.25500000920E-02 0.  1.
    10030    2    1    2    0    0  0.00000000000E+00  0.00000000000E+00  0.98787055351E+03  0.23207056688E+04  0.20999491828E+04 0.  0.
        4    1    3    3  502    0 -0.11854561722E+03 -0.88074248786E+03 -0.12403067787E+03  0.89729906678E+03  0.12699999809E+01 0.  1.
       -4    1    3    3    0  502  0.11854561722E+03  0.88074248786E+03  0.11119012314E+04  0.14234066020E+04  0.12699999809E+01 0. -1.
</event>
<event>
 5   0  0.3547583E-06  0.2098325E+04  0.7818609E-02  0.8561981E-01
       -2   -1    0    0    0  501  0.00000000000E+00  0.00000000000E+00  0.74946927753E+03  0.74946927754E+03  0.25500000920E-02 0. -1.
        2   -1    0    0  501    0  0.00000000000E+00  0.00000000000E+00 -0.14686956587E+04  0.14686956587E+04  0.25500000920E-02 0.  1.
    10030    2    1    2    0    0  0.00000000000E+00  0.00000000000E+00 -0.71922638115E+03  0.22181649362E+04  0.20983253077E+04 0.  0.
        2    1    3    3  502    0 -0.77400631639E+03  0.16932754721E+02 -0.11081274758E+04  0.13517836360E+04  0.25500000920E-02 0.  1.
       -2    1    3    3    0  502  0.77400631639E+03 -0.16932754721E+02  0.38890109461E+03  0.86638130023E+03  0.25500000920E-02 0. -1.
</event>
<event>
 5   0  0.3636435E-06  0.2099905E+04  0.7818609E-02  0.8561285E-01
       -2   -1    0    0    0  501  0.00000000000E+00  0.00000000000E+00  0.11473273303E+04  0.11473273303E+04  0.25500000920E-02 0. -1.
        2   -1    0    0  501    0  0.00000000000E+00  0.00000000000E+00 -0.96084231540E+03  0.96084231540E+03  0.25500000920E-02 0.  1.
    10030    2    1    2    0    0  0.00000000000E+00  0.00000000000E+00  0.18648501491E+03  0.21081696457E+04  0.20999053775E+04 0.  0.
        4    1    3    3  502    0 -0.29530727326E+03  0.71548795110E+03  0.80544944056E+03  0.11170854077E+04  0.12699999809E+01 0. -1.
       -4    1    3    3    0  502  0.29530727326E+03 -0.71548795110E+03 -0.61896442565E+03  0.99108423806E+03  0.12699999809E+01 0.  1.
</event>
<event>
 5   0  0.3480134E-06  0.2100217E+04  0.7818609E-02  0.8561148E-01
       -2   -1    0    0    0  501  0.00000000000E+00  0.00000000000E+00  0.68849231950E+03  0.68849231951E+03  0.25500000920E-02 0.  1.
        2   -1    0    0  501    0  0.00000000000E+00  0.00000000000E+00 -0.16016559747E+04  0.16016559747E+04  0.25500000920E-02 0. -1.
    10030    2    1    2    0    0  0.00000000000E+00  0.00000000000E+00 -0.91316365524E+03  0.22901482943E+04  0.21002169765E+04 0.  0.
        1    1    3    3  502    0  0.64784586667E+02 -0.23101891526E+03 -0.15713666567E+04  0.15895785453E+04  0.50400001928E-02 0. -1.
       -1    1    3    3    0  502 -0.64784586667E+02  0.23101891526E+03  0.65820300150E+03  0.70056974891E+03  0.50400001928E-02 0.  1.
</event>
<event>
 5   0  0.3574927E-06  0.2097911E+04  0.7818609E-02  0.8562164E-01
        2   -1    0    0  501    0  0.00000000000E+00  0.00000000000E+00  0.14850225908E+04  0.14850225908E+04  0.25500000920E-02 0.  1.
       -2   -1    0    0    0  501  0.00000000000E+00  0.00000000000E+00 -0.74093641488E+03  0.74093641489E+03  0.25500000920E-02 0. -1.
    10030    2    1    2    0    0  0.00000000000E+00  0.00000000000E+00  0.74408617593E+03  0.22259590057E+04  0.20979106887E+04 0.  0.
        3    1    3    3  502    0 -0.84026204481E+03  0.12758891222E+03  0.10243758830E+04  0.13310391408E+04  0.10100000352E+00 0.  1.
       -3    1    3    3    0  502  0.84026204481E+03 -0.12758891222E+03 -0.28028970708E+03  0.89491986489E+03  0.10100000352E+00 0. -1.
</event>
<event>
 5   0  0.1615098E-06  0.2100020E+04  0.7818609E-02  0.8561235E-01
        1   -1    0    0  501    0  0.00000000000E+00  0.00000000000E+00  0.12663407620E+04  0.12663407620E+04  0.50400001928E-02 0. -1.
       -1   -1    0    0    0  501  0.00000000000E+00  0.00000000000E+00 -0.87063539452E+03  0.87063539453E+03  0.50400001928E-02 0.  1.
    10030    2    1    2    0    0  0.00000000000E+00  0.00000000000E+00  0.39570536748E+03  0.21369761565E+04  0.21000200846E+04 0.  0.
        1    1    3    3  502    0 -0.67281391215E+03 -0.27006773508E+03 -0.57505697781E+03  0.92536785640E+03  0.50400001928E-02 0.  1.
       -1    1    3    3    0  502  0.67281391215E+03  0.27006773508E+03  0.97076234529E+03  0.12116083001E+04  0.50400001928E-02 0. -1.
</event>
<event>
 5   0  0.3547583E-06  0.2098380E+04  0.7818609E-02  0.8561957E-01
        2   -1    0    0  501    0  0.00000000000E+00  0.00000000000E+00  0.92002273896E+03  0.92002273897E+03  0.25500000920E-02 0.  1.
       -2   -1    0    0    0  501  0.00000000000E+00  0.00000000000E+00 -0.11964921871E+04  0.11964921871E+04  0.25500000920E-02 0. -1.
    10030    2    1    2    0    0  0.00000000000E+00  0.00000000000E+00 -0.27646944813E+03  0.21165149261E+04  0.20983803460E+04 0.  0.
        2    1    3    3  502    0 -0.20155981796E+02  0.48496503022E+03  0.79996662353E+03  0.93570505123E+03  0.25500000920E-02 0.  1.
       -2    1    3    3    0  502  0.20155981796E+02 -0.48496503022E+03 -0.10764360717E+04  0.11808098748E+04  0.25500000920E-02 0. -1.
</event>
<event>
 5   0  0.1579820E-06  0.2099693E+04  0.7818609E-02  0.8561379E-01
        1   -1    0    0  501    0  0.00000000000E+00  0.00000000000E+00  0.15472563558E+04  0.15472563558E+04  0.50400001928E-02 0. -1.
       -1   -1    0    0    0  501  0.00000000000E+00  0.00000000000E+00 -0.71234340624E+03  0.71234340625E+03  0.50400001928E-02 0.  1.
    10030    2    1    2    0    0  0.00000000000E+00  0.00000000000E+00  0.83491294956E+03  0.22595997621E+04  0.20996931803E+04 0.  0.
        2    1    3    3  502    0  0.45845277297E+03 -0.63804780578E+03 -0.33191826541E+03  0.85290895319E+03  0.25500000920E-02 0.  1.
       -2    1    3    3    0  502 -0.45845277297E+03  0.63804780578E+03  0.11668312150E+04  0.14066908089E+04  0.25500000920E-02 0. -1.
</event>
<event>
 5   0  0.3547583E-06  0.2099914E+04  0.7818609E-02  0.8561281E-01
        2   -1    0    0  501    0  0.00000000000E+00  0.00000000000E+00  0.12971932577E+04  0.12971932577E+04  0.25500000920E-02 0.  1.
       -2   -1    0    0    0  501  0.00000000000E+00  0.00000000000E+00 -0.84984202697E+03  0.84984202697E+03  0.25500000920E-02 0. -1.
    10030    2    1    2    0    0  0.00000000000E+00  0.00000000000E+00  0.44735123073E+03  0.21470352847E+04  0.20999136625E+04 0.  0.
        2    1    3    3  502    0  0.80476073642E+03  0.12868287538E+03  0.90050467158E+03  0.12145401553E+04  0.25500000920E-02 0.  1.
       -2    1    3    3    0  502 -0.80476073642E+03 -0.12868287538E+03 -0.45315344086E+03  0.93249512936E+03  0.25500000920E-02 0. -1.
</event>
<event>
 5   0  0.3636435E-06  0.2099621E+04  0.7818609E-02  0.8561410E-01
        2   -1    0    0  501    0  0.00000000000E+00  0.00000000000E+00  0.19713416777E+04  0.19713416777E+04  0.25500000920E-02 0. -1.
       -2   -1    0    0    0  501  0.00000000000E+00  0.00000000000E+00 -0.55906193684E+03  0.55906193685E+03  0.25500000920E-02 0.  1.
    10030    2    1    2    0    0  0.00000000000E+00  0.00000000000E+00  0.14122797408E+04  0.25304036145E+04  0.20996210101E+04 0.  0.
        4    1    3    3  502    0  0.95248827583E+03 -0.93156878899E+02  0.18611375139E+03  0.97496259468E+03  0.12699999809E+01 0.  1.
       -4    1    3    3    0  502 -0.95248827583E+03  0.93156878899E+02  0.12261659894E+04  0.15554410198E+04  0.12699999809E+01 0. -1.
</event>
<event>
 5   0  0.1615098E-06  0.2101015E+04  0.7818609E-02  0.8560796E-01
        1   -1    0    0  501    0  0.00000000000E+00  0.00000000000E+00  0.13617082863E+04  0.13617082863E+04  0.50400001928E-02 0.  1.
       -1   -1    0    0    0  501  0.00000000000E+00  0.00000000000E+00 -0.81042764276E+03  0.81042764277E+03  0.50400001928E-02 0. -1.
    10030    2    1    2    0    0  0.00000000000E+00  0.00000000000E+00  0.55128064355E+03  0.21721359291E+04  0.21010150277E+04 0.  0.
        1    1    3    3  502    0  0.34182640185E+03  0.25250854219E+03 -0.71758852296E+03  0.83398989273E+03  0.50400001928E-02 0. -1.
       -1    1    3    3    0  502 -0.34182640185E+03 -0.25250854219E+03  0.12688691665E+04  0.13381460364E+04  0.50400001928E-02 0.  1.
</event>
<event>
 5   0  0.1653260E-06  0.2100071E+04  0.7818609E-02  0.8561212E-01
        1   -1    0    0  501    0  0.00000000000E+00  0.00000000000E+00  0.46670774020E+03  0.46670774022E+03  0.50400001928E-02 0.  1.
       -1   -1    0    0    0  501  0.00000000000E+00  0.00000000000E+00 -0.23624522099E+04  0.23624522099E+04  0.50400001928E-02 0. -1.
    10030    2    1    2    0    0  0.00000000000E+00  0.00000000000E+00 -0.18957444697E+04  0.28291599502E+04  0.21000711724E+04 0.  0.
        3    1    3    3  502    0  0.11290631290E+03 -0.38976242257E+03 -0.22525539229E+04  0.22888123050E+04  0.10100000352E+00 0. -1.
       -3    1    3    3    0  502 -0.11290631290E+03  0.38976242257E+03  0.35680945320E+03  0.54034764517E+03  0.10100000352E+00 0.  1.
</event>
<event>
 5   0  0.3574927E-06  0.2100583E+04  0.7818609E-02  0.8560986E-01
        2   -1    0    0  501    0  0.00000000000E+00  0.00000000000E+00  0.11431591579E+04  0.11431591579E+04  0.25500000920E-02 0. -1.
       -2   -1    0    0    0  501  0.00000000000E+00  0.00000000000E+00 -0.96496849922E+03  0.96496849923E+03  0.25500000920E-02 0.  1.
    10030    2    1    2    0    0  0.00000000000E+00  0.00000000000E+00  0.17819065863E+03  0.21081276571E+04  0.21005833256E+04 0.  0.
        3    1    3    3  502    0 -0.56637333462E+03 -0.67067242579E+03  0.66782255884E+03  0.11029810684E+04  0.10100000352E+00 0. -1.
       -3    1    3    3    0  502  0.56637333462E+03  0.67067242579E+03 -0.48963190021E+03  0.10051465887E+04  0.10100000352E+00 0.  1.
</event>
<event>
 5   0  0.1590067E-06  0.2099591E+04  0.7818609E-02  0.8561424E-01
        1   -1    0    0  501    0  0.00000000000E+00  0.00000000000E+00  0.15480011281E+04  0.15480011281E+04  0.50400001928E-02 0. -1.
       -1   -1    0    0    0  501  0.00000000000E+00  0.00000000000E+00 -0.71193105037E+03  0.71193105039E+03  0.50400001928E-02 0.  1.
    10030    2    1    2    0    0  0.00000000000E+00  0.00000000000E+00  0.83607007769E+03  0.22599321785E+04  0.20995905021E+04 0.  0.
        5    1    3    3  502    0  0.20915575097E+03 -0.10012435977E+04  0.16374525430E+03  0.10358906643E+04  0.46999998093E+01 0.  1.
       -5    1    3    3    0  502 -0.20915575097E+03  0.10012435977E+04  0.67232482339E+03  0.12240415141E+04  0.46999998093E+01 0. -1.
</event>
<event>
 5   0  0.1646510E-06  0.2100037E+04  0.7818609E-02  0.8561227E-01
       -1   -1    0    0    0  501  0.00000000000E+00  0.00000000000E+00  0.10523112122E+04  0.10523112123E+04  0.50400001928E-02 0. -1.
        1   -1    0    0  501    0  0.00000000000E+00  0.00000000000E+00 -0.10477302998E+04  0.10477302998E+04  0.50400001928E-02 0.  1.
    10030    2    1    2    0    0  0.00000000000E+00  0.00000000000E+00  0.45809124354E+01  0.21000415121E+04  0.21000365158E+04 0.  0.
        4    1    3    3  502    0  0.15786127437E+03  0.74862484126E+03 -0.71686172169E+03  0.10484520379E+04  0.12699999809E+01 0.  1.
       -4    1    3    3    0  502 -0.15786127437E+03 -0.74862484126E+03  0.72144263413E+03  0.10515894741E+04  0.12699999809E+01 0. -1.
</event>
<event>
 5   0  0.3636435E-06  0.2099877E+04  0.7818609E-02  0.8561298E-01
        2   -1    0    0  501    0  0.00000000000E+00  0.00000000000E+00  0.10399958996E+04  0.10399958996E+04  0.25500000920E-02 0.  1.
       -2   -1    0    0    0  501  0.00000000000E+00  0.00000000000E+00 -0.10599760763E+04  0.10599760763E+04  0.25500000920E-02 0. -1.
    10030    2    1    2    0    0  0.00000000000E+00  0.00000000000E+00 -0.19980176714E+02  0.20999719758E+04  0.20998769230E+04 0.  0.
        4    1    3    3  502    0 -0.57467556129E+03  0.78320541679E+03  0.38840770623E+03  0.10461954334E+04  0.12699999809E+01 0. -1.
       -4    1    3    3    0  502  0.57467556129E+03 -0.78320541679E+03 -0.40838788295E+03  0.10537765425E+04  0.12699999809E+01 0.  1.
</event>
<event>
 5   0  0.3480134E-06  0.2099377E+04  0.7818609E-02  0.8561518E-01
       -2   -1    0    0    0  501  0.00000000000E+00  0.00000000000E+00  0.46408569374E+03  0.46408569375E+03  0.25500000920E-02 0. -1.
        2   -1    0    0  501    0  0.00000000000E+00  0.00000000000E+00 -0.23742285740E+04  0.23742285740E+04  0.25500000920E-02 0.  1.
    10030    2    1    2    0    0  0.00000000000E+00  0.00000000000E+00 -0.19101428803E+04  0.28383142678E+04  0.20993765883E+04 0.  0.
        1    1    3    3  502    0  0.14939270503E+03  0.44350153004E+03  0.31523818510E+03  0.56425783188E+03  0.50400001928E-02 0. -1.
       -1    1    3    3    0  502 -0.14939270503E+03 -0.44350153004E+03 -0.22253810654E+04  0.22740564359E+04  0.50400001928E-02 0.  1.
</event>
<event>
 5   0  0.1579820E-06  0.2100866E+04  0.7818609E-02  0.8560862E-01
        1   -1    0    0  501    0  0.00000000000E+00  0.00000000000E+00  0.27358946889E+04  0.27358946889E+04  0.50400001928E-02 0.  1.
       -1   -1    0    0    0  501  0.00000000000E+00  0.00000000000E+00 -0.40330851526E+03  0.40330851529E+03  0.50400001928E-02 0. -1.
    10030    2    1    2    0    0  0.00000000000E+00  0.00000000000E+00  0.23325861737E+04  0.31392032042E+04  0.21008661309E+04 0.  0.
        2    1    3    3  502    0 -0.10194636631E+04  0.94941825772E+02  0.15170090397E+04  0.18302012286E+04  0.25500000920E-02 0.  1.
       -2    1    3    3    0  502  0.10194636631E+04 -0.94941825772E+02  0.81557713396E+03  0.13090019756E+04  0.25500000920E-02 0. -1.
</event>
<event>
 5   0  0.3547583E-06  0.2111941E+04  0.7818609E-02  0.8556001E-01
        2   -1    0    0  501    0  0.00000000000E+00  0.00000000000E+00  0.11478169039E+04  0.11478169039E+04  0.25500000920E-02 0. -1.
       -2   -1    0    0    0  501  0.00000000000E+00  0.00000000000E+00 -0.97147367149E+03  0.97147367149E+03  0.25500000920E-02 0.  1.
    10030    2    1    2    0    0  0.00000000000E+00  0.00000000000E+00  0.17634323244E+03  0.21192905754E+04  0.21119411941E+04 0.  0.
        2    1    3    3  502    0 -0.18345364470E+03 -0.47095284920E+03  0.10185561140E+04  0.11370612927E+04  0.25500000920E-02 0. -1.
       -2    1    3    3    0  502  0.18345364470E+03  0.47095284920E+03 -0.84221288159E+03  0.98222928272E+03  0.25500000920E-02 0.  1.
</event>
<event>
 5   0  0.3480134E-06  0.2099512E+04  0.7818609E-02  0.8561458E-01
        2   -1    0    0  501    0  0.00000000000E+00  0.00000000000E+00  0.17683530136E+04  0.17683530136E+04  0.25500000920E-02 0. -1.
       -2   -1    0    0    0  501  0.00000000000E+00  0.00000000000E+00 -0.62317195758E+03  0.62317195758E+03  0.25500000920E-02 0.  1.
    10030    2    1    2    0    0  0.00000000000E+00  0.00000000000E+00  0.11451810560E+04  0.23915249712E+04  0.20995123331E+04 0.  0.
        1    1    3    3  502    0  0.83007587682E+03  0.51439992630E+02  0.13022424028E+04  0.15451560795E+04  0.50400001928E-02 0. -1.
       -1    1    3    3    0  502 -0.83007587682E+03 -0.51439992630E+02 -0.15706134685E+03  0.84636889169E+03  0.50400001928E-02 0.  1.
</event>
<event>
 5   0  0.3574927E-06  0.2099958E+04  0.7818609E-02  0.8561262E-01
        2   -1    0    0  501    0  0.00000000000E+00  0.00000000000E+00  0.15667556578E+04  0.15667556578E+04  0.25500000920E-02 0. -1.
       -2   -1    0    0    0  501  0.00000000000E+00  0.00000000000E+00 -0.70365495899E+03  0.70365495899E+03  0.25500000920E-02 0.  1.
    10030    2    1    2    0    0  0.00000000000E+00  0.00000000000E+00  0.86310069880E+03  0.22704106168E+04  0.20999575121E+04 0.  0.
        3    1    3    3  502    0  0.52671481208E+03 -0.19959847317E+03  0.13895835147E+04  0.14994033474E+04  0.10100000352E+00 0. -1.
       -3    1    3    3    0  502 -0.52671481208E+03  0.19959847317E+03 -0.52648281590E+03  0.77100726935E+03  0.10100000352E+00 0.  1.
</event>
<event>
 5   0  0.3547583E-06  0.2099887E+04  0.7818609E-02  0.8561293E-01
        2   -1    0    0  501    0  0.00000000000E+00  0.00000000000E+00  0.16620308255E+04  0.16620308255E+04  0.25500000920E-02 0. -1.
       -2   -1    0    0    0  501  0.00000000000E+00  0.00000000000E+00 -0.66327340505E+03  0.66327340506E+03  0.25500000920E-02 0.  1.
    10030    2    1    2    0    0  0.00000000000E+00  0.00000000000E+00  0.99875742040E+03  0.23253042305E+04  0.20998865159E+04 0.  0.
        2    1    3    3  502    0  0.30113194930E+03  0.85388763609E+03 -0.89264072114E+02  0.90982010339E+03  0.25500000920E-02 0.  1.
       -2    1    3    3    0  502 -0.30113194930E+03 -0.85388763609E+03  0.10880214925E+04  0.14154841271E+04  0.25500000920E-02 0. -1.
</event>
<event>
 5   0  0.1590067E-06  0.2100031E+04  0.7818609E-02  0.8561230E-01
       -1   -1    0    0    0  501  0.00000000000E+00  0.00000000000E+00  0.47971238861E+03  0.47971238864E+03  0.50400001928E-02 0. -1.
        1   -1    0    0  501    0  0.00000000000E+00  0.00000000000E+00 -0.22983201625E+04  0.22983201625E+04  0.50400001928E-02 0.  1.
    10030    2    1    2    0    0  0.00000000000E+00  0.00000000000E+00 -0.18186077739E+04  0.27780325512E+04  0.21000310998E+04 0.  0.
        5    1    3    3  502    0 -0.75524195671E+03  0.31365365556E+03 -0.38085343650E+02  0.81868285204E+03  0.46999998093E+01 0.  1.
       -5    1    3    3    0  502  0.75524195671E+03 -0.31365365556E+03 -0.17805224303E+04  0.19593496991E+04  0.46999998093E+01 0. -1.
</event>
<event>
 5   0  0.3636435E-06  0.2100371E+04  0.7818609E-02  0.8561080E-01
       -2   -1    0    0    0  501  0.00000000000E+00  0.00000000000E+00  0.65626479608E+03  0.65626479608E+03  0.25500000920E-02 0.  1.
        2   -1    0    0  501    0  0.00000000000E+00  0.00000000000E+00 -0.16805562877E+04  0.16805562877E+04  0.25500000920E-02 0. -1.
    10030    2    1    2    0    0  0.00000000000E+00  0.00000000000E+00 -0.10242914916E+04  0.23368210837E+04  0.21003713285E+04 0.  0.
        4    1    3    3  502    0 -0.62058292946E+03  0.23770804674E+03 -0.14168685078E+04  0.15649748462E+04  0.12699999809E+01 0. -1.
       -4    1    3    3    0  502  0.62058292946E+03 -0.23770804674E+03  0.39257701626E+03  0.77184623755E+03  0.12699999809E+01 0.  1.
</event>
<event>
 5   0  0.1653260E-06  0.2099660E+04  0.7818609E-02  0.8561393E-01
        1   -1    0    0  501    0  0.00000000000E+00  0.00000000000E+00  0.19045536189E+04  0.19045536189E+04  0.50400001928E-02 0. -1.
       -1   -1    0    0    0  501  0.00000000000E+00  0.00000000000E+00 -0.57868811109E+03  0.57868811111E+03  0.50400001928E-02 0.  1.
    10030    2    1    2    0    0  0.00000000000E+00  0.00000000000E+00  0.13258655078E+04  0.24832417300E+04  0.20996595307E+04 0.  0.
        3    1    3    3  502    0 -0.30818534180E+03 -0.17890532508E+03  0.18308375377E+04  0.18651947404E+04  0.10100000352E+00 0. -1.
       -3    1    3    3    0  502  0.30818534180E+03  0.17890532508E+03 -0.50497202983E+03  0.61804698960E+03  0.10100000352E+00 0.  1.
</event>
<event>
 5   0  0.1615098E-06  0.2099747E+04  0.7818609E-02  0.8561355E-01
       -1   -1    0    0    0  501  0.00000000000E+00  0.00000000000E+00  0.86435051374E+03  0.86435051375E+03  0.50400001928E-02 0.  1.
        1   -1    0    0  501    0  0.00000000000E+00  0.00000000000E+00 -0.12752171324E+04  0.12752171324E+04  0.50400001928E-02 0. -1.
    10030    2    1    2    0    0  0.00000000000E+00  0.00000000000E+00 -0.41086661868E+03  0.21395676462E+04  0.20997472072E+04 0.  0.
        1    1    3    3  502    0 -0.83950155350E+03 -0.43620245416E+03 -0.66925706525E+03  0.11588530790E+04  0.50400001928E-02 0. -1.
       -1    1    3    3    0  502  0.83950155350E+03  0.43620245416E+03  0.25839044658E+03  0.98071456716E+03  0.50400001928E-02 0.  1.
</event>
<event>
 5   0  0.3574927E-06  0.2101810E+04  0.7818609E-02  0.8560446E-01
       -2   -1    0    0    0  501  0.00000000000E+00  0.00000000000E+00  0.71766304964E+03  0.71766304965E+03  0.25500000920E-02 0. -1.
        2   -1    0    0  501    0  0.00000000000E+00  0.00000000000E+00 -0.15388858323E+04  0.15388858323E+04  0.25500000920E-02 0.  1.
    10030    2    1    2    0    0  0.00000000000E+00  0.00000000000E+00 -0.82122278263E+03  0.22565488819E+04  0.21018101717E+04 0.  0.
        3    1    3    3  502    0  0.97421558859E+03  0.34846052351E+02 -0.83205572155E+03  0.12816501061E+04  0.10100000352E+00 0. -1.
       -3    1    3    3    0  502 -0.97421558859E+03 -0.34846052351E+02  0.10832938921E+02  0.97489877586E+03  0.10100000352E+00 0.  1.
</event>
<event>
 5   0  0.1257125E-06  0.2099529E+04  0.7818609E-02  0.8561451E-01
       -3   -1    0    0    0  501  0.00000000000E+00  0.00000000000E+00  0.24889600687E+04  0.24889600707E+04  0.10100000352E+00 0.  1.
        3   -1    0    0  501    0  0.00000000000E+00  0.00000000000E+00 -0.44275740399E+03  0.44275741551E+03  0.10100000352E+00 0. -1.
    10030    2    1    2    0    0  0.00000000000E+00  0.00000000000E+00  0.20462026647E+04  0.29317174863E+04  0.20995290125E+04 0.  0.
        4    1    3    3  502    0 -0.59223329226E+03  0.74700035087E+03  0.40924801754E+03  0.10374176350E+04  0.12699999809E+01 0. -1.
       -4    1    3    3    0  502  0.59223329226E+03 -0.74700035087E+03  0.16369546472E+04  0.18942998513E+04  0.12699999809E+01 0.  1.
</event>
<event>
 5   0  0.1653260E-06  0.2100000E+04  0.7818609E-02  0.8561243E-01
        1   -1    0    0  501    0  0.00000000000E+00  0.00000000000E+00  0.11665636260E+04  0.11665636260E+04  0.50400001928E-02 0.  1.
       -1   -1    0    0    0  501  0.00000000000E+00  0.00000000000E+00 -0.94508325217E+03  0.94508325219E+03  0.50400001928E-02 0. -1.
    10030    2    1    2    0    0  0.00000000000E+00  0.00000000000E+00  0.22148037387E+03  0.21116468782E+04  0.20999997577E+04 0.  0.
        3    1    3    3  502    0  0.34525058160E+03 -0.48816951200E+03  0.97865668080E+03  0.11468549802E+04  0.10100000352E+00 0.  1.
       -3    1    3    3    0  502 -0.34525058160E+03  0.48816951200E+03 -0.75717630693E+03  0.96479189804E+03  0.10100000352E+00 0. -1.
</event>
<event>
 5   0  0.1646510E-06  0.2102894E+04  0.7818609E-02  0.8559970E-01
        1   -1    0    0  501    0  0.00000000000E+00  0.00000000000E+00  0.14540874062E+04  0.14540874062E+04  0.50400001928E-02 0.  1.
       -1   -1    0    0    0  501  0.00000000000E+00  0.00000000000E+00 -0.76029852379E+03  0.76029852381E+03  0.50400001928E-02 0. -1.
    10030    2    1    2    0    0  0.00000000000E+00  0.00000000000E+00  0.69378888243E+03  0.22143859300E+04  0.21028937286E+04 0.  0.
        4    1    3    3  502    0 -0.77922222191E+03 -0.55585418497E+03 -0.11135343735E+03  0.96361939944E+03  0.12699999809E+01 0. -1.
       -4    1    3    3    0  502  0.77922222191E+03  0.55585418497E+03  0.80514231978E+03  0.12507665306E+04  0.12699999809E+01 0.  1.
</event>
<event>
 5   0  0.1590067E-06  0.2099457E+04  0.7818609E-02  0.8561483E-01
        1   -1    0    0  501    0  0.00000000000E+00  0.00000000000E+00  0.12906365538E+04  0.12906365538E+04  0.50400001928E-02 0. -1.
       -1   -1    0    0    0  501  0.00000000000E+00  0.00000000000E+00 -0.85378778713E+03  0.85378778714E+03  0.50400001928E-02 0.  1.
    10030    2    1    2    0    0  0.00000000000E+00  0.00000000000E+00  0.43684876668E+03  0.21444243410E+04  0.20994568129E+04 0.  0.
        5    1    3    3  502    0  0.15937457215E+03 -0.75541605268E+02  0.12753833714E+04  0.12875292705E+04  0.46999998093E+01 0. -1.
       -5    1    3    3    0  502 -0.15937457215E+03  0.75541605268E+02 -0.83853460474E+03  0.85689507043E+03  0.46999998093E+01 0.  1.
</event>
<event>
 5   0  0.1646510E-06  0.2100152E+04  0.7818609E-02  0.8561176E-01
        1   -1    0    0  501    0  0.00000000000E+00  0.00000000000E+00  0.11238286297E+04  0.11238286297E+04  0.50400001928E-02 0.  1.
       -1   -1    0    0    0  501  0.00000000000E+00  0.00000000000E+00 -0.98116339920E+03  0.98116339922E+03  0.50400001928E-02 0. -1.
    10030    2    1    2    0    0  0.00000000000E+00  0.00000000000E+00  0.14266523050E+03  0.21049920289E+04  0.21001519169E+04 0.  0.
        4    1    3    3  502    0  0.87242898246E+03 -0.42169597146E+03 -0.33419603523E+03  0.10250114266E+04  0.12699999809E+01 0. -1.
       -4    1    3    3    0  502 -0.87242898246E+03  0.42169597146E+03  0.47686126573E+03  0.10799806023E+04  0.12699999809E+01 0.  1.
</event>
<event>
 5   0  0.3574927E-06  0.2102901E+04  0.7818609E-02  0.8559967E-01
       -2   -1    0    0    0  501  0.00000000000E+00  0.00000000000E+00  0.45099627732E+03  0.45099627732E+03  0.25500000920E-02 0. -1.
        2   -1    0    0  501    0  0.00000000000E+00  0.00000000000E+00 -0.24513456482E+04  0.24513456482E+04  0.25500000920E-02 0.  1.
    10030    2    1    2    0    0  0.00000000000E+00  0.00000000000E+00 -0.20003493709E+04  0.29023419256E+04  0.21029006270E+04 0.  0.
        3    1    3    3  502    0 -0.14471129305E+03 -0.57800959763E+03  0.19548735670E+03  0.62709789516E+03  0.10100000352E+00 0. -1.
       -3    1    3    3    0  502  0.14471129305E+03  0.57800959763E+03 -0.21958367276E+04  0.22752440304E+04  0.10100000352E+00 0.  1.
</event>
<event>
 5   0  0.1615098E-06  0.2100327E+04  0.7818609E-02  0.8561099E-01
       -1   -1    0    0    0  501  0.00000000000E+00  0.00000000000E+00  0.10445749581E+04  0.10445749581E+04  0.50400001928E-02 0.  1.
        1   -1    0    0  501    0  0.00000000000E+00  0.00000000000E+00 -0.10557823198E+04  0.10557823198E+04  0.50400001928E-02 0. -1.
    10030    2    1    2    0    0  0.00000000000E+00  0.00000000000E+00 -0.11207361715E+02  0.21003572779E+04  0.21003273768E+04 0.  0.
        1    1    3    3  502    0 -0.10943739245E+03 -0.52949006440E+03  0.89469103690E+03  0.10453747284E+04  0.50400001928E-02 0.  1.
       -1    1    3    3    0  502  0.10943739245E+03  0.52949006440E+03 -0.90589839861E+03  0.10549825495E+04  0.50400001928E-02 0. -1.
</event>
<event>
 5   0  0.3574927E-06  0.2100314E+04  0.7818609E-02  0.8561105E-01
        2   -1    0    0  501    0  0.00000000000E+00  0.00000000000E+00  0.26283238507E+04  0.26283238507E+04  0.25500000920E-02 0. -1.
       -2   -1    0    0    0  501  0.00000000000E+00  0.00000000000E+00 -0.41959433308E+03  0.41959433309E+03  0.25500000920E-02 0.  1.
    10030    2    1    2    0    0  0.00000000000E+00  0.00000000000E+00  0.22087295177E+04  0.30479181838E+04  0.21003140653E+04 0.  0.
        3    1    3    3  502    0  0.97766262158E+03  0.29698357834E+03  0.75245515163E+03  0.12689413749E+04  0.10100000352E+00 0. -1.
       -3    1    3    3    0  502 -0.97766262158E+03 -0.29698357834E+03  0.14562743660E+04  0.17789768090E+04  0.10100000352E+00 0.  1.
</event>
<event>
 5   0  0.3636435E-06  0.2099135E+04  0.7818609E-02  0.8561625E-01
       -2   -1    0    0    0  501  0.00000000000E+00  0.00000000000E+00  0.11763117744E+04  0.11763117744E+04  0.25500000920E-02 0.  1.
        2   -1    0    0  501    0  0.00000000000E+00  0.00000000000E+00 -0.93647951037E+03  0.93647951037E+03  0.25500000920E-02 0. -1.
    10030    2    1    2    0    0  0.00000000000E+00  0.00000000000E+00  0.23983226403E+03  0.21127912848E+04  0.20991349404E+04 0.  0.
        4    1    3    3  502    0 -0.46016593678E+03 -0.65385388019E+03 -0.56444311481E+03  0.97871100370E+03  0.12699999809E+01 0. -1.
       -4    1    3    3    0  502  0.46016593678E+03  0.65385388019E+03  0.80427537883E+03  0.11340802811E+04  0.12699999809E+01 0.  1.
</event>
<event>
 5   0  0.1646510E-06  0.2099967E+04  0.7818609E-02  0.8561258E-01
        1   -1    0    0  501    0  0.00000000000E+00  0.00000000000E+00  0.87124779642E+03  0.87124779644E+03  0.50400001928E-02 0. -1.
       -1   -1    0    0    0  501  0.00000000000E+00  0.00000000000E+00 -0.12653862477E+04  0.12653862477E+04  0.50400001928E-02 0.  1.
    10030    2    1    2    0    0  0.00000000000E+00  0.00000000000E+00 -0.39413845125E+03  0.21366340441E+04  0.20999666473E+04 0.  0.
        4    1    3    3  502    0 -0.69695051119E+03 -0.75038806816E+03 -0.43271875732E+03  0.11117865819E+04  0.12699999809E+01 0.  1.
       -4    1    3    3    0  502  0.69695051119E+03  0.75038806816E+03  0.38580306067E+02  0.10248474622E+04  0.12699999809E+01 0. -1.
</event>
<event>
 5   0  0.1615098E-06  0.2099881E+04  0.7818609E-02  0.8561296E-01
        1   -1    0    0  501    0  0.00000000000E+00  0.00000000000E+00  0.12135069484E+04  0.12135069484E+04  0.50400001928E-02 0.  1.
       -1   -1    0    0    0  501  0.00000000000E+00  0.00000000000E+00 -0.90842125711E+03  0.90842125713E+03  0.50400001928E-02 0. -1.
    10030    2    1    2    0    0  0.00000000000E+00  0.00000000000E+00  0.30508569124E+03  0.21219282055E+04  0.20998814324E+04 0.  0.
        1    1    3    3  502    0  0.42010653850E+03 -0.91652445077E+03  0.44865344300E+03  0.11035381663E+04  0.50400001928E-02 0.  1.
       -1    1    3    3    0  502 -0.42010653850E+03  0.91652445077E+03 -0.14356775176E+03  0.10183900392E+04  0.50400001928E-02 0. -1.
</event>
<event>
 5   0  0.3547583E-06  0.2099865E+04  0.7818609E-02  0.8561303E-01
        2   -1    0    0  501    0  0.00000000000E+00  0.00000000000E+00  0.39234042621E+03  0.39234042621E+03  0.25500000920E-02 0. -1.
       -2   -1    0    0    0  501  0.00000000000E+00  0.00000000000E+00 -0.28096984396E+04  0.28096984396E+04  0.25500000920E-02 0.  1.
    10030    2    1    2    0    0  0.00000000000E+00  0.00000000000E+00 -0.24173580134E+04  0.32020388658E+04  0.20998650274E+04 0.  0.
        2    1    3    3  502    0  0.43405096081E+03  0.68578967568E+03 -0.22243562900E+04  0.23677982644E+04  0.25500000920E-02 0.  1.
       -2    1    3    3    0  502 -0.43405096081E+03 -0.68578967568E+03 -0.19300172337E+03  0.83424060144E+03  0.25500000920E-02 0. -1.
</event>
<event>
 5   0  0.3574927E-06  0.2099992E+04  0.7818609E-02  0.8561247E-01
        2   -1    0    0  501    0  0.00000000000E+00  0.00000000000E+00  0.15261490336E+04  0.15261490336E+04  0.25500000920E-02 0. -1.
       -2   -1    0    0    0  501  0.00000000000E+00  0.00000000000E+00 -0.72240077462E+03  0.72240077463E+03  0.25500000920E-02 0.  1.
    10030    2    1    2    0    0  0.00000000000E+00  0.00000000000E+00  0.80374825898E+03  0.22485498082E+04  0.20999916610E+04 0.  0.
        3    1    3    3  502    0 -0.10459684982E+03 -0.43568537020E+03 -0.61489641970E+03  0.76082840375E+03  0.10100000352E+00 0.  1.
       -3    1    3    3    0  502  0.10459684982E+03  0.43568537020E+03  0.14186446787E+04  0.14877214045E+04  0.10100000352E+00 0. -1.
</event>
<event>
 5   0  0.1646510E-06  0.2100053E+04  0.7818609E-02  0.8561220E-01
       -1   -1    0    0    0  501  0.00000000000E+00  0.00000000000E+00  0.54132273316E+03  0.54132273318E+03  0.50400001928E-02 0.  1.
        1   -1    0    0  501    0  0.00000000000E+00  0.00000000000E+00 -0.20367810273E+04  0.20367810273E+04  0.50400001928E-02 0. -1.
    10030    2    1    2    0    0  0.00000000000E+00  0.00000000000E+00 -0.14954582942E+04  0.25781037605E+04  0.21000532113E+04 0.  0.
        4    1    3    3  502    0  0.32858727760E+02 -0.74281330913E+03  0.16246518694E+03  0.76108334502E+03  0.12699999809E+01 0.  1.
       -4    1    3    3    0  502 -0.32858727760E+02  0.74281330913E+03 -0.16579234811E+04  0.18170204155E+04  0.12699999809E+01 0. -1.
</event>
<event>
 5   0  0.1579820E-06  0.2100199E+04  0.7818609E-02  0.8561156E-01
       -1   -1    0    0    0  501  0.00000000000E+00  0.00000000000E+00  0.49526787063E+03  0.49526787065E+03  0.50400001928E-02 0. -1.
        1   -1    0    0  501    0  0.00000000000E+00  0.00000000000E+00 -0.22264898332E+04  0.22264898332E+04  0.50400001928E-02 0.  1.
    10030    2    1    2    0    0  0.00000000000E+00  0.00000000000E+00 -0.17312219625E+04  0.27217577038E+04  0.21001989227E+04 0.  0.
        2    1    3    3  502    0  0.74676960676E+03 -0.73677329470E+03 -0.92652274486E+03  0.13996228528E+04  0.25500000920E-02 0.  1.
       -2    1    3    3    0  502 -0.74676960676E+03  0.73677329470E+03 -0.80469921769E+03  0.13221348510E+04  0.25500000920E-02 0. -1.
</event>
<event>
 5   0  0.1615098E-06  0.2100056E+04  0.7818609E-02  0.8561219E-01
        1   -1    0    0  501    0  0.00000000000E+00  0.00000000000E+00  0.11642170424E+04  0.11642170424E+04  0.50400001928E-02 0. -1.
       -1   -1    0    0    0  501  0.00000000000E+00  0.00000000000E+00 -0.94703902683E+03  0.94703902684E+03  0.50400001928E-02 0.  1.
    10030    2    1    2    0    0  0.00000000000E+00  0.00000000000E+00  0.21717801553E+03  0.21112560692E+04  0.21000561658E+04 0.  0.
        1    1    3    3  502    0 -0.45205314393E+03  0.41106564948E+03 -0.74991603124E+03  0.96731642551E+03  0.50400001928E-02 0.  1.
       -1    1    3    3    0  502  0.45205314393E+03 -0.41106564948E+03  0.96709404678E+03  0.11439396437E+04  0.50400001928E-02 0. -1.
</event>
<event>
 5   0  0.3547583E-06  0.2099093E+04  0.7818609E-02  0.8561643E-01
       -2   -1    0    0    0  501  0.00000000000E+00  0.00000000000E+00  0.84358920940E+03  0.84358920940E+03  0.25500000920E-02 0.  1.
        2   -1    0    0  501    0  0.00000000000E+00  0.00000000000E+00 -0.13057876138E+04  0.13057876138E+04  0.25500000920E-02 0. -1.
    10030    2    1    2    0    0  0.00000000000E+00  0.00000000000E+00 -0.46219840444E+03  0.21493768232E+04  0.20990934622E+04 0.  0.
        2    1    3    3  502    0  0.93179599818E+03  0.10587646951E+03 -0.71365764017E+03  0.11784569727E+04  0.25500000920E-02 0. -1.
       -2    1    3    3    0  502 -0.93179599818E+03 -0.10587646951E+03  0.25145923574E+03  0.97091985059E+03  0.25500000920E-02 0.  1.
</event>
<event>
 5   0  0.1590067E-06  0.2100310E+04  0.7818609E-02  0.8561107E-01
        1   -1    0    0  501    0  0.00000000000E+00  0.00000000000E+00  0.12878326065E+04  0.12878326065E+04  0.50400001928E-02 0.  1.
       -1   -1    0    0    0  501  0.00000000000E+00  0.00000000000E+00 -0.85634266421E+03  0.85634266422E+03  0.50400001928E-02 0. -1.
    10030    2    1    2    0    0  0.00000000000E+00  0.00000000000E+00  0.43148994228E+03  0.21441752707E+04  0.21003104583E+04 0.  0.
        5    1    3    3  502    0 -0.84619741906E+03 -0.35166984297E+03 -0.30788258260E+03  0.96671377623E+03  0.46999998093E+01 0. -1.
       -5    1    3    3    0  502  0.84619741906E+03  0.35166984297E+03  0.73937252489E+03  0.11774614945E+04  0.46999998093E+01 0.  1.
</event>
<event>
 5   0  0.1653260E-06  0.2100918E+04  0.7818609E-02  0.8560839E-01
        1   -1    0    0  501    0  0.00000000000E+00  0.00000000000E+00  0.10657309944E+04  0.10657309944E+04  0.50400001928E-02 0. -1.
       -1   -1    0    0    0  501  0.00000000000E+00  0.00000000000E+00 -0.10354060514E+04  0.10354060514E+04  0.50400001928E-02 0.  1.
    10030    2    1    2    0    0  0.00000000000E+00  0.00000000000E+00  0.30324942983E+02  0.21011370459E+04  0.21009182001E+04 0.  0.
        3    1    3    3  502    0 -0.50719021353E+03 -0.88378635419E+03 -0.24009749501E+03  0.10468844491E+04  0.10100000352E+00 0.  1.
       -3    1    3    3    0  502  0.50719021353E+03  0.88378635419E+03  0.27042243800E+03  0.10542525967E+04  0.10100000352E+00 0. -1.
</event>
<event>
 5   0  0.3574927E-06  0.2092493E+04  0.7818609E-02  0.8564558E-01
        2   -1    0    0  501    0  0.00000000000E+00  0.00000000000E+00  0.17838799853E+04  0.17838799853E+04  0.25500000920E-02 0. -1.
       -2   -1    0    0    0  501  0.00000000000E+00  0.00000000000E+00 -0.61362395887E+03  0.61362395887E+03  0.25500000920E-02 0.  1.
    10030    2    1    2    0    0  0.00000000000E+00  0.00000000000E+00  0.11702560264E+04  0.23975039442E+04  0.20924927706E+04 0.  0.
        3    1    3    3  502    0  0.18527321461E+03 -0.73877733511E+02  0.17618942071E+04  0.17731484120E+04  0.10100000352E+00 0. -1.
       -3    1    3    3    0  502 -0.18527321461E+03  0.73877733511E+02 -0.59163818068E+03  0.62435553221E+03  0.10100000352E+00 0.  1.
</event>
<event>
 5   0  0.3574927E-06  0.2099691E+04  0.7818609E-02  0.8561379E-01
       -2   -1    0    0    0  501  0.00000000000E+00  0.00000000000E+00  0.47699952382E+03  0.47699952382E+03  0.25500000920E-02 0. -1.
        2   -1    0    0  501    0  0.00000000000E+00  0.00000000000E+00 -0.23106434200E+04  0.23106434200E+04  0.25500000920E-02 0.  1.
    10030    2    1    2    0    0  0.00000000000E+00  0.00000000000E+00 -0.18336438962E+04  0.27876429438E+04  0.20996912259E+04 0.  0.
        3    1    3    3  502    0  0.34148036502E+02  0.25343232780E+03 -0.22686622459E+04  0.22830292222E+04  0.10100000352E+00 0.  1.
       -3    1    3    3    0  502 -0.34148036502E+02 -0.25343232780E+03  0.43501834977E+03  0.50461372158E+03  0.10100000352E+00 0. -1.
</event>
<event>
 5   0  0.1615098E-06  0.2099126E+04  0.7818609E-02  0.8561628E-01
       -1   -1    0    0    0  501  0.00000000000E+00  0.00000000000E+00  0.11048988233E+04  0.11048988233E+04  0.50400001928E-02 0.  1.
        1   -1    0    0  501    0  0.00000000000E+00  0.00000000000E+00 -0.99699897566E+03  0.99699897567E+03  0.50400001928E-02 0. -1.
    10030    2    1    2    0    0  0.00000000000E+00  0.00000000000E+00  0.10789984761E+03  0.21018977990E+04  0.20991264803E+04 0.  0.
        1    1    3    3  502    0 -0.88421886295E+03  0.28082458306E+03 -0.43749081099E+03  0.10257210409E+04  0.50400001928E-02 0. -1.
       -1    1    3    3    0  502  0.88421886295E+03 -0.28082458306E+03  0.54539065860E+03  0.10761767580E+04  0.50400001928E-02 0.  1.
</event>
<event>
 5   0  0.3480134E-06  0.2100152E+04  0.7818609E-02  0.8561176E-01
       -2   -1    0    0    0  501  0.00000000000E+00  0.00000000000E+00  0.12867392237E+04  0.12867392237E+04  0.25500000920E-02 0.  1.
        2   -1    0    0  501    0  0.00000000000E+00  0.00000000000E+00 -0.85694092023E+03  0.85694092023E+03  0.25500000920E-02 0. -1.
    10030    2    1    2    0    0  0.00000000000E+00  0.00000000000E+00  0.42979830345E+03  0.21436801439E+04  0.21001518940E+04 0.  0.
        1    1    3    3  502    0  0.31031194968E+03 -0.13739307612E+03 -0.79942190438E+03  0.86847322625E+03  0.50400001928E-02 0. -1.
       -1    1    3    3    0  502 -0.31031194968E+03  0.13739307612E+03  0.12292202078E+04  0.12752069177E+04  0.50400001928E-02 0.  1.
</event>
<event>
 5   0  0.1579820E-06  0.2099821E+04  0.7818609E-02  0.8561322E-01
        1   -1    0    0  501    0  0.00000000000E+00  0.00000000000E+00  0.10840922238E+04  0.10840922238E+04  0.50400001928E-02 0.  1.
       -1   -1    0    0    0  501  0.00000000000E+00  0.00000000000E+00 -0.10168062039E+04  0.10168062040E+04  0.50400001928E-02 0. -1.
    10030    2    1    2    0    0  0.00000000000E+00  0.00000000000E+00  0.67286019870E+02  0.21008984278E+04  0.20998206579E+04 0.  0.
        2    1    3    3  502    0 -0.76833508744E+03  0.58686438826E+03  0.44319781161E+03  0.10635661319E+04  0.25500000920E-02 0.  1.
       -2    1    3    3    0  502  0.76833508744E+03 -0.58686438826E+03 -0.37591179174E+03  0.10373322958E+04  0.25500000920E-02 0. -1.
</event>
<event>
 5   0  0.1615098E-06  0.2099819E+04  0.7818609E-02  0.8561323E-01
        1   -1    0    0  501    0  0.00000000000E+00  0.00000000000E+00  0.15873195371E+04  0.15873195372E+04  0.50400001928E-02 0.  1.
       -1   -1    0    0    0  501  0.00000000000E+00  0.00000000000E+00 -0.69444741729E+03  0.69444741731E+03  0.50400001928E-02 0. -1.
    10030    2    1    2    0    0  0.00000000000E+00  0.00000000000E+00  0.89287211986E+03  0.22817669545E+04  0.20998189951E+04 0.  0.
        1    1    3    3  502    0 -0.16727217048E+03  0.35722163664E+03 -0.61087023032E+03  0.72715178265E+03  0.50400001928E-02 0. -1.
       -1    1    3    3    0  502  0.16727217048E+03 -0.35722163664E+03  0.15037423502E+04  0.15546151718E+04  0.50400001928E-02 0.  1.
</event>
<event>
 5   0  0.1579820E-06  0.2100599E+04  0.7818609E-02  0.8560979E-01
        1   -1    0    0  501    0  0.00000000000E+00  0.00000000000E+00  0.13099325762E+04  0.13099325762E+04  0.50400001928E-02 0. -1.
       -1   -1    0    0    0  501  0.00000000000E+00  0.00000000000E+00 -0.84212697674E+03  0.84212697675E+03  0.50400001928E-02 0.  1.
    10030    2    1    2    0    0  0.00000000000E+00  0.00000000000E+00  0.46780559947E+03  0.21520595530E+04  0.21005994955E+04 0.  0.
        2    1    3    3  502    0 -0.90012250089E+03 -0.52543085774E+03  0.36681715469E+03  0.11049221366E+04  0.25500000920E-02 0. -1.
       -2    1    3    3    0  502  0.90012250089E+03  0.52543085774E+03  0.10098844478E+03  0.10471374164E+04  0.25500000920E-02 0.  1.
</event>
<event>
 5   0  0.3480134E-06  0.2097524E+04  0.7818609E-02  0.8562335E-01
       -2   -1    0    0    0  501  0.00000000000E+00  0.00000000000E+00  0.60910634894E+03  0.60910634894E+03  0.25500000920E-02 0. -1.
        2   -1    0    0  501    0  0.00000000000E+00  0.00000000000E+00 -0.18057624932E+04  0.18057624932E+04  0.25500000920E-02 0.  1.
    10030    2    1    2    0    0  0.00000000000E+00  0.00000000000E+00 -0.11966561443E+04  0.24148688422E+04  0.20975236822E+04 0.  0.
        1    1    3    3  502    0  0.25382041768E+02  0.87360834698E+03 -0.12657472933E+04  0.15381651415E+04  0.50400001928E-02 0.  1.
       -1    1    3    3    0  502 -0.25382041768E+02 -0.87360834698E+03  0.69091148969E+02  0.87670370072E+03  0.50400001928E-02 0. -1.
</event>
<event>
 5   0  0.1646510E-06  0.2097430E+04  0.7818609E-02  0.8562376E-01
        1   -1    0    0  501    0  0.00000000000E+00  0.00000000000E+00  0.14917951417E+04  0.14917951417E+04  0.50400001928E-02 0.  1.
       -1   -1    0    0    0  501  0.00000000000E+00  0.00000000000E+00 -0.73723496579E+03  0.73723496580E+03  0.50400001928E-02 0. -1.
    10030    2    1    2    0    0  0.00000000000E+00  0.00000000000E+00  0.75456017591E+03  0.22290301075E+04  0.20974303710E+04 0.  0.
        4    1    3    3  502    0  0.28646606052E+03  0.52977268090E+03  0.12896809872E+04  0.14233764643E+04  0.12699999809E+01 0.  1.
       -4    1    3    3    0  502 -0.28646606052E+03 -0.52977268090E+03 -0.53512081133E+03  0.80565364325E+03  0.12699999809E+01 0. -1.
</event>
<event>
 5   0  0.1579820E-06  0.2100534E+04  0.7818609E-02  0.8561008E-01
       -1   -1    0    0    0  501  0.00000000000E+00  0.00000000000E+00  0.26429167958E+04  0.26429167959E+04  0.50400001928E-02 0.  1.
        1   -1    0    0  501    0  0.00000000000E+00  0.00000000000E+00 -0.41736486917E+03  0.41736486920E+03  0.50400001928E-02 0. -1.
    10030    2    1    2    0    0  0.00000000000E+00  0.00000000000E+00  0.22255519267E+04  0.30602816651E+04  0.21005338586E+04 0.  0.
        2    1    3    3  502    0 -0.10246608912E+04 -0.21559346687E+03  0.99396759342E+03  0.14437389174E+04  0.25500000920E-02 0.  1.
       -2    1    3    3    0  502  0.10246608912E+04  0.21559346687E+03  0.12315843333E+04  0.16165427476E+04  0.25500000920E-02 0. -1.
</event>
<event>
 5   0  0.3547583E-06  0.2099978E+04  0.7818609E-02  0.8561253E-01
        2   -1    0    0  501    0  0.00000000000E+00  0.00000000000E+00  0.15416520860E+04  0.15416520860E+04  0.25500000920E-02 0.  1.
       -2   -1    0    0    0  501  0.00000000000E+00  0.00000000000E+00 -0.71512681380E+03  0.71512681381E+03  0.25500000920E-02 0. -1.
    10030    2    1    2    0    0  0.00000000000E+00  0.00000000000E+00  0.82652527218E+03  0.22567788998E+04  0.20999778515E+04 0.  0.
        2    1    3    3  502    0 -0.91873008047E+03  0.44578007385E+03  0.15070053844E+03  0.10322284085E+04  0.25500000920E-02 0. -1.
       -2    1    3    3    0  502  0.91873008047E+03 -0.44578007385E+03  0.67582473374E+03  0.12245504913E+04  0.25500000920E-02 0.  1.
</event>
<event>
 5   0  0.1653260E-06  0.2101179E+04  0.7818609E-02  0.8560724E-01
       -1   -1    0    0    0  501  0.00000000000E+00  0.00000000000E+00  0.57541734966E+03  0.57541734968E+03  0.50400001928E-02 0.  1.
        1   -1    0    0  501    0  0.00000000000E+00  0.00000000000E+00 -0.19181528605E+04  0.19181528605E+04  0.50400001928E-02 0. -1.
    10030    2    1    2    0    0  0.00000000000E+00  0.00000000000E+00 -0.13427355109E+04  0.24935702102E+04  0.21011791311E+04 0.  0.
        3    1    3    3  502    0 -0.88063092752E+03  0.24528429465E+03 -0.56931082848E+02  0.91592378182E+03  0.10100000352E+00 0.  1.
       -3    1    3    3    0  502  0.88063092752E+03 -0.24528429465E+03 -0.12858044280E+04  0.15776464284E+04  0.10100000352E+00 0. -1.
</event>
<event>
 5   0  0.3705828E-06  0.2099699E+04  0.7818609E-02  0.8561376E-01
       -2   -1    0    0    0  501  0.00000000000E+00  0.00000000000E+00  0.72281275131E+03  0.72281275131E+03  0.25500000920E-02 0. -1.
        2   -1    0    0  501    0  0.00000000000E+00  0.00000000000E+00 -0.15248537535E+04  0.15248537535E+04  0.25500000920E-02 0.  1.
    10030    2    1    2    0    0  0.00000000000E+00  0.00000000000E+00 -0.80204100217E+03  0.22476665048E+04  0.20996987754E+04 0.  0.
        5    1    3    3  502    0  0.92340371646E+03  0.49544702716E+03 -0.46888756968E+03  0.11480504446E+04  0.46999998093E+01 0.  1.
       -5    1    3    3    0  502 -0.92340371646E+03 -0.49544702716E+03 -0.33315343250E+03  0.10996160602E+04  0.46999998093E+01 0. -1.
</event>
<event>
 5   0  0.1653260E-06  0.2107486E+04  0.7818609E-02  0.8557953E-01
       -1   -1    0    0    0  501  0.00000000000E+00  0.00000000000E+00  0.49244155464E+03  0.49244155466E+03  0.50400001928E-02 0.  1.
        1   -1    0    0  501    0  0.00000000000E+00  0.00000000000E+00 -0.22548348091E+04  0.22548348091E+04  0.50400001928E-02 0. -1.
    10030    2    1    2    0    0  0.00000000000E+00  0.00000000000E+00 -0.17623932545E+04  0.27472763638E+04  0.21074860463E+04 0.  0.
        3    1    3    3  502    0  0.66812518860E+03 -0.47118692945E+03 -0.17478233008E+04  0.19295840721E+04  0.10100000352E+00 0. -1.
       -3    1    3    3    0  502 -0.66812518860E+03  0.47118692945E+03 -0.14569953638E+02  0.81769229168E+03  0.10100000352E+00 0.  1.
</event>
<event>
 5   0  0.3547583E-06  0.2101563E+04  0.7818609E-02  0.8560555E-01
       -2   -1    0    0    0  501  0.00000000000E+00  0.00000000000E+00  0.74928281298E+03  0.74928281299E+03  0.25500000920E-02 0.  1.
        2   -1    0    0  501    0  0.00000000000E+00  0.00000000000E+00 -0.14735978699E+04  0.14735978699E+04  0.25500000920E-02 0. -1.
    10030    2    1    2    0    0  0.00000000000E+00  0.00000000000E+00 -0.72431505689E+03  0.22228806829E+04  0.21015628062E+04 0.  0.
        2    1    3    3  502    0  0.25180954533E+03 -0.51358931560E+03  0.57017959198E+03  0.80764274239E+03  0.25500000920E-02 0.  1.
       -2    1    3    3    0  502 -0.25180954533E+03  0.51358931560E+03 -0.12944946489E+04  0.14152379405E+04  0.25500000920E-02 0. -1.
</event>
<event>
 5   0  0.3547583E-06  0.2099916E+04  0.7818609E-02  0.8561280E-01
        2   -1    0    0  501    0  0.00000000000E+00  0.00000000000E+00  0.76397738686E+03  0.76397738687E+03  0.25500000920E-02 0. -1.
       -2   -1    0    0    0  501  0.00000000000E+00  0.00000000000E+00 -0.14429900886E+04  0.14429900886E+04  0.25500000920E-02 0.  1.
    10030    2    1    2    0    0  0.00000000000E+00  0.00000000000E+00 -0.67901270170E+03  0.22069674754E+04  0.20999159956E+04 0.  0.
        2    1    3    3  502    0 -0.53217272755E+03  0.50247473559E+03  0.45168126075E+03  0.86006083109E+03  0.25500000920E-02 0. -1.
       -2    1    3    3    0  502  0.53217272755E+03 -0.50247473559E+03 -0.11306939624E+04  0.13469066443E+04  0.25500000920E-02 0.  1.
</event>
<event>
 5   0  0.1615098E-06  0.2095300E+04  0.7818609E-02  0.8563316E-01
       -1   -1    0    0    0  501  0.00000000000E+00  0.00000000000E+00  0.84700868856E+03  0.84700868857E+03  0.50400001928E-02 0. -1.
        1   -1    0    0  501    0  0.00000000000E+00  0.00000000000E+00 -0.12958199523E+04  0.12958199523E+04  0.50400001928E-02 0.  1.
    10030    2    1    2    0    0  0.00000000000E+00  0.00000000000E+00 -0.44881126370E+03  0.21428286408E+04  0.20953002252E+04 0.  0.
        1    1    3    3  502    0  0.58939740753E+03  0.85760612952E+03 -0.34837063527E+03  0.10973785477E+04  0.50400001928E-02 0. -1.
       -1    1    3    3    0  502 -0.58939740753E+03 -0.85760612952E+03 -0.10044062844E+03  0.10454500931E+04  0.50400001928E-02 0.  1.
</event>
<event>
 5   0  0.3574927E-06  0.2098776E+04  0.7818609E-02  0.8561783E-01
        2   -1    0    0  501    0  0.00000000000E+00  0.00000000000E+00  0.15916612587E+04  0.15916612587E+04  0.25500000920E-02 0. -1.
       -2   -1    0    0    0  501  0.00000000000E+00  0.00000000000E+00 -0.69186553491E+03  0.69186553492E+03  0.25500000920E-02 0.  1.
    10030    2    1    2    0    0  0.00000000000E+00  0.00000000000E+00  0.89979572374E+03  0.22835267936E+04  0.20987763751E+04 0.  0.
        3    1    3    3  502    0 -0.89573320390E+03 -0.25570114345E+03  0.97564665237E+03  0.13489282590E+04  0.10100000352E+00 0. -1.
       -3    1    3    3    0  502  0.89573320390E+03  0.25570114345E+03 -0.75850928635E+02  0.93459853461E+03  0.10100000352E+00 0.  1.
</event>
<event>
 5   0  0.3547583E-06  0.2100290E+04  0.7818609E-02  0.8561116E-01
       -2   -1    0    0    0  501  0.00000000000E+00  0.00000000000E+00  0.50161206293E+03  0.50161206294E+03  0.25500000920E-02 0. -1.
        2   -1    0    0  501    0  0.00000000000E+00  0.00000000000E+00 -0.21985209306E+04  0.21985209306E+04  0.25500000920E-02 0.  1.
    10030    2    1    2    0    0  0.00000000000E+00  0.00000000000E+00 -0.16969088677E+04  0.27001329936E+04  0.21002900937E+04 0.  0.
        2    1    3    3  502    0  0.87382491134E+03  0.50858159690E+02 -0.15943773504E+04  0.18188445958E+04  0.25500000920E-02 0.  1.
       -2    1    3    3    0  502 -0.87382491134E+03 -0.50858159690E+02 -0.10253151733E+03  0.88128839782E+03  0.25500000920E-02 0. -1.
</event>
<event>
 5   0  0.1653260E-06  0.2097398E+04  0.7818609E-02  0.8562390E-01
        1   -1    0    0  501    0  0.00000000000E+00  0.00000000000E+00  0.90345323447E+03  0.90345323449E+03  0.50400001928E-02 0.  1.
       -1   -1    0    0    0  501  0.00000000000E+00  0.00000000000E+00 -0.12172954592E+04  0.12172954592E+04  0.50400001928E-02 0. -1.
    10030    2    1    2    0    0  0.00000000000E+00  0.00000000000E+00 -0.31384222468E+03  0.21207486937E+04  0.20973979307E+04 0.  0.
        3    1    3    3  502    0 -0.10012365436E+03 -0.81043776804E+03 -0.82222477750E+03  0.11588303228E+04  0.10100000352E+00 0. -1.
       -3    1    3    3    0  502  0.10012365436E+03  0.81043776804E+03  0.50838255282E+03  0.96191837088E+03  0.10100000352E+00 0.  1.
</event>
<event>
 5   0  0.1653260E-06  0.2100405E+04  0.7818609E-02  0.8561065E-01
       -1   -1    0    0    0  501  0.00000000000E+00  0.00000000000E+00  0.48799734726E+03  0.48799734728E+03  0.50400001928E-02 0. -1.
        1   -1    0    0  501    0  0.00000000000E+00  0.00000000000E+00 -0.22601061423E+04  0.22601061423E+04  0.50400001928E-02 0.  1.
    10030    2    1    2    0    0  0.00000000000E+00  0.00000000000E+00 -0.17721087950E+04  0.27481034895E+04  0.21004054865E+04 0.  0.
        3    1    3    3  502    0  0.15150103112E+03 -0.74842502224E+03  0.57271923577E+02  0.76574973704E+03  0.10100000352E+00 0. -1.
       -3    1    3    3    0  502 -0.15150103112E+03  0.74842502224E+03 -0.18293807186E+04  0.19823537525E+04  0.10100000352E+00 0.  1.
</event>
<event>
 5   0  0.1646510E-06  0.2099709E+04  0.7818609E-02  0.8561371E-01
        1   -1    0    0  501    0  0.00000000000E+00  0.00000000000E+00  0.17851666639E+04  0.17851666639E+04  0.50400001928E-02 0.  1.
       -1   -1    0    0    0  501  0.00000000000E+00  0.00000000000E+00 -0.61741843436E+03  0.61741843438E+03  0.50400001928E-02 0. -1.
    10030    2    1    2    0    0  0.00000000000E+00  0.00000000000E+00  0.11677482295E+04  0.24025850983E+04  0.20997093196E+04 0.  0.
        4    1    3    3  502    0  0.38608828936E+03  0.96044023890E+03  0.78430866067E+03  0.12987114028E+04  0.12699999809E+01 0.  1.
       -4    1    3    3    0  502 -0.38608828936E+03 -0.96044023890E+03  0.38343956886E+03  0.11038736955E+04  0.12699999809E+01 0. -1.
</event>
<event>
 5   0  0.3574927E-06  0.2097965E+04  0.7818609E-02  0.8562140E-01
       -2   -1    0    0    0  501  0.00000000000E+00  0.00000000000E+00  0.13257718199E+04  0.13257718199E+04  0.25500000920E-02 0.  1.
        2   -1    0    0  501    0  0.00000000000E+00  0.00000000000E+00 -0.82998014584E+03  0.82998014584E+03  0.25500000920E-02 0. -1.
    10030    2    1    2    0    0  0.00000000000E+00  0.00000000000E+00  0.49579167406E+03  0.21557519658E+04  0.20979650030E+04 0.  0.
        3    1    3    3  502    0  0.19248183563E+03  0.25967178312E+03 -0.77753240597E+03  0.84204236504E+03  0.10100000352E+00 0. -1.
       -3    1    3    3    0  502 -0.19248183563E+03 -0.25967178312E+03  0.12733240800E+04  0.13137096007E+04  0.10100000352E+00 0.  1.
</event>
<event>
 5   0  0.3547583E-06  0.2102298E+04  0.7818609E-02  0.8560232E-01
       -2   -1    0    0    0  501  0.00000000000E+00  0.00000000000E+00  0.60954057360E+03  0.60954057361E+03  0.25500000920E-02 0.  1.
        2   -1    0    0  501    0  0.00000000000E+00  0.00000000000E+00 -0.18127005381E+04  0.18127005381E+04  0.25500000920E-02 0. -1.
    10030    2    1    2    0    0  0.00000000000E+00  0.00000000000E+00 -0.12031599645E+04  0.24222411117E+04  0.21022982907E+04 0.  0.
        2    1    3    3  502    0 -0.26941580658E+03  0.52455226125E+03  0.40100465310E+03  0.71312318952E+03  0.25500000920E-02 0.  1.
       -2    1    3    3    0  502  0.26941580658E+03 -0.52455226125E+03 -0.16041646176E+04  0.17091179222E+04  0.25500000920E-02 0. -1.
</event>
<event>
 5   0  0.3636435E-06  0.2099705E+04  0.7818609E-02  0.8561373E-01
       -2   -1    0    0    0  501  0.00000000000E+00  0.00000000000E+00  0.49122644584E+03  0.49122644585E+03  0.25500000920E-02 0.  1.
        2   -1    0    0  501    0  0.00000000000E+00  0.00000000000E+00 -0.22437518810E+04  0.22437518810E+04  0.25500000920E-02 0. -1.
    10030    2    1    2    0    0  0.00000000000E+00  0.00000000000E+00 -0.17525254352E+04  0.27349783269E+04  0.20997049906E+04 0.  0.
        4    1    3    3  502    0  0.73320738190E+03  0.20217493298E+01  0.10246699989E+03  0.74033657974E+03  0.12699999809E+01 0.  1.
       -4    1    3    3    0  502 -0.73320738190E+03 -0.20217493298E+01 -0.18549924351E+04  0.19946417471E+04  0.12699999809E+01 0. -1.
</event>
<event>
 5   0  0.1579820E-06  0.2100389E+04  0.7818609E-02  0.8561072E-01
       -1   -1    0    0    0  501  0.00000000000E+00  0.00000000000E+00  0.87903371762E+03  0.87903371764E+03  0.50400001928E-02 0. -1.
        1   -1    0    0  501    0  0.00000000000E+00  0.00000000000E+00 -0.12546826667E+04  0.12546826667E+04  0.50400001928E-02 0.  1.
    10030    2    1    2    0    0  0.00000000000E+00  0.00000000000E+00 -0.37564894906E+03  0.21337163843E+04  0.21003888868E+04 0.  0.
        2    1    3    3  502    0 -0.85944730010E+03  0.40527567642E+03 -0.64214587793E+03  0.11468432169E+04  0.25500000920E-02 0.  1.
       -2    1    3    3    0  502  0.85944730010E+03 -0.40527567642E+03  0.26649692887E+03  0.98687316746E+03  0.25500000920E-02 0. -1.
</event>
<event>
 5   0  0.1257125E-06  0.2097965E+04  0.7818609E-02  0.8562140E-01
       -3   -1    0    0    0  501  0.00000000000E+00  0.00000000000E+00  0.55006895513E+03  0.55006896441E+03  0.10100000352E+00 0.  1.
        3   -1    0    0  501    0  0.00000000000E+00  0.00000000000E+00 -0.20004116580E+04  0.20004116605E+04  0.10100000352E+00 0. -1.
    10030    2    1    2    0    0  0.00000000000E+00  0.00000000000E+00 -0.14503427029E+04  0.25504806249E+04  0.20979650766E+04 0.  0.
        3    1    3    3  502    0 -0.83386236821E+03 -0.19374878535E+03 -0.14621451382E+04  0.16943238936E+04  0.10100000352E+00 0.  1.
       -3    1    3    3    0  502  0.83386236821E+03  0.19374878535E+03  0.11802435381E+02  0.85615673135E+03  0.10100000352E+00 0. -1.
</event>
<event>
 5   0  0.3480134E-06  0.2099607E+04  0.7818609E-02  0.8561416E-01
       -2   -1    0    0    0  501  0.00000000000E+00  0.00000000000E+00  0.45815460354E+03  0.45815460355E+03  0.25500000920E-02 0. -1.
        2   -1    0    0  501    0  0.00000000000E+00  0.00000000000E+00 -0.24054934437E+04  0.24054934437E+04  0.25500000920E-02 0.  1.
    10030    2    1    2    0    0  0.00000000000E+00  0.00000000000E+00 -0.19473388401E+04  0.28636480472E+04  0.20996074824E+04 0.  0.
        1    1    3    3  502    0  0.34874223725E+03 -0.70278553300E+03 -0.19250392868E+04  0.20787748578E+04  0.50400001928E-02 0.  1.
       -1    1    3    3    0  502 -0.34874223725E+03  0.70278553300E+03 -0.22299553310E+02  0.78487318947E+03  0.50400001928E-02 0. -1.
</event>
<event>
 5   0  0.3547583E-06  0.2099249E+04  0.7818609E-02  0.8561574E-01
        2   -1    0    0  501    0  0.00000000000E+00  0.00000000000E+00  0.17838982916E+04  0.17838982917E+04  0.25500000920E-02 0. -1.
       -2   -1    0    0    0  501  0.00000000000E+00  0.00000000000E+00 -0.61758633052E+03  0.61758633052E+03  0.25500000920E-02 0.  1.
    10030    2    1    2    0    0  0.00000000000E+00  0.00000000000E+00  0.11663119611E+04  0.24014846222E+04  0.20992486275E+04 0.  0.
        2    1    3    3  502    0 -0.87051106669E+03  0.49821546335E+03  0.22925742754E+03  0.10288669172E+04  0.25500000920E-02 0. -1.
       -2    1    3    3    0  502  0.87051106669E+03 -0.49821546335E+03  0.93705453359E+03  0.13726177050E+04  0.25500000920E-02 0.  1.
</event>
<event>
 5   0  0.1615098E-06  0.2099092E+04  0.7818609E-02  0.8561644E-01
        1   -1    0    0  501    0  0.00000000000E+00  0.00000000000E+00  0.10329441441E+04  0.10329441441E+04  0.50400001928E-02 0. -1.
       -1   -1    0    0    0  501  0.00000000000E+00  0.00000000000E+00 -0.10664143183E+04  0.10664143183E+04  0.50400001928E-02 0.  1.
    10030    2    1    2    0    0  0.00000000000E+00  0.00000000000E+00 -0.33470174206E+02  0.20993584625E+04  0.20990916372E+04 0.  0.
        1    1    3    3  502    0 -0.85792398437E+03 -0.24000293709E+03 -0.57170331829E+03  0.10585271168E+04  0.50400001928E-02 0.  1.
       -1    1    3    3    0  502  0.85792398437E+03  0.24000293709E+03  0.53823314408E+03  0.10408313457E+04  0.50400001928E-02 0. -1.
</event>
<event>
 5   0  0.1653260E-06  0.2099728E+04  0.7818609E-02  0.8561363E-01
        1   -1    0    0  501    0  0.00000000000E+00  0.00000000000E+00  0.81656684632E+03  0.81656684633E+03  0.50400001928E-02 0.  1.
       -1   -1    0    0    0  501  0.00000000000E+00  0.00000000000E+00 -0.13498152340E+04  0.13498152341E+04  0.50400001928E-02 0. -1.
    10030    2    1    2    0    0  0.00000000000E+00  0.00000000000E+00 -0.53324838773E+03  0.21663820804E+04  0.20997279527E+04 0.  0.
        3    1    3    3  502    0  0.75305332272E+03 -0.40882377274E+03 -0.89250114199E+03  0.12372487554E+04  0.10100000352E+00 0. -1.
       -3    1    3    3    0  502 -0.75305332272E+03  0.40882377274E+03  0.35925275426E+03  0.92913332502E+03  0.10100000352E+00 0.  1.
</event>
<event>
 5   0  0.1646510E-06  0.2100145E+04  0.7818609E-02  0.8561179E-01
       -1   -1    0    0    0  501  0.00000000000E+00  0.00000000000E+00  0.80557759258E+03  0.80557759260E+03  0.50400001928E-02 0. -1.
        1   -1    0    0  501    0  0.00000000000E+00  0.00000000000E+00 -0.13687724796E+04  0.13687724796E+04  0.50400001928E-02 0.  1.
    10030    2    1    2    0    0  0.00000000000E+00  0.00000000000E+00 -0.56319488697E+03  0.21743500722E+04  0.21001451749E+04 0.  0.
        4    1    3    3  502    0 -0.27544549208E+03 -0.56725247868E+03 -0.11509107360E+04  0.13123424586E+04  0.12699999809E+01 0.  1.
       -4    1    3    3    0  502  0.27544549208E+03  0.56725247868E+03  0.58771584901E+03  0.86200761351E+03  0.12699999809E+01 0. -1.
</event>
<event>
 5   0  0.1615098E-06  0.2101907E+04  0.7818609E-02  0.8560404E-01
       -1   -1    0    0    0  501  0.00000000000E+00  0.00000000000E+00  0.43624233376E+03  0.43624233379E+03  0.50400001928E-02 0.  1.
        1   -1    0    0  501    0  0.00000000000E+00  0.00000000000E+00 -0.25318570985E+04  0.25318570985E+04  0.50400001928E-02 0. -1.
    10030    2    1    2    0    0  0.00000000000E+00  0.00000000000E+00 -0.20956147648E+04  0.29680994323E+04  0.21019069908E+04 0.  0.
        1    1    3    3  502    0 -0.94687790778E+03 -0.25992324381E+03 -0.51875952348E+03  0.11105175857E+04  0.50400001928E-02 0.  1.
       -1    1    3    3    0  502  0.94687790778E+03  0.25992324381E+03 -0.15768552413E+04  0.18575818466E+04  0.50400001928E-02 0. -1.
</event>
<event>
 5   0  0.3574927E-06  0.2100373E+04  0.7818609E-02  0.8561079E-01
        2   -1    0    0  501    0  0.00000000000E+00  0.00000000000E+00  0.13018488075E+04  0.13018488075E+04  0.25500000920E-02 0. -1.
       -2   -1    0    0    0  501  0.00000000000E+00  0.00000000000E+00 -0.84717360060E+03  0.84717360060E+03  0.25500000920E-02 0.  1.
    10030    2    1    2    0    0  0.00000000000E+00  0.00000000000E+00  0.45467520685E+03  0.21490224081E+04  0.21003732446E+04 0.  0.
        3    1    3    3  502    0  0.49869740324E+03 -0.50282699654E+03  0.10207718765E+04  0.12423805063E+04  0.10100000352E+00 0. -1.
       -3    1    3    3    0  502 -0.49869740324E+03  0.50282699654E+03 -0.56609666962E+03  0.90664190175E+03  0.10100000352E+00 0.  1.
</event>
<event>
 5   0  0.1579820E-06  0.2099095E+04  0.7818609E-02  0.8561642E-01
       -1   -1    0    0    0  501  0.00000000000E+00  0.00000000000E+00  0.81297719442E+03  0.81297719443E+03  0.50400001928E-02 0.  1.
        1   -1    0    0  501    0  0.00000000000E+00  0.00000000000E+00 -0.13549573597E+04  0.13549573597E+04  0.50400001928E-02 0. -1.
    10030    2    1    2    0    0  0.00000000000E+00  0.00000000000E+00 -0.54198016529E+03  0.21679345541E+04  0.20990945028E+04 0.  0.
        2    1    3    3  502    0  0.71644303003E+03  0.74434596162E+03 -0.79970704155E+02  0.10362127385E+04  0.25500000920E-02 0. -1.
       -2    1    3    3    0  502 -0.71644303003E+03 -0.74434596162E+03 -0.46200946113E+03  0.11317218157E+04  0.25500000920E-02 0.  1.
</event>
<event>
 5   0  0.3480134E-06  0.2099645E+04  0.7818609E-02  0.8561400E-01
       -2   -1    0    0    0  501  0.00000000000E+00  0.00000000000E+00  0.62568898299E+03  0.62568898299E+03  0.25500000920E-02 0.  1.
        2   -1    0    0  501    0  0.00000000000E+00  0.00000000000E+00 -0.17614615488E+04  0.17614615488E+04  0.25500000920E-02 0. -1.
    10030    2    1    2    0    0  0.00000000000E+00  0.00000000000E+00 -0.11357725658E+04  0.23871505318E+04  0.20996448129E+04 0.  0.
        1    1    3    3  502    0  0.90249061486E+03 -0.16822536225E+02 -0.11773434431E+04  0.14835463898E+04  0.50400001928E-02 0. -1.
       -1    1    3    3    0  502 -0.90249061486E+03  0.16822536225E+02  0.41570877257E+02  0.90360414203E+03  0.50400001928E-02 0.  1.
</event>
<event>
 5   0  0.1579820E-06  0.2101179E+04  0.7818609E-02  0.8560724E-01
       -1   -1    0    0    0  501  0.00000000000E+00  0.00000000000E+00  0.10851077809E+04  0.10851077809E+04  0.50400001928E-02 0. -1.
        1   -1    0    0  501    0  0.00000000000E+00  0.00000000000E+00 -0.10171688834E+04  0.10171688834E+04  0.50400001928E-02 0.  1.
    10030    2    1    2    0    0  0.00000000000E+00  0.00000000000E+00  0.67938897485E+02  0.21022766644E+04  0.21011785930E+04 0.  0.
        2    1    3    3  502    0  0.60554781896E+03 -0.44119247516E+03 -0.70289279745E+03  0.10273252873E+04  0.25500000920E-02 0.  1.
       -2    1    3    3    0  502 -0.60554781896E+03  0.44119247516E+03  0.77083169493E+03  0.10749513771E+04  0.25500000920E-02 0. -1.
</event>
<event>
 5   0  0.1653260E-06  0.2099718E+04  0.7818609E-02  0.8561368E-01
        1   -1    0    0  501    0  0.00000000000E+00  0.00000000000E+00  0.13721357959E+04  0.13721357959E+04  0.50400001928E-02 0. -1.
       -1   -1    0    0    0  501  0.00000000000E+00  0.00000000000E+00 -0.80327611060E+03  0.80327611062E+03  0.50400001928E-02 0.  1.
    10030    2    1    2    0    0  0.00000000000E+00  0.00000000000E+00  0.56885968530E+03  0.21754119065E+04  0.20997179862E+04 0.  0.
        3    1    3    3  502    0 -0.71628009886E+03 -0.51564845421E+03 -0.30462004119E+03  0.93367225944E+03  0.10100000352E+00 0. -1.
       -3    1    3    3    0  502  0.71628009886E+03  0.51564845421E+03  0.87347972649E+03  0.12417396471E+04  0.10100000352E+00 0.  1.
</event>
<event>
 5   0  0.3480134E-06  0.2100032E+04  0.7818609E-02  0.8561229E-01
        2   -1    0    0  501    0  0.00000000000E+00  0.00000000000E+00  0.95207424745E+03  0.95207424745E+03  0.25500000920E-02 0. -1.
       -2   -1    0    0    0  501  0.00000000000E+00  0.00000000000E+00 -0.11580329083E+04  0.11580329083E+04  0.25500000920E-02 0.  1.
    10030    2    1    2    0    0  0.00000000000E+00  0.00000000000E+00 -0.20595866089E+03  0.21101071558E+04  0.21000317233E+04 0.  0.
        1    1    3    3  502    0 -0.67072858216E+03 -0.28802545536E+02  0.70825214355E+03  0.97587269478E+03  0.50400001928E-02 0. -1.
       -1    1    3    3    0  502  0.67072858216E+03  0.28802545536E+02 -0.91421080444E+03  0.11342344610E+04  0.50400001928E-02 0.  1.
</event>
<event>
 5   0  0.1646510E-06  0.2098622E+04  0.7818609E-02  0.8561851E-01
       -1   -1    0    0    0  501  0.00000000000E+00  0.00000000000E+00  0.88741453832E+03  0.88741453834E+03  0.50400001928E-02 0. -1.
        1   -1    0    0  501    0  0.00000000000E+00  0.00000000000E+00 -0.12407428934E+04  0.12407428934E+04  0.50400001928E-02 0.  1.
    10030    2    1    2    0    0  0.00000000000E+00  0.00000000000E+00 -0.35332835505E+03  0.21281574317E+04  0.20986217210E+04 0.  0.
        4    1    3    3  502    0 -0.24146210030E+03 -0.51395359477E+03 -0.10714655219E+04  0.12126385369E+04  0.12699999809E+01 0.  1.
       -4    1    3    3    0  502  0.24146210030E+03  0.51395359477E+03  0.71813716690E+03  0.91551889486E+03  0.12699999809E+01 0. -1.
</event>
<event>
 5   0  0.3547583E-06  0.2097605E+04  0.7818609E-02  0.8562299E-01
       -2   -1    0    0    0  501  0.00000000000E+00  0.00000000000E+00  0.15728618735E+04  0.15728618735E+04  0.25500000920E-02 0.  1.
        2   -1    0    0  501    0  0.00000000000E+00  0.00000000000E+00 -0.69935382771E+03  0.69935382771E+03  0.25500000920E-02 0. -1.
    10030    2    1    2    0    0  0.00000000000E+00  0.00000000000E+00  0.87350804584E+03  0.22722157013E+04  0.20976052743E+04 0.  0.
        2    1    3    3  502    0 -0.96348809312E+03 -0.80963680240E+02  0.87693268067E+03  0.13053257638E+04  0.25500000920E-02 0.  1.
       -2    1    3    3    0  502  0.96348809312E+03  0.80963680240E+02 -0.34246348340E+01  0.96688993750E+03  0.25500000920E-02 0. -1.
</event>
<event>
 5   0  0.1590067E-06  0.2097704E+04  0.7818609E-02  0.8562255E-01
       -1   -1    0    0    0  501  0.00000000000E+00  0.00000000000E+00  0.84494718405E+03  0.84494718407E+03  0.50400001928E-02 0. -1.
        1   -1    0    0  501    0  0.00000000000E+00  0.00000000000E+00 -0.13019640260E+04  0.13019640260E+04  0.50400001928E-02 0.  1.
    10030    2    1    2    0    0  0.00000000000E+00  0.00000000000E+00 -0.45701684192E+03  0.21469112100E+04  0.20977043047E+04 0.  0.
        5    1    3    3  502    0 -0.38053166350E+02  0.57222183656E+03 -0.11272782858E+04  0.12647783590E+04  0.46999998093E+01 0.  1.
       -5    1    3    3    0  502  0.38053166350E+02 -0.57222183656E+03  0.67026144391E+03  0.88213285105E+03  0.46999998093E+01 0. -1.
</event>
<event>
 5   0  0.3574927E-06  0.2089680E+04  0.7818609E-02  0.8565803E-01
        2   -1    0    0  501    0  0.00000000000E+00  0.00000000000E+00  0.65223078232E+03  0.65223078232E+03  0.25500000920E-02 0.  1.
       -2   -1    0    0    0  501  0.00000000000E+00  0.00000000000E+00 -0.16737790781E+04  0.16737790781E+04  0.25500000920E-02 0. -1.
    10030    2    1    2    0    0  0.00000000000E+00  0.00000000000E+00 -0.10215482958E+04  0.23260098604E+04  0.20896796286E+04 0.  0.
        3    1    3    3  502    0 -0.50798514816E+03 -0.83003752326E+03 -0.93415833298E+03  0.13489488508E+04  0.10100000352E+00 0. -1.
       -3    1    3    3    0  502  0.50798514816E+03  0.83003752326E+03 -0.87389962822E+02  0.97706100965E+03  0.10100000352E+00 0.  1.
</event>
<event>
 5   0  0.1579820E-06  0.2099959E+04  0.7818609E-02  0.8561262E-01
        1   -1    0    0  501    0  0.00000000000E+00  0.00000000000E+00  0.10421929637E+04  0.10421929638E+04  0.50400001928E-02 0. -1.
       -1   -1    0    0    0  501  0.00000000000E+00  0.00000000000E+00 -0.10578239693E+04  0.10578239693E+04  0.50400001928E-02 0.  1.
    10030    2    1    2    0    0  0.00000000000E+00  0.00000000000E+00 -0.15631005566E+02  0.21000169331E+04  0.20999587593E+04 0.  0.
        2    1    3    3  502    0  0.57746384472E+03  0.76139713071E+03 -0.44287538546E+03  0.10532467373E+04  0.25500000920E-02 0.  1.
       -2    1    3    3    0  502 -0.57746384472E+03 -0.76139713071E+03  0.42724437990E+03  0.10467701958E+04  0.25500000920E-02 0. -1.
</event>
<event>
 5   0  0.3547583E-06  0.2100550E+04  0.7818609E-02  0.8561001E-01
        2   -1    0    0  501    0  0.00000000000E+00  0.00000000000E+00  0.96211644705E+03  0.96211644706E+03  0.25500000920E-02 0.  1.
       -2   -1    0    0    0  501  0.00000000000E+00  0.00000000000E+00 -0.11465114987E+04  0.11465114987E+04  0.25500000920E-02 0. -1.
    10030    2    1    2    0    0  0.00000000000E+00  0.00000000000E+00 -0.18439505164E+03  0.21086279458E+04  0.21005499943E+04 0.  0.
        2    1    3    3  502    0  0.34219941315E+03 -0.50596699608E+03  0.76547359931E+03  0.97931244796E+03  0.25500000920E-02 0.  1.
       -2    1    3    3    0  502 -0.34219941315E+03  0.50596699608E+03 -0.94986865095E+03  0.11293154978E+04  0.25500000920E-02 0. -1.
</event>
<event>
 5   0  0.3480134E-06  0.2099235E+04  0.7818609E-02  0.8561580E-01
        2   -1    0    0  501    0  0.00000000000E+00  0.00000000000E+00  0.18514289289E+04  0.18514289289E+04  0.25500000920E-02 0. -1.
       -2   -1    0    0    0  501  0.00000000000E+00  0.00000000000E+00 -0.59505247299E+03  0.59505247299E+03  0.25500000920E-02 0.  1.
    10030    2    1    2    0    0  0.00000000000E+00  0.00000000000E+00  0.12563764560E+04  0.24464814019E+04  0.20992354444E+04 0.  0.
        1    1    3    3  502    0  0.58554985587E+03 -0.75878474874E+03  0.11268368442E+04  0.14793188305E+04  0.50400001928E-02 0. -1.
       -1    1    3    3    0  502 -0.58554985587E+03  0.75878474874E+03  0.12953961174E+03  0.96716257148E+03  0.50400001928E-02 0.  1.
</event>
<event>
 5   0  0.1653260E-06  0.2099111E+04  0.7818609E-02  0.8561635E-01
       -1   -1    0    0    0  501  0.00000000000E+00  0.00000000000E+00  0.70876638491E+03  0.70876638492E+03  0.50400001928E-02 0.  1.
        1   -1    0    0  501    0  0.00000000000E+00  0.00000000000E+00 -0.15542024225E+04  0.15542024225E+04  0.50400001928E-02 0. -1.
    10030    2    1    2    0    0  0.00000000000E+00  0.00000000000E+00 -0.84543603759E+03  0.22629688074E+04  0.20991106997E+04 0.  0.
        3    1    3    3  502    0  0.96197838780E+03  0.41480036386E+03 -0.35364921827E+03  0.11056805779E+04  0.10100000352E+00 0.  1.
       -3    1    3    3    0  502 -0.96197838780E+03 -0.41480036386E+03 -0.49178681932E+03  0.11572882296E+04  0.10100000352E+00 0. -1.
</event>
<event>
 5   0  0.1646510E-06  0.2099769E+04  0.7818609E-02  0.8561345E-01
       -1   -1    0    0    0  501  0.00000000000E+00  0.00000000000E+00  0.12700665970E+04  0.12700665970E+04  0.50400001928E-02 0. -1.
        1   -1    0    0  501    0  0.00000000000E+00  0.00000000000E+00 -0.86787394994E+03  0.86787394995E+03  0.50400001928E-02 0.  1.
    10030    2    1    2    0    0  0.00000000000E+00  0.00000000000E+00  0.40219264706E+03  0.21379405470E+04  0.20997692390E+04 0.  0.
        4    1    3    3  502    0  0.13112312926E+03  0.24590412262E+03  0.12317196234E+04  0.12628527057E+04  0.12699999809E+01 0. -1.
       -4    1    3    3    0  502 -0.13112312926E+03 -0.24590412262E+03 -0.82952697637E+03  0.87508784129E+03  0.12699999809E+01 0.  1.
</event>
<event>
 5   0  0.3547583E-06  0.2099782E+04  0.7818609E-02  0.8561339E-01
       -2   -1    0    0    0  501  0.00000000000E+00  0.00000000000E+00  0.75667449050E+03  0.75667449051E+03  0.25500000920E-02 0. -1.
        2   -1    0    0  501    0  0.00000000000E+00  0.00000000000E+00 -0.14567315371E+04  0.14567315371E+04  0.25500000920E-02 0.  1.
    10030    2    1    2    0    0  0.00000000000E+00  0.00000000000E+00 -0.70005704658E+03  0.22134060276E+04  0.20997824589E+04 0.  0.
        2    1    3    3  502    0 -0.19768384982E+02 -0.17532284451E+03 -0.14409926042E+04  0.14517536204E+04  0.25500000920E-02 0.  1.
       -2    1    3    3    0  502  0.19768384982E+02  0.17532284451E+03  0.74093555763E+03  0.76165240722E+03  0.25500000920E-02 0. -1.
</event>
<event>
 5   0  0.3636435E-06  0.2098440E+04  0.7818609E-02  0.8561931E-01
        2   -1    0    0  501    0  0.00000000000E+00  0.00000000000E+00  0.18208519837E+04  0.18208519837E+04  0.25500000920E-02 0. -1.
       -2   -1    0    0    0  501  0.00000000000E+00  0.00000000000E+00 -0.60458633880E+03  0.60458633881E+03  0.25500000920E-02 0.  1.
    10030    2    1    2    0    0  0.00000000000E+00  0.00000000000E+00  0.12162656449E+04  0.24254383225E+04  0.20984396435E+04 0.  0.
        4    1    3    3  502    0 -0.67263718265E+02  0.57112598292E+03 -0.40620305399E+03  0.70406805788E+03  0.12699999809E+01 0.  1.
       -4    1    3    3    0  502  0.67263718265E+02 -0.57112598292E+03  0.16224686989E+04  0.17213702646E+04  0.12699999809E+01 0. -1.
</event>
<event>
 5   0  0.3574927E-06  0.2099520E+04  0.7818609E-02  0.8561455E-01
        2   -1    0    0  501    0  0.00000000000E+00  0.00000000000E+00  0.91943650255E+03  0.91943650255E+03  0.25500000920E-02 0. -1.
       -2   -1    0    0    0  501  0.00000000000E+00  0.00000000000E+00 -0.11985556709E+04  0.11985556709E+04  0.25500000920E-02 0.  1.
    10030    2    1    2    0    0  0.00000000000E+00  0.00000000000E+00 -0.27911916835E+03  0.21179921735E+04  0.20995197872E+04 0.  0.
        3    1    3    3  502    0  0.49347119988E+01  0.71193106611E+03 -0.91779090570E+03  0.11615551434E+04  0.10100000352E+00 0.  1.
       -3    1    3    3    0  502 -0.49347119988E+01 -0.71193106611E+03  0.63867173734E+03  0.95643703010E+03  0.10100000352E+00 0. -1.
</event>
<event>
 5   0  0.3705828E-06  0.2098981E+04  0.7818609E-02  0.8561692E-01
        2   -1    0    0  501    0  0.00000000000E+00  0.00000000000E+00  0.87434442773E+03  0.87434442774E+03  0.25500000920E-02 0. -1.
       -2   -1    0    0    0  501  0.00000000000E+00  0.00000000000E+00 -0.12597210814E+04  0.12597210814E+04  0.25500000920E-02 0.  1.
    10030    2    1    2    0    0  0.00000000000E+00  0.00000000000E+00 -0.38537665371E+03  0.21340655092E+04  0.20989808080E+04 0.  0.
        5    1    3    3  502    0  0.61612647292E+03 -0.31595387083E+03  0.60914437984E+03  0.92223513521E+03  0.46999998093E+01 0. -1.
       -5    1    3    3    0  502 -0.61612647292E+03  0.31595387083E+03 -0.99452103355E+03  0.12118303740E+04  0.46999998093E+01 0.  1.
</event>
<event>
 5   0  0.1646510E-06  0.2098534E+04  0.7818609E-02  0.8561890E-01
       -1   -1    0    0    0  501  0.00000000000E+00  0.00000000000E+00  0.78870174078E+03  0.78870174080E+03  0.50400001928E-02 0.  1.
        1   -1    0    0  501    0  0.00000000000E+00  0.00000000000E+00 -0.13959155856E+04  0.13959155856E+04  0.50400001928E-02 0. -1.
    10030    2    1    2    0    0  0.00000000000E+00  0.00000000000E+00 -0.60721384483E+03  0.21846173264E+04  0.20985338238E+04 0.  0.
        4    1    3    3  502    0  0.10530514677E+03  0.20136921929E+03 -0.13699906787E+04  0.13887097642E+04  0.12699999809E+01 0. -1.
       -4    1    3    3    0  502 -0.10530514677E+03 -0.20136921929E+03  0.76277683390E+03  0.79590756225E+03  0.12699999809E+01 0.  1.
</event>
<event>
 5   0  0.1590067E-06  0.2100765E+04  0.7818609E-02  0.8560907E-01
        1   -1    0    0  501    0  0.00000000000E+00  0.00000000000E+00  0.17153139672E+04  0.17153139672E+04  0.50400001928E-02 0.  1.
       -1   -1    0    0    0  501  0.00000000000E+00  0.00000000000E+00 -0.64320762635E+03  0.64320762637E+03  0.50400001928E-02 0. -1.
    10030    2    1    2    0    0  0.00000000000E+00  0.00000000000E+00  0.10721063409E+04  0.23585215936E+04  0.21007646468E+04 0.  0.
        5    1    3    3  502    0  0.35131483206E+03  0.63343511108E+02 -0.57300211030E+03  0.67512074478E+03  0.46999998093E+01 0. -1.
       -5    1    3    3    0  502 -0.35131483206E+03 -0.63343511108E+02  0.16451084512E+04  0.16834008488E+04  0.46999998093E+01 0.  1.
</event>
<event>
 5   0  0.1615098E-06  0.2098040E+04  0.7818609E-02  0.8562107E-01
        1   -1    0    0  501    0  0.00000000000E+00  0.00000000000E+00  0.10391902485E+04  0.10391902485E+04  0.50400001928E-02 0.  1.
       -1   -1    0    0    0  501  0.00000000000E+00  0.00000000000E+00 -0.10589428199E+04  0.10589428199E+04  0.50400001928E-02 0. -1.
    10030    2    1    2    0    0  0.00000000000E+00  0.00000000000E+00 -0.19752571372E+02  0.20981330684E+04  0.20980400874E+04 0.  0.
        1    1    3    3  502    0  0.35608377748E+03  0.69099733226E+03 -0.71430091745E+03  0.10556982384E+04  0.50400001928E-02 0. -1.
       -1    1    3    3    0  502 -0.35608377748E+03 -0.69099733226E+03  0.69454834608E+03  0.10424348300E+04  0.50400001928E-02 0.  1.
</event>
<event>
 5   0  0.3636435E-06  0.2098332E+04  0.7818609E-02  0.8561978E-01
        2   -1    0    0  501    0  0.00000000000E+00  0.00000000000E+00  0.69916459471E+03  0.69916459471E+03  0.25500000920E-02 0.  1.
       -2   -1    0    0    0  501  0.00000000000E+00  0.00000000000E+00 -0.15743781710E+04  0.15743781710E+04  0.25500000920E-02 0. -1.
    10030    2    1    2    0    0  0.00000000000E+00  0.00000000000E+00 -0.87521357634E+03  0.22735427658E+04  0.20983321719E+04 0.  0.
        4    1    3    3  502    0 -0.81691004711E+03 -0.25243620602E+03 -0.10963906070E+04  0.13903740645E+04  0.12699999809E+01 0. -1.
       -4    1    3    3    0  502  0.81691004711E+03  0.25243620602E+03  0.22117703063E+03  0.88316870130E+03  0.12699999809E+01 0.  1.
</event>
<event>
 5   0  0.3636435E-06  0.2101420E+04  0.7818609E-02  0.8560618E-01
        2   -1    0    0  501    0  0.00000000000E+00  0.00000000000E+00  0.85758673942E+03  0.85758673942E+03  0.25500000920E-02 0.  1.
       -2   -1    0    0    0  501  0.00000000000E+00  0.00000000000E+00 -0.12873238973E+04  0.12873238973E+04  0.25500000920E-02 0. -1.
    10030    2    1    2    0    0  0.00000000000E+00  0.00000000000E+00 -0.42973715787E+03  0.21449106367E+04  0.21014203803E+04 0.  0.
        4    1    3    3  502    0  0.22761383555E+03  0.50238635719E+03  0.69794963452E+03  0.88957035430E+03  0.12699999809E+01 0.  1.
       -4    1    3    3    0  502 -0.22761383555E+03 -0.50238635719E+03 -0.11276867924E+04  0.12553402824E+04  0.12699999809E+01 0. -1.
</event>
<event>
 5   0  0.1257125E-06  0.2098807E+04  0.7818609E-02  0.8561769E-01
       -3   -1    0    0    0  501  0.00000000000E+00  0.00000000000E+00  0.72644166664E+03  0.72644167366E+03  0.10100000352E+00 0.  1.
        3   -1    0    0  501    0  0.00000000000E+00  0.00000000000E+00 -0.15159475075E+04  0.15159475108E+04  0.10100000352E+00 0. -1.
    10030    2    1    2    0    0  0.00000000000E+00  0.00000000000E+00 -0.78950584083E+03  0.22423891845E+04  0.20988067519E+04 0.  0.
        2    1    3    3  502    0  0.33169725928E+03  0.28026830592E+03 -0.14154488637E+04  0.14805637038E+04  0.25500000920E-02 0. -1.
       -2    1    3    3    0  502 -0.33169725928E+03 -0.28026830592E+03  0.62594302290E+03  0.76182548070E+03  0.25500000920E-02 0.  1.
</event>
<event>
 5   0  0.3547583E-06  0.2101150E+04  0.7818609E-02  0.8560737E-01
       -2   -1    0    0    0  501  0.00000000000E+00  0.00000000000E+00  0.12049031485E+04  0.12049031485E+04  0.25500000920E-02 0.  1.
        2   -1    0    0  501    0  0.00000000000E+00  0.00000000000E+00 -0.91601352995E+03  0.91601352996E+03  0.25500000920E-02 0. -1.
    10030    2    1    2    0    0  0.00000000000E+00  0.00000000000E+00  0.28888961854E+03  0.21209166785E+04  0.21011497674E+04 0.  0.
        2    1    3    3  502    0 -0.40661750551E+03 -0.10405404433E+03  0.11165953403E+04  0.11928747604E+04  0.25500000920E-02 0.  1.
       -2    1    3    3    0  502  0.40661750551E+03  0.10405404433E+03 -0.82770572175E+03  0.92804191810E+03  0.25500000920E-02 0. -1.
</event>
<event>
 5   0  0.1579820E-06  0.2099979E+04  0.7818609E-02  0.8561253E-01
       -1   -1    0    0    0  501  0.00000000000E+00  0.00000000000E+00  0.13868337401E+04  0.13868337401E+04  0.50400001928E-02 0.  1.
        1   -1    0    0  501    0  0.00000000000E+00  0.00000000000E+00 -0.79496038614E+03  0.79496038616E+03  0.50400001928E-02 0. -1.
    10030    2    1    2    0    0  0.00000000000E+00  0.00000000000E+00  0.59187335395E+03  0.21817941263E+04  0.20999789385E+04 0.  0.
        2    1    3    3  502    0  0.10720208553E+03 -0.90540155176E+03  0.83702803303E+03  0.12376833945E+04  0.25500000920E-02 0.  1.
       -2    1    3    3    0  502 -0.10720208553E+03  0.90540155176E+03 -0.24515467907E+03  0.94411073172E+03  0.25500000920E-02 0. -1.
</event>
<event>
 5   0  0.1653260E-06  0.2098240E+04  0.7818609E-02  0.8562019E-01
       -1   -1    0    0    0  501  0.00000000000E+00  0.00000000000E+00  0.59982789326E+03  0.59982789328E+03  0.50400001928E-02 0. -1.
        1   -1    0    0  501    0  0.00000000000E+00  0.00000000000E+00 -0.18349474471E+04  0.18349474471E+04  0.50400001928E-02 0.  1.
    10030    2    1    2    0    0  0.00000000000E+00  0.00000000000E+00 -0.12351195538E+04  0.24347753403E+04  0.20982398923E+04 0.  0.
        3    1    3    3  502    0  0.10199949677E+04  0.79894263513E+01 -0.90226714361E+03  0.13618148089E+04  0.10100000352E+00 0.  1.
       -3    1    3    3    0  502 -0.10199949677E+04 -0.79894263513E+01 -0.33285241019E+03  0.10729605315E+04  0.10100000352E+00 0. -1.
</event>
<event>
 5   0  0.3705828E-06  0.2100756E+04  0.7818609E-02  0.8560911E-01
       -2   -1    0    0    0  501  0.00000000000E+00  0.00000000000E+00  0.56509967616E+03  0.56509967616E+03  0.25500000920E-02 0.  1.
        2   -1    0    0  501    0  0.00000000000E+00  0.00000000000E+00 -0.19523874334E+04  0.19523874334E+04  0.25500000920E-02 0. -1.
    10030    2    1    2    0    0  0.00000000000E+00  0.00000000000E+00 -0.13872877572E+04  0.25174871095E+04  0.21007555844E+04 0.  0.
        5    1    3    3  502    0  0.49436739183E+03 -0.39468319709E+03 -0.16984898532E+04  0.18124745006E+04  0.46999998093E+01 0. -1.
       -5    1    3    3    0  502 -0.49436739183E+03  0.39468319709E+03  0.31120209596E+03  0.70501260889E+03  0.46999998093E+01 0.  1.
</event>
<event>
 5   0  0.3480134E-06  0.2099823E+04  0.7818609E-02  0.8561321E-01
       -2   -1    0    0    0  501  0.00000000000E+00  0.00000000000E+00  0.57559031632E+03  0.57559031633E+03  0.25500000920E-02 0. -1.
        2   -1    0    0  501    0  0.00000000000E+00  0.00000000000E+00 -0.19151014264E+04  0.19151014264E+04  0.25500000920E-02 0.  1.
    10030    2    1    2    0    0  0.00000000000E+00  0.00000000000E+00 -0.13395111101E+04  0.24906917427E+04  0.20998226933E+04 0.  0.
        1    1    3    3  502    0 -0.46460725346E+03  0.83813533915E+03 -0.11785311950E+04  0.15189689017E+04  0.50400001928E-02 0. -1.
       -1    1    3    3    0  502  0.46460725346E+03 -0.83813533915E+03 -0.16097991507E+03  0.97172284103E+03  0.50400001928E-02 0.  1.
</event>
<event>
 5   0  0.1646510E-06  0.2099570E+04  0.7818609E-02  0.8561433E-01
       -1   -1    0    0    0  501  0.00000000000E+00  0.00000000000E+00  0.14748672222E+04  0.14748672222E+04  0.50400001928E-02 0.  1.
        1   -1    0    0  501    0  0.00000000000E+00  0.00000000000E+00 -0.74721869074E+03  0.74721869075E+03  0.50400001928E-02 0. -1.
    10030    2    1    2    0    0  0.00000000000E+00  0.00000000000E+00  0.72764853146E+03  0.22220859130E+04  0.20995698177E+04 0.  0.
        4    1    3    3  502    0  0.52413763445E+03 -0.90954780313E+03  0.37125356276E+03  0.11134757684E+04  0.12699999809E+01 0. -1.
       -4    1    3    3    0  502 -0.52413763445E+03  0.90954780313E+03  0.35639496870E+03  0.11086101446E+04  0.12699999809E+01 0.  1.
</event>
<event>
 5   0  0.1646510E-06  0.2099899E+04  0.7818609E-02  0.8561288E-01
       -1   -1    0    0    0  501  0.00000000000E+00  0.00000000000E+00  0.11110071566E+04  0.11110071566E+04  0.50400001928E-02 0.  1.
        1   -1    0    0  501    0  0.00000000000E+00  0.00000000000E+00 -0.99224766947E+03  0.99224766948E+03  0.50400001928E-02 0. -1.
    10030    2    1    2    0    0  0.00000000000E+00  0.00000000000E+00  0.11875948715E+03  0.21032548261E+04  0.20998992947E+04 0.  0.
        4    1    3    3  502    0  0.19195187811E+03 -0.86013523780E+03 -0.51224625309E+03  0.10193507677E+04  0.12699999809E+01 0. -1.
       -4    1    3    3    0  502 -0.19195187811E+03  0.86013523780E+03  0.63100574023E+03  0.10839040584E+04  0.12699999809E+01 0.  1.
</event>
<event>
 5   0  0.1590067E-06  0.2099585E+04  0.7818609E-02  0.8561426E-01
        1   -1    0    0  501    0  0.00000000000E+00  0.00000000000E+00  0.87823878631E+03  0.87823878633E+03  0.50400001928E-02 0. -1.
       -1   -1    0    0    0  501  0.00000000000E+00  0.00000000000E+00 -0.12548575980E+04  0.12548575980E+04  0.50400001928E-02 0.  1.
    10030    2    1    2    0    0  0.00000000000E+00  0.00000000000E+00 -0.37661881169E+03  0.21330963843E+04  0.20995853056E+04 0.  0.
        5    1    3    3  502    0 -0.61941326757E+03 -0.18783751978E+03 -0.10279915144E+04  0.12148021952E+04  0.46999998093E+01 0.  1.
       -5    1    3    3    0  502  0.61941326757E+03  0.18783751978E+03  0.65137270272E+03  0.91829418909E+03  0.46999998093E+01 0. -1.
</event>
<event>
 5   0  0.3636435E-06  0.2101042E+04  0.7818609E-02  0.8560785E-01
        2   -1    0    0  501    0  0.00000000000E+00  0.00000000000E+00  0.12419215742E+04  0.12419215742E+04  0.25500000920E-02 0.  1.
       -2   -1    0    0    0  501  0.00000000000E+00  0.00000000000E+00 -0.88861817766E+03  0.88861817766E+03  0.25500000920E-02 0. -1.
    10030    2    1    2    0    0  0.00000000000E+00  0.00000000000E+00  0.35330339657E+03  0.21305397519E+04  0.21010417284E+04 0.  0.
        4    1    3    3  502    0 -0.42954682977E+03  0.85268176784E+02  0.11449461793E+04  0.12258403270E+04  0.12699999809E+01 0.  1.
       -4    1    3    3    0  502  0.42954682977E+03 -0.85268176784E+02 -0.79164278276E+03  0.90469942486E+03  0.12699999809E+01 0. -1.
</event>
<event>
 5   0  0.1590067E-06  0.2099557E+04  0.7818609E-02  0.8561438E-01
        1   -1    0    0  501    0  0.00000000000E+00  0.00000000000E+00  0.74522798391E+03  0.74522798393E+03  0.50400001928E-02 0.  1.
       -1   -1    0    0    0  501  0.00000000000E+00  0.00000000000E+00 -0.14787893250E+04  0.14787893250E+04  0.50400001928E-02 0. -1.
    10030    2    1    2    0    0  0.00000000000E+00  0.00000000000E+00 -0.73356134107E+03  0.22240173089E+04  0.20995572746E+04 0.  0.
        5    1    3    3  502    0  0.11582710313E+03  0.10132877716E+04 -0.63020930704E+03  0.11988969458E+04  0.46999998093E+01 0. -1.
       -5    1    3    3    0  502 -0.11582710313E+03 -0.10132877716E+04 -0.10335203404E+03  0.10251203631E+04  0.46999998093E+01 0.  1.
</event>
<event>
 5   0  0.3574927E-06  0.2100046E+04  0.7818609E-02  0.8561223E-01
       -2   -1    0    0    0  501  0.00000000000E+00  0.00000000000E+00  0.90181494515E+03  0.90181494515E+03  0.25500000920E-02 0. -1.
        2   -1    0    0  501    0  0.00000000000E+00  0.00000000000E+00 -0.12225876784E+04  0.12225876784E+04  0.25500000920E-02 0.  1.
    10030    2    1    2    0    0  0.00000000000E+00  0.00000000000E+00 -0.32077273329E+03  0.21244026236E+04  0.21000455616E+04 0.  0.
        3    1    3    3  502    0 -0.70970070464E+03  0.74158480785E+03  0.63368378150E+02  0.10284156159E+04  0.10100000352E+00 0. -1.
       -3    1    3    3    0  502  0.70970070464E+03 -0.74158480785E+03 -0.38414111144E+03  0.10959870077E+04  0.10100000352E+00 0.  1.
</event>
<event>
 5   0  0.3574927E-06  0.2090810E+04  0.7818609E-02  0.8565302E-01
        2   -1    0    0  501    0  0.00000000000E+00  0.00000000000E+00  0.11582493957E+04  0.11582493957E+04  0.25500000920E-02 0.  1.
       -2   -1    0    0    0  501  0.00000000000E+00  0.00000000000E+00 -0.94355482887E+03  0.94355482888E+03  0.25500000920E-02 0. -1.
    10030    2    1    2    0    0  0.00000000000E+00  0.00000000000E+00  0.21469456679E+03  0.21018042245E+04  0.20908101878E+04 0.  0.
        3    1    3    3  502    0  0.35866481843E+03 -0.30338482221E+03 -0.83147406133E+03  0.95500362680E+03  0.10100000352E+00 0. -1.
       -3    1    3    3    0  502 -0.35866481843E+03  0.30338482221E+03  0.10461686281E+04  0.11468005977E+04  0.10100000352E+00 0.  1.
</event>
<event>
 5   0  0.1257125E-06  0.2099916E+04  0.7818609E-02  0.8561281E-01
        3   -1    0    0  501    0  0.00000000000E+00  0.00000000000E+00  0.10267146440E+04  0.10267146490E+04  0.10100000352E+00 0. -1.
       -3   -1    0    0    0  501  0.00000000000E+00  0.00000000000E+00 -0.10737270623E+04  0.10737270670E+04  0.10100000352E+00 0.  1.
    10030    2    1    2    0    0  0.00000000000E+00  0.00000000000E+00 -0.47012418284E+02  0.21004417160E+04  0.20999155304E+04 0.  0.
        4    1    3    3  502    0  0.44662340584E+03 -0.81514562963E+02 -0.97047074800E+03  0.10714159679E+04  0.12699999809E+01 0.  1.
       -4    1    3    3    0  502 -0.44662340584E+03  0.81514562963E+02  0.92345832971E+03  0.10290257481E+04  0.12699999809E+01 0. -1.
</event>
<event>
 5   0  0.1590067E-06  0.2100619E+04  0.7818609E-02  0.8560971E-01
        1   -1    0    0  501    0  0.00000000000E+00  0.00000000000E+00  0.70075762267E+03  0.70075762268E+03  0.50400001928E-02 0. -1.
       -1   -1    0    0    0  501  0.00000000000E+00  0.00000000000E+00 -0.15742252497E+04  0.15742252497E+04  0.50400001928E-02 0.  1.
    10030    2    1    2    0    0  0.00000000000E+00  0.00000000000E+00 -0.87346762699E+03  0.22749828723E+04  0.21006192835E+04 0.  0.
        5    1    3    3  502    0  0.21566162214E+03 -0.26648190576E+03  0.63844918719E+03  0.72468061654E+03  0.46999998093E+01 0. -1.
       -5    1    3    3    0  502 -0.21566162214E+03  0.26648190576E+03 -0.15119168142E+04  0.15503022558E+04  0.46999998093E+01 0.  1.
</event>
<event>
 5   0  0.3574927E-06  0.2099215E+04  0.7818609E-02  0.8561589E-01
       -2   -1    0    0    0  501  0.00000000000E+00  0.00000000000E+00  0.52144770600E+03  0.52144770601E+03  0.25500000920E-02 0. -1.
        2   -1    0    0  501    0  0.00000000000E+00  0.00000000000E+00 -0.21127246954E+04  0.21127246954E+04  0.25500000920E-02 0.  1.
    10030    2    1    2    0    0  0.00000000000E+00  0.00000000000E+00 -0.15912769894E+04  0.26341724014E+04  0.20992145634E+04 0.  0.
        3    1    3    3  502    0 -0.75635346102E+03  0.36712653192E+03 -0.71623112807E+01  0.84077568789E+03  0.10100000352E+00 0. -1.
       -3    1    3    3    0  502  0.75635346102E+03 -0.36712653192E+03 -0.15841146781E+04  0.17933967135E+04  0.10100000352E+00 0.  1.
</event>
<event>
 5   0  0.1257125E-06  0.2099651E+04  0.7818609E-02  0.8561397E-01
       -3   -1    0    0    0  501  0.00000000000E+00  0.00000000000E+00  0.14817173646E+04  0.14817173680E+04  0.10100000352E+00 0. -1.
        3   -1    0    0  501    0  0.00000000000E+00  0.00000000000E+00 -0.74382141340E+03  0.74382142026E+03  0.10100000352E+00 0.  1.
    10030    2    1    2    0    0  0.00000000000E+00  0.00000000000E+00  0.73789595116E+03  0.22255387883E+04  0.20996505574E+04 0.  0.
        3    1    3    3  502    0 -0.36857826417E+03 -0.91669255916E+01 -0.67294106248E+03  0.76732239190E+03  0.10100000352E+00 0.  1.
       -3    1    3    3    0  502  0.36857826417E+03  0.91669255916E+01  0.14108370136E+04  0.14582163964E+04  0.10100000352E+00 0. -1.
</event>
<event>
 5   0  0.3547583E-06  0.2098836E+04  0.7818609E-02  0.8561756E-01
        2   -1    0    0  501    0  0.00000000000E+00  0.00000000000E+00  0.22297160162E+04  0.22297160162E+04  0.25500000920E-02 0.  1.
       -2   -1    0    0    0  501  0.00000000000E+00  0.00000000000E+00 -0.49390959658E+03  0.49390959658E+03  0.25500000920E-02 0. -1.
    10030    2    1    2    0    0  0.00000000000E+00  0.00000000000E+00  0.17358064196E+04  0.27236256128E+04  0.20988359994E+04 0.  0.
        2    1    3    3  502    0  0.62548413183E+03  0.14662292180E+03 -0.20890033172E+03  0.67555016762E+03  0.25500000920E-02 0. -1.
       -2    1    3    3    0  502 -0.62548413183E+03 -0.14662292180E+03  0.19447067514E+04  0.20480754452E+04  0.25500000920E-02 0.  1.
</event>
<event>
 5   0  0.3480134E-06  0.2099506E+04  0.7818609E-02  0.8561461E-01
        2   -1    0    0  501    0  0.00000000000E+00  0.00000000000E+00  0.96870081342E+03  0.96870081343E+03  0.25500000920E-02 0.  1.
       -2   -1    0    0    0  501  0.00000000000E+00  0.00000000000E+00 -0.11375868700E+04  0.11375868700E+04  0.25500000920E-02 0. -1.
    10030    2    1    2    0    0  0.00000000000E+00  0.00000000000E+00 -0.16888605661E+03  0.21062876835E+04  0.20995059670E+04 0.  0.
        1    1    3    3  502    0  0.20023562011E+03 -0.79200836338E+03  0.57693584811E+03  0.10001132556E+04  0.50400001928E-02 0.  1.
       -1    1    3    3    0  502 -0.20023562011E+03  0.79200836338E+03 -0.74582190471E+03  0.11061744278E+04  0.50400001928E-02 0. -1.
</event>
<event>
 5   0  0.1615098E-06  0.2100238E+04  0.7818609E-02  0.8561139E-01
       -1   -1    0    0    0  501  0.00000000000E+00  0.00000000000E+00  0.95198451625E+03  0.95198451626E+03  0.50400001928E-02 0.  1.
        1   -1    0    0  501    0  0.00000000000E+00  0.00000000000E+00 -0.11583694797E+04  0.11583694798E+04  0.50400001928E-02 0. -1.
    10030    2    1    2    0    0  0.00000000000E+00  0.00000000000E+00 -0.20638496350E+03  0.21103539960E+04  0.21002378997E+04 0.  0.
        1    1    3    3  502    0  0.85328136654E+03  0.46790282611E+02 -0.71643644021E+03  0.11151500320E+04  0.50400001928E-02 0. -1.
       -1    1    3    3    0  502 -0.85328136654E+03 -0.46790282611E+02  0.51005147671E+03  0.99520396400E+03  0.50400001928E-02 0.  1.
</event>
<event>
 5   0  0.3636435E-06  0.2098968E+04  0.7818609E-02  0.8561698E-01
        2   -1    0    0  501    0  0.00000000000E+00  0.00000000000E+00  0.12503740246E+04  0.12503740247E+04  0.25500000920E-02 0. -1.
       -2   -1    0    0    0  501  0.00000000000E+00  0.00000000000E+00 -0.88086983917E+03  0.88086983917E+03  0.25500000920E-02 0.  1.
    10030    2    1    2    0    0  0.00000000000E+00  0.00000000000E+00  0.36950418548E+03  0.21312438638E+04  0.20989680950E+04 0.  0.
        4    1    3    3  502    0  0.60864784613E+03  0.76135096365E+03 -0.21021214135E+03  0.99714504849E+03  0.12699999809E+01 0.  1.
       -4    1    3    3    0  502 -0.60864784613E+03 -0.76135096365E+03  0.57971632683E+03  0.11340988153E+04  0.12699999809E+01 0. -1.
</event>
<event>
 5   0  0.3636435E-06  0.2103822E+04  0.7818609E-02  0.8559561E-01
       -2   -1    0    0    0  501  0.00000000000E+00  0.00000000000E+00  0.63188949599E+03  0.63188949599E+03  0.25500000920E-02 0.  1.
        2   -1    0    0  501    0  0.00000000000E+00  0.00000000000E+00 -0.17511243947E+04  0.17511243947E+04  0.25500000920E-02 0. -1.
    10030    2    1    2    0    0  0.00000000000E+00  0.00000000000E+00 -0.11192348987E+04  0.23830138907E+04  0.21038223415E+04 0.  0.
        4    1    3    3  502    0  0.25797090839E+03 -0.75119702884E+03 -0.13408317389E+04  0.15584214227E+04  0.12699999809E+01 0. -1.
       -4    1    3    3    0  502 -0.25797090839E+03  0.75119702884E+03  0.22159684024E+03  0.82459246796E+03  0.12699999809E+01 0.  1.
</event>
<event>
 5   0  0.3705828E-06  0.2099001E+04  0.7818609E-02  0.8561684E-01
        2   -1    0    0  501    0  0.00000000000E+00  0.00000000000E+00  0.16630980515E+04  0.16630980515E+04  0.25500000920E-02 0. -1.
       -2   -1    0    0    0  501  0.00000000000E+00  0.00000000000E+00 -0.66228870022E+03  0.66228870023E+03  0.25500000920E-02 0.  1.
    10030    2    1    2    0    0  0.00000000000E+00  0.00000000000E+00  0.10008093513E+04  0.23253867518E+04  0.20990007593E+04 0.  0.
        5    1    3    3  502    0  0.85833765545E+03  0.48255874940E+03  0.98172010752E+02  0.98957885541E+03  0.46999998093E+01 0.  1.
       -5    1    3    3    0  502 -0.85833765545E+03 -0.48255874940E+03  0.90263734056E+03  0.13358078964E+04  0.46999998093E+01 0. -1.
</event>
<event>
 5   0  0.1646510E-06  0.2099852E+04  0.7818609E-02  0.8561309E-01
        1   -1    0    0  501    0  0.00000000000E+00  0.00000000000E+00  0.10196661343E+04  0.10196661343E+04  0.50400001928E-02 0.  1.
       -1   -1    0    0    0  501  0.00000000000E+00  0.00000000000E+00 -0.10810835949E+04  0.10810835949E+04  0.50400001928E-02 0. -1.
    10030    2    1    2    0    0  0.00000000000E+00  0.00000000000E+00 -0.61417460582E+02  0.21007497292E+04  0.20998517377E+04 0.  0.
        4    1    3    3  502    0  0.93477441741E+03  0.47707185187E+03 -0.43375929898E-02  0.10494771919E+04  0.12699999809E+01 0.  1.
       -4    1    3    3    0  502 -0.93477441741E+03 -0.47707185187E+03 -0.61413122989E+02  0.10512725374E+04  0.12699999809E+01 0. -1.
</event>
<event>
 5   0  0.1579820E-06  0.2099952E+04  0.7818609E-02  0.8561264E-01
        1   -1    0    0  501    0  0.00000000000E+00  0.00000000000E+00  0.97288229257E+03  0.97288229259E+03  0.50400001928E-02 0.  1.
       -1   -1    0    0    0  501  0.00000000000E+00  0.00000000000E+00 -0.11331790336E+04  0.11331790336E+04  0.50400001928E-02 0. -1.
    10030    2    1    2    0    0  0.00000000000E+00  0.00000000000E+00 -0.16029674104E+03  0.21060613262E+04  0.20999522053E+04 0.  0.
        2    1    3    3  502    0  0.42408161157E+03 -0.92057331083E+03 -0.35507974945E+03  0.10739562665E+04  0.25500000920E-02 0. -1.
       -2    1    3    3    0  502 -0.42408161157E+03  0.92057331083E+03  0.19478300841E+03  0.10321050597E+04  0.25500000920E-02 0.  1.
</event>
<event>
 5   0  0.3574927E-06  0.2099279E+04  0.7818609E-02  0.8561561E-01
       -2   -1    0    0    0  501  0.00000000000E+00  0.00000000000E+00  0.47755034115E+03  0.47755034116E+03  0.25500000920E-02 0. -1.
        2   -1    0    0  501    0  0.00000000000E+00  0.00000000000E+00 -0.23070710924E+04  0.23070710924E+04  0.25500000920E-02 0.  1.
    10030    2    1    2    0    0  0.00000000000E+00  0.00000000000E+00 -0.18295207513E+04  0.27846214336E+04  0.20992785306E+04 0.  0.
        3    1    3    3  502    0 -0.69724019409E+03  0.50277950773E+03 -0.17137416352E+04  0.19172484253E+04  0.10100000352E+00 0.  1.
       -3    1    3    3    0  502  0.69724019409E+03 -0.50277950773E+03 -0.11577911604E+03  0.86737300832E+03  0.10100000352E+00 0. -1.
</event>
<event>
 5   0  0.3480134E-06  0.2092889E+04  0.7818609E-02  0.8564382E-01
        2   -1    0    0  501    0  0.00000000000E+00  0.00000000000E+00  0.92137566147E+03  0.92137566147E+03  0.25500000920E-02 0. -1.
       -2   -1    0    0    0  501  0.00000000000E+00  0.00000000000E+00 -0.11884899691E+04  0.11884899691E+04  0.25500000920E-02 0.  1.
    10030    2    1    2    0    0  0.00000000000E+00  0.00000000000E+00 -0.26711430761E+03  0.21098656306E+04  0.20928886558E+04 0.  0.
        1    1    3    3  502    0  0.32939418230E+03  0.40146625902E+03 -0.10494254499E+04  0.11708840504E+04  0.50400001928E-02 0.  1.
       -1    1    3    3    0  502 -0.32939418230E+03 -0.40146625902E+03  0.78231114232E+03  0.93898158016E+03  0.50400001928E-02 0. -1.
</event>
<event>
 5   0  0.3636435E-06  0.2099820E+04  0.7818609E-02  0.8561323E-01
       -2   -1    0    0    0  501  0.00000000000E+00  0.00000000000E+00  0.57285497966E+03  0.57285497966E+03  0.25500000920E-02 0.  1.
        2   -1    0    0  501    0  0.00000000000E+00  0.00000000000E+00 -0.19242407099E+04  0.19242407099E+04  0.25500000920E-02 0. -1.
    10030    2    1    2    0    0  0.00000000000E+00  0.00000000000E+00 -0.13513857303E+04  0.24970956896E+04  0.20998198711E+04 0.  0.
        4    1    3    3  502    0 -0.48906040479E+03  0.87523441798E+03 -0.30514091513E+03  0.10480114298E+04  0.12699999809E+01 0.  1.
       -4    1    3    3    0  502  0.48906040479E+03 -0.87523441798E+03 -0.10462448151E+04  0.14490842598E+04  0.12699999809E+01 0. -1.
</event>
<event>
 5   0  0.1653260E-06  0.2099916E+04  0.7818609E-02  0.8561280E-01
       -1   -1    0    0    0  501  0.00000000000E+00  0.00000000000E+00  0.68802091422E+03  0.68802091423E+03  0.50400001928E-02 0.  1.
        1   -1    0    0  501    0  0.00000000000E+00  0.00000000000E+00 -0.16022936269E+04  0.16022936269E+04  0.50400001928E-02 0. -1.
    10030    2    1    2    0    0  0.00000000000E+00  0.00000000000E+00 -0.91427271266E+03  0.22903145411E+04  0.20999157374E+04 0.  0.
        3    1    3    3  502    0 -0.56825382317E+03 -0.17555424429E+03 -0.14008523699E+04  0.15218801111E+04  0.10100000352E+00 0. -1.
       -3    1    3    3    0  502  0.56825382317E+03  0.17555424429E+03  0.48657965719E+03  0.76843443002E+03  0.10100000352E+00 0.  1.
</event>
<event>
 5   0  0.1615098E-06  0.2101743E+04  0.7818609E-02  0.8560476E-01
        1   -1    0    0  501    0  0.00000000000E+00  0.00000000000E+00  0.16599141759E+04  0.16599141759E+04  0.50400001928E-02 0. -1.
       -1   -1    0    0    0  501  0.00000000000E+00  0.00000000000E+00 -0.66529387662E+03  0.66529387664E+03  0.50400001928E-02 0.  1.
    10030    2    1    2    0    0  0.00000000000E+00  0.00000000000E+00  0.99462029925E+03  0.23252080525E+04  0.21017428358E+04 0.  0.
        1    1    3    3  502    0  0.83218876068E+03 -0.17492716930E+03  0.11803636979E+04  0.14547838696E+04  0.50400001928E-02 0. -1.
       -1    1    3    3    0  502 -0.83218876068E+03  0.17492716930E+03 -0.18574339867E+03  0.87042418288E+03  0.50400001928E-02 0.  1.
</event>
<event>
 5   0  0.1579820E-06  0.2097656E+04  0.7818609E-02  0.8562277E-01
        1   -1    0    0  501    0  0.00000000000E+00  0.00000000000E+00  0.85271987958E+03  0.85271987959E+03  0.50400001928E-02 0.  1.
       -1   -1    0    0    0  501  0.00000000000E+00  0.00000000000E+00 -0.12900371237E+04  0.12900371237E+04  0.50400001928E-02 0. -1.
    10030    2    1    2    0    0  0.00000000000E+00  0.00000000000E+00 -0.43731724410E+03  0.21427570033E+04  0.20976561213E+04 0.  0.
        2    1    3    3  502    0  0.46943333555E+03  0.51339422805E+03  0.58313737780E+03  0.90773921989E+03  0.25500000920E-02 0.  1.
       -2    1    3    3    0  502 -0.46943333555E+03 -0.51339422805E+03 -0.10204546219E+04  0.12350177834E+04  0.25500000920E-02 0. -1.
</event>
<event>
 5   0  0.3480134E-06  0.2087009E+04  0.7818609E-02  0.8566988E-01
        2   -1    0    0  501    0  0.00000000000E+00  0.00000000000E+00  0.18651643671E+04  0.18651643671E+04  0.25500000920E-02 0.  1.
       -2   -1    0    0    0  501  0.00000000000E+00  0.00000000000E+00 -0.58380975746E+03  0.58380975747E+03  0.25500000920E-02 0. -1.
    10030    2    1    2    0    0  0.00000000000E+00  0.00000000000E+00  0.12813546097E+04  0.24489741246E+04  0.20870085355E+04 0.  0.
        1    1    3    3  502    0  0.36250739644E+02 -0.32183851653E+03 -0.52333900986E+03  0.61544932051E+03  0.50400001928E-02 0. -1.
       -1    1    3    3    0  502 -0.36250739644E+02  0.32183851653E+03  0.18046936195E+04  0.18335248041E+04  0.50400001928E-02 0.  1.
</event>
<event>
 5   0  0.3636435E-06  0.2099800E+04  0.7818609E-02  0.8561332E-01
        2   -1    0    0  501    0  0.00000000000E+00  0.00000000000E+00  0.10587477573E+04  0.10587477573E+04  0.25500000920E-02 0. -1.
       -2   -1    0    0    0  501  0.00000000000E+00  0.00000000000E+00 -0.10411258429E+04  0.10411258429E+04  0.25500000920E-02 0.  1.
    10030    2    1    2    0    0  0.00000000000E+00  0.00000000000E+00  0.17621914341E+02  0.20998736002E+04  0.20997996583E+04 0.  0.
        4    1    3    3  502    0  0.10649578841E+03 -0.10440460720E+04  0.39052473878E+02  0.10501905837E+04  0.12699999809E+01 0. -1.
       -4    1    3    3    0  502 -0.10649578841E+03  0.10440460720E+04 -0.21430559537E+02  0.10496830165E+04  0.12699999809E+01 0.  1.
</event>
<event>
 5   0  0.1590067E-06  0.2100112E+04  0.7818609E-02  0.8561194E-01
        1   -1    0    0  501    0  0.00000000000E+00  0.00000000000E+00  0.13198980422E+04  0.13198980422E+04  0.50400001928E-02 0.  1.
       -1   -1    0    0    0  501  0.00000000000E+00  0.00000000000E+00 -0.83538094290E+03  0.83538094292E+03  0.50400001928E-02 0. -1.
    10030    2    1    2    0    0  0.00000000000E+00  0.00000000000E+00  0.48451709929E+03  0.21552789851E+04  0.21001120647E+04 0.  0.
        5    1    3    3  502    0  0.89448270114E+03  0.44965252092E+03 -0.82776903672E+02  0.10045699567E+04  0.46999998093E+01 0. -1.
       -5    1    3    3    0  502 -0.89448270114E+03 -0.44965252092E+03  0.56729400296E+03  0.11507090284E+04  0.46999998093E+01 0.  1.
</event>
<event>
 5   0  0.3480134E-06  0.2104587E+04  0.7818609E-02  0.8559225E-01
        2   -1    0    0  501    0  0.00000000000E+00  0.00000000000E+00  0.99324324705E+03  0.99324324706E+03  0.25500000920E-02 0.  1.
       -2   -1    0    0    0  501  0.00000000000E+00  0.00000000000E+00 -0.11148547567E+04  0.11148547567E+04  0.25500000920E-02 0. -1.
    10030    2    1    2    0    0  0.00000000000E+00  0.00000000000E+00 -0.12161150968E+03  0.21080980038E+04  0.21045873311E+04 0.  0.
        1    1    3    3  502    0 -0.76404113258E+03 -0.30819849835E+03  0.59494405007E+03  0.10162202465E+04  0.50400001928E-02 0.  1.
       -1    1    3    3    0  502  0.76404113258E+03  0.30819849835E+03 -0.71655555975E+03  0.10918777573E+04  0.50400001928E-02 0. -1.
</event>
<event>
 5   0  0.1653260E-06  0.2099017E+04  0.7818609E-02  0.8561676E-01
       -1   -1    0    0    0  501  0.00000000000E+00  0.00000000000E+00  0.70510408239E+03  0.70510408241E+03  0.50400001928E-02 0.  1.
        1   -1    0    0  501    0  0.00000000000E+00  0.00000000000E+00 -0.15621357039E+04  0.15621357039E+04  0.50400001928E-02 0. -1.
    10030    2    1    2    0    0  0.00000000000E+00  0.00000000000E+00 -0.85703162146E+03  0.22672397863E+04  0.20990171625E+04 0.  0.
        3    1    3    3  502    0 -0.90466809108E+03 -0.40567288823E+03 -0.56730780520E+02  0.99308269491E+03  0.10100000352E+00 0.  1.
       -3    1    3    3    0  502  0.90466809108E+03  0.40567288823E+03 -0.80030084094E+03  0.12741570914E+04  0.10100000352E+00 0. -1.
</event>
<event>
 5   0  0.1590067E-06  0.2097907E+04  0.7818609E-02  0.8562166E-01
       -1   -1    0    0    0  501  0.00000000000E+00  0.00000000000E+00  0.12996656012E+04  0.12996656012E+04  0.50400001928E-02 0.  1.
        1   -1    0    0  501    0  0.00000000000E+00  0.00000000000E+00 -0.84660467265E+03  0.84660467267E+03  0.50400001928E-02 0. -1.
    10030    2    1    2    0    0  0.00000000000E+00  0.00000000000E+00  0.45306092856E+03  0.21462702739E+04  0.20979065479E+04 0.  0.
        5    1    3    3  502    0  0.44624873759E+03 -0.77000982052E+03  0.79451196444E+03  0.11930316053E+04  0.46999998093E+01 0.  1.
       -5    1    3    3    0  502 -0.44624873759E+03  0.77000982052E+03 -0.34145103588E+03  0.95323866864E+03  0.46999998093E+01 0. -1.
</event>
<event>
 5   0  0.1590067E-06  0.2100454E+04  0.7818609E-02  0.8561043E-01
        1   -1    0    0  501    0  0.00000000000E+00  0.00000000000E+00  0.13903749528E+04  0.13903749528E+04  0.50400001928E-02 0. -1.
       -1   -1    0    0    0  501  0.00000000000E+00  0.00000000000E+00 -0.79329446819E+03  0.79329446821E+03  0.50400001928E-02 0.  1.
    10030    2    1    2    0    0  0.00000000000E+00  0.00000000000E+00  0.59708048462E+03  0.21836694210E+04  0.21004540069E+04 0.  0.
        5    1    3    3  502    0  0.35109120955E+03 -0.87568236855E+03  0.77819744177E+03  0.12229873247E+04  0.46999998093E+01 0. -1.
       -5    1    3    3    0  502 -0.35109120955E+03  0.87568236855E+03 -0.18111695715E+03  0.96068209632E+03  0.46999998093E+01 0.  1.
</event>
<event>
 5   0  0.1257125E-06  0.2085613E+04  0.7818609E-02  0.8567608E-01
        4   -1    0    0  501    0  0.00000000000E+00  0.00000000000E+00  0.96267783017E+03  0.96267866789E+03  0.12699999809E+01 0. -1.
       -4   -1    0    0    0  501  0.00000000000E+00  0.00000000000E+00 -0.11296026914E+04  0.11296034053E+04  0.12699999809E+01 0.  1.
    10030    2    1    2    0    0  0.00000000000E+00  0.00000000000E+00 -0.16692486119E+03  0.20922820732E+04  0.20856127072E+04 0.  0.
        1    1    3    3  502    0 -0.10423298026E+04 -0.95511548546E+00 -0.51853557109E+02  0.10436192414E+04  0.50400001928E-02 0.  1.
       -1    1    3    3    0  502  0.10423298026E+04  0.95511548546E+00 -0.11507130408E+03  0.10486628318E+04  0.50400001928E-02 0. -1.
</event>
<event>
 5   0  0.3705828E-06  0.2099684E+04  0.7818609E-02  0.8561383E-01
        2   -1    0    0  501    0  0.00000000000E+00  0.00000000000E+00  0.11411448647E+04  0.11411448648E+04  0.25500000920E-02 0. -1.
       -2   -1    0    0    0  501  0.00000000000E+00  0.00000000000E+00 -0.96584439900E+03  0.96584439901E+03  0.25500000920E-02 0.  1.
    10030    2    1    2    0    0  0.00000000000E+00  0.00000000000E+00  0.17530046574E+03  0.21069892638E+04  0.20996841439E+04 0.  0.
        5    1    3    3  502    0  0.90893311135E+03 -0.37904099712E+03 -0.27736633645E+03  0.10231254337E+04  0.46999998093E+01 0.  1.
       -5    1    3    3    0  502 -0.90893311135E+03  0.37904099712E+03  0.45266680219E+03  0.10838638301E+04  0.46999998093E+01 0. -1.
</event>
<event>
 5   0  0.3636435E-06  0.2098236E+04  0.7818609E-02  0.8562021E-01
       -2   -1    0    0    0  501  0.00000000000E+00  0.00000000000E+00  0.53150540141E+03  0.53150540142E+03  0.25500000920E-02 0. -1.
        2   -1    0    0  501    0  0.00000000000E+00  0.00000000000E+00 -0.20708144741E+04  0.20708144741E+04  0.25500000920E-02 0.  1.
    10030    2    1    2    0    0  0.00000000000E+00  0.00000000000E+00 -0.15393090727E+04  0.26023198755E+04  0.20982364770E+04 0.  0.
        4    1    3    3  502    0 -0.23381937002E+02 -0.30856198602E+03 -0.20129248459E+04  0.20365719390E+04  0.12699999809E+01 0.  1.
       -4    1    3    3    0  502  0.23381937002E+02  0.30856198602E+03  0.47361577324E+03  0.56574793659E+03  0.12699999809E+01 0. -1.
</event>
<event>
 5   0  0.1615098E-06  0.2102218E+04  0.7818609E-02  0.8560267E-01
       -1   -1    0    0    0  501  0.00000000000E+00  0.00000000000E+00  0.16791539241E+04  0.16791539241E+04  0.50400001928E-02 0.  1.
        1   -1    0    0  501    0  0.00000000000E+00  0.00000000000E+00 -0.65796831192E+03  0.65796831194E+03  0.50400001928E-02 0. -1.
    10030    2    1    2    0    0  0.00000000000E+00  0.00000000000E+00  0.10211856122E+04  0.23371222360E+04  0.21022179458E+04 0.  0.
        1    1    3    3  502    0  0.55295034188E+03 -0.58202477095E+03 -0.24369154981E+03  0.83898300701E+03  0.50400001928E-02 0. -1.
       -1    1    3    3    0  502 -0.55295034188E+03  0.58202477095E+03  0.12648771620E+04  0.14981392290E+04  0.50400001928E-02 0.  1.
</event>
<event>
 5   0  0.3705828E-06  0.2100112E+04  0.7818609E-02  0.8561194E-01
       -2   -1    0    0    0  501  0.00000000000E+00  0.00000000000E+00  0.69401724117E+03  0.69401724117E+03  0.25500000920E-02 0.  1.
        2   -1    0    0  501    0  0.00000000000E+00  0.00000000000E+00 -0.15887473717E+04  0.15887473717E+04  0.25500000920E-02 0. -1.
    10030    2    1    2    0    0  0.00000000000E+00  0.00000000000E+00 -0.89473013052E+03  0.22827646129E+04  0.21001124425E+04 0.  0.
        5    1    3    3  502    0 -0.38036844219E+02 -0.94386956658E+03  0.51055911682E+02  0.94602608651E+03  0.46999998093E+01 0.  1.
       -5    1    3    3    0  502  0.38036844219E+02  0.94386956658E+03 -0.94578604220E+03  0.13367385264E+04  0.46999998093E+01 0. -1.
</event>
<event>
 5   0  0.1590067E-06  0.2099000E+04  0.7818609E-02  0.8561684E-01
        1   -1    0    0  501    0  0.00000000000E+00  0.00000000000E+00  0.16057223015E+04  0.16057223015E+04  0.50400001928E-02 0.  1.
       -1   -1    0    0    0  501  0.00000000000E+00  0.00000000000E+00 -0.68595331938E+03  0.68595331940E+03  0.50400001928E-02 0. -1.
    10030    2    1    2    0    0  0.00000000000E+00  0.00000000000E+00  0.91976898210E+03  0.22916756209E+04  0.20990002789E+04 0.  0.
        5    1    3    3  502    0 -0.38332847430E+03 -0.75027179793E+03 -0.22332026153E+03  0.87163210082E+03  0.46999998093E+01 0. -1.
       -5    1    3    3    0  502  0.38332847430E+03  0.75027179793E+03  0.11430892436E+04  0.14200435201E+04  0.46999998093E+01 0.  1.
</event>
<event>
 5   0  0.3574927E-06  0.2099767E+04  0.7818609E-02  0.8561346E-01
       -2   -1    0    0    0  501  0.00000000000E+00  0.00000000000E+00  0.84903946022E+03  0.84903946023E+03  0.25500000920E-02 0. -1.
        2   -1    0    0  501    0  0.00000000000E+00  0.00000000000E+00 -0.12982383851E+04  0.12982383851E+04  0.25500000920E-02 0.  1.
    10030    2    1    2    0    0  0.00000000000E+00  0.00000000000E+00 -0.44919892487E+03  0.21472778453E+04  0.20997672421E+04 0.  0.
        3    1    3    3  502    0 -0.58905563773E+03  0.73421423964E+03 -0.70009170819E+03  0.11731093317E+04  0.10100000352E+00 0.  1.
       -3    1    3    3    0  502  0.58905563773E+03 -0.73421423964E+03  0.25089278331E+03  0.97416851363E+03  0.10100000352E+00 0. -1.
</event>
<event>
 5   0  0.3705828E-06  0.2099986E+04  0.7818609E-02  0.8561249E-01
       -2   -1    0    0    0  501  0.00000000000E+00  0.00000000000E+00  0.59650258633E+03  0.59650258634E+03  0.25500000920E-02 0. -1.
        2   -1    0    0  501    0  0.00000000000E+00  0.00000000000E+00 -0.18482495787E+04  0.18482495787E+04  0.25500000920E-02 0.  1.
    10030    2    1    2    0    0  0.00000000000E+00  0.00000000000E+00 -0.12517469924E+04  0.24447521650E+04  0.20999863370E+04 0.  0.
        5    1    3    3  502    0  0.63745510957E+03  0.82119712097E+03 -0.45418295859E+03  0.11344681477E+04  0.46999998093E+01 0. -1.
       -5    1    3    3    0  502 -0.63745510957E+03 -0.82119712097E+03 -0.79756403377E+03  0.13102840174E+04  0.46999998093E+01 0.  1.
</event>
<event>
 5   0  0.1646510E-06  0.2100231E+04  0.7818609E-02  0.8561142E-01
       -1   -1    0    0    0  501  0.00000000000E+00  0.00000000000E+00  0.12850204175E+04  0.12850204176E+04  0.50400001928E-02 0. -1.
        1   -1    0    0  501    0  0.00000000000E+00  0.00000000000E+00 -0.85815183374E+03  0.85815183375E+03  0.50400001928E-02 0.  1.
    10030    2    1    2    0    0  0.00000000000E+00  0.00000000000E+00  0.42686858381E+03  0.21431722513E+04  0.21002310613E+04 0.  0.
        4    1    3    3  502    0 -0.68085337095E+03 -0.62805887279E+03 -0.29137377822E+03  0.97104044816E+03  0.12699999809E+01 0.  1.
       -4    1    3    3    0  502  0.68085337095E+03  0.62805887279E+03  0.71824236203E+03  0.11721318031E+04  0.12699999809E+01 0. -1.
</event>
<event>
 5   0  0.3574927E-06  0.2097672E+04  0.7818609E-02  0.8562270E-01
       -2   -1    0    0    0  501  0.00000000000E+00  0.00000000000E+00  0.57221600716E+03  0.57221600717E+03  0.25500000920E-02 0. -1.
        2   -1    0    0  501    0  0.00000000000E+00  0.00000000000E+00 -0.19224506795E+04  0.19224506795E+04  0.25500000920E-02 0.  1.
    10030    2    1    2    0    0  0.00000000000E+00  0.00000000000E+00 -0.13502346724E+04  0.24946666867E+04  0.20976720924E+04 0.  0.
        3    1    3    3  502    0 -0.73807023177E+02 -0.11033615682E+03 -0.19124199782E+04  0.19170215772E+04  0.10100000352E+00 0.  1.
       -3    1    3    3    0  502  0.73807023177E+02  0.11033615682E+03  0.56218530587E+03  0.57764510948E+03  0.10100000352E+00 0. -1.
</event>
<event>
 5   0  0.3547583E-06  0.2101948E+04  0.7818609E-02  0.8560386E-01
        2   -1    0    0  501    0  0.00000000000E+00  0.00000000000E+00  0.11279338687E+04  0.11279338687E+04  0.25500000920E-02 0.  1.
       -2   -1    0    0    0  501  0.00000000000E+00  0.00000000000E+00 -0.97926537859E+03  0.97926537859E+03  0.25500000920E-02 0. -1.
    10030    2    1    2    0    0  0.00000000000E+00  0.00000000000E+00  0.14866849006E+03  0.21071992472E+04  0.21019482267E+04 0.  0.
        2    1    3    3  502    0 -0.12272312092E+03 -0.10348449194E+04  0.21098918036E+03  0.10632409914E+04  0.25500000920E-02 0. -1.
       -2    1    3    3    0  502  0.12272312092E+03  0.10348449194E+04 -0.62320690298E+02  0.10439582559E+04  0.25500000920E-02 0.  1.
</event>
<event>
 5   0  0.3636435E-06  0.2103719E+04  0.7818609E-02  0.8559607E-01
        2   -1    0    0  501    0  0.00000000000E+00  0.00000000000E+00  0.10905477300E+04  0.10905477300E+04  0.25500000920E-02 0. -1.
       -2   -1    0    0    0  501  0.00000000000E+00  0.00000000000E+00 -0.10145440317E+04  0.10145440317E+04  0.25500000920E-02 0.  1.
    10030    2    1    2    0    0  0.00000000000E+00  0.00000000000E+00  0.76003698312E+02  0.21050917617E+04  0.21037192690E+04 0.  0.
        4    1    3    3  502    0 -0.37329908601E+02  0.87022739992E+03  0.62806259776E+03  0.10738498448E+04  0.12699999809E+01 0. -1.
       -4    1    3    3    0  502  0.37329908601E+02 -0.87022739992E+03 -0.55205889945E+03  0.10312419168E+04  0.12699999809E+01 0.  1.
</event>
<event>
 5   0  0.3705828E-06  0.2101461E+04  0.7818609E-02  0.8560600E-01
       -2   -1    0    0    0  501  0.00000000000E+00  0.00000000000E+00  0.14933980093E+04  0.14933980093E+04  0.25500000920E-02 0. -1.
        2   -1    0    0  501    0  0.00000000000E+00  0.00000000000E+00 -0.73927709773E+03  0.73927709773E+03  0.25500000920E-02 0.  1.
    10030    2    1    2    0    0  0.00000000000E+00  0.00000000000E+00  0.75412091156E+03  0.22326751070E+04  0.21014613449E+04 0.  0.
        5    1    3    3  502    0  0.16942055614E+03  0.10207599324E+04  0.18301269779E+03  0.10507948905E+04  0.46999998093E+01 0. -1.
       -5    1    3    3    0  502 -0.16942055614E+03 -0.10207599324E+04  0.57110821376E+03  0.11818802165E+04  0.46999998093E+01 0.  1.
</event>
<event>
 5   0  0.3480134E-06  0.2100447E+04  0.7818609E-02  0.8561047E-01
        2   -1    0    0  501    0  0.00000000000E+00  0.00000000000E+00  0.59448495869E+03  0.59448495870E+03  0.25500000920E-02 0.  1.
       -2   -1    0    0    0  501  0.00000000000E+00  0.00000000000E+00 -0.18553358276E+04  0.18553358276E+04  0.25500000920E-02 0. -1.
    10030    2    1    2    0    0  0.00000000000E+00  0.00000000000E+00 -0.12608508689E+04  0.24498207863E+04  0.21004468504E+04 0.  0.
        1    1    3    3  502    0 -0.85245567646E+03 -0.60461895376E+03 -0.75120982319E+03  0.12870745736E+04  0.50400001928E-02 0.  1.
       -1    1    3    3    0  502  0.85245567646E+03  0.60461895376E+03 -0.50964104570E+03  0.11627462127E+04  0.50400001928E-02 0. -1.
</event>
<event>
 5   0  0.3480134E-06  0.2105038E+04  0.7818609E-02  0.8559027E-01
        2   -1    0    0  501    0  0.00000000000E+00  0.00000000000E+00  0.15107022124E+04  0.15107022124E+04  0.25500000920E-02 0.  1.
       -2   -1    0    0    0  501  0.00000000000E+00  0.00000000000E+00 -0.73329905489E+03  0.73329905490E+03  0.25500000920E-02 0. -1.
    10030    2    1    2    0    0  0.00000000000E+00  0.00000000000E+00  0.77740315752E+03  0.22440012673E+04  0.21050382463E+04 0.  0.
        1    1    3    3  502    0  0.59964263916E+03  0.91882636229E+02 -0.52818416297E+03  0.80435826817E+03  0.50400001928E-02 0. -1.
       -1    1    3    3    0  502 -0.59964263916E+03 -0.91882636229E+02  0.13055873205E+04  0.14396429991E+04  0.50400001928E-02 0.  1.
</event>
<event>
 5   0  0.1615098E-06  0.2100152E+04  0.7818609E-02  0.8561177E-01
        1   -1    0    0  501    0  0.00000000000E+00  0.00000000000E+00  0.10572003802E+04  0.10572003803E+04  0.50400001928E-02 0.  1.
       -1   -1    0    0    0  501  0.00000000000E+00  0.00000000000E+00 -0.10429993199E+04  0.10429993199E+04  0.50400001928E-02 0. -1.
    10030    2    1    2    0    0  0.00000000000E+00  0.00000000000E+00  0.14201060352E+02  0.21001997001E+04  0.21001516875E+04 0.  0.
        1    1    3    3  502    0 -0.66188404942E+01 -0.31637040855E+03 -0.99418418066E+03  0.10433293965E+04  0.50400001928E-02 0. -1.
       -1    1    3    3    0  502  0.66188404942E+01  0.31637040855E+03  0.10083852410E+04  0.10568703037E+04  0.50400001928E-02 0.  1.
</event>
<event>
 5   0  0.1579820E-06  0.2100047E+04  0.7818609E-02  0.8561223E-01
        1   -1    0    0  501    0  0.00000000000E+00  0.00000000000E+00  0.13709252264E+04  0.13709252264E+04  0.50400001928E-02 0.  1.
       -1   -1    0    0    0  501  0.00000000000E+00  0.00000000000E+00 -0.80423729036E+03  0.80423729038E+03  0.50400001928E-02 0. -1.
    10030    2    1    2    0    0  0.00000000000E+00  0.00000000000E+00  0.56668793599E+03  0.21751625167E+04  0.21000468465E+04 0.  0.
        2    1    3    3  502    0 -0.22514742490E+03 -0.19636258264E+03 -0.75928948571E+03  0.81594739408E+03  0.25500000920E-02 0. -1.
       -2    1    3    3    0  502  0.22514742490E+03  0.19636258264E+03  0.13259774217E+04  0.13592151227E+04  0.25500000920E-02 0.  1.
</event>
<event>
 5   0  0.3480134E-06  0.2096981E+04  0.7818609E-02  0.8562575E-01
       -2   -1    0    0    0  501  0.00000000000E+00  0.00000000000E+00  0.50054968911E+03  0.50054968912E+03  0.25500000920E-02 0. -1.
        2   -1    0    0  501    0  0.00000000000E+00  0.00000000000E+00 -0.21962492719E+04  0.21962492719E+04  0.25500000920E-02 0.  1.
    10030    2    1    2    0    0  0.00000000000E+00  0.00000000000E+00 -0.16956995828E+04  0.26967989610E+04  0.20969805820E+04 0.  0.
        1    1    3    3  502    0 -0.65323313793E+03 -0.40465634940E+03  0.69549221891E+02  0.77155517488E+03  0.50400001928E-02 0. -1.
       -1    1    3    3    0  502  0.65323313793E+03  0.40465634940E+03 -0.17652488047E+04  0.19252437862E+04  0.50400001928E-02 0.  1.
</event>
<event>
 5   0  0.1590067E-06  0.2096831E+04  0.7818609E-02  0.8562641E-01
        1   -1    0    0  501    0  0.00000000000E+00  0.00000000000E+00  0.13080331004E+04  0.13080331004E+04  0.50400001928E-02 0. -1.
       -1   -1    0    0    0  501  0.00000000000E+00  0.00000000000E+00 -0.84032662641E+03  0.84032662643E+03  0.50400001928E-02 0.  1.
    10030    2    1    2    0    0  0.00000000000E+00  0.00000000000E+00  0.46770647396E+03  0.21483597268E+04  0.20968309827E+04 0.  0.
        5    1    3    3  502    0 -0.26075440358E+03  0.40459648022E+03  0.11881177031E+04  0.12819270405E+04  0.46999998093E+01 0. -1.
       -5    1    3    3    0  502  0.26075440358E+03 -0.40459648022E+03 -0.72041122915E+03  0.86643268629E+03  0.46999998093E+01 0.  1.
</event>
<event>
 5   0  0.3705828E-06  0.2099946E+04  0.7818609E-02  0.8561267E-01
       -2   -1    0    0    0  501  0.00000000000E+00  0.00000000000E+00  0.13859692099E+04  0.13859692099E+04  0.25500000920E-02 0.  1.
        2   -1    0    0  501    0  0.00000000000E+00  0.00000000000E+00 -0.79543094114E+03  0.79543094115E+03  0.25500000920E-02 0. -1.
    10030    2    1    2    0    0  0.00000000000E+00  0.00000000000E+00  0.59053826872E+03  0.21814001510E+04  0.20999455164E+04 0.  0.
        5    1    3    3  502    0  0.93190257358E+02 -0.90227165343E+02 -0.78706485359E+03  0.79769576856E+03  0.46999998093E+01 0. -1.
       -5    1    3    3    0  502 -0.93190257358E+02  0.90227165343E+02  0.13776031223E+04  0.13837043825E+04  0.46999998093E+01 0.  1.
</event>
<event>
 5   0  0.1653260E-06  0.2100034E+04  0.7818609E-02  0.8561228E-01
        1   -1    0    0  501    0  0.00000000000E+00  0.00000000000E+00  0.15579806838E+04  0.15579806838E+04  0.50400001928E-02 0.  1.
       -1   -1    0    0    0  501  0.00000000000E+00  0.00000000000E+00 -0.70766952784E+03  0.70766952785E+03  0.50400001928E-02 0. -1.
    10030    2    1    2    0    0  0.00000000000E+00  0.00000000000E+00  0.85031115600E+03  0.22656502117E+04  0.21000337663E+04 0.  0.
        3    1    3    3  502    0 -0.10405571342E+04 -0.80727866578E+02  0.30092543261E+03  0.10862008397E+04  0.10100000352E+00 0.  1.
       -3    1    3    3    0  502  0.10405571342E+04  0.80727866578E+02  0.54938572339E+03  0.11794493720E+04  0.10100000352E+00 0. -1.
</event>
<event>
 5   0  0.3547583E-06  0.2099984E+04  0.7818609E-02  0.8561250E-01
        2   -1    0    0  501    0  0.00000000000E+00  0.00000000000E+00  0.17631386964E+04  0.17631386965E+04  0.25500000920E-02 0.  1.
       -2   -1    0    0    0  501  0.00000000000E+00  0.00000000000E+00 -0.62529569568E+03  0.62529569569E+03  0.25500000920E-02 0. -1.
    10030    2    1    2    0    0  0.00000000000E+00  0.00000000000E+00  0.11378430008E+04  0.23884343921E+04  0.20999838455E+04 0.  0.
        2    1    3    3  502    0  0.28818302407E+03 -0.63702762313E+03  0.14598655637E+04  0.16186602831E+04  0.25500000920E-02 0.  1.
       -2    1    3    3    0  502 -0.28818302407E+03  0.63702762313E+03 -0.32202256289E+03  0.76977410908E+03  0.25500000920E-02 0. -1.
</event>
<event>
 5   0  0.1646510E-06  0.2100699E+04  0.7818609E-02  0.8560936E-01
       -1   -1    0    0    0  501  0.00000000000E+00  0.00000000000E+00  0.76305247904E+03  0.76305247905E+03  0.50400001928E-02 0. -1.
        1   -1    0    0  501    0  0.00000000000E+00  0.00000000000E+00 -0.14458166274E+04  0.14458166274E+04  0.50400001928E-02 0.  1.
    10030    2    1    2    0    0  0.00000000000E+00  0.00000000000E+00 -0.68276414839E+03  0.22088691065E+04  0.21006988950E+04 0.  0.
        4    1    3    3  502    0 -0.42276023756E+03  0.16157584149E+03  0.65526385088E+03  0.79637007614E+03  0.12699999809E+01 0. -1.
       -4    1    3    3    0  502  0.42276023756E+03 -0.16157584149E+03 -0.13380279993E+04  0.14124990303E+04  0.12699999809E+01 0.  1.
</event>
<event>
 5   0  0.1590067E-06  0.2103084E+04  0.7818609E-02  0.8559886E-01
        1   -1    0    0  501    0  0.00000000000E+00  0.00000000000E+00  0.14841799999E+04  0.14841799999E+04  0.50400001928E-02 0.  1.
       -1   -1    0    0    0  501  0.00000000000E+00  0.00000000000E+00 -0.74501759149E+03  0.74501759151E+03  0.50400001928E-02 0. -1.
    10030    2    1    2    0    0  0.00000000000E+00  0.00000000000E+00  0.73916240843E+03  0.22291975914E+04  0.21030836492E+04 0.  0.
        5    1    3    3  502    0  0.70399423869E+03 -0.75981211939E+03  0.17762552710E+03  0.10509496956E+04  0.46999998093E+01 0. -1.
       -5    1    3    3    0  502 -0.70399423869E+03  0.75981211939E+03  0.56153688133E+03  0.11782478958E+04  0.46999998093E+01 0.  1.
</event>
<event>
 5   0  0.1615098E-06  0.2102236E+04  0.7818609E-02  0.8560259E-01
        1   -1    0    0  501    0  0.00000000000E+00  0.00000000000E+00  0.15089471607E+04  0.15089471607E+04  0.50400001928E-02 0.  1.
       -1   -1    0    0    0  501  0.00000000000E+00  0.00000000000E+00 -0.73219895755E+03  0.73219895757E+03  0.50400001928E-02 0. -1.
    10030    2    1    2    0    0  0.00000000000E+00  0.00000000000E+00  0.77674820314E+03  0.22411461183E+04  0.21022364644E+04 0.  0.
        1    1    3    3  502    0  0.20907008463E+03  0.18188259497E+03  0.14693036965E+04  0.14952073205E+04  0.50400001928E-02 0.  1.
       -1    1    3    3    0  502 -0.20907008463E+03 -0.18188259497E+03 -0.69255549336E+03  0.74593879779E+03  0.50400001928E-02 0. -1.
</event>
<event>
 5   0  0.1579820E-06  0.2099056E+04  0.7818609E-02  0.8561659E-01
        1   -1    0    0  501    0  0.00000000000E+00  0.00000000000E+00  0.14526888027E+04  0.14526888028E+04  0.50400001928E-02 0.  1.
       -1   -1    0    0    0  501  0.00000000000E+00  0.00000000000E+00 -0.75825559695E+03  0.75825559697E+03  0.50400001928E-02 0. -1.
    10030    2    1    2    0    0  0.00000000000E+00  0.00000000000E+00  0.69443320579E+03  0.22109443997E+04  0.20990563740E+04 0.  0.
        2    1    3    3  502    0  0.64319898100E+03  0.81689188328E+03  0.19643535051E+03  0.10581134746E+04  0.25500000920E-02 0. -1.
       -2    1    3    3    0  502 -0.64319898100E+03 -0.81689188328E+03  0.49799785528E+03  0.11528309252E+04  0.25500000920E-02 0.  1.
</event>
<event>
 5   0  0.3574927E-06  0.2099692E+04  0.7818609E-02  0.8561379E-01
       -2   -1    0    0    0  501  0.00000000000E+00  0.00000000000E+00  0.58154127909E+03  0.58154127909E+03  0.25500000920E-02 0. -1.
        2   -1    0    0  501    0  0.00000000000E+00  0.00000000000E+00 -0.18952679161E+04  0.18952679161E+04  0.25500000920E-02 0.  1.
    10030    2    1    2    0    0  0.00000000000E+00  0.00000000000E+00 -0.13137266370E+04  0.24768091952E+04  0.20996919090E+04 0.  0.
        3    1    3    3  502    0  0.43536395321E+03 -0.70088953786E+03  0.10887145333E+03  0.83225051492E+03  0.10100000352E+00 0. -1.
       -3    1    3    3    0  502 -0.43536395321E+03  0.70088953786E+03 -0.14225980903E+04  0.16445586803E+04  0.10100000352E+00 0.  1.
</event>
<event>
 5   0  0.3480134E-06  0.2100509E+04  0.7818609E-02  0.8561019E-01
       -2   -1    0    0    0  501  0.00000000000E+00  0.00000000000E+00  0.12093643778E+04  0.12093643778E+04  0.25500000920E-02 0.  1.
        2   -1    0    0  501    0  0.00000000000E+00  0.00000000000E+00 -0.91207747894E+03  0.91207747894E+03  0.25500000920E-02 0. -1.
    10030    2    1    2    0    0  0.00000000000E+00  0.00000000000E+00  0.29728689888E+03  0.21214418568E+04  0.21005085221E+04 0.  0.
        1    1    3    3  502    0 -0.10116855756E+04 -0.19662264753E+03 -0.55524195364E+02  0.10321100260E+04  0.50400001928E-02 0. -1.
       -1    1    3    3    0  502  0.10116855756E+04  0.19662264753E+03  0.35281109425E+03  0.10893318308E+04  0.50400001928E-02 0.  1.
</event>
<event>
 5   0  0.1579820E-06  0.2097262E+04  0.7818609E-02  0.8562450E-01
        1   -1    0    0  501    0  0.00000000000E+00  0.00000000000E+00  0.13179647347E+04  0.13179647347E+04  0.50400001928E-02 0. -1.
       -1   -1    0    0    0  501  0.00000000000E+00  0.00000000000E+00 -0.83433713630E+03  0.83433713632E+03  0.50400001928E-02 0.  1.
    10030    2    1    2    0    0  0.00000000000E+00  0.00000000000E+00  0.48362759836E+03  0.21523018710E+04  0.20972619507E+04 0.  0.
        2    1    3    3  502    0 -0.79632445093E+03  0.39550057175E+03 -0.32872009907E+03  0.94795054562E+03  0.25500000920E-02 0.  1.
       -2    1    3    3    0  502  0.79632445093E+03 -0.39550057175E+03  0.81234769743E+03  0.12043513254E+04  0.25500000920E-02 0. -1.
</event>
<event>
 5   0  0.1646510E-06  0.2100131E+04  0.7818609E-02  0.8561186E-01
       -1   -1    0    0    0  501  0.00000000000E+00  0.00000000000E+00  0.14414310056E+04  0.14414310056E+04  0.50400001928E-02 0. -1.
        1   -1    0    0  501    0  0.00000000000E+00  0.00000000000E+00 -0.76496027839E+03  0.76496027841E+03  0.50400001928E-02 0.  1.
    10030    2    1    2    0    0  0.00000000000E+00  0.00000000000E+00  0.67647072723E+03  0.22063912840E+04  0.21001309134E+04 0.  0.
        4    1    3    3  502    0 -0.75040938795E+03 -0.66637680755E+03  0.13630547775E+02  0.10036731061E+04  0.12699999809E+01 0.  1.
       -4    1    3    3    0  502  0.75040938795E+03  0.66637680755E+03  0.66284017945E+03  0.12027181779E+04  0.12699999809E+01 0. -1.
</event>
<event>
 5   0  0.1653260E-06  0.2098563E+04  0.7818609E-02  0.8561877E-01
       -1   -1    0    0    0  501  0.00000000000E+00  0.00000000000E+00  0.38375943610E+03  0.38375943614E+03  0.50400001928E-02 0. -1.
        1   -1    0    0  501    0  0.00000000000E+00  0.00000000000E+00 -0.28689631051E+04  0.28689631051E+04  0.50400001928E-02 0.  1.
    10030    2    1    2    0    0  0.00000000000E+00  0.00000000000E+00 -0.24852036690E+04  0.32527225413E+04  0.20985629974E+04 0.  0.
        3    1    3    3  502    0 -0.13729065140E+03  0.10259428621E+04 -0.97600515698E+03  0.14226712747E+04  0.10100000352E+00 0. -1.
       -3    1    3    3    0  502  0.13729065140E+03 -0.10259428621E+04 -0.15091985121E+04  0.18300512666E+04  0.10100000352E+00 0.  1.
</event>
<event>
 5   0  0.1646510E-06  0.2099018E+04  0.7818609E-02  0.8561676E-01
        1   -1    0    0  501    0  0.00000000000E+00  0.00000000000E+00  0.20693560508E+04  0.20693560508E+04  0.50400001928E-02 0. -1.
       -1   -1    0    0    0  501  0.00000000000E+00  0.00000000000E+00 -0.53227617451E+03  0.53227617454E+03  0.50400001928E-02 0.  1.
    10030    2    1    2    0    0  0.00000000000E+00  0.00000000000E+00  0.15370798763E+04  0.26016322253E+04  0.20990177917E+04 0.  0.
        4    1    3    3  502    0 -0.36401026623E+02 -0.31535251992E+03  0.20084228147E+04  0.20333558621E+04  0.12699999809E+01 0. -1.
       -4    1    3    3    0  502  0.36401026623E+02  0.31535251992E+03 -0.47134293838E+03  0.56827636324E+03  0.12699999809E+01 0.  1.
</event>
<event>
 5   0  0.3547583E-06  0.2099951E+04  0.7818609E-02  0.8561265E-01
       -2   -1    0    0    0  501  0.00000000000E+00  0.00000000000E+00  0.13384560474E+04  0.13384560474E+04  0.25500000920E-02 0.  1.
        2   -1    0    0  501    0  0.00000000000E+00  0.00000000000E+00 -0.82367205485E+03  0.82367205486E+03  0.25500000920E-02 0. -1.
    10030    2    1    2    0    0  0.00000000000E+00  0.00000000000E+00  0.51478399254E+03  0.21621281023E+04  0.20999512784E+04 0.  0.
        2    1    3    3  502    0  0.26683768739E+03  0.87905670375E+03  0.78088074431E+03  0.12057021924E+04  0.25500000920E-02 0.  1.
       -2    1    3    3    0  502 -0.26683768739E+03 -0.87905670375E+03 -0.26609675177E+03  0.95642590990E+03  0.25500000920E-02 0. -1.
</event>
<event>
 5   0  0.3480134E-06  0.2102630E+04  0.7818609E-02  0.8560086E-01
        2   -1    0    0  501    0  0.00000000000E+00  0.00000000000E+00  0.15575585458E+04  0.15575585458E+04  0.25500000920E-02 0.  1.
       -2   -1    0    0    0  501  0.00000000000E+00  0.00000000000E+00 -0.70961248387E+03  0.70961248388E+03  0.25500000920E-02 0. -1.
    10030    2    1    2    0    0  0.00000000000E+00  0.00000000000E+00  0.84794606192E+03  0.22671710297E+04  0.21026297710E+04 0.  0.
        1    1    3    3  502    0  0.23366693105E+02  0.77365551377E+03  0.11911074128E+04  0.14205019272E+04  0.50400001928E-02 0.  1.
       -1    1    3    3    0  502 -0.23366693105E+02 -0.77365551377E+03 -0.34316135087E+03  0.84666910248E+03  0.50400001928E-02 0. -1.
</event>
<event>
 5   0  0.1615098E-06  0.2098988E+04  0.7818609E-02  0.8561689E-01
       -1   -1    0    0    0  501  0.00000000000E+00  0.00000000000E+00  0.67171150442E+03  0.67171150444E+03  0.50400001928E-02 0.  1.
        1   -1    0    0  501    0  0.00000000000E+00  0.00000000000E+00 -0.16397485688E+04  0.16397485688E+04  0.50400001928E-02 0. -1.
    10030    2    1    2    0    0  0.00000000000E+00  0.00000000000E+00 -0.96803706442E+03  0.23114600733E+04  0.20989883069E+04 0.  0.
        1    1    3    3  502    0 -0.50198921673E+03  0.77783623876E+03  0.60409939041E+02  0.92772396153E+03  0.50400001928E-02 0.  1.
       -1    1    3    3    0  502  0.50198921673E+03 -0.77783623876E+03 -0.10284470035E+04  0.13837361118E+04  0.50400001928E-02 0. -1.
</event>
<event>
 5   0  0.3547583E-06  0.2099954E+04  0.7818609E-02  0.8561263E-01
       -2   -1    0    0    0  501  0.00000000000E+00  0.00000000000E+00  0.15188964506E+04  0.15188964506E+04  0.25500000920E-02 0. -1.
        2   -1    0    0  501    0  0.00000000000E+00  0.00000000000E+00 -0.72582439146E+03  0.72582439146E+03  0.25500000920E-02 0.  1.
    10030    2    1    2    0    0  0.00000000000E+00  0.00000000000E+00  0.79307205910E+03  0.22447208420E+04  0.20999543728E+04 0.  0.
        2    1    3    3  502    0 -0.73265374527E+02 -0.90730852374E+03 -0.16287250466E+03  0.92471834909E+03  0.25500000920E-02 0.  1.
       -2    1    3    3    0  502  0.73265374527E+02  0.90730852374E+03  0.95594456376E+03  0.13200024929E+04  0.25500000920E-02 0. -1.
</event>
<event>
 5   0  0.1653260E-06  0.2096633E+04  0.7818609E-02  0.8562728E-01
        1   -1    0    0  501    0  0.00000000000E+00  0.00000000000E+00  0.13726885604E+04  0.13726885604E+04  0.50400001928E-02 0.  1.
       -1   -1    0    0    0  501  0.00000000000E+00  0.00000000000E+00 -0.80059467822E+03  0.80059467823E+03  0.50400001928E-02 0. -1.
    10030    2    1    2    0    0  0.00000000000E+00  0.00000000000E+00  0.57209388221E+03  0.21732832387E+04  0.20966326873E+04 0.  0.
        3    1    3    3  502    0  0.92915841368E+03  0.28253304824E+02  0.78835950389E+03  0.12188701016E+04  0.10100000352E+00 0.  1.
       -3    1    3    3    0  502 -0.92915841368E+03 -0.28253304824E+02 -0.21626562168E+03  0.95441313709E+03  0.10100000352E+00 0. -1.
</event>
<event>
 5   0  0.3480134E-06  0.2100212E+04  0.7818609E-02  0.8561150E-01
       -2   -1    0    0    0  501  0.00000000000E+00  0.00000000000E+00  0.11964273886E+04  0.11964273886E+04  0.25500000920E-02 0. -1.
        2   -1    0    0  501    0  0.00000000000E+00  0.00000000000E+00 -0.92167918747E+03  0.92167918748E+03  0.25500000920E-02 0.  1.
    10030    2    1    2    0    0  0.00000000000E+00  0.00000000000E+00  0.27474820109E+03  0.21181065760E+04  0.21002116306E+04 0.  0.
        1    1    3    3  502    0 -0.27800251225E+03  0.14856151120E+03  0.11475907116E+04  0.11900925850E+04  0.50400001928E-02 0. -1.
       -1    1    3    3    0  502  0.27800251225E+03 -0.14856151120E+03 -0.87284251051E+03  0.92801399106E+03  0.50400001928E-02 0.  1.
</event>
<event>
 5   0  0.1653260E-06  0.2099964E+04  0.7818609E-02  0.8561259E-01
       -1   -1    0    0    0  501  0.00000000000E+00  0.00000000000E+00  0.11967708244E+04  0.11967708244E+04  0.50400001928E-02 0.  1.
        1   -1    0    0  501    0  0.00000000000E+00  0.00000000000E+00 -0.92119742593E+03  0.92119742595E+03  0.50400001928E-02 0. -1.
    10030    2    1    2    0    0  0.00000000000E+00  0.00000000000E+00  0.27557339844E+03  0.21179682503E+04  0.20999640024E+04 0.  0.
        3    1    3    3  502    0  0.62613259980E+03  0.10364712121E+03  0.98142546783E+03  0.11687517775E+04  0.10100000352E+00 0.  1.
       -3    1    3    3    0  502 -0.62613259980E+03 -0.10364712121E+03 -0.70585206939E+03  0.94921647285E+03  0.10100000352E+00 0. -1.
</event>
<event>
 5   0  0.3705828E-06  0.2099978E+04  0.7818609E-02  0.8561253E-01
       -2   -1    0    0    0  501  0.00000000000E+00  0.00000000000E+00  0.53575253988E+03  0.53575253989E+03  0.25500000920E-02 0.  1.
        2   -1    0    0  501    0  0.00000000000E+00  0.00000000000E+00 -0.20578098870E+04  0.20578098870E+04  0.25500000920E-02 0. -1.
    10030    2    1    2    0    0  0.00000000000E+00  0.00000000000E+00 -0.15220573471E+04  0.25935624269E+04  0.20999779747E+04 0.  0.
        5    1    3    3  502    0  0.14673087550E+03 -0.98787087981E+02 -0.20392626129E+04  0.20469252387E+04  0.46999998093E+01 0. -1.
       -5    1    3    3    0  502 -0.14673087550E+03  0.98787087981E+02  0.51720526576E+03  0.54663718818E+03  0.46999998093E+01 0.  1.
</event>
<event>
 5   0  0.3480134E-06  0.2100295E+04  0.7818609E-02  0.8561113E-01
        2   -1    0    0  501    0  0.00000000000E+00  0.00000000000E+00  0.74657859677E+03  0.74657859677E+03  0.25500000920E-02 0. -1.
       -2   -1    0    0    0  501  0.00000000000E+00  0.00000000000E+00 -0.14771518012E+04  0.14771518012E+04  0.25500000920E-02 0.  1.
    10030    2    1    2    0    0  0.00000000000E+00  0.00000000000E+00 -0.73057320441E+03  0.22237303980E+04  0.21002951402E+04 0.  0.
        1    1    3    3  502    0  0.85112661741E+03 -0.25602953773E+03 -0.95748131236E+03  0.13064218716E+04  0.50400001928E-02 0.  1.
       -1    1    3    3    0  502 -0.85112661741E+03  0.25602953773E+03  0.22690810795E+03  0.91730852635E+03  0.50400001928E-02 0. -1.
</event>
<event>
 5   0  0.1579820E-06  0.2099512E+04  0.7818609E-02  0.8561459E-01
       -1   -1    0    0    0  501  0.00000000000E+00  0.00000000000E+00  0.68390313923E+03  0.68390313925E+03  0.50400001928E-02 0.  1.
        1   -1    0    0  501    0  0.00000000000E+00  0.00000000000E+00 -0.16113207065E+04  0.16113207065E+04  0.50400001928E-02 0. -1.
    10030    2    1    2    0    0  0.00000000000E+00  0.00000000000E+00 -0.92741756726E+03  0.22952238458E+04  0.20995116475E+04 0.  0.
        2    1    3    3  502    0 -0.84975009713E+03 -0.41865923321E+03 -0.95824524559E+03  0.13474363554E+04  0.25500000920E-02 0. -1.
       -2    1    3    3    0  502  0.84975009713E+03  0.41865923321E+03  0.30827678331E+02  0.94778749036E+03  0.25500000920E-02 0.  1.
</event>
<event>
 5   0  0.3547583E-06  0.2100424E+04  0.7818609E-02  0.8561057E-01
        2   -1    0    0  501    0  0.00000000000E+00  0.00000000000E+00  0.16985620211E+04  0.16985620211E+04  0.25500000920E-02 0.  1.
       -2   -1    0    0    0  501  0.00000000000E+00  0.00000000000E+00 -0.64934044363E+03  0.64934044363E+03  0.25500000920E-02 0. -1.
    10030    2    1    2    0    0  0.00000000000E+00  0.00000000000E+00  0.10492215775E+04  0.23479024648E+04  0.21004237823E+04 0.  0.
        2    1    3    3  502    0  0.64228873414E+03  0.72223405506E+03  0.65366118826E+02  0.96872574952E+03  0.25500000920E-02 0. -1.
       -2    1    3    3    0  502 -0.64228873414E+03 -0.72223405506E+03  0.98385545869E+03  0.13791767153E+04  0.25500000920E-02 0.  1.
</event>
<event>
 5   0  0.3480134E-06  0.2100400E+04  0.7818609E-02  0.8561067E-01
       -2   -1    0    0    0  501  0.00000000000E+00  0.00000000000E+00  0.89406438938E+03  0.89406438939E+03  0.25500000920E-02 0. -1.
        2   -1    0    0  501    0  0.00000000000E+00  0.00000000000E+00 -0.12336025564E+04  0.12336025565E+04  0.25500000920E-02 0.  1.
    10030    2    1    2    0    0  0.00000000000E+00  0.00000000000E+00 -0.33953816706E+03  0.21276669458E+04  0.21004000727E+04 0.  0.
        1    1    3    3  502    0  0.31308081782E+03  0.21826914187E+03  0.82132840068E+03  0.90567177199E+03  0.50400001928E-02 0. -1.
       -1    1    3    3    0  502 -0.31308081782E+03 -0.21826914187E+03 -0.11608665677E+04  0.12219951739E+04  0.50400001928E-02 0.  1.
</event>
<event>
 5   0  0.1579820E-06  0.2099807E+04  0.7818609E-02  0.8561328E-01
       -1   -1    0    0    0  501  0.00000000000E+00  0.00000000000E+00  0.82667818956E+03  0.82667818958E+03  0.50400001928E-02 0. -1.
        1   -1    0    0  501    0  0.00000000000E+00  0.00000000000E+00 -0.13334058412E+04  0.13334058412E+04  0.50400001928E-02 0.  1.
    10030    2    1    2    0    0  0.00000000000E+00  0.00000000000E+00 -0.50672765166E+03  0.21600840308E+04  0.20998071595E+04 0.  0.
        2    1    3    3  502    0  0.85409738327E+03 -0.14001696792E+03  0.35801162645E+03  0.93662127677E+03  0.25500000920E-02 0. -1.
       -2    1    3    3    0  502 -0.85409738327E+03  0.14001696792E+03 -0.86473927811E+03  0.12234627540E+04  0.25500000920E-02 0.  1.
</event>
<event>
 5   0  0.1646510E-06  0.2101261E+04  0.7818609E-02  0.8560688E-01
        1   -1    0    0  501    0  0.00000000000E+00  0.00000000000E+00  0.27459935472E+04  0.27459935472E+04  0.50400001928E-02 0.  1.
       -1   -1    0    0    0  501  0.00000000000E+00  0.00000000000E+00 -0.40197646941E+03  0.40197646944E+03  0.50400001928E-02 0. -1.
    10030    2    1    2    0    0  0.00000000000E+00  0.00000000000E+00  0.23440170778E+04  0.31479700167E+04  0.21012613271E+04 0.  0.
        4    1    3    3  502    0 -0.81741867721E+03 -0.64925904463E+03  0.13499813614E+04  0.17065057544E+04  0.12699999809E+01 0.  1.
       -4    1    3    3    0  502  0.81741867721E+03  0.64925904463E+03  0.99403571643E+03  0.14414642622E+04  0.12699999809E+01 0. -1.
</event>
<event>
 5   0  0.3705828E-06  0.2100523E+04  0.7818609E-02  0.8561013E-01
       -2   -1    0    0    0  501  0.00000000000E+00  0.00000000000E+00  0.50281422025E+03  0.50281422026E+03  0.25500000920E-02 0. -1.
        2   -1    0    0  501    0  0.00000000000E+00  0.00000000000E+00 -0.21937501577E+04  0.21937501577E+04  0.25500000920E-02 0.  1.
    10030    2    1    2    0    0  0.00000000000E+00  0.00000000000E+00 -0.16909359374E+04  0.26965643779E+04  0.21005225778E+04 0.  0.
        5    1    3    3  502    0 -0.74148057228E+02  0.54078823822E+02 -0.21885792609E+04  0.21905076409E+04  0.46999998093E+01 0.  1.
       -5    1    3    3    0  502  0.74148057228E+02 -0.54078823822E+02  0.49764332354E+03  0.50605673698E+03  0.46999998093E+01 0. -1.
</event>
<event>
 5   0  0.1653260E-06  0.2098187E+04  0.7818609E-02  0.8562042E-01
        1   -1    0    0  501    0  0.00000000000E+00  0.00000000000E+00  0.13478336644E+04  0.13478336645E+04  0.50400001928E-02 0. -1.
       -1   -1    0    0    0  501  0.00000000000E+00  0.00000000000E+00 -0.81656764419E+03  0.81656764420E+03  0.50400001928E-02 0.  1.
    10030    2    1    2    0    0  0.00000000000E+00  0.00000000000E+00  0.53126602026E+03  0.21644013087E+04  0.20981871796E+04 0.  0.
        3    1    3    3  502    0  0.46264505062E+03 -0.91853841983E+01 -0.70560618710E+03  0.84380383717E+03  0.10100000352E+00 0.  1.
       -3    1    3    3    0  502 -0.46264505062E+03  0.91853841983E+01  0.12368722074E+04  0.13205974715E+04  0.10100000352E+00 0. -1.
</event>
<event>
 5   0  0.1653260E-06  0.2099801E+04  0.7818609E-02  0.8561331E-01
        1   -1    0    0  501    0  0.00000000000E+00  0.00000000000E+00  0.14487587387E+04  0.14487587387E+04  0.50400001928E-02 0. -1.
       -1   -1    0    0    0  501  0.00000000000E+00  0.00000000000E+00 -0.76085198302E+03  0.76085198304E+03  0.50400001928E-02 0.  1.
    10030    2    1    2    0    0  0.00000000000E+00  0.00000000000E+00  0.68790675567E+03  0.22096107217E+04  0.20998009042E+04 0.  0.
        3    1    3    3  502    0  0.83872315016E+03  0.26028412949E+03 -0.26153868029E+03  0.91630062871E+03  0.10100000352E+00 0.  1.
       -3    1    3    3    0  502 -0.83872315016E+03 -0.26028412949E+03  0.94944543596E+03  0.12933100930E+04  0.10100000352E+00 0. -1.
</event>
<event>
 5   0  0.3574927E-06  0.2098589E+04  0.7818609E-02  0.8561865E-01
        2   -1    0    0  501    0  0.00000000000E+00  0.00000000000E+00  0.14539578781E+04  0.14539578781E+04  0.25500000920E-02 0.  1.
       -2   -1    0    0    0  501  0.00000000000E+00  0.00000000000E+00 -0.75725651115E+03  0.75725651115E+03  0.25500000920E-02 0. -1.
    10030    2    1    2    0    0  0.00000000000E+00  0.00000000000E+00  0.69670136698E+03  0.22112143893E+04  0.20985891167E+04 0.  0.
        3    1    3    3  502    0  0.85121916990E+03  0.35257803063E+03 -0.18072633656E+03  0.93890753635E+03  0.10100000352E+00 0. -1.
       -3    1    3    3    0  502 -0.85121916990E+03 -0.35257803063E+03  0.87742770354E+03  0.12723068529E+04  0.10100000352E+00 0.  1.
</event>
<event>
 5   0  0.3705828E-06  0.2099714E+04  0.7818609E-02  0.8561370E-01
       -2   -1    0    0    0  501  0.00000000000E+00  0.00000000000E+00  0.86127239364E+03  0.86127239365E+03  0.25500000920E-02 0.  1.
        2   -1    0    0  501    0  0.00000000000E+00  0.00000000000E+00 -0.12797337252E+04  0.12797337252E+04  0.25500000920E-02 0. -1.
    10030    2    1    2    0    0  0.00000000000E+00  0.00000000000E+00 -0.41846133158E+03  0.21410061189E+04  0.20997136269E+04 0.  0.
        5    1    3    3  502    0 -0.15678563223E+03  0.75992346166E+03 -0.93032387973E+03  0.12114412958E+04  0.46999998093E+01 0. -1.
       -5    1    3    3    0  502  0.15678563223E+03 -0.75992346166E+03  0.51186254814E+03  0.92956482305E+03  0.46999998093E+01 0.  1.
</event>
<event>
 5   0  0.1590067E-06  0.2100612E+04  0.7818609E-02  0.8560974E-01
        1   -1    0    0  501    0  0.00000000000E+00  0.00000000000E+00  0.93828955009E+03  0.93828955010E+03  0.50400001928E-02 0. -1.
       -1   -1    0    0    0  501  0.00000000000E+00  0.00000000000E+00 -0.11756955662E+04  0.11756955662E+04  0.50400001928E-02 0.  1.
    10030    2    1    2    0    0  0.00000000000E+00  0.00000000000E+00 -0.23740601612E+03  0.21139851163E+04  0.21006121621E+04 0.  0.
        5    1    3    3  502    0  0.52577873950E+03  0.48288630596E+03 -0.89399588111E+03  0.11440599603E+04  0.46999998093E+01 0.  1.
       -5    1    3    3    0  502 -0.52577873950E+03 -0.48288630596E+03  0.65658986500E+03  0.96992515598E+03  0.46999998093E+01 0. -1.
</event>
<event>
 5   0  0.1579820E-06  0.2100039E+04  0.7818609E-02  0.8561226E-01
        1   -1    0    0  501    0  0.00000000000E+00  0.00000000000E+00  0.80785000029E+03  0.80785000031E+03  0.50400001928E-02 0.  1.
       -1   -1    0    0    0  501  0.00000000000E+00  0.00000000000E+00 -0.13647845883E+04  0.13647845884E+04  0.50400001928E-02 0. -1.
    10030    2    1    2    0    0  0.00000000000E+00  0.00000000000E+00 -0.55693458805E+03  0.21726345887E+04  0.21000392664E+04 0.  0.
        2    1    3    3  502    0  0.55170022507E+03 -0.87676735659E+03 -0.45600086832E+03  0.11318263682E+04  0.25500000920E-02 0.  1.
       -2    1    3    3    0  502 -0.55170022507E+03  0.87676735659E+03 -0.10093371973E+03  0.10408082204E+04  0.25500000920E-02 0. -1.
</event>
<event>
 5   0  0.3636435E-06  0.2101076E+04  0.7818609E-02  0.8560769E-01
        2   -1    0    0  501    0  0.00000000000E+00  0.00000000000E+00  0.14074187645E+04  0.14074187645E+04  0.25500000920E-02 0.  1.
       -2   -1    0    0    0  501  0.00000000000E+00  0.00000000000E+00 -0.78415204404E+03  0.78415204404E+03  0.25500000920E-02 0. -1.
    10030    2    1    2    0    0  0.00000000000E+00  0.00000000000E+00  0.62326672045E+03  0.21915708085E+04  0.21010762014E+04 0.  0.
        4    1    3    3  502    0 -0.38381567549E+03 -0.86502436279E+03  0.78740056512E+03  0.12310901201E+04  0.12699999809E+01 0.  1.
       -4    1    3    3    0  502  0.38381567549E+03  0.86502436279E+03 -0.16413384467E+03  0.96048068843E+03  0.12699999809E+01 0. -1.
</event>
<event>
 5   0  0.3705828E-06  0.2099644E+04  0.7818609E-02  0.8561400E-01
       -2   -1    0    0    0  501  0.00000000000E+00  0.00000000000E+00  0.53928704778E+03  0.53928704779E+03  0.25500000920E-02 0.  1.
        2   -1    0    0  501    0  0.00000000000E+00  0.00000000000E+00 -0.20436717617E+04  0.20436717617E+04  0.25500000920E-02 0. -1.
    10030    2    1    2    0    0  0.00000000000E+00  0.00000000000E+00 -0.15043847139E+04  0.25829588094E+04  0.20996435040E+04 0.  0.
        5    1    3    3  502    0 -0.18714816189E+03  0.79312299531E+03  0.61998787284E+02  0.81727257376E+03  0.46999998093E+01 0.  1.
       -5    1    3    3    0  502  0.18714816189E+03 -0.79312299531E+03 -0.15663835012E+04  0.17656862357E+04  0.46999998093E+01 0. -1.
</event>
<event>
 5   0  0.1615098E-06  0.2099683E+04  0.7818609E-02  0.8561383E-01
        1   -1    0    0  501    0  0.00000000000E+00  0.00000000000E+00  0.12991579294E+04  0.12991579294E+04  0.50400001928E-02 0.  1.
       -1   -1    0    0    0  501  0.00000000000E+00  0.00000000000E+00 -0.84837061850E+03  0.84837061851E+03  0.50400001928E-02 0. -1.
    10030    2    1    2    0    0  0.00000000000E+00  0.00000000000E+00  0.45078731092E+03  0.21475285479E+04  0.20996832296E+04 0.  0.
        1    1    3    3  502    0 -0.58894022639E+03 -0.63376250596E+03 -0.38285241447E+03  0.94608745659E+03  0.50400001928E-02 0. -1.
       -1    1    3    3    0  502  0.58894022639E+03  0.63376250596E+03  0.83363972539E+03  0.12014410914E+04  0.50400001928E-02 0.  1.
</event>
<event>
 5   0  0.3547583E-06  0.2099779E+04  0.7818609E-02  0.8561341E-01
        2   -1    0    0  501    0  0.00000000000E+00  0.00000000000E+00  0.11664183130E+04  0.11664183130E+04  0.25500000920E-02 0.  1.
       -2   -1    0    0    0  501  0.00000000000E+00  0.00000000000E+00 -0.94500239768E+03  0.94500239768E+03  0.25500000920E-02 0. -1.
    10030    2    1    2    0    0  0.00000000000E+00  0.00000000000E+00  0.22141591534E+03  0.21114207107E+04  0.20997791336E+04 0.  0.
        2    1    3    3  502    0  0.46411808004E+03 -0.60070451032E+03  0.83999901311E+03  0.11321880776E+04  0.25500000920E-02 0.  1.
       -2    1    3    3    0  502 -0.46411808004E+03  0.60070451032E+03 -0.61858309777E+03  0.97923263314E+03  0.25500000920E-02 0. -1.
</event>
<event>
 5   0  0.1579820E-06  0.2095419E+04  0.7818609E-02  0.8563264E-01
       -1   -1    0    0    0  501  0.00000000000E+00  0.00000000000E+00  0.93227594157E+03  0.93227594158E+03  0.50400001928E-02 0.  1.
        1   -1    0    0  501    0  0.00000000000E+00  0.00000000000E+00 -0.11774358961E+04  0.11774358962E+04  0.50400001928E-02 0. -1.
    10030    2    1    2    0    0  0.00000000000E+00  0.00000000000E+00 -0.24515995457E+03  0.21097118377E+04  0.20954189641E+04 0.  0.
        2    1    3    3  502    0 -0.45093995069E+03 -0.75406168860E+03 -0.69720871541E+03  0.11216308939E+04  0.25500000920E-02 0. -1.
       -2    1    3    3    0  502  0.45093995069E+03  0.75406168860E+03  0.45204876084E+03  0.98808094381E+03  0.25500000920E-02 0.  1.
</event>
<event>
 5   0  0.3480134E-06  0.2102000E+04  0.7818609E-02  0.8560363E-01
       -2   -1    0    0    0  501  0.00000000000E+00  0.00000000000E+00  0.66322788774E+03  0.66322788774E+03  0.25500000920E-02 0.  1.
        2   -1    0    0  501    0  0.00000000000E+00  0.00000000000E+00 -0.16654918980E+04  0.16654918980E+04  0.25500000920E-02 0. -1.
    10030    2    1    2    0    0  0.00000000000E+00  0.00000000000E+00 -0.10022640103E+04  0.23287197857E+04  0.21019996894E+04 0.  0.
        1    1    3    3  502    0  0.90728022524E+03  0.42727664452E+03 -0.15276719338E+03  0.10144262188E+04  0.50400001928E-02 0.  1.
       -1    1    3    3    0  502 -0.90728022524E+03 -0.42727664452E+03 -0.84949681688E+03  0.13142935669E+04  0.50400001928E-02 0. -1.
</event>
<event>
 5   0  0.1653260E-06  0.2101300E+04  0.7818609E-02  0.8560671E-01
        1   -1    0    0  501    0  0.00000000000E+00  0.00000000000E+00  0.16365021247E+04  0.16365021247E+04  0.50400001928E-02 0. -1.
       -1   -1    0    0    0  501  0.00000000000E+00  0.00000000000E+00 -0.67452728016E+03  0.67452728017E+03  0.50400001928E-02 0.  1.
    10030    2    1    2    0    0  0.00000000000E+00  0.00000000000E+00  0.96197484453E+03  0.23110294049E+04  0.21012999093E+04 0.  0.
        3    1    3    3  502    0  0.95927432498E+03  0.25095482033E+03  0.98924708005E+02  0.99647963374E+03  0.10100000352E+00 0.  1.
       -3    1    3    3    0  502 -0.95927432498E+03 -0.25095482033E+03  0.86305013652E+03  0.13145497711E+04  0.10100000352E+00 0. -1.
</event>
<event>
 5   0  0.1653260E-06  0.2099543E+04  0.7818609E-02  0.8561445E-01
       -1   -1    0    0    0  501  0.00000000000E+00  0.00000000000E+00  0.52370657654E+03  0.52370657656E+03  0.50400001928E-02 0. -1.
        1   -1    0    0  501    0  0.00000000000E+00  0.00000000000E+00 -0.21042701322E+04  0.21042701322E+04  0.50400001928E-02 0.  1.
    10030    2    1    2    0    0  0.00000000000E+00  0.00000000000E+00 -0.15805635557E+04  0.26279767088E+04  0.20995429094E+04 0.  0.
        3    1    3    3  502    0 -0.20399491449E+03  0.83673759709E+03 -0.15415839479E+04  0.17658496001E+04  0.10100000352E+00 0.  1.
       -3    1    3    3    0  502  0.20399491449E+03 -0.83673759709E+03 -0.38979607779E+02  0.86212710869E+03  0.10100000352E+00 0. -1.
</event>
<event>
 5   0  0.3636435E-06  0.2099685E+04  0.7818609E-02  0.8561382E-01
        2   -1    0    0  501    0  0.00000000000E+00  0.00000000000E+00  0.18449438541E+04  0.18449438541E+04  0.25500000920E-02 0.  1.
       -2   -1    0    0    0  501  0.00000000000E+00  0.00000000000E+00 -0.59739965394E+03  0.59739965394E+03  0.25500000920E-02 0. -1.
    10030    2    1    2    0    0  0.00000000000E+00  0.00000000000E+00  0.12475442002E+04  0.24423435081E+04  0.20996845668E+04 0.  0.
        4    1    3    3  502    0 -0.78221658366E+03  0.68634683288E+03  0.46245887372E+03  0.11387732793E+04  0.12699999809E+01 0. -1.
       -4    1    3    3    0  502  0.78221658366E+03 -0.68634683288E+03  0.78508532648E+03  0.13035702288E+04  0.12699999809E+01 0.  1.
</event>
<event>
 5   0  0.3480134E-06  0.2100406E+04  0.7818609E-02  0.8561065E-01
        2   -1    0    0  501    0  0.00000000000E+00  0.00000000000E+00  0.14341407447E+04  0.14341407447E+04  0.25500000920E-02 0.  1.
       -2   -1    0    0    0  501  0.00000000000E+00  0.00000000000E+00 -0.76905032268E+03  0.76905032269E+03  0.25500000920E-02 0. -1.
    10030    2    1    2    0    0  0.00000000000E+00  0.00000000000E+00  0.66509042204E+03  0.22031910674E+04  0.21004060584E+04 0.  0.
        1    1    3    3  502    0 -0.10236091595E+04 -0.11056539720E+03  0.54986988117E+03  0.11672006275E+04  0.50400001928E-02 0. -1.
       -1    1    3    3    0  502  0.10236091595E+04  0.11056539720E+03  0.11522054087E+03  0.10359904399E+04  0.50400001928E-02 0.  1.
</event>
<event>
 5   0  0.1579820E-06  0.2098864E+04  0.7818609E-02  0.8561744E-01
       -1   -1    0    0    0  501  0.00000000000E+00  0.00000000000E+00  0.46662364782E+03  0.46662364785E+03  0.50400001928E-02 0. -1.
        1   -1    0    0  501    0  0.00000000000E+00  0.00000000000E+00 -0.23601633606E+04  0.23601633606E+04  0.50400001928E-02 0.  1.
    10030    2    1    2    0    0  0.00000000000E+00  0.00000000000E+00 -0.18935397128E+04  0.28267870085E+04  0.20988644900E+04 0.  0.
        2    1    3    3  502    0 -0.14483269770E+03 -0.16823477762E+03  0.43463970347E+03  0.48804827893E+03  0.25500000920E-02 0. -1.
       -2    1    3    3    0  502  0.14483269770E+03  0.16823477762E+03 -0.23281794163E+04  0.23387387295E+04  0.25500000920E-02 0.  1.
</event>
<event>
 5   0  0.1646510E-06  0.2099779E+04  0.7818609E-02  0.8561341E-01
       -1   -1    0    0    0  501  0.00000000000E+00  0.00000000000E+00  0.12247807495E+04  0.12247807495E+04  0.50400001928E-02 0.  1.
        1   -1    0    0  501    0  0.00000000000E+00  0.00000000000E+00 -0.89997173766E+03  0.89997173768E+03  0.50400001928E-02 0. -1.
    10030    2    1    2    0    0  0.00000000000E+00  0.00000000000E+00  0.32480901179E+03  0.21247524871E+04  0.20997790925E+04 0.  0.
        4    1    3    3  502    0  0.76839672382E+03 -0.60282567483E+03 -0.22744915835E+03  0.10027796627E+04  0.12699999809E+01 0. -1.
       -4    1    3    3    0  502 -0.76839672382E+03  0.60282567483E+03  0.55225817014E+03  0.11219728244E+04  0.12699999809E+01 0.  1.
</event>
<event>
 5   0  0.1590067E-06  0.2097483E+04  0.7818609E-02  0.8562353E-01
       -1   -1    0    0    0  501  0.00000000000E+00  0.00000000000E+00  0.40913468912E+03  0.40913468915E+03  0.50400001928E-02 0. -1.
        1   -1    0    0  501    0  0.00000000000E+00  0.00000000000E+00 -0.26882568094E+04  0.26882568094E+04  0.50400001928E-02 0.  1.
    10030    2    1    2    0    0  0.00000000000E+00  0.00000000000E+00 -0.22791221202E+04  0.30973914985E+04  0.20974833625E+04 0.  0.
        5    1    3    3  502    0  0.20456994151E+03 -0.88253886611E+03 -0.19197285574E+04  0.21227584731E+04  0.46999998093E+01 0.  1.
       -5    1    3    3    0  502 -0.20456994151E+03  0.88253886611E+03 -0.35939356284E+03  0.97463302538E+03  0.46999998093E+01 0. -1.
</event>
<event>
 5   0  0.3547583E-06  0.2100843E+04  0.7818609E-02  0.8560872E-01
        2   -1    0    0  501    0  0.00000000000E+00  0.00000000000E+00  0.28138402190E+04  0.28138402190E+04  0.25500000920E-02 0.  1.
       -2   -1    0    0    0  501  0.00000000000E+00  0.00000000000E+00 -0.39212775847E+03  0.39212775848E+03  0.25500000920E-02 0. -1.
    10030    2    1    2    0    0  0.00000000000E+00  0.00000000000E+00  0.24217124605E+04  0.32059679775E+04  0.21008425527E+04 0.  0.
        2    1    3    3  502    0  0.70286811651E+03  0.28634093326E+03  0.10264271555E+03  0.76586568426E+03  0.25500000920E-02 0. -1.
       -2    1    3    3    0  502 -0.70286811651E+03 -0.28634093326E+03  0.23190697450E+04  0.24401022932E+04  0.25500000920E-02 0.  1.
</event>
<event>
 5   0  0.1646510E-06  0.2101826E+04  0.7818609E-02  0.8560440E-01
        1   -1    0    0  501    0  0.00000000000E+00  0.00000000000E+00  0.15304217407E+04  0.15304217407E+04  0.50400001928E-02 0. -1.
       -1   -1    0    0    0  501  0.00000000000E+00  0.00000000000E+00 -0.72164274474E+03  0.72164274475E+03  0.50400001928E-02 0.  1.
    10030    2    1    2    0    0  0.00000000000E+00  0.00000000000E+00  0.80877899595E+03  0.22520644855E+04  0.21018256308E+04 0.  0.
        4    1    3    3  502    0 -0.46742341100E+03 -0.65318188034E+03  0.11305376403E+04  0.13868122378E+04  0.12699999809E+01 0.  1.
       -4    1    3    3    0  502  0.46742341100E+03  0.65318188034E+03 -0.32175864432E+03  0.86525224764E+03  0.12699999809E+01 0. -1.
</event>
<event>
 5   0  0.3705828E-06  0.2099639E+04  0.7818609E-02  0.8561403E-01
        2   -1    0    0  501    0  0.00000000000E+00  0.00000000000E+00  0.14326911918E+04  0.14326911918E+04  0.25500000920E-02 0.  1.
       -2   -1    0    0    0  501  0.00000000000E+00  0.00000000000E+00 -0.76926596207E+03  0.76926596208E+03  0.25500000920E-02 0. -1.
    10030    2    1    2    0    0  0.00000000000E+00  0.00000000000E+00  0.66342522968E+03  0.22019571538E+04  0.20996386051E+04 0.  0.
        5    1    3    3  502    0  0.99419021375E+03 -0.22568758796E+03  0.69007132261E+02  0.10218283333E+04  0.46999998093E+01 0.  1.
       -5    1    3    3    0  502 -0.99419021375E+03  0.22568758796E+03  0.59441809742E+03  0.11801288205E+04  0.46999998093E+01 0. -1.
</event>
<event>
 5   0  0.1590067E-06  0.2100330E+04  0.7818609E-02  0.8561098E-01
        1   -1    0    0  501    0  0.00000000000E+00  0.00000000000E+00  0.10925703821E+04  0.10925703821E+04  0.50400001928E-02 0. -1.
       -1   -1    0    0    0  501  0.00000000000E+00  0.00000000000E+00 -0.10094052881E+04  0.10094052881E+04  0.50400001928E-02 0.  1.
    10030    2    1    2    0    0  0.00000000000E+00  0.00000000000E+00  0.83165093995E+02  0.21019756702E+04  0.21003298039E+04 0.  0.
        5    1    3    3  502    0 -0.10244238915E+04 -0.11218306845E+03 -0.16055315376E+03  0.10429902951E+04  0.46999998093E+01 0. -1.
       -5    1    3    3    0  502  0.10244238915E+04  0.11218306845E+03  0.24371824776E+03  0.10589853751E+04  0.46999998093E+01 0.  1.
</event>
<event>
 5   0  0.1615098E-06  0.2099877E+04  0.7818609E-02  0.8561298E-01
       -1   -1    0    0    0  501  0.00000000000E+00  0.00000000000E+00  0.62921715442E+03  0.62921715444E+03  0.50400001928E-02 0. -1.
        1   -1    0    0  501    0  0.00000000000E+00  0.00000000000E+00 -0.17519719644E+04  0.17519719644E+04  0.50400001928E-02 0.  1.
    10030    2    1    2    0    0  0.00000000000E+00  0.00000000000E+00 -0.11227548100E+04  0.23811891189E+04  0.20998769622E+04 0.  0.
        1    1    3    3  502    0 -0.57131288872E+03  0.12037019206E+03 -0.15509103651E+04  0.16571693820E+04  0.50400001928E-02 0.  1.
       -1    1    3    3    0  502  0.57131288872E+03 -0.12037019206E+03  0.42815555513E+03  0.72401973686E+03  0.50400001928E-02 0. -1.
</event>
<event>
 5   0  0.3547583E-06  0.2101061E+04  0.7818609E-02  0.8560776E-01
        2   -1    0    0  501    0  0.00000000000E+00  0.00000000000E+00  0.90348070286E+03  0.90348070286E+03  0.25500000920E-02 0. -1.
       -2   -1    0    0    0  501  0.00000000000E+00  0.00000000000E+00 -0.12215137592E+04  0.12215137592E+04  0.25500000920E-02 0.  1.
    10030    2    1    2    0    0  0.00000000000E+00  0.00000000000E+00 -0.31803305629E+03  0.21249944620E+04  0.21010607889E+04 0.  0.
        2    1    3    3  502    0  0.37707559591E+03  0.55742672268E+03  0.65683432866E+03  0.94039454034E+03  0.25500000920E-02 0. -1.
       -2    1    3    3    0  502 -0.37707559591E+03 -0.55742672268E+03 -0.97486738495E+03  0.11845999217E+04  0.25500000920E-02 0.  1.
</event>
<event>
 5   0  0.1590067E-06  0.2099435E+04  0.7818609E-02  0.8561492E-01
       -1   -1    0    0    0  501  0.00000000000E+00  0.00000000000E+00  0.41006255709E+03  0.41006255712E+03  0.50400001928E-02 0. -1.
        1   -1    0    0  501    0  0.00000000000E+00  0.00000000000E+00 -0.26871675490E+04  0.26871675490E+04  0.50400001928E-02 0.  1.
    10030    2    1    2    0    0  0.00000000000E+00  0.00000000000E+00 -0.22771049919E+04  0.30972301061E+04  0.20994349683E+04 0.  0.
        5    1    3    3  502    0 -0.73957954711E+03 -0.66139407796E+03 -0.63293198433E+03  0.11768793565E+04  0.46999998093E+01 0. -1.
       -5    1    3    3    0  502  0.73957954711E+03  0.66139407796E+03 -0.16441730076E+04  0.19203507496E+04  0.46999998093E+01 0.  1.
</event>
<event>
 5   0  0.3480134E-06  0.2100038E+04  0.7818609E-02  0.8561226E-01
       -2   -1    0    0    0  501  0.00000000000E+00  0.00000000000E+00  0.48940077666E+03  0.48940077666E+03  0.25500000920E-02 0. -1.
        2   -1    0    0  501    0  0.00000000000E+00  0.00000000000E+00 -0.22528371408E+04  0.22528371408E+04  0.25500000920E-02 0.  1.
    10030    2    1    2    0    0  0.00000000000E+00  0.00000000000E+00 -0.17634363641E+04  0.27422379175E+04  0.21000383295E+04 0.  0.
        1    1    3    3  502    0  0.75266043984E+03  0.43985890528E+03 -0.11744177756E+03  0.87963979298E+03  0.50400001928E-02 0. -1.
       -1    1    3    3    0  502 -0.75266043984E+03 -0.43985890528E+03 -0.16459945866E+04  0.18625981245E+04  0.50400001928E-02 0.  1.
</event>
<event>
 5   0  0.1615098E-06  0.2100321E+04  0.7818609E-02  0.8561102E-01
        1   -1    0    0  501    0  0.00000000000E+00  0.00000000000E+00  0.12316891699E+04  0.12316891699E+04  0.50400001928E-02 0.  1.
       -1   -1    0    0    0  501  0.00000000000E+00  0.00000000000E+00 -0.89538581490E+03  0.89538581492E+03  0.50400001928E-02 0. -1.
    10030    2    1    2    0    0  0.00000000000E+00  0.00000000000E+00  0.33630335499E+03  0.21270749848E+04  0.21003209384E+04 0.  0.
        1    1    3    3  502    0  0.62601980870E+03 -0.40824812465E+03 -0.57899214247E+03  0.94540955846E+03  0.50400001928E-02 0. -1.
       -1    1    3    3    0  502 -0.62601980870E+03  0.40824812465E+03  0.91529549746E+03  0.11816654264E+04  0.50400001928E-02 0.  1.
</event>
<event>
 5   0  0.1579820E-06  0.2098969E+04  0.7818609E-02  0.8561698E-01
        1   -1    0    0  501    0  0.00000000000E+00  0.00000000000E+00  0.23945778501E+04  0.23945778501E+04  0.50400001928E-02 0.  1.
       -1   -1    0    0    0  501  0.00000000000E+00  0.00000000000E+00 -0.45996308700E+03  0.45996308702E+03  0.50400001928E-02 0. -1.
    10030    2    1    2    0    0  0.00000000000E+00  0.00000000000E+00  0.19346147631E+04  0.28545409372E+04  0.20989687182E+04 0.  0.
        2    1    3    3  502    0 -0.57400280761E+03 -0.34558641062E+03 -0.13125141561E+03  0.68274162350E+03  0.25500000920E-02 0. -1.
       -2    1    3    3    0  502  0.57400280761E+03  0.34558641062E+03  0.20658661787E+04  0.21717993137E+04  0.25500000920E-02 0.  1.
</event>
<event>
 5   0  0.3636435E-06  0.2099442E+04  0.7818609E-02  0.8561489E-01
       -2   -1    0    0    0  501  0.00000000000E+00  0.00000000000E+00  0.54320479247E+03  0.54320479248E+03  0.25500000920E-02 0. -1.
        2   -1    0    0  501    0  0.00000000000E+00  0.00000000000E+00 -0.20285430826E+04  0.20285430826E+04  0.25500000920E-02 0.  1.
    10030    2    1    2    0    0  0.00000000000E+00  0.00000000000E+00 -0.14853382901E+04  0.25717478750E+04  0.20994421394E+04 0.  0.
        4    1    3    3  502    0 -0.44663578044E+03 -0.89017097360E+03 -0.33634761972E+03  0.10511989425E+04  0.12699999809E+01 0.  1.
       -4    1    3    3    0  502  0.44663578044E+03  0.89017097360E+03 -0.11489906704E+04  0.15205489325E+04  0.12699999809E+01 0. -1.
</event>
<event>
 5   0  0.3547583E-06  0.2096574E+04  0.7818609E-02  0.8562754E-01
       -2   -1    0    0    0  501  0.00000000000E+00  0.00000000000E+00  0.87157063117E+03  0.87157063117E+03  0.25500000920E-02 0. -1.
        2   -1    0    0  501    0  0.00000000000E+00  0.00000000000E+00 -0.12608333305E+04  0.12608333305E+04  0.25500000920E-02 0.  1.
    10030    2    1    2    0    0  0.00000000000E+00  0.00000000000E+00 -0.38926269933E+03  0.21324039617E+04  0.20965736826E+04 0.  0.
        2    1    3    3  502    0  0.61646737534E+03  0.84750029277E+03 -0.16937697333E+03  0.10615918850E+04  0.25500000920E-02 0.  1.
       -2    1    3    3    0  502 -0.61646737534E+03 -0.84750029277E+03 -0.21988572600E+03  0.10708120767E+04  0.25500000920E-02 0. -1.
</event>
<event>
 5   0  0.3636435E-06  0.2099359E+04  0.7818609E-02  0.8561526E-01
       -2   -1    0    0    0  501  0.00000000000E+00  0.00000000000E+00  0.11552868541E+04  0.11552868541E+04  0.25500000920E-02 0.  1.
        2   -1    0    0  501    0  0.00000000000E+00  0.00000000000E+00 -0.95372550856E+03  0.95372550856E+03  0.25500000920E-02 0. -1.
    10030    2    1    2    0    0  0.00000000000E+00  0.00000000000E+00  0.20156134558E+03  0.21090123627E+04  0.20993585139E+04 0.  0.
        4    1    3    3  502    0 -0.56787739137E+03  0.18464800218E+03  0.96802634554E+03  0.11373900979E+04  0.12699999809E+01 0.  1.
       -4    1    3    3    0  502  0.56787739137E+03 -0.18464800218E+03 -0.76646499996E+03  0.97162226477E+03  0.12699999809E+01 0. -1.
</event>
<event>
 5   0  0.1579820E-06  0.2101460E+04  0.7818609E-02  0.8560600E-01
       -1   -1    0    0    0  501  0.00000000000E+00  0.00000000000E+00  0.91690897585E+03  0.91690897586E+03  0.50400001928E-02 0.  1.
        1   -1    0    0  501    0  0.00000000000E+00  0.00000000000E+00 -0.12040822761E+04  0.12040822761E+04  0.50400001928E-02 0. -1.
    10030    2    1    2    0    0  0.00000000000E+00  0.00000000000E+00 -0.28717330023E+03  0.21209912519E+04  0.21014602986E+04 0.  0.
        2    1    3    3  502    0  0.53325084059E+03 -0.88678284751E+03 -0.32774773474E+03  0.10854302627E+04  0.25500000920E-02 0. -1.
       -2    1    3    3    0  502 -0.53325084059E+03  0.88678284751E+03  0.40574434516E+02  0.10355609892E+04  0.25500000920E-02 0.  1.
</event>
<event>
 5   0  0.3480134E-06  0.2099219E+04  0.7818609E-02  0.8561587E-01
        2   -1    0    0  501    0  0.00000000000E+00  0.00000000000E+00  0.37757594115E+03  0.37757594116E+03  0.25500000920E-02 0. -1.
       -2   -1    0    0    0  501  0.00000000000E+00  0.00000000000E+00 -0.29177711360E+04  0.29177711360E+04  0.25500000920E-02 0.  1.
    10030    2    1    2    0    0  0.00000000000E+00  0.00000000000E+00 -0.25401951949E+04  0.32953470772E+04  0.20992190765E+04 0.  0.
        1    1    3    3  502    0  0.10123763417E+04 -0.16684665981E+03 -0.92283346474E+03  0.13799874161E+04  0.50400001928E-02 0. -1.
       -1    1    3    3    0  502 -0.10123763417E+04  0.16684665981E+03 -0.16173617301E+04  0.19153596610E+04  0.50400001928E-02 0.  1.
</event>
<event>
 5   0  0.1646510E-06  0.2095849E+04  0.7818609E-02  0.8563074E-01
       -1   -1    0    0    0  501  0.00000000000E+00  0.00000000000E+00  0.65552955929E+03  0.65552955931E+03  0.50400001928E-02 0.  1.
        1   -1    0    0  501    0  0.00000000000E+00  0.00000000000E+00 -0.16752042672E+04  0.16752042672E+04  0.50400001928E-02 0. -1.
    10030    2    1    2    0    0  0.00000000000E+00  0.00000000000E+00 -0.10196747079E+04  0.23307338265E+04  0.20958491501E+04 0.  0.
        4    1    3    3  502    0  0.95749067289E+03 -0.15528054645E+03 -0.68856723620E+02  0.97244192529E+03  0.12699999809E+01 0.  1.
       -4    1    3    3    0  502 -0.95749067289E+03  0.15528054645E+03 -0.95081798429E+03  0.13582919012E+04  0.12699999809E+01 0. -1.
</event>
<event>
 5   0  0.1579820E-06  0.2100271E+04  0.7818609E-02  0.8561124E-01
        1   -1    0    0  501    0  0.00000000000E+00  0.00000000000E+00  0.99968991402E+03  0.99968991404E+03  0.50400001928E-02 0. -1.
       -1   -1    0    0    0  501  0.00000000000E+00  0.00000000000E+00 -0.11031264001E+04  0.11031264001E+04  0.50400001928E-02 0.  1.
    10030    2    1    2    0    0  0.00000000000E+00  0.00000000000E+00 -0.10343648611E+03  0.21028163142E+04  0.21002707789E+04 0.  0.
        2    1    3    3  502    0  0.19237086557E+03 -0.41203496505E+03  0.89600440209E+03  0.10047901527E+04  0.25500000920E-02 0. -1.
       -2    1    3    3    0  502 -0.19237086557E+03  0.41203496505E+03 -0.99944088820E+03  0.10980261615E+04  0.25500000920E-02 0.  1.
</event>
<event>
 5   0  0.1615098E-06  0.2099145E+04  0.7818609E-02  0.8561620E-01
        1   -1    0    0  501    0  0.00000000000E+00  0.00000000000E+00  0.10583952784E+04  0.10583952784E+04  0.50400001928E-02 0. -1.
       -1   -1    0    0    0  501  0.00000000000E+00  0.00000000000E+00 -0.10408236024E+04  0.10408236024E+04  0.50400001928E-02 0.  1.
    10030    2    1    2    0    0  0.00000000000E+00  0.00000000000E+00  0.17571676018E+02  0.20992188809E+04  0.20991453370E+04 0.  0.
        1    1    3    3  502    0  0.83084447809E+02 -0.56643549221E+03 -0.87093276418E+03  0.10422456870E+04  0.50400001928E-02 0.  1.
       -1    1    3    3    0  502 -0.83084447809E+02  0.56643549221E+03  0.88850444020E+03  0.10569731939E+04  0.50400001928E-02 0. -1.
</event>
<event>
 5   0  0.3480134E-06  0.2100052E+04  0.7818609E-02  0.8561221E-01
       -2   -1    0    0    0  501  0.00000000000E+00  0.00000000000E+00  0.97112979940E+03  0.97112979941E+03  0.25500000920E-02 0. -1.
        2   -1    0    0  501    0  0.00000000000E+00  0.00000000000E+00 -0.11353317226E+04  0.11353317226E+04  0.25500000920E-02 0.  1.
    10030    2    1    2    0    0  0.00000000000E+00  0.00000000000E+00 -0.16420192322E+03  0.21064615220E+04  0.21000518737E+04 0.  0.
        1    1    3    3  502    0  0.92627761895E+03  0.74468594741E+02 -0.57248849368E+03  0.10914572252E+04  0.50400001928E-02 0.  1.
       -1    1    3    3    0  502 -0.92627761895E+03 -0.74468594741E+02  0.40828657046E+03  0.10150042969E+04  0.50400001928E-02 0. -1.
</event>
<event>
 5   0  0.1653260E-06  0.2099638E+04  0.7818609E-02  0.8561403E-01
       -1   -1    0    0    0  501  0.00000000000E+00  0.00000000000E+00  0.10452641216E+04  0.10452641216E+04  0.50400001928E-02 0.  1.
        1   -1    0    0  501    0  0.00000000000E+00  0.00000000000E+00 -0.10543936375E+04  0.10543936376E+04  0.50400001928E-02 0. -1.
    10030    2    1    2    0    0  0.00000000000E+00  0.00000000000E+00 -0.91295159381E+01  0.20996577592E+04  0.20996379111E+04 0.  0.
        3    1    3    3  502    0  0.61207384529E+03  0.17099345837E+03  0.83105469823E+03  0.10461955250E+04  0.10100000352E+00 0.  1.
       -3    1    3    3    0  502 -0.61207384529E+03 -0.17099345837E+03 -0.84018421417E+03  0.10534622342E+04  0.10100000352E+00 0. -1.
</event>
<event>
 5   0  0.1590067E-06  0.2099979E+04  0.7818609E-02  0.8561252E-01
        1   -1    0    0  501    0  0.00000000000E+00  0.00000000000E+00  0.15664058274E+04  0.15664058274E+04  0.50400001928E-02 0. -1.
       -1   -1    0    0    0  501  0.00000000000E+00  0.00000000000E+00 -0.70382675322E+03  0.70382675324E+03  0.50400001928E-02 0.  1.
    10030    2    1    2    0    0  0.00000000000E+00  0.00000000000E+00  0.86257907421E+03  0.22702325807E+04  0.20999793597E+04 0.  0.
        5    1    3    3  502    0 -0.64729589204E+03  0.24302499583E+03 -0.42296610763E+03  0.81054027577E+03  0.46999998093E+01 0.  1.
       -5    1    3    3    0  502  0.64729589204E+03 -0.24302499583E+03  0.12855451818E+04  0.14596923049E+04  0.46999998093E+01 0. -1.
</event>
<event>
 5   0  0.1653260E-06  0.2098214E+04  0.7818609E-02  0.8562030E-01
       -1   -1    0    0    0  501  0.00000000000E+00  0.00000000000E+00  0.15297393020E+04  0.15297393021E+04  0.50400001928E-02 0.  1.
        1   -1    0    0  501    0  0.00000000000E+00  0.00000000000E+00 -0.71948587336E+03  0.71948587338E+03  0.50400001928E-02 0. -1.
    10030    2    1    2    0    0  0.00000000000E+00  0.00000000000E+00  0.81025342868E+03  0.22492251754E+04  0.20982143053E+04 0.  0.
        3    1    3    3  502    0  0.48182803371E+03 -0.86378333418E+03  0.78008055922E+03  0.12596847191E+04  0.10100000352E+00 0.  1.
       -3    1    3    3    0  502 -0.48182803371E+03  0.86378333418E+03  0.30172869466E+02  0.98954045633E+03  0.10100000352E+00 0. -1.
</event>
<event>
 5   0  0.3547583E-06  0.2100115E+04  0.7818609E-02  0.8561193E-01
       -2   -1    0    0    0  501  0.00000000000E+00  0.00000000000E+00  0.46578685335E+03  0.46578685336E+03  0.25500000920E-02 0. -1.
        2   -1    0    0  501    0  0.00000000000E+00  0.00000000000E+00 -0.23672223207E+04  0.23672223207E+04  0.25500000920E-02 0.  1.
    10030    2    1    2    0    0  0.00000000000E+00  0.00000000000E+00 -0.19014354674E+04  0.28330091741E+04  0.21001152692E+04 0.  0.
        2    1    3    3  502    0  0.71556887143E+03 -0.75998579448E+03 -0.11045474701E+04  0.15197507464E+04  0.25500000920E-02 0.  1.
       -2    1    3    3    0  502 -0.71556887143E+03  0.75998579448E+03 -0.79688799726E+03  0.13132584276E+04  0.25500000920E-02 0. -1.
</event>
<event>
 5   0  0.3547583E-06  0.2100122E+04  0.7818609E-02  0.8561189E-01
        2   -1    0    0  501    0  0.00000000000E+00  0.00000000000E+00  0.10407184675E+04  0.10407184675E+04  0.25500000920E-02 0. -1.
       -2   -1    0    0    0  501  0.00000000000E+00  0.00000000000E+00 -0.10594877985E+04  0.10594877985E+04  0.25500000920E-02 0.  1.
    10030    2    1    2    0    0  0.00000000000E+00  0.00000000000E+00 -0.18769330957E+02  0.21002062661E+04  0.21001223946E+04 0.  0.
        2    1    3    3  502    0 -0.18726965184E+03  0.10247503426E+04  0.12270138324E+03  0.10489226934E+04  0.25500000920E-02 0. -1.
       -2    1    3    3    0  502  0.18726965184E+03 -0.10247503426E+04 -0.14147071420E+03  0.10512835727E+04  0.25500000920E-02 0.  1.
</event>
<event>
 5   0  0.3636435E-06  0.2099277E+04  0.7818609E-02  0.8561562E-01
        2   -1    0    0  501    0  0.00000000000E+00  0.00000000000E+00  0.76018439961E+03  0.76018439962E+03  0.25500000920E-02 0. -1.
       -2   -1    0    0    0  501  0.00000000000E+00  0.00000000000E+00 -0.14493074267E+04  0.14493074267E+04  0.25500000920E-02 0.  1.
    10030    2    1    2    0    0  0.00000000000E+00  0.00000000000E+00 -0.68912302706E+03  0.22094918263E+04  0.20992769193E+04 0.  0.
        4    1    3    3  502    0 -0.91962144166E+03 -0.47946859177E+03 -0.51474664508E+03  0.11578253098E+04  0.12699999809E+01 0.  1.
       -4    1    3    3    0  502  0.91962144166E+03  0.47946859177E+03 -0.17437638198E+03  0.10516665165E+04  0.12699999809E+01 0. -1.
</event>
<event>
 5   0  0.1257125E-06  0.2099617E+04  0.7818609E-02  0.8561412E-01
        3   -1    0    0  501    0  0.00000000000E+00  0.00000000000E+00  0.17245656069E+04  0.17245656099E+04  0.10100000352E+00 0.  1.
       -3   -1    0    0    0  501  0.00000000000E+00  0.00000000000E+00 -0.63905827246E+03  0.63905828044E+03  0.10100000352E+00 0. -1.
    10030    2    1    2    0    0  0.00000000000E+00  0.00000000000E+00  0.10855073345E+04  0.23636238903E+04  0.20996170417E+04 0.  0.
        4    1    3    3  502    0  0.59274936822E+03  0.63383097368E+03  0.12078012786E+04  0.14872387362E+04  0.12699999809E+01 0.  1.
       -4    1    3    3    0  502 -0.59274936822E+03 -0.63383097368E+03 -0.12229394419E+03  0.87638515415E+03  0.12699999809E+01 0. -1.
</event>
<event>
 5   0  0.1653260E-06  0.2106763E+04  0.7818609E-02  0.8558270E-01
       -1   -1    0    0    0  501  0.00000000000E+00  0.00000000000E+00  0.75999869439E+03  0.75999869440E+03  0.50400001928E-02 0.  1.
        1   -1    0    0  501    0  0.00000000000E+00  0.00000000000E+00 -0.14600191181E+04  0.14600191182E+04  0.50400001928E-02 0. -1.
    10030    2    1    2    0    0  0.00000000000E+00  0.00000000000E+00 -0.70002042376E+03  0.22200178126E+04  0.21067630371E+04 0.  0.
        3    1    3    3  502    0  0.56356227546E+03 -0.51993049117E+03  0.41109358116E+03  0.87001614734E+03  0.10100000352E+00 0.  1.
       -3    1    3    3    0  502 -0.56356227546E+03  0.51993049117E+03 -0.11111140049E+04  0.13500016652E+04  0.10100000352E+00 0. -1.
</event>
<event>
 5   0  0.1646510E-06  0.2099802E+04  0.7818609E-02  0.8561330E-01
        1   -1    0    0  501    0  0.00000000000E+00  0.00000000000E+00  0.11505630256E+04  0.11505630256E+04  0.50400001928E-02 0. -1.
       -1   -1    0    0    0  501  0.00000000000E+00  0.00000000000E+00 -0.95804624370E+03  0.95804624372E+03  0.50400001928E-02 0.  1.
    10030    2    1    2    0    0  0.00000000000E+00  0.00000000000E+00  0.19251678191E+03  0.21086092693E+04  0.20998024525E+04 0.  0.
        4    1    3    3  502    0 -0.48642196067E+03  0.26170373876E+03 -0.80034458089E+03  0.97244446204E+03  0.12699999809E+01 0.  1.
       -4    1    3    3    0  502  0.48642196067E+03 -0.26170373876E+03  0.99286136280E+03  0.11361648073E+04  0.12699999809E+01 0. -1.
</event>
<event>
 5   0  0.3705828E-06  0.2099823E+04  0.7818609E-02  0.8561321E-01
       -2   -1    0    0    0  501  0.00000000000E+00  0.00000000000E+00  0.56919332753E+03  0.56919332753E+03  0.25500000920E-02 0. -1.
        2   -1    0    0  501    0  0.00000000000E+00  0.00000000000E+00 -0.19366256383E+04  0.19366256383E+04  0.25500000920E-02 0.  1.
    10030    2    1    2    0    0  0.00000000000E+00  0.00000000000E+00 -0.13674323108E+04  0.25058189659E+04  0.20998232223E+04 0.  0.
        5    1    3    3  502    0 -0.29604792165E+03  0.98316241046E+03 -0.94527334793E+03  0.13956419632E+04  0.46999998093E+01 0. -1.
       -5    1    3    3    0  502  0.29604792165E+03 -0.98316241046E+03 -0.42215896289E+03  0.11101770026E+04  0.46999998093E+01 0.  1.
</event>
<event>
 5   0  0.1590067E-06  0.2100212E+04  0.7818609E-02  0.8561150E-01
        1   -1    0    0  501    0  0.00000000000E+00  0.00000000000E+00  0.14436410912E+04  0.14436410912E+04  0.50400001928E-02 0. -1.
       -1   -1    0    0    0  501  0.00000000000E+00  0.00000000000E+00 -0.76384824485E+03  0.76384824487E+03  0.50400001928E-02 0.  1.
    10030    2    1    2    0    0  0.00000000000E+00  0.00000000000E+00  0.67979284631E+03  0.22074893360E+04  0.21002120976E+04 0.  0.
        5    1    3    3  502    0 -0.30890847867E+03 -0.10214579808E+03 -0.70952206725E+03  0.78057790526E+03  0.46999998093E+01 0.  1.
       -5    1    3    3    0  502  0.30890847867E+03  0.10214579808E+03  0.13893149136E+04  0.14269114308E+04  0.46999998093E+01 0. -1.
</event>
<event>
 5   0  0.1579820E-06  0.2100558E+04  0.7818609E-02  0.8560998E-01
       -1   -1    0    0    0  501  0.00000000000E+00  0.00000000000E+00  0.11193625685E+04  0.11193625685E+04  0.50400001928E-02 0. -1.
        1   -1    0    0  501    0  0.00000000000E+00  0.00000000000E+00 -0.98545887758E+03  0.98545887759E+03  0.50400001928E-02 0.  1.
    10030    2    1    2    0    0  0.00000000000E+00  0.00000000000E+00  0.13390369088E+03  0.21048214461E+04  0.21005578120E+04 0.  0.
        2    1    3    3  502    0  0.64667196972E+03 -0.47689076608E+03 -0.61079099873E+03  0.10092943492E+04  0.25500000920E-02 0.  1.
       -2    1    3    3    0  502 -0.64667196972E+03  0.47689076608E+03  0.74469468962E+03  0.10955270969E+04  0.25500000920E-02 0. -1.
</event>
<event>
 5   0  0.3574927E-06  0.2100357E+04  0.7818609E-02  0.8561086E-01
        2   -1    0    0  501    0  0.00000000000E+00  0.00000000000E+00  0.12844234190E+04  0.12844234190E+04  0.25500000920E-02 0.  1.
       -2   -1    0    0    0  501  0.00000000000E+00  0.00000000000E+00 -0.85865334955E+03  0.85865334955E+03  0.25500000920E-02 0. -1.
    10030    2    1    2    0    0  0.00000000000E+00  0.00000000000E+00  0.42577006942E+03  0.21430767685E+04  0.21003566087E+04 0.  0.
        3    1    3    3  502    0 -0.34672143494E+03  0.16450081273E+03  0.12103148592E+04  0.12697000982E+04  0.10100000352E+00 0.  1.
       -3    1    3    3    0  502  0.34672143494E+03 -0.16450081273E+03 -0.78454478979E+03  0.87337667030E+03  0.10100000352E+00 0. -1.
</event>
<event>
 5   0  0.1653260E-06  0.2097479E+04  0.7818609E-02  0.8562355E-01
       -1   -1    0    0    0  501  0.00000000000E+00  0.00000000000E+00  0.96938829999E+03  0.96938830001E+03  0.50400001928E-02 0. -1.
        1   -1    0    0  501    0  0.00000000000E+00  0.00000000000E+00 -0.11345856645E+04  0.11345856645E+04  0.50400001928E-02 0.  1.
    10030    2    1    2    0    0  0.00000000000E+00  0.00000000000E+00 -0.16519736446E+03  0.21039739645E+04  0.20974785515E+04 0.  0.
        3    1    3    3  502    0  0.69499325938E+03 -0.97212161285E+02  0.69916594604E+03  0.99060530243E+03  0.10100000352E+00 0. -1.
       -3    1    3    3    0  502 -0.69499325938E+03  0.97212161285E+02 -0.86436331051E+03  0.11133686621E+04  0.10100000352E+00 0.  1.
</event>
<event>
 5   0  0.1653260E-06  0.2099137E+04  0.7818609E-02  0.8561624E-01
       -1   -1    0    0    0  501  0.00000000000E+00  0.00000000000E+00  0.43354822738E+03  0.43354822741E+03  0.50400001928E-02 0. -1.
        1   -1    0    0  501    0  0.00000000000E+00  0.00000000000E+00 -0.25408801947E+04  0.25408801947E+04  0.50400001928E-02 0.  1.
    10030    2    1    2    0    0  0.00000000000E+00  0.00000000000E+00 -0.21073319673E+04  0.29744284221E+04  0.20991370650E+04 0.  0.
        3    1    3    3  502    0 -0.33722948105E+03  0.26774758201E+03  0.30262698034E+03  0.52630370509E+03  0.10100000352E+00 0. -1.
       -3    1    3    3    0  502  0.33722948105E+03 -0.26774758201E+03 -0.24099589476E+04  0.24481247170E+04  0.10100000352E+00 0.  1.
</event>
<event>
 5   0  0.1653260E-06  0.2099292E+04  0.7818609E-02  0.8561555E-01
        1   -1    0    0  501    0  0.00000000000E+00  0.00000000000E+00  0.13437290728E+04  0.13437290728E+04  0.50400001928E-02 0.  1.
       -1   -1    0    0    0  501  0.00000000000E+00  0.00000000000E+00 -0.81992476736E+03  0.81992476738E+03  0.50400001928E-02 0. -1.
    10030    2    1    2    0    0  0.00000000000E+00  0.00000000000E+00  0.52380430541E+03  0.21636538402E+04  0.20992920211E+04 0.  0.
        3    1    3    3  502    0 -0.10227140431E+04  0.13395907556E+03  0.46246446486E+03  0.11303815459E+04  0.10100000352E+00 0. -1.
       -3    1    3    3    0  502  0.10227140431E+04 -0.13395907556E+03  0.61339840545E+02  0.10332722943E+04  0.10100000352E+00 0.  1.
</event>
<event>
 5   0  0.1579820E-06  0.2100496E+04  0.7818609E-02  0.8561025E-01
       -1   -1    0    0    0  501  0.00000000000E+00  0.00000000000E+00  0.62316957477E+03  0.62316957479E+03  0.50400001928E-02 0.  1.
        1   -1    0    0  501    0  0.00000000000E+00  0.00000000000E+00 -0.17700178770E+04  0.17700178770E+04  0.50400001928E-02 0. -1.
    10030    2    1    2    0    0  0.00000000000E+00  0.00000000000E+00 -0.11468483023E+04  0.23931874518E+04  0.21004964059E+04 0.  0.
        2    1    3    3  502    0 -0.72194769158E+03  0.23902804810E+03  0.25185594573E+03  0.80110816658E+03  0.25500000920E-02 0.  1.
       -2    1    3    3    0  502  0.72194769158E+03 -0.23902804810E+03 -0.13987042480E+04  0.15920792853E+04  0.25500000920E-02 0. -1.
</event>
<event>
 5   0  0.1646510E-06  0.2099999E+04  0.7818609E-02  0.8561244E-01
        1   -1    0    0  501    0  0.00000000000E+00  0.00000000000E+00  0.12129640274E+04  0.12129640274E+04  0.50400001928E-02 0. -1.
       -1   -1    0    0    0  501  0.00000000000E+00  0.00000000000E+00 -0.90892972287E+03  0.90892972288E+03  0.50400001928E-02 0.  1.
    10030    2    1    2    0    0  0.00000000000E+00  0.00000000000E+00  0.30403430449E+03  0.21218937502E+04  0.20999991021E+04 0.  0.
        4    1    3    3  502    0  0.22539372531E+03 -0.52350393971E+03  0.10430494942E+04  0.11886179229E+04  0.12699999809E+01 0. -1.
       -4    1    3    3    0  502 -0.22539372531E+03  0.52350393971E+03 -0.73901518976E+03  0.93327582734E+03  0.12699999809E+01 0.  1.
</event>
<event>
 5   0  0.1646510E-06  0.2100459E+04  0.7818609E-02  0.8561041E-01
        1   -1    0    0  501    0  0.00000000000E+00  0.00000000000E+00  0.22620102113E+04  0.22620102113E+04  0.50400001928E-02 0. -1.
       -1   -1    0    0    0  501  0.00000000000E+00  0.00000000000E+00 -0.48761136381E+03  0.48761136383E+03  0.50400001928E-02 0.  1.
    10030    2    1    2    0    0  0.00000000000E+00  0.00000000000E+00  0.17743988475E+04  0.27496215751E+04  0.21004588871E+04 0.  0.
        4    1    3    3  502    0 -0.88319087033E+03 -0.45533216292E+03  0.13323305417E+04  0.16620649137E+04  0.12699999809E+01 0. -1.
       -4    1    3    3    0  502  0.88319087033E+03  0.45533216292E+03  0.44206830581E+03  0.10875566615E+04  0.12699999809E+01 0.  1.
</event>
<event>
 5   0  0.3574927E-06  0.2099118E+04  0.7818609E-02  0.8561632E-01
        2   -1    0    0  501    0  0.00000000000E+00  0.00000000000E+00  0.12254947536E+04  0.12254947536E+04  0.25500000920E-02 0.  1.
       -2   -1    0    0    0  501  0.00000000000E+00  0.00000000000E+00 -0.89888111502E+03  0.89888111503E+03  0.25500000920E-02 0. -1.
    10030    2    1    2    0    0  0.00000000000E+00  0.00000000000E+00  0.32661363862E+03  0.21243758687E+04  0.20991179963E+04 0.  0.
        3    1    3    3  502    0 -0.54222489853E+03  0.89811842289E+03  0.19449217841E+03  0.10669825490E+04  0.10100000352E+00 0. -1.
       -3    1    3    3    0  502  0.54222489853E+03 -0.89811842289E+03  0.13212146021E+03  0.10573933197E+04  0.10100000352E+00 0.  1.
</event>
<event>
 5   0  0.3636435E-06  0.2099616E+04  0.7818609E-02  0.8561412E-01
       -2   -1    0    0    0  501  0.00000000000E+00  0.00000000000E+00  0.12549773932E+04  0.12549773932E+04  0.25500000920E-02 0. -1.
        2   -1    0    0  501    0  0.00000000000E+00  0.00000000000E+00 -0.87818098555E+03  0.87818098556E+03  0.25500000920E-02 0.  1.
    10030    2    1    2    0    0  0.00000000000E+00  0.00000000000E+00  0.37679640763E+03  0.21331583787E+04  0.20996164259E+04 0.  0.
        4    1    3    3  502    0  0.88293938123E+03 -0.48421240269E+03  0.48987432771E+03  0.11198312693E+04  0.12699999809E+01 0. -1.
       -4    1    3    3    0  502 -0.88293938123E+03  0.48421240269E+03 -0.11307792008E+03  0.10133271094E+04  0.12699999809E+01 0.  1.
</event>
<event>
 5   0  0.3636435E-06  0.2100794E+04  0.7818609E-02  0.8560894E-01
       -2   -1    0    0    0  501  0.00000000000E+00  0.00000000000E+00  0.84628250369E+03  0.84628250369E+03  0.25500000920E-02 0.  1.
        2   -1    0    0  501    0  0.00000000000E+00  0.00000000000E+00 -0.13037415937E+04  0.13037415937E+04  0.25500000920E-02 0. -1.
    10030    2    1    2    0    0  0.00000000000E+00  0.00000000000E+00 -0.45745909000E+03  0.21500240974E+04  0.21007938500E+04 0.  0.
        4    1    3    3  502    0 -0.79132741527E+03  0.15254181011E+03  0.46075218202E+03  0.92831151459E+03  0.12699999809E+01 0.  1.
       -4    1    3    3    0  502  0.79132741527E+03 -0.15254181011E+03 -0.91821127202E+03  0.12217125828E+04  0.12699999809E+01 0. -1.
</event>
<event>
 5   0  0.1590067E-06  0.2100439E+04  0.7818609E-02  0.8561050E-01
        1   -1    0    0  501    0  0.00000000000E+00  0.00000000000E+00  0.17111582621E+04  0.17111582621E+04  0.50400001928E-02 0. -1.
       -1   -1    0    0    0  501  0.00000000000E+00  0.00000000000E+00 -0.64456981984E+03  0.64456981985E+03  0.50400001928E-02 0.  1.
    10030    2    1    2    0    0  0.00000000000E+00  0.00000000000E+00  0.10665884423E+04  0.23557280820E+04  0.21004389758E+04 0.  0.
        5    1    3    3  502    0 -0.46347336556E+03 -0.93235741342E+03  0.68723964600E+03  0.12475649594E+04  0.46999998093E+01 0. -1.
       -5    1    3    3    0  502  0.46347336556E+03  0.93235741342E+03  0.37934879627E+03  0.11081631225E+04  0.46999998093E+01 0.  1.
</event>
<event>
 5   0  0.1653260E-06  0.2096138E+04  0.7818609E-02  0.8562947E-01
        1   -1    0    0  501    0  0.00000000000E+00  0.00000000000E+00  0.13478337730E+04  0.13478337730E+04  0.50400001928E-02 0. -1.
       -1   -1    0    0    0  501  0.00000000000E+00  0.00000000000E+00 -0.81497308271E+03  0.81497308273E+03  0.50400001928E-02 0.  1.
    10030    2    1    2    0    0  0.00000000000E+00  0.00000000000E+00  0.53286069026E+03  0.21628068557E+04  0.20961376338E+04 0.  0.
        3    1    3    3  502    0 -0.66997546274E+02  0.82994941149E+03  0.92318385182E+03  0.12432108153E+04  0.10100000352E+00 0. -1.
       -3    1    3    3    0  502  0.66997546274E+02 -0.82994941149E+03 -0.39032316157E+03  0.91959604039E+03  0.10100000352E+00 0.  1.
</event>
<event>
 5   0  0.3636435E-06  0.2100885E+04  0.7818609E-02  0.8560853E-01
        2   -1    0    0  501    0  0.00000000000E+00  0.00000000000E+00  0.12993940199E+04  0.12993940199E+04  0.25500000920E-02 0.  1.
       -2   -1    0    0    0  501  0.00000000000E+00  0.00000000000E+00 -0.84918795908E+03  0.84918795908E+03  0.25500000920E-02 0. -1.
    10030    2    1    2    0    0  0.00000000000E+00  0.00000000000E+00  0.45020606084E+03  0.21485819790E+04  0.21008852951E+04 0.  0.
        4    1    3    3  502    0 -0.95598353836E+03 -0.30377951907E+03  0.54401857098E+03  0.11411153931E+04  0.12699999809E+01 0.  1.
       -4    1    3    3    0  502  0.95598353836E+03  0.30377951907E+03 -0.93812510143E+02  0.10074665859E+04  0.12699999809E+01 0. -1.
</event>
<event>
 5   0  0.3705828E-06  0.2106662E+04  0.7818609E-02  0.8558314E-01
        2   -1    0    0  501    0  0.00000000000E+00  0.00000000000E+00  0.16686966161E+04  0.16686966161E+04  0.25500000920E-02 0. -1.
       -2   -1    0    0    0  501  0.00000000000E+00  0.00000000000E+00 -0.66489378816E+03  0.66489378817E+03  0.25500000920E-02 0.  1.
    10030    2    1    2    0    0  0.00000000000E+00  0.00000000000E+00  0.10038028279E+04  0.23335904042E+04  0.21066618280E+04 0.  0.
        5    1    3    3  502    0  0.10213190267E+04 -0.25430561840E+03  0.45596079170E+03  0.11470336679E+04  0.46999998093E+01 0.  1.
       -5    1    3    3    0  502 -0.10213190267E+04  0.25430561840E+03  0.54784203621E+03  0.11865567363E+04  0.46999998093E+01 0. -1.
</event>
<event>
 5   0  0.1590067E-06  0.2100622E+04  0.7818609E-02  0.8560969E-01
       -1   -1    0    0    0  501  0.00000000000E+00  0.00000000000E+00  0.44993275903E+03  0.44993275906E+03  0.50400001928E-02 0. -1.
        1   -1    0    0  501    0  0.00000000000E+00  0.00000000000E+00 -0.24518179648E+04  0.24518179648E+04  0.50400001928E-02 0.  1.
    10030    2    1    2    0    0  0.00000000000E+00  0.00000000000E+00 -0.20018852058E+04  0.29017507239E+04  0.21006220237E+04 0.  0.
        5    1    3    3  502    0 -0.96033222651E+03  0.16454603601E+03 -0.45917203014E+03  0.10771139338E+04  0.46999998093E+01 0. -1.
       -5    1    3    3    0  502  0.96033222651E+03 -0.16454603601E+03 -0.15427131756E+04  0.18246367900E+04  0.46999998093E+01 0.  1.
</event>
<event>
 5   0  0.1653260E-06  0.2099825E+04  0.7818609E-02  0.8561320E-01
        1   -1    0    0  501    0  0.00000000000E+00  0.00000000000E+00  0.65715197507E+03  0.65715197509E+03  0.50400001928E-02 0.  1.
       -1   -1    0    0    0  501  0.00000000000E+00  0.00000000000E+00 -0.16774152729E+04  0.16774152729E+04  0.50400001928E-02 0. -1.
    10030    2    1    2    0    0  0.00000000000E+00  0.00000000000E+00 -0.10202632979E+04  0.23345672480E+04  0.20998254781E+04 0.  0.
        3    1    3    3  502    0  0.11507887596E+03 -0.70730217677E+03 -0.13632436817E+04  0.15401145616E+04  0.10100000352E+00 0. -1.
       -3    1    3    3    0  502 -0.11507887596E+03  0.70730217677E+03  0.34298038389E+03  0.79445268638E+03  0.10100000352E+00 0.  1.
</event>
<event>
 5   0  0.3547583E-06  0.2100461E+04  0.7818609E-02  0.8561040E-01
       -2   -1    0    0    0  501  0.00000000000E+00  0.00000000000E+00  0.72335925287E+03  0.72335925287E+03  0.25500000920E-02 0.  1.
        2   -1    0    0  501    0  0.00000000000E+00  0.00000000000E+00 -0.15248085813E+04  0.15248085813E+04  0.25500000920E-02 0. -1.
    10030    2    1    2    0    0  0.00000000000E+00  0.00000000000E+00 -0.80144932846E+03  0.22481678342E+04  0.21004612790E+04 0.  0.
        2    1    3    3  502    0 -0.22489104486E+03 -0.97819376324E+03 -0.69883998518E+02  0.10061425315E+04  0.25500000920E-02 0.  1.
       -2    1    3    3    0  502  0.22489104486E+03  0.97819376324E+03 -0.73156532994E+03  0.12420253027E+04  0.25500000920E-02 0. -1.
</event>
<event>
 5   0  0.3705828E-06  0.2099968E+04  0.7818609E-02  0.8561257E-01
       -2   -1    0    0    0  501  0.00000000000E+00  0.00000000000E+00  0.76686856011E+03  0.76686856011E+03  0.25500000920E-02 0. -1.
        2   -1    0    0  501    0  0.00000000000E+00  0.00000000000E+00 -0.14376210514E+04  0.14376210514E+04  0.25500000920E-02 0.  1.
    10030    2    1    2    0    0  0.00000000000E+00  0.00000000000E+00 -0.67075249134E+03  0.22044896116E+04  0.20999679861E+04 0.  0.
        5    1    3    3  502    0 -0.47808003864E+03  0.91488449696E+03 -0.13380308081E+03  0.10409128304E+04  0.46999998093E+01 0.  1.
       -5    1    3    3    0  502  0.47808003864E+03 -0.91488449696E+03 -0.53694941053E+03  0.11635767811E+04  0.46999998093E+01 0. -1.
</event>
<event>
 5   0  0.3480134E-06  0.2100381E+04  0.7818609E-02  0.8561075E-01
       -2   -1    0    0    0  501  0.00000000000E+00  0.00000000000E+00  0.49262096333E+03  0.49262096333E+03  0.25500000920E-02 0.  1.
        2   -1    0    0  501    0  0.00000000000E+00  0.00000000000E+00 -0.22388415373E+04  0.22388415373E+04  0.25500000920E-02 0. -1.
    10030    2    1    2    0    0  0.00000000000E+00  0.00000000000E+00 -0.17462205739E+04  0.27314625006E+04  0.21003811795E+04 0.  0.
        1    1    3    3  502    0 -0.10466206844E+04 -0.68735873548E+02 -0.80477981809E+03  0.13220476667E+04  0.50400001928E-02 0.  1.
       -1    1    3    3    0  502  0.10466206844E+04  0.68735873548E+02 -0.94144075584E+03  0.14094148339E+04  0.50400001928E-02 0. -1.
</event>
<event>
 5   0  0.3636435E-06  0.2099563E+04  0.7818609E-02  0.8561436E-01
       -2   -1    0    0    0  501  0.00000000000E+00  0.00000000000E+00  0.45169871006E+03  0.45169871007E+03  0.25500000920E-02 0. -1.
        2   -1    0    0  501    0  0.00000000000E+00  0.00000000000E+00 -0.24397709137E+04  0.24397709137E+04  0.25500000920E-02 0.  1.
    10030    2    1    2    0    0  0.00000000000E+00  0.00000000000E+00 -0.19880722037E+04  0.28914696238E+04  0.20995631685E+04 0.  0.
        4    1    3    3  502    0  0.15636572501E+03 -0.80537805258E+03 -0.18960140448E+04  0.20659029305E+04  0.12699999809E+01 0.  1.
       -4    1    3    3    0  502 -0.15636572501E+03  0.80537805258E+03 -0.92058158922E+02  0.82556669328E+03  0.12699999809E+01 0. -1.
</event>
<event>
 5   0  0.3705828E-06  0.2100318E+04  0.7818609E-02  0.8561103E-01
       -2   -1    0    0    0  501  0.00000000000E+00  0.00000000000E+00  0.70926455304E+03  0.70926455305E+03  0.25500000920E-02 0. -1.
        2   -1    0    0  501    0  0.00000000000E+00  0.00000000000E+00 -0.15548982862E+04  0.15548982862E+04  0.25500000920E-02 0.  1.
    10030    2    1    2    0    0  0.00000000000E+00  0.00000000000E+00 -0.84563373313E+03  0.22641628392E+04  0.21003182978E+04 0.  0.
        5    1    3    3  502    0 -0.28097657478E+03 -0.10057955536E+04 -0.54208006484E+03  0.11766245867E+04  0.46999998093E+01 0. -1.
       -5    1    3    3    0  502  0.28097657478E+03  0.10057955536E+04 -0.30355366829E+03  0.10875382526E+04  0.46999998093E+01 0.  1.
</event>
<event>
 5   0  0.3574927E-06  0.2100148E+04  0.7818609E-02  0.8561178E-01
        2   -1    0    0  501    0  0.00000000000E+00  0.00000000000E+00  0.36292259230E+03  0.36292259231E+03  0.25500000920E-02 0.  1.
       -2   -1    0    0    0  501  0.00000000000E+00  0.00000000000E+00 -0.30382666213E+04  0.30382666213E+04  0.25500000920E-02 0. -1.
    10030    2    1    2    0    0  0.00000000000E+00  0.00000000000E+00 -0.26753440290E+04  0.34011892136E+04  0.21001481837E+04 0.  0.
        3    1    3    3  502    0 -0.94456096146E+03  0.43743507469E+03 -0.11137898311E+04  0.15244909487E+04  0.10100000352E+00 0.  1.
       -3    1    3    3    0  502  0.94456096146E+03 -0.43743507469E+03 -0.15615541980E+04  0.18766982650E+04  0.10100000352E+00 0. -1.
</event>
<event>
 5   0  0.1646510E-06  0.2100926E+04  0.7818609E-02  0.8560836E-01
       -1   -1    0    0    0  501  0.00000000000E+00  0.00000000000E+00  0.51793563467E+03  0.51793563470E+03  0.50400001928E-02 0.  1.
        1   -1    0    0  501    0  0.00000000000E+00  0.00000000000E+00 -0.21305200946E+04  0.21305200946E+04  0.50400001928E-02 0. -1.
    10030    2    1    2    0    0  0.00000000000E+00  0.00000000000E+00 -0.16125844599E+04  0.26484557293E+04  0.21009257744E+04 0.  0.
        4    1    3    3  502    0 -0.26068598662E+03 -0.16213446817E+03 -0.20727076834E+04  0.20953194322E+04  0.12699999809E+01 0. -1.
       -4    1    3    3    0  502  0.26068598662E+03  0.16213446817E+03  0.46012322351E+03  0.55313629704E+03  0.12699999809E+01 0.  1.
</event>
<event>
 5   0  0.3705828E-06  0.2099812E+04  0.7818609E-02  0.8561326E-01
       -2   -1    0    0    0  501  0.00000000000E+00  0.00000000000E+00  0.72421169045E+03  0.72421169045E+03  0.25500000920E-02 0. -1.
        2   -1    0    0  501    0  0.00000000000E+00  0.00000000000E+00 -0.15220727119E+04  0.15220727119E+04  0.25500000920E-02 0.  1.
    10030    2    1    2    0    0  0.00000000000E+00  0.00000000000E+00 -0.79786102147E+03  0.22462844024E+04  0.20998122313E+04 0.  0.
        5    1    3    3  502    0 -0.20806729202E+03  0.92539866234E+03 -0.88047004795E+03  0.12941809292E+04  0.46999998093E+01 0. -1.
       -5    1    3    3    0  502  0.20806729202E+03 -0.92539866234E+03  0.82609026488E+02  0.95210347312E+03  0.46999998093E+01 0.  1.
</event>
<event>
 5   0  0.1590067E-06  0.2100748E+04  0.7818609E-02  0.8560914E-01
       -1   -1    0    0    0  501  0.00000000000E+00  0.00000000000E+00  0.10908674686E+04  0.10908674686E+04  0.50400001928E-02 0. -1.
        1   -1    0    0  501    0  0.00000000000E+00  0.00000000000E+00 -0.10113834234E+04  0.10113834234E+04  0.50400001928E-02 0.  1.
    10030    2    1    2    0    0  0.00000000000E+00  0.00000000000E+00  0.79484045186E+02  0.21022508921E+04  0.21007477478E+04 0.  0.
        5    1    3    3  502    0  0.57605549722E+03 -0.27067160459E+03  0.87589966057E+03  0.10827397466E+04  0.46999998093E+01 0. -1.
       -5    1    3    3    0  502 -0.57605549722E+03  0.27067160459E+03 -0.79641561538E+03  0.10195111455E+04  0.46999998093E+01 0.  1.
</event>
<event>
 5   0  0.1590067E-06  0.2100483E+04  0.7818609E-02  0.8561030E-01
       -1   -1    0    0    0  501  0.00000000000E+00  0.00000000000E+00  0.64173403839E+03  0.64173403841E+03  0.50400001928E-02 0.  1.
        1   -1    0    0  501    0  0.00000000000E+00  0.00000000000E+00 -0.17187924242E+04  0.17187924242E+04  0.50400001928E-02 0. -1.
    10030    2    1    2    0    0  0.00000000000E+00  0.00000000000E+00 -0.10770583858E+04  0.23605264626E+04  0.21004833763E+04 0.  0.
        5    1    3    3  502    0 -0.48565661344E+03  0.93046017720E+03 -0.58007986127E+03  0.11992219240E+04  0.46999998093E+01 0.  1.
       -5    1    3    3    0  502  0.48565661344E+03 -0.93046017720E+03 -0.49697852451E+03  0.11613045386E+04  0.46999998093E+01 0. -1.
</event>
<event>
 5   0  0.1590067E-06  0.2101632E+04  0.7818609E-02  0.8560525E-01
       -1   -1    0    0    0  501  0.00000000000E+00  0.00000000000E+00  0.62727512320E+03  0.62727512322E+03  0.50400001928E-02 0. -1.
        1   -1    0    0  501    0  0.00000000000E+00  0.00000000000E+00 -0.17603346759E+04  0.17603346759E+04  0.50400001928E-02 0.  1.
    10030    2    1    2    0    0  0.00000000000E+00  0.00000000000E+00 -0.11330595527E+04  0.23876097991E+04  0.21016318904E+04 0.  0.
        5    1    3    3  502    0  0.17871008113E+02 -0.57748273065E+03 -0.15636809433E+04  0.16670110556E+04  0.46999998093E+01 0.  1.
       -5    1    3    3    0  502 -0.17871008113E+02  0.57748273065E+03  0.43062139058E+03  0.72059874352E+03  0.46999998093E+01 0. -1.
</event>
<event>
 5   0  0.1615098E-06  0.2100348E+04  0.7818609E-02  0.8561090E-01
       -1   -1    0    0    0  501  0.00000000000E+00  0.00000000000E+00  0.51461281939E+03  0.51461281941E+03  0.50400001928E-02 0.  1.
        1   -1    0    0  501    0  0.00000000000E+00  0.00000000000E+00 -0.21430979715E+04  0.21430979715E+04  0.50400001928E-02 0. -1.
    10030    2    1    2    0    0  0.00000000000E+00  0.00000000000E+00 -0.16284851521E+04  0.26577107909E+04  0.21003482467E+04 0.  0.
        1    1    3    3  502    0  0.34058260862E+03  0.81890723972E+03 -0.10263818524E+03  0.89282707041E+03  0.50400001928E-02 0.  1.
       -1    1    3    3    0  502 -0.34058260862E+03 -0.81890723972E+03 -0.15258469668E+04  0.17648837205E+04  0.50400001928E-02 0. -1.
</event>
<event>
 5   0  0.3574927E-06  0.2099681E+04  0.7818609E-02  0.8561384E-01
        2   -1    0    0  501    0  0.00000000000E+00  0.00000000000E+00  0.14689646051E+04  0.14689646051E+04  0.25500000920E-02 0.  1.
       -2   -1    0    0    0  501  0.00000000000E+00  0.00000000000E+00 -0.75030084784E+03  0.75030084785E+03  0.25500000920E-02 0. -1.
    10030    2    1    2    0    0  0.00000000000E+00  0.00000000000E+00  0.71866375721E+03  0.22192654529E+04  0.20996812983E+04 0.  0.
        3    1    3    3  502    0  0.27041822295E+03 -0.74765615125E+03  0.10839809433E+04  0.13442955149E+04  0.10100000352E+00 0.  1.
       -3    1    3    3    0  502 -0.27041822295E+03  0.74765615125E+03 -0.36531718605E+03  0.87496993801E+03  0.10100000352E+00 0. -1.
</event>
<event>
 5   0  0.1257125E-06  0.2099956E+04  0.7818609E-02  0.8561263E-01
        4   -1    0    0  501    0  0.00000000000E+00  0.00000000000E+00  0.11444923899E+04  0.11444930945E+04  0.12699999809E+01 0.  1.
       -4   -1    0    0    0  501  0.00000000000E+00  0.00000000000E+00 -0.96326708600E+03  0.96326792320E+03  0.12699999809E+01 0. -1.
    10030    2    1    2    0    0  0.00000000000E+00  0.00000000000E+00  0.18122530387E+03  0.21077610177E+04  0.20999556893E+04 0.  0.
        5    1    3    3  502    0 -0.79282479497E+03 -0.41290842402E+03  0.64344736747E+03  0.11014132407E+04  0.46999998093E+01 0.  1.
       -5    1    3    3    0  502  0.79282479497E+03  0.41290842402E+03 -0.46222206360E+03  0.10063477770E+04  0.46999998093E+01 0. -1.
</event>
<event>
 5   0  0.1646510E-06  0.2097851E+04  0.7818609E-02  0.8562190E-01
        1   -1    0    0  501    0  0.00000000000E+00  0.00000000000E+00  0.10332649512E+04  0.10332649512E+04  0.50400001928E-02 0. -1.
       -1   -1    0    0    0  501  0.00000000000E+00  0.00000000000E+00 -0.10648238726E+04  0.10648238726E+04  0.50400001928E-02 0.  1.
    10030    2    1    2    0    0  0.00000000000E+00  0.00000000000E+00 -0.31558921395E+02  0.20980888239E+04  0.20978514598E+04 0.  0.
        4    1    3    3  502    0  0.89391971148E+03 -0.40326110852E+03 -0.38801991006E+03  0.10546435586E+04  0.12699999809E+01 0.  1.
       -4    1    3    3    0  502 -0.89391971148E+03  0.40326110852E+03  0.35646098867E+03  0.10434452652E+04  0.12699999809E+01 0. -1.
</event>
<event>
 5   0  0.3547583E-06  0.2099599E+04  0.7818609E-02  0.8561420E-01
       -2   -1    0    0    0  501  0.00000000000E+00  0.00000000000E+00  0.69682810618E+03  0.69682810619E+03  0.25500000920E-02 0.  1.
        2   -1    0    0  501    0  0.00000000000E+00  0.00000000000E+00 -0.15815649015E+04  0.15815649015E+04  0.25500000920E-02 0. -1.
    10030    2    1    2    0    0  0.00000000000E+00  0.00000000000E+00 -0.88473679534E+03  0.22783930077E+04  0.20995988904E+04 0.  0.
        2    1    3    3  502    0 -0.29747009339E+03 -0.36624629818E+03  0.57528265352E+03  0.74402616812E+03  0.25500000920E-02 0.  1.
       -2    1    3    3    0  502  0.29747009339E+03  0.36624629818E+03 -0.14600194489E+04  0.15343668396E+04  0.25500000920E-02 0. -1.
</event>
<event>
 5   0  0.3547583E-06  0.2100940E+04  0.7818609E-02  0.8560829E-01
        2   -1    0    0  501    0  0.00000000000E+00  0.00000000000E+00  0.22385675871E+04  0.22385675871E+04  0.25500000920E-02 0. -1.
       -2   -1    0    0    0  501  0.00000000000E+00  0.00000000000E+00 -0.49294361756E+03  0.49294361757E+03  0.25500000920E-02 0.  1.
    10030    2    1    2    0    0  0.00000000000E+00  0.00000000000E+00  0.17456239696E+04  0.27315112047E+04  0.21009403652E+04 0.  0.
        2    1    3    3  502    0  0.36488138892E+03  0.94324442751E+03  0.12420123897E+04  0.16017001137E+04  0.25500000920E-02 0.  1.
       -2    1    3    3    0  502 -0.36488138892E+03 -0.94324442751E+03  0.50361157988E+03  0.11298110910E+04  0.25500000920E-02 0. -1.
</event>
<event>
 5   0  0.1615098E-06  0.2099636E+04  0.7818609E-02  0.8561404E-01
       -1   -1    0    0    0  501  0.00000000000E+00  0.00000000000E+00  0.10643191606E+04  0.10643191606E+04  0.50400001928E-02 0. -1.
        1   -1    0    0  501    0  0.00000000000E+00  0.00000000000E+00 -0.10355147861E+04  0.10355147861E+04  0.50400001928E-02 0.  1.
    10030    2    1    2    0    0  0.00000000000E+00  0.00000000000E+00  0.28804374503E+02  0.20998339467E+04  0.20996363760E+04 0.  0.
        1    1    3    3  502    0  0.39552347991E+03  0.64046025364E+02 -0.95603829003E+03  0.10366050012E+04  0.50400001928E-02 0.  1.
       -1    1    3    3    0  502 -0.39552347991E+03 -0.64046025364E+02  0.98484266453E+03  0.10632289454E+04  0.50400001928E-02 0. -1.
</event>
<event>
 5   0  0.3705828E-06  0.2098825E+04  0.7818609E-02  0.8561761E-01
       -2   -1    0    0    0  501  0.00000000000E+00  0.00000000000E+00  0.91251501654E+03  0.91251501654E+03  0.25500000920E-02 0. -1.
        2   -1    0    0  501    0  0.00000000000E+00  0.00000000000E+00 -0.12068479869E+04  0.12068479869E+04  0.25500000920E-02 0.  1.
    10030    2    1    2    0    0  0.00000000000E+00  0.00000000000E+00 -0.29433297040E+03  0.21193630035E+04  0.20988253007E+04 0.  0.
        5    1    3    3  502    0 -0.30371128723E+03 -0.85154160624E+03 -0.68518515871E+03  0.11344004782E+04  0.46999998093E+01 0.  1.
       -5    1    3    3    0  502  0.30371128723E+03  0.85154160624E+03  0.39085218831E+03  0.98496252531E+03  0.46999998093E+01 0. -1.
</event>
<event>
 5   0  0.1653260E-06  0.2099276E+04  0.7818609E-02  0.8561562E-01
        1   -1    0    0  501    0  0.00000000000E+00  0.00000000000E+00  0.12799417690E+04  0.12799417690E+04  0.50400001928E-02 0. -1.
       -1   -1    0    0    0  501  0.00000000000E+00  0.00000000000E+00 -0.86077388256E+03  0.86077388257E+03  0.50400001928E-02 0.  1.
    10030    2    1    2    0    0  0.00000000000E+00  0.00000000000E+00  0.41916788640E+03  0.21407156515E+04  0.20992764905E+04 0.  0.
        3    1    3    3  502    0  0.32642228203E+03 -0.93543718993E+03 -0.14387937457E+03  0.10011471056E+04  0.10100000352E+00 0.  1.
       -3    1    3    3    0  502 -0.32642228203E+03  0.93543718993E+03  0.56304726096E+03  0.11395685459E+04  0.10100000352E+00 0. -1.
</event>
<event>
 5   0  0.3636435E-06  0.2103499E+04  0.7818609E-02  0.8559703E-01
       -2   -1    0    0    0  501  0.00000000000E+00  0.00000000000E+00  0.61367317222E+03  0.61367317222E+03  0.25500000920E-02 0. -1.
        2   -1    0    0  501    0  0.00000000000E+00  0.00000000000E+00 -0.18025513182E+04  0.18025513182E+04  0.25500000920E-02 0.  1.
    10030    2    1    2    0    0  0.00000000000E+00  0.00000000000E+00 -0.11888781460E+04  0.24162244904E+04  0.21034993563E+04 0.  0.
        4    1    3    3  502    0  0.38423692563E+03  0.43830103954E+03  0.41117451741E+03  0.71331053052E+03  0.12699999809E+01 0. -1.
       -4    1    3    3    0  502 -0.38423692563E+03 -0.43830103954E+03 -0.16000526634E+04  0.17029139599E+04  0.12699999809E+01 0.  1.
</event>
<event>
 5   0  0.1257125E-06  0.2100277E+04  0.7818609E-02  0.8561121E-01
       -3   -1    0    0    0  501  0.00000000000E+00  0.00000000000E+00  0.57907710131E+03  0.57907711012E+03  0.10100000352E+00 0. -1.
        3   -1    0    0  501    0  0.00000000000E+00  0.00000000000E+00 -0.19043946569E+04  0.19043946596E+04  0.10100000352E+00 0.  1.
    10030    2    1    2    0    0  0.00000000000E+00  0.00000000000E+00 -0.13253175556E+04  0.24834717697E+04  0.21002774597E+04 0.  0.
        5    1    3    3  502    0 -0.96926789667E+01 -0.10417770273E+04 -0.81852668440E+03  0.13249155994E+04  0.46999998093E+01 0.  1.
       -5    1    3    3    0  502  0.96926789667E+01  0.10417770273E+04 -0.50679087120E+03  0.11585561703E+04  0.46999998093E+01 0. -1.
</event>
<event>
 5   0  0.1257125E-06  0.2099362E+04  0.7818609E-02  0.8561525E-01
       -4   -1    0    0    0  501  0.00000000000E+00  0.00000000000E+00  0.89097159085E+03  0.89097249599E+03  0.12699999809E+01 0.  1.
        4   -1    0    0  501    0  0.00000000000E+00  0.00000000000E+00 -0.12366594482E+04  0.12366601003E+04  0.12699999809E+01 0. -1.
    10030    2    1    2    0    0  0.00000000000E+00  0.00000000000E+00 -0.34568785732E+03  0.21276325963E+04  0.20993618959E+04 0.  0.
        5    1    3    3  502    0  0.39645527973E+03  0.93953202217E+03  0.79325542916E+02  0.10228449742E+04  0.46999998093E+01 0.  1.
       -5    1    3    3    0  502 -0.39645527973E+03 -0.93953202217E+03 -0.42501340023E+03  0.11047876221E+04  0.46999998093E+01 0. -1.
</event>
<event>
 5   0  0.1615098E-06  0.2099522E+04  0.7818609E-02  0.8561454E-01
       -1   -1    0    0    0  501  0.00000000000E+00  0.00000000000E+00  0.64784021770E+03  0.64784021772E+03  0.50400001928E-02 0.  1.
        1   -1    0    0  501    0  0.00000000000E+00  0.00000000000E+00 -0.17010338211E+04  0.17010338211E+04  0.50400001928E-02 0. -1.
    10030    2    1    2    0    0  0.00000000000E+00  0.00000000000E+00 -0.10531936034E+04  0.23488740388E+04  0.20995219656E+04 0.  0.
        1    1    3    3  502    0  0.36638764037E+03 -0.97988651027E+03 -0.62400429872E+03  0.12181128194E+04  0.50400001928E-02 0. -1.
       -1    1    3    3    0  502 -0.36638764037E+03  0.97988651027E+03 -0.42918930469E+03  0.11307612194E+04  0.50400001928E-02 0.  1.
</event>
<event>
 5   0  0.1615098E-06  0.2099214E+04  0.7818609E-02  0.8561590E-01
        1   -1    0    0  501    0  0.00000000000E+00  0.00000000000E+00  0.11981204705E+04  0.11981204705E+04  0.50400001928E-02 0. -1.
       -1   -1    0    0    0  501  0.00000000000E+00  0.00000000000E+00 -0.91950244941E+03  0.91950244942E+03  0.50400001928E-02 0.  1.
    10030    2    1    2    0    0  0.00000000000E+00  0.00000000000E+00  0.27861802111E+03  0.21176229199E+04  0.20992138599E+04 0.  0.
        1    1    3    3  502    0 -0.59969960583E+03  0.64947774731E+03 -0.43152774524E+03  0.98370582819E+03  0.50400001928E-02 0.  1.
       -1    1    3    3    0  502  0.59969960583E+03 -0.64947774731E+03  0.71014576635E+03  0.11339170918E+04  0.50400001928E-02 0. -1.
</event>
<event>
 5   0  0.1653260E-06  0.2100356E+04  0.7818609E-02  0.8561086E-01
       -1   -1    0    0    0  501  0.00000000000E+00  0.00000000000E+00  0.70683982358E+03  0.70683982360E+03  0.50400001928E-02 0.  1.
        1   -1    0    0  501    0  0.00000000000E+00  0.00000000000E+00 -0.15602886512E+04  0.15602886512E+04  0.50400001928E-02 0. -1.
    10030    2    1    2    0    0  0.00000000000E+00  0.00000000000E+00 -0.85344882759E+03  0.22671284748E+04  0.21003563078E+04 0.  0.
        3    1    3    3  502    0  0.59357422045E+03 -0.84203320675E+03 -0.20677031533E+03  0.10507636509E+04  0.10100000352E+00 0.  1.
       -3    1    3    3    0  502 -0.59357422045E+03  0.84203320675E+03 -0.64667851226E+03  0.12163648239E+04  0.10100000352E+00 0. -1.
</event>
<event>
 5   0  0.3636435E-06  0.2099619E+04  0.7818609E-02  0.8561411E-01
        2   -1    0    0  501    0  0.00000000000E+00  0.00000000000E+00  0.99129292330E+03  0.99129292331E+03  0.25500000920E-02 0.  1.
       -2   -1    0    0    0  501  0.00000000000E+00  0.00000000000E+00 -0.11117804542E+04  0.11117804542E+04  0.25500000920E-02 0. -1.
    10030    2    1    2    0    0  0.00000000000E+00  0.00000000000E+00 -0.12048753087E+03  0.21030733775E+04  0.20996191050E+04 0.  0.
        4    1    3    3  502    0 -0.54586079300E+03 -0.70271134489E+03  0.49774654967E+03  0.10195687717E+04  0.12699999809E+01 0.  1.
       -4    1    3    3    0  502  0.54586079300E+03  0.70271134489E+03 -0.61823408054E+03  0.10835046058E+04  0.12699999809E+01 0. -1.
</event>
<event>
 5   0  0.3480134E-06  0.2100356E+04  0.7818609E-02  0.8561087E-01
       -2   -1    0    0    0  501  0.00000000000E+00  0.00000000000E+00  0.99444517035E+03  0.99444517036E+03  0.25500000920E-02 0.  1.
        2   -1    0    0  501    0  0.00000000000E+00  0.00000000000E+00 -0.11090339119E+04  0.11090339119E+04  0.25500000920E-02 0. -1.
    10030    2    1    2    0    0  0.00000000000E+00  0.00000000000E+00 -0.11458874156E+03  0.21034790823E+04  0.21003556056E+04 0.  0.
        1    1    3    3  502    0  0.23698257838E+03  0.80314655688E+03 -0.69200991947E+03  0.10863161892E+04  0.50400001928E-02 0. -1.
       -1    1    3    3    0  502 -0.23698257838E+03 -0.80314655688E+03  0.57742117791E+03  0.10171628931E+04  0.50400001928E-02 0.  1.
</event>
<event>
 5   0  0.1257125E-06  0.2100073E+04  0.7818609E-02  0.8561211E-01
        4   -1    0    0  501    0  0.00000000000E+00  0.00000000000E+00  0.17722438095E+04  0.17722442645E+04  0.12699999809E+01 0.  1.
       -4   -1    0    0    0  501  0.00000000000E+00  0.00000000000E+00 -0.62213470611E+03  0.62213600237E+03  0.12699999809E+01 0. -1.
    10030    2    1    2    0    0  0.00000000000E+00  0.00000000000E+00  0.11501091034E+04  0.23943802669E+04  0.21000728351E+04 0.  0.
        5    1    3    3  502    0 -0.16955325785E+03  0.22297560953E+03 -0.57873711302E+03  0.64298146605E+03  0.46999998093E+01 0. -1.
       -5    1    3    3    0  502  0.16955325785E+03 -0.22297560953E+03  0.17288462164E+04  0.17513988009E+04  0.46999998093E+01 0.  1.
</event>
<event>
 5   0  0.1579820E-06  0.2101453E+04  0.7818609E-02  0.8560604E-01
        1   -1    0    0  501    0  0.00000000000E+00  0.00000000000E+00  0.17192311852E+04  0.17192311852E+04  0.50400001928E-02 0.  1.
       -1   -1    0    0    0  501  0.00000000000E+00  0.00000000000E+00 -0.64216252294E+03  0.64216252296E+03  0.50400001928E-02 0. -1.
    10030    2    1    2    0    0  0.00000000000E+00  0.00000000000E+00  0.10770686623E+04  0.23613937082E+04  0.21014526742E+04 0.  0.
        2    1    3    3  502    0 -0.80921021559E+03  0.63321528409E+03  0.29172234883E+03  0.10681220426E+04  0.25500000920E-02 0. -1.
       -2    1    3    3    0  502  0.80921021559E+03 -0.63321528409E+03  0.78534631345E+03  0.12932716656E+04  0.25500000920E-02 0.  1.
</event>
<event>
 5   0  0.1590067E-06  0.2099790E+04  0.7818609E-02  0.8561336E-01
       -1   -1    0    0    0  501  0.00000000000E+00  0.00000000000E+00  0.51698691740E+03  0.51698691743E+03  0.50400001928E-02 0. -1.
        1   -1    0    0  501    0  0.00000000000E+00  0.00000000000E+00 -0.21321231832E+04  0.21321231832E+04  0.50400001928E-02 0.  1.
    10030    2    1    2    0    0  0.00000000000E+00  0.00000000000E+00 -0.16151362658E+04  0.26491101006E+04  0.20997902677E+04 0.  0.
        5    1    3    3  502    0  0.94223830654E+03 -0.39545166507E+03 -0.50356886314E+03  0.11392096978E+04  0.46999998093E+01 0. -1.
       -5    1    3    3    0  502 -0.94223830654E+03  0.39545166507E+03 -0.11115674026E+04  0.15099004028E+04  0.46999998093E+01 0.  1.
</event>
<event>
 5   0  0.3636435E-06  0.2103091E+04  0.7818609E-02  0.8559883E-01
       -2   -1    0    0    0  501  0.00000000000E+00  0.00000000000E+00  0.15678441786E+04  0.15678441786E+04  0.25500000920E-02 0. -1.
        2   -1    0    0  501    0  0.00000000000E+00  0.00000000000E+00 -0.70526645848E+03  0.70526645848E+03  0.25500000920E-02 0.  1.
    10030    2    1    2    0    0  0.00000000000E+00  0.00000000000E+00  0.86257772015E+03  0.22731106371E+04  0.21030909741E+04 0.  0.
        4    1    3    3  502    0  0.46855277755E+03 -0.30491644811E+03 -0.53134743345E+03  0.77126354356E+03  0.12699999809E+01 0.  1.
       -4    1    3    3    0  502 -0.46855277755E+03  0.30491644811E+03  0.13939251536E+04  0.15018470936E+04  0.12699999809E+01 0. -1.
</event>
<event>
 5   0  0.1653260E-06  0.2100017E+04  0.7818609E-02  0.8561236E-01
       -1   -1    0    0    0  501  0.00000000000E+00  0.00000000000E+00  0.14224964871E+04  0.14224964871E+04  0.50400001928E-02 0.  1.
        1   -1    0    0  501    0  0.00000000000E+00  0.00000000000E+00 -0.77505843528E+03  0.77505843530E+03  0.50400001928E-02 0. -1.
    10030    2    1    2    0    0  0.00000000000E+00  0.00000000000E+00  0.64743805182E+03  0.21975549224E+04  0.21000170490E+04 0.  0.
        3    1    3    3  502    0  0.49529095842E+03 -0.17099086916E+03  0.12759085517E+04  0.13793091218E+04  0.10100000352E+00 0.  1.
       -3    1    3    3    0  502 -0.49529095842E+03  0.17099086916E+03 -0.62847049990E+03  0.81824580065E+03  0.10100000352E+00 0. -1.
</event>
<event>
 5   0  0.3636435E-06  0.2100310E+04  0.7818609E-02  0.8561107E-01
       -2   -1    0    0    0  501  0.00000000000E+00  0.00000000000E+00  0.12482795384E+04  0.12482795384E+04  0.25500000920E-02 0. -1.
        2   -1    0    0  501    0  0.00000000000E+00  0.00000000000E+00 -0.88347618145E+03  0.88347618146E+03  0.25500000920E-02 0.  1.
    10030    2    1    2    0    0  0.00000000000E+00  0.00000000000E+00  0.36480335695E+03  0.21317557199E+04  0.21003097295E+04 0.  0.
        4    1    3    3  502    0 -0.19058770699E+03  0.92492557379E+03 -0.28383702683E+03  0.98609130501E+03  0.12699999809E+01 0.  1.
       -4    1    3    3    0  502  0.19058770699E+03 -0.92492557379E+03  0.64864038378E+03  0.11456644149E+04  0.12699999809E+01 0. -1.
</event>
<event>
 5   0  0.1653260E-06  0.2098735E+04  0.7818609E-02  0.8561801E-01
        1   -1    0    0  501    0  0.00000000000E+00  0.00000000000E+00  0.15426900842E+04  0.15426900842E+04  0.50400001928E-02 0.  1.
       -1   -1    0    0    0  501  0.00000000000E+00  0.00000000000E+00 -0.71379979104E+03  0.71379979106E+03  0.50400001928E-02 0. -1.
    10030    2    1    2    0    0  0.00000000000E+00  0.00000000000E+00  0.82889029316E+03  0.22564898753E+04  0.20987347234E+04 0.  0.
        3    1    3    3  502    0  0.76467098919E+03  0.71827766893E+03  0.38975565122E+03  0.11191755936E+04  0.10100000352E+00 0. -1.
       -3    1    3    3    0  502 -0.76467098919E+03 -0.71827766893E+03  0.43913464194E+03  0.11373142817E+04  0.10100000352E+00 0.  1.
</event>
<event>
 5   0  0.1653260E-06  0.2098858E+04  0.7818609E-02  0.8561747E-01
        1   -1    0    0  501    0  0.00000000000E+00  0.00000000000E+00  0.16809367574E+04  0.16809367574E+04  0.50400001928E-02 0. -1.
       -1   -1    0    0    0  501  0.00000000000E+00  0.00000000000E+00 -0.65517099426E+03  0.65517099428E+03  0.50400001928E-02 0.  1.
    10030    2    1    2    0    0  0.00000000000E+00  0.00000000000E+00  0.10257657632E+04  0.23361077517E+04  0.20988577910E+04 0.  0.
        3    1    3    3  502    0  0.33798652427E+03 -0.84783604504E+03  0.10893462905E+04  0.14211742331E+04  0.10100000352E+00 0. -1.
       -3    1    3    3    0  502 -0.33798652427E+03  0.84783604504E+03 -0.63580527370E+02  0.91493351863E+03  0.10100000352E+00 0.  1.
</event>
<event>
 5   0  0.3636435E-06  0.2100689E+04  0.7818609E-02  0.8560940E-01
       -2   -1    0    0    0  501  0.00000000000E+00  0.00000000000E+00  0.53020903025E+03  0.53020903026E+03  0.25500000920E-02 0. -1.
        2   -1    0    0  501    0  0.00000000000E+00  0.00000000000E+00 -0.20807328119E+04  0.20807328119E+04  0.25500000920E-02 0.  1.
    10030    2    1    2    0    0  0.00000000000E+00  0.00000000000E+00 -0.15505237817E+04  0.26109418422E+04  0.21006887694E+04 0.  0.
        4    1    3    3  502    0  0.47645036459E+03 -0.54287067518E+03 -0.17230546877E+04  0.18683234703E+04  0.12699999809E+01 0.  1.
       -4    1    3    3    0  502 -0.47645036459E+03  0.54287067518E+03  0.17253090601E+03  0.74261837192E+03  0.12699999809E+01 0. -1.
</event>
<event>
 5   0  0.3480134E-06  0.2098973E+04  0.7818609E-02  0.8561696E-01
        2   -1    0    0  501    0  0.00000000000E+00  0.00000000000E+00  0.11691686327E+04  0.11691686327E+04  0.25500000920E-02 0.  1.
       -2   -1    0    0    0  501  0.00000000000E+00  0.00000000000E+00 -0.94205594837E+03  0.94205594837E+03  0.25500000920E-02 0. -1.
    10030    2    1    2    0    0  0.00000000000E+00  0.00000000000E+00  0.22711268429E+03  0.21112245810E+04  0.20989733348E+04 0.  0.
        1    1    3    3  502    0 -0.67287070464E+03 -0.76925042861E+03 -0.12641754926E+03  0.10297973606E+04  0.50400001928E-02 0. -1.
       -1    1    3    3    0  502  0.67287070464E+03  0.76925042861E+03  0.35353023355E+03  0.10814272204E+04  0.50400001928E-02 0.  1.
</event>
<event>
 5   0  0.3547583E-06  0.2100349E+04  0.7818609E-02  0.8561090E-01
       -2   -1    0    0    0  501  0.00000000000E+00  0.00000000000E+00  0.12773678842E+04  0.12773678842E+04  0.25500000920E-02 0.  1.
        2   -1    0    0  501    0  0.00000000000E+00  0.00000000000E+00 -0.86339010994E+03  0.86339010994E+03  0.25500000920E-02 0. -1.
    10030    2    1    2    0    0  0.00000000000E+00  0.00000000000E+00  0.41397777426E+03  0.21407579941E+04  0.21003493023E+04 0.  0.
        2    1    3    3  502    0 -0.27112451834E+03 -0.99025493921E+03 -0.18060958539E+02  0.10268590689E+04  0.25500000920E-02 0. -1.
       -2    1    3    3    0  502  0.27112451834E+03  0.99025493921E+03  0.43203873279E+03  0.11138989253E+04  0.25500000920E-02 0.  1.
</event>
<event>
 5   0  0.3636435E-06  0.2102009E+04  0.7818609E-02  0.8560359E-01
        2   -1    0    0  501    0  0.00000000000E+00  0.00000000000E+00  0.24060214725E+04  0.24060214725E+04  0.25500000920E-02 0. -1.
       -2   -1    0    0    0  501  0.00000000000E+00  0.00000000000E+00 -0.45910245469E+03  0.45910245469E+03  0.25500000920E-02 0.  1.
    10030    2    1    2    0    0  0.00000000000E+00  0.00000000000E+00  0.19469190178E+04  0.28651239272E+04  0.21020089096E+04 0.  0.
        4    1    3    3  502    0  0.26418780682E+03 -0.87967139668E+02  0.23548294748E+04  0.23712353074E+04  0.12699999809E+01 0. -1.
       -4    1    3    3    0  502 -0.26418780682E+03  0.87967139668E+02 -0.40791045697E+03  0.49388861978E+03  0.12699999809E+01 0.  1.
</event>
<event>
 5   0  0.1615098E-06  0.2100069E+04  0.7818609E-02  0.8561213E-01
        1   -1    0    0  501    0  0.00000000000E+00  0.00000000000E+00  0.85606878447E+03  0.85606878449E+03  0.50400001928E-02 0.  1.
       -1   -1    0    0    0  501  0.00000000000E+00  0.00000000000E+00 -0.12879482654E+04  0.12879482654E+04  0.50400001928E-02 0. -1.
    10030    2    1    2    0    0  0.00000000000E+00  0.00000000000E+00 -0.43187948089E+03  0.21440170499E+04  0.21000688617E+04 0.  0.
        1    1    3    3  502    0 -0.96334029277E+03  0.13464412347E+03 -0.61971443706E+03  0.11533427692E+04  0.50400001928E-02 0.  1.
       -1    1    3    3    0  502  0.96334029277E+03 -0.13464412347E+03  0.18783495617E+03  0.99067428070E+03  0.50400001928E-02 0. -1.
</event>
<event>
 5   0  0.1653260E-06  0.2100607E+04  0.7818609E-02  0.8560976E-01
       -1   -1    0    0    0  501  0.00000000000E+00  0.00000000000E+00  0.87168550421E+03  0.87168550423E+03  0.50400001928E-02 0.  1.
        1   -1    0    0  501    0  0.00000000000E+00  0.00000000000E+00 -0.12655225065E+04  0.12655225065E+04  0.50400001928E-02 0. -1.
    10030    2    1    2    0    0  0.00000000000E+00  0.00000000000E+00 -0.39383700224E+03  0.21372080107E+04  0.21006071733E+04 0.  0.
        3    1    3    3  502    0  0.73270910104E+03  0.47850110435E+03 -0.78782346621E+03  0.11774938462E+04  0.10100000352E+00 0. -1.
       -3    1    3    3    0  502 -0.73270910104E+03 -0.47850110435E+03  0.39398646398E+03  0.95971416454E+03  0.10100000352E+00 0.  1.
</event>
<event>
 5   0  0.3547583E-06  0.2101469E+04  0.7818609E-02  0.8560597E-01
       -2   -1    0    0    0  501  0.00000000000E+00  0.00000000000E+00  0.95803833815E+03  0.95803833815E+03  0.25500000920E-02 0.  1.
        2   -1    0    0  501    0  0.00000000000E+00  0.00000000000E+00 -0.11523991363E+04  0.11523991363E+04  0.25500000920E-02 0. -1.
    10030    2    1    2    0    0  0.00000000000E+00  0.00000000000E+00 -0.19436079818E+03  0.21104374745E+04  0.21014685850E+04 0.  0.
        2    1    3    3  502    0 -0.24343550158E+03  0.95903197997E+03 -0.45229863835E+03  0.10879233614E+04  0.25500000920E-02 0. -1.
       -2    1    3    3    0  502  0.24343550158E+03 -0.95903197997E+03  0.25793784018E+03  0.10225141131E+04  0.25500000920E-02 0.  1.
</event>
<event>
 5   0  0.1579820E-06  0.2098767E+04  0.7818609E-02  0.8561787E-01
       -1   -1    0    0    0  501  0.00000000000E+00  0.00000000000E+00  0.13274348061E+04  0.13274348061E+04  0.50400001928E-02 0.  1.
        1   -1    0    0  501    0  0.00000000000E+00  0.00000000000E+00 -0.82957427710E+03  0.82957427711E+03  0.50400001928E-02 0. -1.
    10030    2    1    2    0    0  0.00000000000E+00  0.00000000000E+00  0.49786052899E+03  0.21570090832E+04  0.20987670377E+04 0.  0.
        2    1    3    3  502    0  0.99841764350E+03  0.12989395680E+03  0.55293524180E+03  0.11486721083E+04  0.25500000920E-02 0.  1.
       -2    1    3    3    0  502 -0.99841764350E+03 -0.12989395680E+03 -0.55074712809E+02  0.10083369749E+04  0.25500000920E-02 0. -1.
</event>
<event>
 5   0  0.1646510E-06  0.2099782E+04  0.7818609E-02  0.8561340E-01
        1   -1    0    0  501    0  0.00000000000E+00  0.00000000000E+00  0.74550806560E+03  0.74550806562E+03  0.50400001928E-02 0. -1.
       -1   -1    0    0    0  501  0.00000000000E+00  0.00000000000E+00 -0.14785495937E+04  0.14785495937E+04  0.50400001928E-02 0.  1.
    10030    2    1    2    0    0  0.00000000000E+00  0.00000000000E+00 -0.73304152809E+03  0.22240576593E+04  0.20997815577E+04 0.  0.
        4    1    3    3  502    0 -0.68457473339E+03  0.14165204330E+03 -0.11961821122E+04  0.13854822718E+04  0.12699999809E+01 0.  1.
       -4    1    3    3    0  502  0.68457473339E+03 -0.14165204330E+03  0.46314058414E+03  0.83857538752E+03  0.12699999809E+01 0. -1.
</event>
<event>
 5   0  0.1646510E-06  0.2103310E+04  0.7818609E-02  0.8559787E-01
       -1   -1    0    0    0  501  0.00000000000E+00  0.00000000000E+00  0.86303472102E+03  0.86303472103E+03  0.50400001928E-02 0. -1.
        1   -1    0    0  501    0  0.00000000000E+00  0.00000000000E+00 -0.12814992168E+04  0.12814992168E+04  0.50400001928E-02 0.  1.
    10030    2    1    2    0    0  0.00000000000E+00  0.00000000000E+00 -0.41846449581E+03  0.21445339379E+04  0.21033100761E+04 0.  0.
        4    1    3    3  502    0 -0.10219454556E+02 -0.78968253103E+03 -0.91730265135E+03  0.12104332712E+04  0.12699999809E+01 0.  1.
       -4    1    3    3    0  502  0.10219454556E+02  0.78968253103E+03  0.49883815554E+03  0.93410066662E+03  0.12699999809E+01 0. -1.
</event>
<event>
 5   0  0.3547583E-06  0.2098403E+04  0.7818609E-02  0.8561947E-01
       -2   -1    0    0    0  501  0.00000000000E+00  0.00000000000E+00  0.11711216333E+04  0.11711216333E+04  0.25500000920E-02 0. -1.
        2   -1    0    0  501    0  0.00000000000E+00  0.00000000000E+00 -0.93997427590E+03  0.93997427590E+03  0.25500000920E-02 0.  1.
    10030    2    1    2    0    0  0.00000000000E+00  0.00000000000E+00  0.23114735743E+03  0.21110959092E+04  0.20984034019E+04 0.  0.
        2    1    3    3  502    0  0.55481637288E+03  0.88989938214E+03  0.82479550685E+02  0.10519244242E+04  0.25500000920E-02 0. -1.
       -2    1    3    3    0  502 -0.55481637288E+03 -0.88989938214E+03  0.14866780674E+03  0.10591714850E+04  0.25500000920E-02 0.  1.
</event>
<event>
 5   0  0.1615098E-06  0.2099657E+04  0.7818609E-02  0.8561394E-01
       -1   -1    0    0    0  501  0.00000000000E+00  0.00000000000E+00  0.13607262080E+04  0.13607262080E+04  0.50400001928E-02 0.  1.
        1   -1    0    0  501    0  0.00000000000E+00  0.00000000000E+00 -0.80996444595E+03  0.80996444596E+03  0.50400001928E-02 0. -1.
    10030    2    1    2    0    0  0.00000000000E+00  0.00000000000E+00  0.55076176201E+03  0.21706906539E+04  0.20996569712E+04 0.  0.
        1    1    3    3  502    0  0.33295354955E+03 -0.91322189978E+03 -0.13465736250E+03  0.98130775483E+03  0.50400001928E-02 0. -1.
       -1    1    3    3    0  502 -0.33295354955E+03  0.91322189978E+03  0.68541912451E+03  0.11893828991E+04  0.50400001928E-02 0.  1.
</event>
<event>
 5   0  0.3547583E-06  0.2100028E+04  0.7818609E-02  0.8561231E-01
        2   -1    0    0  501    0  0.00000000000E+00  0.00000000000E+00  0.71086538922E+03  0.71086538922E+03  0.25500000920E-02 0.  1.
       -2   -1    0    0    0  501  0.00000000000E+00  0.00000000000E+00 -0.15509680461E+04  0.15509680461E+04  0.25500000920E-02 0. -1.
    10030    2    1    2    0    0  0.00000000000E+00  0.00000000000E+00 -0.84010265691E+03  0.22618334354E+04  0.21000280987E+04 0.  0.
        2    1    3    3  502    0 -0.72635684069E+03  0.14091755729E+03 -0.12224908684E+04  0.14289632400E+04  0.25500000920E-02 0. -1.
       -2    1    3    3    0  502  0.72635684069E+03 -0.14091755729E+03  0.38238821150E+03  0.83287019533E+03  0.25500000920E-02 0.  1.
</event>
<event>
 5   0  0.3547583E-06  0.2098320E+04  0.7818609E-02  0.8561984E-01
        2   -1    0    0  501    0  0.00000000000E+00  0.00000000000E+00  0.11529828390E+04  0.11529828390E+04  0.25500000920E-02 0.  1.
       -2   -1    0    0    0  501  0.00000000000E+00  0.00000000000E+00 -0.95468578321E+03  0.95468578321E+03  0.25500000920E-02 0. -1.
    10030    2    1    2    0    0  0.00000000000E+00  0.00000000000E+00  0.19829705577E+03  0.21076686222E+04  0.20983196369E+04 0.  0.
        2    1    3    3  502    0  0.10179030904E+04  0.24872546442E+03  0.15177726412E+03  0.10587858122E+04  0.25500000920E-02 0. -1.
       -2    1    3    3    0  502 -0.10179030904E+04 -0.24872546442E+03  0.46519791645E+02  0.10488828100E+04  0.25500000920E-02 0.  1.
</event>
<event>
 5   0  0.3547583E-06  0.2099482E+04  0.7818609E-02  0.8561472E-01
       -2   -1    0    0    0  501  0.00000000000E+00  0.00000000000E+00  0.67630104334E+03  0.67630104335E+03  0.25500000920E-02 0. -1.
        2   -1    0    0  501    0  0.00000000000E+00  0.00000000000E+00 -0.16293872810E+04  0.16293872810E+04  0.25500000920E-02 0.  1.
    10030    2    1    2    0    0  0.00000000000E+00  0.00000000000E+00 -0.95308623769E+03  0.23056883244E+04  0.20994821439E+04 0.  0.
        2    1    3    3  502    0 -0.60112783527E+03  0.60138691566E+03  0.19949473875E+03  0.87339512677E+03  0.25500000920E-02 0. -1.
       -2    1    3    3    0  502  0.60112783527E+03 -0.60138691566E+03 -0.11525809764E+04  0.14322931976E+04  0.25500000920E-02 0.  1.
</event>
<event>
 5   0  0.3480134E-06  0.2099583E+04  0.7818609E-02  0.8561427E-01
       -2   -1    0    0    0  501  0.00000000000E+00  0.00000000000E+00  0.14088062062E+04  0.14088062062E+04  0.25500000920E-02 0.  1.
        2   -1    0    0  501    0  0.00000000000E+00  0.00000000000E+00 -0.78226641547E+03  0.78226641547E+03  0.25500000920E-02 0. -1.
    10030    2    1    2    0    0  0.00000000000E+00  0.00000000000E+00  0.62653979072E+03  0.21910726217E+04  0.20995826071E+04 0.  0.
        1    1    3    3  502    0  0.23901463540E+03 -0.65814724816E+03 -0.50297413521E+03  0.86213037118E+03  0.50400001928E-02 0. -1.
       -1    1    3    3    0  502 -0.23901463540E+03  0.65814724816E+03  0.11295139259E+04  0.13289422505E+04  0.50400001928E-02 0.  1.
</event>
<event>
 5   0  0.1579820E-06  0.2100232E+04  0.7818609E-02  0.8561141E-01
        1   -1    0    0  501    0  0.00000000000E+00  0.00000000000E+00  0.96104298272E+03  0.96104298274E+03  0.50400001928E-02 0. -1.
       -1   -1    0    0    0  501  0.00000000000E+00  0.00000000000E+00 -0.11474444276E+04  0.11474444276E+04  0.50400001928E-02 0.  1.
    10030    2    1    2    0    0  0.00000000000E+00  0.00000000000E+00 -0.18640144485E+03  0.21084874103E+04  0.21002318112E+04 0.  0.
        2    1    3    3  502    0 -0.34973366727E+03  0.97482619435E+02  0.89602875775E+03  0.96679058427E+03  0.25500000920E-02 0. -1.
       -2    1    3    3    0  502  0.34973366727E+03 -0.97482619435E+02 -0.10824302026E+04  0.11416968261E+04  0.25500000920E-02 0.  1.
</event>
<event>
 5   0  0.3636435E-06  0.2100053E+04  0.7818609E-02  0.8561220E-01
        2   -1    0    0  501    0  0.00000000000E+00  0.00000000000E+00  0.97336980678E+03  0.97336980679E+03  0.25500000920E-02 0. -1.
       -2   -1    0    0    0  501  0.00000000000E+00  0.00000000000E+00 -0.11327197552E+04  0.11327197552E+04  0.25500000920E-02 0.  1.
    10030    2    1    2    0    0  0.00000000000E+00  0.00000000000E+00 -0.15934994842E+03  0.21060895620E+04  0.21000525796E+04 0.  0.
        4    1    3    3  502    0  0.59207205681E+03 -0.88288247482E+02  0.78548070061E+03  0.98758578312E+03  0.12699999809E+01 0. -1.
       -4    1    3    3    0  502 -0.59207205681E+03  0.88288247482E+02 -0.94483064903E+03  0.11185037789E+04  0.12699999809E+01 0.  1.
</event>
<event>
 5   0  0.3705828E-06  0.2100176E+04  0.7818609E-02  0.8561166E-01
        2   -1    0    0  501    0  0.00000000000E+00  0.00000000000E+00  0.13046208065E+04  0.13046208065E+04  0.25500000920E-02 0. -1.
       -2   -1    0    0    0  501  0.00000000000E+00  0.00000000000E+00 -0.84521444963E+03  0.84521444964E+03  0.25500000920E-02 0.  1.
    10030    2    1    2    0    0  0.00000000000E+00  0.00000000000E+00  0.45940635685E+03  0.21498352561E+04  0.21001755707E+04 0.  0.
        5    1    3    3  502    0 -0.20400505438E+03 -0.65798783916E+03  0.10409680371E+04  0.12482798576E+04  0.46999998093E+01 0. -1.
       -5    1    3    3    0  502  0.20400505438E+03  0.65798783916E+03 -0.58156168022E+03  0.90155539852E+03  0.46999998093E+01 0.  1.
</event>
<event>
 5   0  0.1653260E-06  0.2099286E+04  0.7818609E-02  0.8561558E-01
        1   -1    0    0  501    0  0.00000000000E+00  0.00000000000E+00  0.90809629294E+03  0.90809629296E+03  0.50400001928E-02 0.  1.
       -1   -1    0    0    0  501  0.00000000000E+00  0.00000000000E+00 -0.12132524179E+04  0.12132524179E+04  0.50400001928E-02 0. -1.
    10030    2    1    2    0    0  0.00000000000E+00  0.00000000000E+00 -0.30515612496E+03  0.21213487109E+04  0.20992856148E+04 0.  0.
        3    1    3    3  502    0 -0.14974186563E+03 -0.71295461359E+03  0.61102449707E+03  0.95083008660E+03  0.10100000352E+00 0.  1.
       -3    1    3    3    0  502  0.14974186563E+03  0.71295461359E+03 -0.91618062203E+03  0.11705186243E+04  0.10100000352E+00 0. -1.
</event>
<event>
 5   0  0.3705828E-06  0.2100108E+04  0.7818609E-02  0.8561196E-01
       -2   -1    0    0    0  501  0.00000000000E+00  0.00000000000E+00  0.11753762126E+04  0.11753762126E+04  0.25500000920E-02 0. -1.
        2   -1    0    0  501    0  0.00000000000E+00  0.00000000000E+00 -0.93809378773E+03  0.93809378773E+03  0.25500000920E-02 0.  1.
    10030    2    1    2    0    0  0.00000000000E+00  0.00000000000E+00  0.23728242490E+03  0.21134700004E+04  0.21001077337E+04 0.  0.
        5    1    3    3  502    0 -0.57192076886E+03 -0.41790143053E+03 -0.66143985347E+03  0.96915413700E+03  0.46999998093E+01 0.  1.
       -5    1    3    3    0  502  0.57192076886E+03  0.41790143053E+03  0.89872227838E+03  0.11443158634E+04  0.46999998093E+01 0. -1.
</event>
<event>
 5   0  0.1590067E-06  0.2100633E+04  0.7818609E-02  0.8560964E-01
       -1   -1    0    0    0  501  0.00000000000E+00  0.00000000000E+00  0.76331968300E+03  0.76331968302E+03  0.50400001928E-02 0.  1.
        1   -1    0    0  501    0  0.00000000000E+00  0.00000000000E+00 -0.14452202823E+04  0.14452202823E+04  0.50400001928E-02 0. -1.
    10030    2    1    2    0    0  0.00000000000E+00  0.00000000000E+00 -0.68190059931E+03  0.22085399653E+04  0.21006333214E+04 0.  0.
        5    1    3    3  502    0  0.10687349881E+03 -0.10072706916E+04 -0.48967217831E+02  0.10141183705E+04  0.46999998093E+01 0.  1.
       -5    1    3    3    0  502 -0.10687349881E+03  0.10072706916E+04 -0.63293338147E+03  0.11944215949E+04  0.46999998093E+01 0. -1.
</event>
<event>
 5   0  0.3705828E-06  0.2100366E+04  0.7818609E-02  0.8561082E-01
       -2   -1    0    0    0  501  0.00000000000E+00  0.00000000000E+00  0.14290742907E+04  0.14290742907E+04  0.25500000920E-02 0.  1.
        2   -1    0    0  501    0  0.00000000000E+00  0.00000000000E+00 -0.77174708164E+03  0.77174708164E+03  0.25500000920E-02 0. -1.
    10030    2    1    2    0    0  0.00000000000E+00  0.00000000000E+00  0.65732720908E+03  0.22008213724E+04  0.21003655999E+04 0.  0.
        5    1    3    3  502    0  0.84245818203E+03 -0.61493725958E+03  0.45690248982E+03  0.11387122538E+04  0.46999998093E+01 0.  1.
       -5    1    3    3    0  502 -0.84245818203E+03  0.61493725958E+03  0.20042471926E+03  0.10621091186E+04  0.46999998093E+01 0. -1.
</event>
<event>
 5   0  0.3547583E-06  0.2099836E+04  0.7818609E-02  0.8561316E-01
       -2   -1    0    0    0  501  0.00000000000E+00  0.00000000000E+00  0.47138867529E+03  0.47138867530E+03  0.25500000920E-02 0. -1.
        2   -1    0    0  501    0  0.00000000000E+00  0.00000000000E+00 -0.23384687592E+04  0.23384687592E+04  0.25500000920E-02 0.  1.
    10030    2    1    2    0    0  0.00000000000E+00  0.00000000000E+00 -0.18670800839E+04  0.28098574345E+04  0.20998358894E+04 0.  0.
        2    1    3    3  502    0  0.57279488758E+02  0.68879148321E+03 -0.19910986772E+04  0.21076500159E+04  0.25500000920E-02 0.  1.
       -2    1    3    3    0  502 -0.57279488758E+02 -0.68879148321E+03  0.12401859333E+03  0.70220741856E+03  0.25500000920E-02 0. -1.
</event>
<event>
 5   0  0.1615098E-06  0.2099277E+04  0.7818609E-02  0.8561562E-01
        1   -1    0    0  501    0  0.00000000000E+00  0.00000000000E+00  0.29553999282E+04  0.29553999282E+04  0.50400001928E-02 0. -1.
       -1   -1    0    0    0  501  0.00000000000E+00  0.00000000000E+00 -0.37278924771E+03  0.37278924775E+03  0.50400001928E-02 0.  1.
    10030    2    1    2    0    0  0.00000000000E+00  0.00000000000E+00  0.25826106805E+04  0.33281891759E+04  0.20992773194E+04 0.  0.
        1    1    3    3  502    0 -0.72916317004E+03  0.53760823624E+03  0.21317750808E+04  0.23162829144E+04  0.50400001928E-02 0. -1.
       -1    1    3    3    0  502  0.72916317004E+03 -0.53760823624E+03  0.45083559964E+03  0.10119062615E+04  0.50400001928E-02 0.  1.
</event>
<event>
 5   0  0.1653260E-06  0.2100231E+04  0.7818609E-02  0.8561142E-01
       -1   -1    0    0    0  501  0.00000000000E+00  0.00000000000E+00  0.61821714547E+03  0.61821714549E+03  0.50400001928E-02 0. -1.
        1   -1    0    0  501    0  0.00000000000E+00  0.00000000000E+00 -0.17837463206E+04  0.17837463207E+04  0.50400001928E-02 0.  1.
    10030    2    1    2    0    0  0.00000000000E+00  0.00000000000E+00 -0.11655291752E+04  0.24019634661E+04  0.21002309955E+04 0.  0.
        3    1    3    3  502    0  0.96573691946E+03  0.23246280953E+03 -0.19315220988E+03  0.10119261543E+04  0.10100000352E+00 0. -1.
       -3    1    3    3    0  502 -0.96573691946E+03 -0.23246280953E+03 -0.97237696529E+03  0.13900373118E+04  0.10100000352E+00 0.  1.
</event>
<event>
 5   0  0.3636435E-06  0.2099999E+04  0.7818609E-02  0.8561244E-01
        2   -1    0    0  501    0  0.00000000000E+00  0.00000000000E+00  0.11617090493E+04  0.11617090493E+04  0.25500000920E-02 0. -1.
       -2   -1    0    0    0  501  0.00000000000E+00  0.00000000000E+00 -0.94903165777E+03  0.94903165777E+03  0.25500000920E-02 0.  1.
    10030    2    1    2    0    0  0.00000000000E+00  0.00000000000E+00  0.21267739156E+03  0.21107407071E+04  0.20999987285E+04 0.  0.
        4    1    3    3  502    0  0.81497790513E+03  0.65553525140E+03  0.19944948267E+03  0.10647521593E+04  0.12699999809E+01 0.  1.
       -4    1    3    3    0  502 -0.81497790513E+03 -0.65553525140E+03  0.13227908894E+02  0.10459885478E+04  0.12699999809E+01 0. -1.
</event>
<event>
 5   0  0.3636435E-06  0.2100468E+04  0.7818609E-02  0.8561037E-01
        2   -1    0    0  501    0  0.00000000000E+00  0.00000000000E+00  0.11489351326E+04  0.11489351326E+04  0.25500000920E-02 0.  1.
       -2   -1    0    0    0  501  0.00000000000E+00  0.00000000000E+00 -0.96001181899E+03  0.96001181900E+03  0.25500000920E-02 0. -1.
    10030    2    1    2    0    0  0.00000000000E+00  0.00000000000E+00  0.18892331357E+03  0.21089469516E+04  0.21004678589E+04 0.  0.
        4    1    3    3  502    0 -0.21584828085E+03 -0.17199292681E+03 -0.92294898773E+03  0.96333197500E+03  0.12699999809E+01 0. -1.
       -4    1    3    3    0  502  0.21584828085E+03  0.17199292681E+03  0.11118723013E+04  0.11456149766E+04  0.12699999809E+01 0.  1.
</event>
<event>
 5   0  0.3480134E-06  0.2098537E+04  0.7818609E-02  0.8561888E-01
        2   -1    0    0  501    0  0.00000000000E+00  0.00000000000E+00  0.17128795958E+04  0.17128795958E+04  0.25500000920E-02 0.  1.
       -2   -1    0    0    0  501  0.00000000000E+00  0.00000000000E+00 -0.64275659250E+03  0.64275659251E+03  0.25500000920E-02 0. -1.
    10030    2    1    2    0    0  0.00000000000E+00  0.00000000000E+00  0.10701230033E+04  0.23556361883E+04  0.20985372547E+04 0.  0.
        1    1    3    3  502    0 -0.40504118382E+03 -0.82244119939E+03 -0.37856807382E+02  0.91755164701E+03  0.50400001928E-02 0. -1.
       -1    1    3    3    0  502  0.40504118382E+03  0.82244119939E+03  0.11079798107E+04  0.14380845413E+04  0.50400001928E-02 0.  1.
</event>
<event>
 5   0  0.1257125E-06  0.2098968E+04  0.7818609E-02  0.8561698E-01
       -4   -1    0    0    0  501  0.00000000000E+00  0.00000000000E+00  0.60950943899E+03  0.60951076210E+03  0.12699999809E+01 0. -1.
        4   -1    0    0  501    0  0.00000000000E+00  0.00000000000E+00 -0.18070505341E+04  0.18070509804E+04  0.12699999809E+01 0.  1.
    10030    2    1    2    0    0  0.00000000000E+00  0.00000000000E+00 -0.11975410951E+04  0.24165617425E+04  0.20989678370E+04 0.  0.
        4    1    3    3  502    0  0.36062988696E+03 -0.86580656254E+03 -0.11409138506E+04  0.14769431088E+04  0.12699999809E+01 0. -1.
       -4    1    3    3    0  502 -0.36062988696E+03  0.86580656254E+03 -0.56627244491E+02  0.93961863371E+03  0.12699999809E+01 0.  1.
</event>
<event>
 5   0  0.1653260E-06  0.2100159E+04  0.7818609E-02  0.8561174E-01
       -1   -1    0    0    0  501  0.00000000000E+00  0.00000000000E+00  0.93489167293E+03  0.93489167294E+03  0.50400001928E-02 0. -1.
        1   -1    0    0  501    0  0.00000000000E+00  0.00000000000E+00 -0.11794591000E+04  0.11794591000E+04  0.50400001928E-02 0.  1.
    10030    2    1    2    0    0  0.00000000000E+00  0.00000000000E+00 -0.24456742711E+03  0.21143507730E+04  0.21001585571E+04 0.  0.
        3    1    3    3  502    0 -0.66009159788E+03 -0.34384738407E+03  0.62347474654E+03  0.97091333851E+03  0.10100000352E+00 0. -1.
       -3    1    3    3    0  502  0.66009159788E+03  0.34384738407E+03 -0.86804217365E+03  0.11434374345E+04  0.10100000352E+00 0.  1.
</event>
<event>
 5   0  0.1615098E-06  0.2102269E+04  0.7818609E-02  0.8560245E-01
       -1   -1    0    0    0  501  0.00000000000E+00  0.00000000000E+00  0.95800940907E+03  0.95800940908E+03  0.50400001928E-02 0.  1.
        1   -1    0    0  501    0  0.00000000000E+00  0.00000000000E+00 -0.11533120036E+04  0.11533120036E+04  0.50400001928E-02 0. -1.
    10030    2    1    2    0    0  0.00000000000E+00  0.00000000000E+00 -0.19530259453E+03  0.21113214127E+04  0.21022690133E+04 0.  0.
        1    1    3    3  502    0  0.23813504203E+03  0.90106061196E+03 -0.58581554197E+03  0.11008171392E+04  0.50400001928E-02 0.  1.
       -1    1    3    3    0  502 -0.23813504203E+03 -0.90106061196E+03  0.39051294744E+03  0.10105042735E+04  0.50400001928E-02 0. -1.
</event>
<event>
 5   0  0.3547583E-06  0.2099526E+04  0.7818609E-02  0.8561452E-01
       -2   -1    0    0    0  501  0.00000000000E+00  0.00000000000E+00  0.11457775857E+04  0.11457775857E+04  0.25500000920E-02 0. -1.
        2   -1    0    0  501    0  0.00000000000E+00  0.00000000000E+00 -0.96179425450E+03  0.96179425450E+03  0.25500000920E-02 0.  1.
    10030    2    1    2    0    0  0.00000000000E+00  0.00000000000E+00  0.18398333116E+03  0.21075718402E+04  0.20995259454E+04 0.  0.
        2    1    3    3  502    0 -0.46097850960E+03 -0.51682054903E+03 -0.69995349151E+03  0.98465199766E+03  0.25500000920E-02 0.  1.
       -2    1    3    3    0  502  0.46097850960E+03  0.51682054903E+03  0.88393682267E+03  0.11229198425E+04  0.25500000920E-02 0. -1.
</event>
<event>
 5   0  0.1590067E-06  0.2101298E+04  0.7818609E-02  0.8560672E-01
       -1   -1    0    0    0  501  0.00000000000E+00  0.00000000000E+00  0.10812664093E+04  0.10812664093E+04  0.50400001928E-02 0.  1.
        1   -1    0    0  501    0  0.00000000000E+00  0.00000000000E+00 -0.10208985032E+04  0.10208985032E+04  0.50400001928E-02 0. -1.
    10030    2    1    2    0    0  0.00000000000E+00  0.00000000000E+00  0.60367906137E+02  0.21021649125E+04  0.21012979406E+04 0.  0.
        5    1    3    3  502    0  0.14918941799E+02 -0.10462949130E+04 -0.64118128955E+02  0.10483743817E+04  0.46999998093E+01 0. -1.
       -5    1    3    3    0  502 -0.14918941799E+02  0.10462949130E+04  0.12448603509E+03  0.10537905308E+04  0.46999998093E+01 0.  1.
</event>
<event>
 5   0  0.1653260E-06  0.2100047E+04  0.7818609E-02  0.8561223E-01
        1   -1    0    0  501    0  0.00000000000E+00  0.00000000000E+00  0.12940276569E+04  0.12940276569E+04  0.50400001928E-02 0.  1.
       -1   -1    0    0    0  501  0.00000000000E+00  0.00000000000E+00 -0.85202892783E+03  0.85202892785E+03  0.50400001928E-02 0. -1.
    10030    2    1    2    0    0  0.00000000000E+00  0.00000000000E+00  0.44199872910E+03  0.21460565848E+04  0.21000466634E+04 0.  0.
        3    1    3    3  502    0 -0.64970411943E+02 -0.10394655497E+04  0.84509641423E+02  0.10449170652E+04  0.10100000352E+00 0.  1.
       -3    1    3    3    0  502  0.64970411943E+02  0.10394655497E+04  0.35748908768E+03  0.11011395196E+04  0.10100000352E+00 0. -1.
</event>
<event>
 5   0  0.1579820E-06  0.2100052E+04  0.7818609E-02  0.8561221E-01
        1   -1    0    0  501    0  0.00000000000E+00  0.00000000000E+00  0.17201830310E+04  0.17201830310E+04  0.50400001928E-02 0.  1.
       -1   -1    0    0    0  501  0.00000000000E+00  0.00000000000E+00 -0.64095165126E+03  0.64095165128E+03  0.50400001928E-02 0. -1.
    10030    2    1    2    0    0  0.00000000000E+00  0.00000000000E+00  0.10792313797E+04  0.23611346822E+04  0.21000515748E+04 0.  0.
        2    1    3    3  502    0 -0.93812720858E+03 -0.37763131594E+03  0.22187561392E+03  0.10353341771E+04  0.25500000920E-02 0. -1.
       -2    1    3    3    0  502  0.93812720858E+03  0.37763131594E+03  0.85735576578E+03  0.13258005051E+04  0.25500000920E-02 0.  1.
</event>
<event>
 5   0  0.3547583E-06  0.2100597E+04  0.7818609E-02  0.8560981E-01
       -2   -1    0    0    0  501  0.00000000000E+00  0.00000000000E+00  0.44700348891E+03  0.44700348892E+03  0.25500000920E-02 0.  1.
        2   -1    0    0  501    0  0.00000000000E+00  0.00000000000E+00 -0.24678255537E+04  0.24678255537E+04  0.25500000920E-02 0. -1.
    10030    2    1    2    0    0  0.00000000000E+00  0.00000000000E+00 -0.20208220648E+04  0.29148290426E+04  0.21005967081E+04 0.  0.
        2    1    3    3  502    0 -0.10046282746E+04 -0.13750065577E+03 -0.13902799150E+04  0.17207738499E+04  0.25500000920E-02 0. -1.
       -2    1    3    3    0  502  0.10046282746E+04  0.13750065577E+03 -0.63054214980E+03  0.11940551927E+04  0.25500000920E-02 0.  1.
</event>
<event>
 5   0  0.3574927E-06  0.2100220E+04  0.7818609E-02  0.8561146E-01
       -2   -1    0    0    0  501  0.00000000000E+00  0.00000000000E+00  0.11698955776E+04  0.11698955776E+04  0.25500000920E-02 0.  1.
        2   -1    0    0  501    0  0.00000000000E+00  0.00000000000E+00 -0.94258964264E+03  0.94258964265E+03  0.25500000920E-02 0. -1.
    10030    2    1    2    0    0  0.00000000000E+00  0.00000000000E+00  0.22730593495E+03  0.21124852202E+04  0.21002204212E+04 0.  0.
        3    1    3    3  502    0 -0.41548681342E+03  0.94351199134E+03 -0.87231326021E+02  0.10346272200E+04  0.10100000352E+00 0.  1.
       -3    1    3    3    0  502  0.41548681342E+03 -0.94351199134E+03  0.31453726097E+03  0.10778580002E+04  0.10100000352E+00 0. -1.
</event>
<event>
 5   0  0.1590067E-06  0.2103733E+04  0.7818609E-02  0.8559601E-01
        1   -1    0    0  501    0  0.00000000000E+00  0.00000000000E+00  0.11421149370E+04  0.11421149370E+04  0.50400001928E-02 0. -1.
       -1   -1    0    0    0  501  0.00000000000E+00  0.00000000000E+00 -0.96874956646E+03  0.96874956647E+03  0.50400001928E-02 0.  1.
    10030    2    1    2    0    0  0.00000000000E+00  0.00000000000E+00  0.17336537058E+03  0.21108645035E+04  0.21037332056E+04 0.  0.
        5    1    3    3  502    0 -0.28241072715E+03  0.84726925630E+03  0.64424633360E+03  0.11012249724E+04  0.46999998093E+01 0. -1.
       -5    1    3    3    0  502  0.28241072715E+03 -0.84726925630E+03 -0.47088096302E+03  0.10096395311E+04  0.46999998093E+01 0.  1.
</event>
<event>
 5   0  0.1615098E-06  0.2099936E+04  0.7818609E-02  0.8561272E-01
       -1   -1    0    0    0  501  0.00000000000E+00  0.00000000000E+00  0.99924684381E+03  0.99924684382E+03  0.50400001928E-02 0. -1.
        1   -1    0    0  501    0  0.00000000000E+00  0.00000000000E+00 -0.11032637940E+04  0.11032637940E+04  0.50400001928E-02 0.  1.
    10030    2    1    2    0    0  0.00000000000E+00  0.00000000000E+00 -0.10401695023E+03  0.21025106379E+04  0.20999360601E+04 0.  0.
        1    1    3    3  502    0  0.52602681034E+03  0.48575104560E+03  0.71690089921E+03  0.10132152697E+04  0.50400001928E-02 0. -1.
       -1    1    3    3    0  502 -0.52602681034E+03 -0.48575104560E+03 -0.82091784944E+03  0.10892953681E+04  0.50400001928E-02 0.  1.
</event>
<event>
 5   0  0.1653260E-06  0.2114495E+04  0.7818609E-02  0.8554885E-01
       -1   -1    0    0    0  501  0.00000000000E+00  0.00000000000E+00  0.80172483597E+03  0.80172483598E+03  0.50400001928E-02 0.  1.
        1   -1    0    0  501    0  0.00000000000E+00  0.00000000000E+00 -0.13942098201E+04  0.13942098201E+04  0.50400001928E-02 0. -1.
    10030    2    1    2    0    0  0.00000000000E+00  0.00000000000E+00 -0.59248498415E+03  0.21959346561E+04  0.21144953435E+04 0.  0.
        3    1    3    3  502    0 -0.39427671145E+03 -0.60271243968E+03 -0.11000396574E+04  0.13148397880E+04  0.10100000352E+00 0. -1.
       -3    1    3    3    0  502  0.39427671145E+03  0.60271243968E+03  0.50755467320E+03  0.88109486812E+03  0.10100000352E+00 0.  1.
</event>
<event>
 5   0  0.3705828E-06  0.2099388E+04  0.7818609E-02  0.8561513E-01
        2   -1    0    0  501    0  0.00000000000E+00  0.00000000000E+00  0.17348107087E+04  0.17348107087E+04  0.25500000920E-02 0. -1.
       -2   -1    0    0    0  501  0.00000000000E+00  0.00000000000E+00 -0.63514572179E+03  0.63514572180E+03  0.25500000920E-02 0.  1.
    10030    2    1    2    0    0  0.00000000000E+00  0.00000000000E+00  0.10996649869E+04  0.23699564305E+04  0.20993881011E+04 0.  0.
        5    1    3    3  502    0 -0.66670154130E+03 -0.70772868672E+03  0.99636777163E+03  0.13921715647E+04  0.46999998093E+01 0. -1.
       -5    1    3    3    0  502  0.66670154130E+03  0.70772868672E+03  0.10329721531E+03  0.97778486584E+03  0.46999998093E+01 0.  1.
</event>
<event>
 5   0  0.1257125E-06  0.2099571E+04  0.7818609E-02  0.8561432E-01
        3   -1    0    0  501    0  0.00000000000E+00  0.00000000000E+00  0.84022500188E+03  0.84022500795E+03  0.10100000352E+00 0. -1.
       -3   -1    0    0    0  501  0.00000000000E+00  0.00000000000E+00 -0.13116123486E+04  0.13116123525E+04  0.10100000352E+00 0.  1.
    10030    2    1    2    0    0  0.00000000000E+00  0.00000000000E+00 -0.47138734672E+03  0.21518373604E+04  0.20995709074E+04 0.  0.
        4    1    3    3  502    0 -0.39811717465E+03  0.96755900597E+03 -0.32374017649E+03  0.10952063867E+04  0.12699999809E+01 0.  1.
       -4    1    3    3    0  502  0.39811717465E+03 -0.96755900597E+03 -0.14764717022E+03  0.10566309737E+04  0.12699999809E+01 0. -1.
</event>
<event>
 5   0  0.3547583E-06  0.2099860E+04  0.7818609E-02  0.8561305E-01
        2   -1    0    0  501    0  0.00000000000E+00  0.00000000000E+00  0.11956714526E+04  0.11956714526E+04  0.25500000920E-02 0.  1.
       -2   -1    0    0    0  501  0.00000000000E+00  0.00000000000E+00 -0.92195326229E+03  0.92195326229E+03  0.25500000920E-02 0. -1.
    10030    2    1    2    0    0  0.00000000000E+00  0.00000000000E+00  0.27371819032E+03  0.21176247149E+04  0.20998601824E+04 0.  0.
        2    1    3    3  502    0  0.27825576746E+03 -0.98061115237E+03  0.39063996280E+03  0.10916153557E+04  0.25500000920E-02 0.  1.
       -2    1    3    3    0  502 -0.27825576746E+03  0.98061115237E+03 -0.11692177248E+03  0.10260093592E+04  0.25500000920E-02 0. -1.
</event>
<event>
 5   0  0.3547583E-06  0.2102227E+04  0.7818609E-02  0.8560263E-01
        2   -1    0    0  501    0  0.00000000000E+00  0.00000000000E+00  0.18207160233E+04  0.18207160233E+04  0.25500000920E-02 0.  1.
       -2   -1    0    0    0  501  0.00000000000E+00  0.00000000000E+00 -0.60681583175E+03  0.60681583176E+03  0.25500000920E-02 0. -1.
    10030    2    1    2    0    0  0.00000000000E+00  0.00000000000E+00  0.12139001915E+04  0.24275318550E+04  0.21022267319E+04 0.  0.
        2    1    3    3  502    0  0.71295532077E+03  0.68580514118E+03  0.19672310952E+03  0.10086297452E+04  0.25500000920E-02 0. -1.
       -2    1    3    3    0  502 -0.71295532077E+03 -0.68580514118E+03  0.10171770820E+04  0.14189021098E+04  0.25500000920E-02 0.  1.
</event>
<event>
 5   0  0.3705828E-06  0.2099582E+04  0.7818609E-02  0.8561428E-01
       -2   -1    0    0    0  501  0.00000000000E+00  0.00000000000E+00  0.48054123310E+03  0.48054123311E+03  0.25500000920E-02 0. -1.
        2   -1    0    0  501    0  0.00000000000E+00  0.00000000000E+00 -0.22933743626E+04  0.22933743626E+04  0.25500000920E-02 0.  1.
    10030    2    1    2    0    0  0.00000000000E+00  0.00000000000E+00 -0.18128331295E+04  0.27739155957E+04  0.20995818100E+04 0.  0.
        5    1    3    3  502    0  0.74531994018E+03  0.21637416551E+03 -0.18403662616E+04  0.19973206201E+04  0.46999998093E+01 0.  1.
       -5    1    3    3    0  502 -0.74531994018E+03 -0.21637416551E+03  0.27533132115E+02  0.77659497558E+03  0.46999998093E+01 0. -1.
</event>
<event>
 5   0  0.3480134E-06  0.2099861E+04  0.7818609E-02  0.8561305E-01
        2   -1    0    0  501    0  0.00000000000E+00  0.00000000000E+00  0.13435023319E+04  0.13435023319E+04  0.25500000920E-02 0. -1.
       -2   -1    0    0    0  501  0.00000000000E+00  0.00000000000E+00 -0.82050739672E+03  0.82050739673E+03  0.25500000920E-02 0.  1.
    10030    2    1    2    0    0  0.00000000000E+00  0.00000000000E+00  0.52299493513E+03  0.21640097286E+04  0.20998605676E+04 0.  0.
        1    1    3    3  502    0 -0.85757876943E+03  0.25838136024E+03  0.82609488210E+03  0.12184560014E+04  0.50400001928E-02 0. -1.
       -1    1    3    3    0  502  0.85757876943E+03 -0.25838136024E+03 -0.30309994697E+03  0.94555372718E+03  0.50400001928E-02 0.  1.
</event>
<event>
 5   0  0.3547583E-06  0.2100284E+04  0.7818609E-02  0.8561118E-01
        2   -1    0    0  501    0  0.00000000000E+00  0.00000000000E+00  0.10996430155E+04  0.10996430155E+04  0.25500000920E-02 0.  1.
       -2   -1    0    0    0  501  0.00000000000E+00  0.00000000000E+00 -0.10028689635E+04  0.10028689635E+04  0.25500000920E-02 0. -1.
    10030    2    1    2    0    0  0.00000000000E+00  0.00000000000E+00  0.96774052052E+02  0.21025119790E+04  0.21002836486E+04 0.  0.
        2    1    3    3  502    0  0.10182305628E+03  0.99111717463E+03 -0.28380335110E+03  0.10359659892E+04  0.25500000920E-02 0. -1.
       -2    1    3    3    0  502 -0.10182305628E+03 -0.99111717463E+03  0.38057740315E+03  0.10665459898E+04  0.25500000920E-02 0.  1.
</event>
<event>
 5   0  0.3480134E-06  0.2100094E+04  0.7818609E-02  0.8561202E-01
       -2   -1    0    0    0  501  0.00000000000E+00  0.00000000000E+00  0.58515216761E+03  0.58515216761E+03  0.25500000920E-02 0. -1.
        2   -1    0    0  501    0  0.00000000000E+00  0.00000000000E+00 -0.18842943125E+04  0.18842943125E+04  0.25500000920E-02 0.  1.
    10030    2    1    2    0    0  0.00000000000E+00  0.00000000000E+00 -0.12991421449E+04  0.24694464801E+04  0.21000941897E+04 0.  0.
        1    1    3    3  502    0 -0.91967830975E+03  0.50618552517E+03 -0.62157336246E+03  0.12199940263E+04  0.50400001928E-02 0.  1.
       -1    1    3    3    0  502  0.91967830975E+03 -0.50618552517E+03 -0.67756878241E+03  0.12494524538E+04  0.50400001928E-02 0. -1.
</event>
<event>
 5   0  0.1646510E-06  0.2099842E+04  0.7818609E-02  0.8561313E-01
       -1   -1    0    0    0  501  0.00000000000E+00  0.00000000000E+00  0.10610213110E+04  0.10610213110E+04  0.50400001928E-02 0.  1.
        1   -1    0    0  501    0  0.00000000000E+00  0.00000000000E+00 -0.10389368142E+04  0.10389368142E+04  0.50400001928E-02 0. -1.
    10030    2    1    2    0    0  0.00000000000E+00  0.00000000000E+00  0.22084496804E+02  0.20999581252E+04  0.20998419947E+04 0.  0.
        4    1    3    3  502    0  0.98875549533E+02 -0.12278731952E+03  0.10491167013E+04  0.10608961146E+04  0.12699999809E+01 0.  1.
       -4    1    3    3    0  502 -0.98875549533E+02  0.12278731952E+03 -0.10270322045E+04  0.10390620107E+04  0.12699999809E+01 0. -1.
</event>
<event>
 5   0  0.1646510E-06  0.2099668E+04  0.7818609E-02  0.8561390E-01
       -1   -1    0    0    0  501  0.00000000000E+00  0.00000000000E+00  0.96279245323E+03  0.96279245324E+03  0.50400001928E-02 0.  1.
        1   -1    0    0  501    0  0.00000000000E+00  0.00000000000E+00 -0.11447441538E+04  0.11447441538E+04  0.50400001928E-02 0. -1.
    10030    2    1    2    0    0  0.00000000000E+00  0.00000000000E+00 -0.18195170059E+03  0.21075366071E+04  0.20996676234E+04 0.  0.
        4    1    3    3  502    0  0.63522548709E+02  0.42212066495E+03  0.87174771014E+03  0.97065269433E+03  0.12699999809E+01 0.  1.
       -4    1    3    3    0  502 -0.63522548709E+02 -0.42212066495E+03 -0.10536994107E+04  0.11368839127E+04  0.12699999809E+01 0. -1.
</event>
<event>
 5   0  0.1646510E-06  0.2101861E+04  0.7818609E-02  0.8560424E-01
        1   -1    0    0  501    0  0.00000000000E+00  0.00000000000E+00  0.10472146602E+04  0.10472146602E+04  0.50400001928E-02 0. -1.
       -1   -1    0    0    0  501  0.00000000000E+00  0.00000000000E+00 -0.10546592342E+04  0.10546592342E+04  0.50400001928E-02 0.  1.
    10030    2    1    2    0    0  0.00000000000E+00  0.00000000000E+00 -0.74445739918E+01  0.21018738944E+04  0.21018607105E+04 0.  0.
        4    1    3    3  502    0 -0.76336313206E+03  0.43281173727E+03 -0.58200242886E+03  0.10529851430E+04  0.12699999809E+01 0.  1.
       -4    1    3    3    0  502  0.76336313206E+03 -0.43281173727E+03  0.57455785487E+03  0.10488887514E+04  0.12699999809E+01 0. -1.
</event>
<event>
 5   0  0.3636435E-06  0.2099696E+04  0.7818609E-02  0.8561377E-01
        2   -1    0    0  501    0  0.00000000000E+00  0.00000000000E+00  0.12069482439E+04  0.12069482439E+04  0.25500000920E-02 0.  1.
       -2   -1    0    0    0  501  0.00000000000E+00  0.00000000000E+00 -0.91319605148E+03  0.91319605148E+03  0.25500000920E-02 0. -1.
    10030    2    1    2    0    0  0.00000000000E+00  0.00000000000E+00  0.29375219238E+03  0.21201442953E+04  0.20996955690E+04 0.  0.
        4    1    3    3  502    0  0.63597059323E+03  0.74408085672E+03 -0.23637780356E+03  0.10069711991E+04  0.12699999809E+01 0. -1.
       -4    1    3    3    0  502 -0.63597059323E+03 -0.74408085672E+03  0.53012999595E+03  0.11131730963E+04  0.12699999809E+01 0.  1.
</event>
<event>
 5   0  0.1590067E-06  0.2099747E+04  0.7818609E-02  0.8561355E-01
        1   -1    0    0  501    0  0.00000000000E+00  0.00000000000E+00  0.92812721181E+03  0.92812721182E+03  0.50400001928E-02 0. -1.
       -1   -1    0    0    0  501  0.00000000000E+00  0.00000000000E+00 -0.11875892500E+04  0.11875892500E+04  0.50400001928E-02 0.  1.
    10030    2    1    2    0    0  0.00000000000E+00  0.00000000000E+00 -0.25946203821E+03  0.21157164618E+04  0.20997465556E+04 0.  0.
        5    1    3    3  502    0  0.46957634452E+03  0.11878962799E+03 -0.10682651733E+04  0.11729558770E+04  0.46999998093E+01 0.  1.
       -5    1    3    3    0  502 -0.46957634452E+03 -0.11878962799E+03  0.80880313504E+03  0.94276058483E+03  0.46999998093E+01 0. -1.
</event>
<event>
 5   0  0.1579820E-06  0.2110126E+04  0.7818609E-02  0.8556796E-01
        1   -1    0    0  501    0  0.00000000000E+00  0.00000000000E+00  0.10607420610E+04  0.10607420610E+04  0.50400001928E-02 0. -1.
       -1   -1    0    0    0  501  0.00000000000E+00  0.00000000000E+00 -0.10494144776E+04  0.10494144776E+04  0.50400001928E-02 0.  1.
    10030    2    1    2    0    0  0.00000000000E+00  0.00000000000E+00  0.11327583377E+02  0.21101565387E+04  0.21101261345E+04 0.  0.
        2    1    3    3  502    0 -0.58652701277E+03  0.85593576365E+03 -0.18543607759E+03  0.10540524214E+04  0.25500000920E-02 0.  1.
       -2    1    3    3    0  502  0.58652701277E+03 -0.85593576365E+03  0.19676366096E+03  0.10561041173E+04  0.25500000920E-02 0. -1.
</event>
<event>
 5   0  0.1646510E-06  0.2100707E+04  0.7818609E-02  0.8560932E-01
        1   -1    0    0  501    0  0.00000000000E+00  0.00000000000E+00  0.18058359197E+04  0.18058359197E+04  0.50400001928E-02 0.  1.
       -1   -1    0    0    0  501  0.00000000000E+00  0.00000000000E+00 -0.61093191869E+03  0.61093191871E+03  0.50400001928E-02 0. -1.
    10030    2    1    2    0    0  0.00000000000E+00  0.00000000000E+00  0.11949040010E+04  0.24167678384E+04  0.21007073126E+04 0.  0.
        4    1    3    3  502    0  0.39040550478E+03 -0.72549840895E+03 -0.15209066749E+03  0.83779328214E+03  0.12699999809E+01 0. -1.
       -4    1    3    3    0  502 -0.39040550478E+03  0.72549840895E+03  0.13469946685E+04  0.15789745563E+04  0.12699999809E+01 0.  1.
</event>
<event>
 5   0  0.1646510E-06  0.2098242E+04  0.7818609E-02  0.8562018E-01
        1   -1    0    0  501    0  0.00000000000E+00  0.00000000000E+00  0.27936328468E+04  0.27936328468E+04  0.50400001928E-02 0. -1.
       -1   -1    0    0    0  501  0.00000000000E+00  0.00000000000E+00 -0.39398683572E+03  0.39398683575E+03  0.50400001928E-02 0.  1.
    10030    2    1    2    0    0  0.00000000000E+00  0.00000000000E+00  0.23996460110E+04  0.31876196825E+04  0.20982417073E+04 0.  0.
        4    1    3    3  502    0  0.57788189603E+03 -0.15565697186E+03  0.25088611560E+04  0.25792561896E+04  0.12699999809E+01 0. -1.
       -4    1    3    3    0  502 -0.57788189603E+03  0.15565697186E+03 -0.10921514500E+03  0.60836349287E+03  0.12699999809E+01 0.  1.
</event>
<event>
 5   0  0.3574927E-06  0.2100307E+04  0.7818609E-02  0.8561108E-01
        2   -1    0    0  501    0  0.00000000000E+00  0.00000000000E+00  0.19972669048E+04  0.19972669048E+04  0.25500000920E-02 0.  1.
       -2   -1    0    0    0  501  0.00000000000E+00  0.00000000000E+00 -0.55216559415E+03  0.55216559415E+03  0.25500000920E-02 0. -1.
    10030    2    1    2    0    0  0.00000000000E+00  0.00000000000E+00  0.14451013107E+04  0.25494324990E+04  0.21003067082E+04 0.  0.
        3    1    3    3  502    0  0.22342530166E+03  0.84977981381E+03  0.24432790200E+02  0.87900032356E+03  0.10100000352E+00 0. -1.
       -3    1    3    3    0  502 -0.22342530166E+03 -0.84977981381E+03  0.14206685205E+04  0.16704321754E+04  0.10100000352E+00 0.  1.
</event>
<event>
 5   0  0.1579820E-06  0.2096331E+04  0.7818609E-02  0.8562861E-01
        1   -1    0    0  501    0  0.00000000000E+00  0.00000000000E+00  0.15643933914E+04  0.15643933914E+04  0.50400001928E-02 0. -1.
       -1   -1    0    0    0  501  0.00000000000E+00  0.00000000000E+00 -0.70228581106E+03  0.70228581107E+03  0.50400001928E-02 0.  1.
    10030    2    1    2    0    0  0.00000000000E+00  0.00000000000E+00  0.86210758033E+03  0.22666792025E+04  0.20963313495E+04 0.  0.
        2    1    3    3  502    0 -0.88449529291E+03  0.38541119933E+03 -0.11837434720E+02  0.96489058480E+03  0.25500000920E-02 0.  1.
       -2    1    3    3    0  502  0.88449529291E+03 -0.38541119933E+03  0.87394501505E+03  0.13017886177E+04  0.25500000920E-02 0. -1.
</event>
<event>
 5   0  0.3574927E-06  0.2104688E+04  0.7818609E-02  0.8559181E-01
       -2   -1    0    0    0  501  0.00000000000E+00  0.00000000000E+00  0.12665621226E+04  0.12665621226E+04  0.25500000920E-02 0.  1.
        2   -1    0    0  501    0  0.00000000000E+00  0.00000000000E+00 -0.87435702875E+03  0.87435702876E+03  0.25500000920E-02 0. -1.
    10030    2    1    2    0    0  0.00000000000E+00  0.00000000000E+00  0.39220509386E+03  0.21409191514E+04  0.21046876198E+04 0.  0.
        3    1    3    3  502    0 -0.12180724128E+02  0.57304133130E+03 -0.70164502315E+03  0.90599695702E+03  0.10100000352E+00 0. -1.
       -3    1    3    3    0  502  0.12180724128E+02 -0.57304133130E+03  0.10938501170E+04  0.12349221944E+04  0.10100000352E+00 0.  1.
</event>
<event>
 5   0  0.1590067E-06  0.2100034E+04  0.7818609E-02  0.8561229E-01
        1   -1    0    0  501    0  0.00000000000E+00  0.00000000000E+00  0.83224227318E+03  0.83224227320E+03  0.50400001928E-02 0. -1.
       -1   -1    0    0    0  501  0.00000000000E+00  0.00000000000E+00 -0.13247769394E+04  0.13247769394E+04  0.50400001928E-02 0.  1.
    10030    2    1    2    0    0  0.00000000000E+00  0.00000000000E+00 -0.49253466622E+03  0.21570192126E+04  0.21000336869E+04 0.  0.
        5    1    3    3  502    0 -0.29091305951E+03 -0.15228077773E+03  0.77813929199E+03  0.84459617048E+03  0.46999998093E+01 0. -1.
       -5    1    3    3    0  502  0.29091305951E+03  0.15228077773E+03 -0.12706739582E+04  0.13124230421E+04  0.46999998093E+01 0.  1.
</event>
<event>
 5   0  0.3574927E-06  0.2099447E+04  0.7818609E-02  0.8561487E-01
        2   -1    0    0  501    0  0.00000000000E+00  0.00000000000E+00  0.67737604585E+03  0.67737604585E+03  0.25500000920E-02 0. -1.
       -2   -1    0    0    0  501  0.00000000000E+00  0.00000000000E+00 -0.16267476267E+04  0.16267476267E+04  0.25500000920E-02 0.  1.
    10030    2    1    2    0    0  0.00000000000E+00  0.00000000000E+00 -0.94937158082E+03  0.23041236725E+04  0.20994474273E+04 0.  0.
        3    1    3    3  502    0  0.28362393790E+03  0.65744984577E+03 -0.13171390148E+04  0.14991791195E+04  0.10100000352E+00 0.  1.
       -3    1    3    3    0  502 -0.28362393790E+03 -0.65744984577E+03  0.36776743393E+03  0.80494455307E+03  0.10100000352E+00 0. -1.
</event>
<event>
 5   0  0.1653260E-06  0.2099305E+04  0.7818609E-02  0.8561549E-01
        1   -1    0    0  501    0  0.00000000000E+00  0.00000000000E+00  0.83909063959E+03  0.83909063960E+03  0.50400001928E-02 0. -1.
       -1   -1    0    0    0  501  0.00000000000E+00  0.00000000000E+00 -0.13130531892E+04  0.13130531892E+04  0.50400001928E-02 0.  1.
    10030    2    1    2    0    0  0.00000000000E+00  0.00000000000E+00 -0.47396254958E+03  0.21521438288E+04  0.20993052568E+04 0.  0.
        3    1    3    3  502    0 -0.61459528325E+03  0.57996792768E+03 -0.87529276305E+03  0.12166460416E+04  0.10100000352E+00 0.  1.
       -3    1    3    3    0  502  0.61459528325E+03 -0.57996792768E+03  0.40133021348E+03  0.93549778716E+03  0.10100000352E+00 0. -1.
</event>
<event>
 5   0  0.1590067E-06  0.2100267E+04  0.7818609E-02  0.8561126E-01
        1   -1    0    0  501    0  0.00000000000E+00  0.00000000000E+00  0.16067784996E+04  0.16067784996E+04  0.50400001928E-02 0.  1.
       -1   -1    0    0    0  501  0.00000000000E+00  0.00000000000E+00 -0.68633008221E+03  0.68633008222E+03  0.50400001928E-02 0. -1.
    10030    2    1    2    0    0  0.00000000000E+00  0.00000000000E+00  0.92044841737E+03  0.22931085818E+04  0.21002670494E+04 0.  0.
        5    1    3    3  502    0 -0.58972037787E+03 -0.13085698321E+03 -0.47763674401E+03  0.77009909970E+03  0.46999998093E+01 0. -1.
       -5    1    3    3    0  502  0.58972037787E+03  0.13085698321E+03  0.13980851614E+04  0.15230094821E+04  0.46999998093E+01 0.  1.
</event>
<event>
 5   0  0.3705828E-06  0.2099696E+04  0.7818609E-02  0.8561377E-01
        2   -1    0    0  501    0  0.00000000000E+00  0.00000000000E+00  0.22826308749E+04  0.22826308749E+04  0.25500000920E-02 0.  1.
       -2   -1    0    0    0  501  0.00000000000E+00  0.00000000000E+00 -0.48285565911E+03  0.48285565912E+03  0.25500000920E-02 0. -1.
    10030    2    1    2    0    0  0.00000000000E+00  0.00000000000E+00  0.17997752158E+04  0.27654865340E+04  0.20996963929E+04 0.  0.
        5    1    3    3  502    0 -0.46490291043E+03  0.72472266068E+03  0.16910200788E+04  0.18976113006E+04  0.46999998093E+01 0.  1.
       -5    1    3    3    0  502  0.46490291043E+03 -0.72472266068E+03  0.10875513696E+03  0.86787523346E+03  0.46999998093E+01 0. -1.
</event>
<event>
 5   0  0.1653260E-06  0.2102289E+04  0.7818609E-02  0.8560236E-01
       -1   -1    0    0    0  501  0.00000000000E+00  0.00000000000E+00  0.18407840439E+04  0.18407840439E+04  0.50400001928E-02 0.  1.
        1   -1    0    0  501    0  0.00000000000E+00  0.00000000000E+00 -0.60023603679E+03  0.60023603681E+03  0.50400001928E-02 0. -1.
    10030    2    1    2    0    0  0.00000000000E+00  0.00000000000E+00  0.12405480071E+04  0.24410200807E+04  0.21022891515E+04 0.  0.
        3    1    3    3  502    0 -0.12911144703E+03 -0.63076804417E+03 -0.34448503788E+03  0.73021095775E+03  0.10100000352E+00 0. -1.
       -3    1    3    3    0  502  0.12911144703E+03  0.63076804417E+03  0.15850330450E+04  0.17108091229E+04  0.10100000352E+00 0.  1.
</event>
<event>
 5   0  0.1579820E-06  0.2102036E+04  0.7818609E-02  0.8560347E-01
        1   -1    0    0  501    0  0.00000000000E+00  0.00000000000E+00  0.18307790312E+04  0.18307790312E+04  0.50400001928E-02 0.  1.
       -1   -1    0    0    0  501  0.00000000000E+00  0.00000000000E+00 -0.60337087100E+03  0.60337087102E+03  0.50400001928E-02 0. -1.
    10030    2    1    2    0    0  0.00000000000E+00  0.00000000000E+00  0.12274081602E+04  0.24341499023E+04  0.21020359071E+04 0.  0.
        2    1    3    3  502    0  0.37155015120E+03  0.66298564325E+03 -0.22697196721E+03  0.79316817380E+03  0.25500000920E-02 0. -1.
       -2    1    3    3    0  502 -0.37155015120E+03 -0.66298564325E+03  0.14543801274E+04  0.16409817285E+04  0.25500000920E-02 0.  1.
</event>
<event>
 5   0  0.3547583E-06  0.2100939E+04  0.7818609E-02  0.8560830E-01
       -2   -1    0    0    0  501  0.00000000000E+00  0.00000000000E+00  0.77896622959E+03  0.77896622959E+03  0.25500000920E-02 0. -1.
        2   -1    0    0  501    0  0.00000000000E+00  0.00000000000E+00 -0.14166036723E+04  0.14166036723E+04  0.25500000920E-02 0.  1.
    10030    2    1    2    0    0  0.00000000000E+00  0.00000000000E+00 -0.63763744269E+03  0.21955699019E+04  0.21009392389E+04 0.  0.
        2    1    3    3  502    0  0.69311227177E+03  0.26400390405E+03  0.45858564009E+03  0.87201116503E+03  0.25500000920E-02 0. -1.
       -2    1    3    3    0  502 -0.69311227177E+03 -0.26400390405E+03 -0.10962230828E+04  0.13235587368E+04  0.25500000920E-02 0.  1.
</event>
<event>
 5   0  0.3547583E-06  0.2100671E+04  0.7818609E-02  0.8560948E-01
       -2   -1    0    0    0  501  0.00000000000E+00  0.00000000000E+00  0.63274669301E+03  0.63274669301E+03  0.25500000920E-02 0.  1.
        2   -1    0    0  501    0  0.00000000000E+00  0.00000000000E+00 -0.17435169951E+04  0.17435169951E+04  0.25500000920E-02 0. -1.
    10030    2    1    2    0    0  0.00000000000E+00  0.00000000000E+00 -0.11107703021E+04  0.23762636882E+04  0.21006709527E+04 0.  0.
        2    1    3    3  502    0  0.26161731997E+03 -0.19602751217E+01  0.59529817219E+03  0.65025178093E+03  0.25500000920E-02 0.  1.
       -2    1    3    3    0  502 -0.26161731997E+03  0.19602751217E+01 -0.17060684743E+04  0.17260119072E+04  0.25500000920E-02 0. -1.
</event>
<event>
 5   0  0.3636435E-06  0.2100082E+04  0.7818609E-02  0.8561207E-01
       -2   -1    0    0    0  501  0.00000000000E+00  0.00000000000E+00  0.11698315092E+04  0.11698315092E+04  0.25500000920E-02 0. -1.
        2   -1    0    0  501    0  0.00000000000E+00  0.00000000000E+00 -0.94251667756E+03  0.94251667756E+03  0.25500000920E-02 0.  1.
    10030    2    1    2    0    0  0.00000000000E+00  0.00000000000E+00  0.22731483159E+03  0.21123481867E+04  0.21000816244E+04 0.  0.
        4    1    3    3  502    0 -0.85015430807E+03  0.36760494707E+03 -0.38389172126E+03  0.10026316428E+04  0.12699999809E+01 0.  1.
       -4    1    3    3    0  502  0.85015430807E+03 -0.36760494707E+03  0.61120655286E+03  0.11097165439E+04  0.12699999809E+01 0. -1.
</event>
<event>
 5   0  0.3480134E-06  0.2097660E+04  0.7818609E-02  0.8562275E-01
       -2   -1    0    0    0  501  0.00000000000E+00  0.00000000000E+00  0.14954212980E+04  0.14954212980E+04  0.25500000920E-02 0. -1.
        2   -1    0    0  501    0  0.00000000000E+00  0.00000000000E+00 -0.73560826825E+03  0.73560826825E+03  0.25500000920E-02 0.  1.
    10030    2    1    2    0    0  0.00000000000E+00  0.00000000000E+00  0.75981302970E+03  0.22310295662E+04  0.20976599069E+04 0.  0.
        1    1    3    3  502    0  0.75200133286E+03 -0.64399074403E+02 -0.39467714624E+03  0.85171784952E+03  0.50400001928E-02 0.  1.
       -1    1    3    3    0  502 -0.75200133286E+03  0.64399074403E+02  0.11544901759E+04  0.13793117167E+04  0.50400001928E-02 0. -1.
</event>
<event>
 5   0  0.1579820E-06  0.2102867E+04  0.7818609E-02  0.8559982E-01
        1   -1    0    0  501    0  0.00000000000E+00  0.00000000000E+00  0.97109944937E+03  0.97109944939E+03  0.50400001928E-02 0. -1.
       -1   -1    0    0    0  501  0.00000000000E+00  0.00000000000E+00 -0.11384128246E+04  0.11384128247E+04  0.50400001928E-02 0.  1.
    10030    2    1    2    0    0  0.00000000000E+00  0.00000000000E+00 -0.16731337527E+03  0.21095122740E+04  0.21028666788E+04 0.  0.
        2    1    3    3  502    0  0.46190123739E+01  0.31266225794E+03 -0.10906882144E+04  0.11346276058E+04  0.25500000920E-02 0.  1.
       -2    1    3    3    0  502 -0.46190123739E+01 -0.31266225794E+03  0.92337483913E+03  0.97488466824E+03  0.25500000920E-02 0. -1.
</event>
<event>
 5   0  0.3636435E-06  0.2099933E+04  0.7818609E-02  0.8561273E-01
       -2   -1    0    0    0  501  0.00000000000E+00  0.00000000000E+00  0.98321978793E+03  0.98321978793E+03  0.25500000920E-02 0. -1.
        2   -1    0    0  501    0  0.00000000000E+00  0.00000000000E+00 -0.11212439871E+04  0.11212439871E+04  0.25500000920E-02 0.  1.
    10030    2    1    2    0    0  0.00000000000E+00  0.00000000000E+00 -0.13802419915E+03  0.21044637750E+04  0.20999326420E+04 0.  0.
        4    1    3    3  502    0  0.22137698410E+03  0.17860170466E+03 -0.10818963274E+04  0.11186633158E+04  0.12699999809E+01 0.  1.
       -4    1    3    3    0  502 -0.22137698410E+03 -0.17860170466E+03  0.94387212824E+03  0.98580045921E+03  0.12699999809E+01 0. -1.
</event>
<event>
 5   0  0.3574927E-06  0.2099962E+04  0.7818609E-02  0.8561260E-01
       -2   -1    0    0    0  501  0.00000000000E+00  0.00000000000E+00  0.99809115394E+03  0.99809115395E+03  0.25500000920E-02 0. -1.
        2   -1    0    0  501    0  0.00000000000E+00  0.00000000000E+00 -0.11045687116E+04  0.11045687116E+04  0.25500000920E-02 0.  1.
    10030    2    1    2    0    0  0.00000000000E+00  0.00000000000E+00 -0.10647755766E+03  0.21026598656E+04  0.20999621520E+04 0.  0.
        3    1    3    3  502    0 -0.83150866512E+03  0.96956868714E+02  0.58133634196E+03  0.10191953921E+04  0.10100000352E+00 0. -1.
       -3    1    3    3    0  502  0.83150866512E+03 -0.96956868714E+02 -0.68781389962E+03  0.10834644735E+04  0.10100000352E+00 0.  1.
</event>
<event>
 5   0  0.1257125E-06  0.2104678E+04  0.7818609E-02  0.8559186E-01
        3   -1    0    0  501    0  0.00000000000E+00  0.00000000000E+00  0.61249615500E+03  0.61249616332E+03  0.10100000352E+00 0.  1.
       -3   -1    0    0    0  501  0.00000000000E+00  0.00000000000E+00 -0.18080394766E+04  0.18080394794E+04  0.10100000352E+00 0. -1.
    10030    2    1    2    0    0  0.00000000000E+00  0.00000000000E+00 -0.11955433216E+04  0.24205356427E+04  0.21046778765E+04 0.  0.
        3    1    3    3  502    0  0.45560653254E+03  0.34419027946E+03 -0.16143832069E+04  0.17123893861E+04  0.10100000352E+00 0. -1.
       -3    1    3    3    0  502 -0.45560653254E+03 -0.34419027946E+03  0.41883988530E+03  0.70814625656E+03  0.10100000352E+00 0.  1.
</event>
<event>
 5   0  0.1257125E-06  0.2100774E+04  0.7818609E-02  0.8560902E-01
       -3   -1    0    0    0  501  0.00000000000E+00  0.00000000000E+00  0.92207805146E+03  0.92207805699E+03  0.10100000352E+00 0.  1.
        3   -1    0    0  501    0  0.00000000000E+00  0.00000000000E+00 -0.11965505627E+04  0.11965505670E+04  0.10100000352E+00 0. -1.
    10030    2    1    2    0    0  0.00000000000E+00  0.00000000000E+00 -0.27447251128E+03  0.21186286240E+04  0.21007741637E+04 0.  0.
        3    1    3    3  502    0 -0.83750159352E+02 -0.87930763487E+03 -0.71050118756E+03  0.11335819131E+04  0.10100000352E+00 0. -1.
       -3    1    3    3    0  502  0.83750159352E+02  0.87930763487E+03  0.43602867629E+03  0.98504671091E+03  0.10100000352E+00 0.  1.
</event>
<event>
 5   0  0.1653260E-06  0.2099789E+04  0.7818609E-02  0.8561336E-01
        1   -1    0    0  501    0  0.00000000000E+00  0.00000000000E+00  0.13747080741E+04  0.13747080741E+04  0.50400001928E-02 0. -1.
       -1   -1    0    0    0  501  0.00000000000E+00  0.00000000000E+00 -0.80182766609E+03  0.80182766610E+03  0.50400001928E-02 0.  1.
    10030    2    1    2    0    0  0.00000000000E+00  0.00000000000E+00  0.57288040798E+03  0.21765357402E+04  0.20997894815E+04 0.  0.
        3    1    3    3  502    0 -0.68101339307E+03  0.42705567086E+03 -0.41361310624E+03  0.90400862795E+03  0.10100000352E+00 0.  1.
       -3    1    3    3    0  502  0.68101339307E+03 -0.42705567086E+03  0.98649351422E+03  0.12725271122E+04  0.10100000352E+00 0. -1.
</event>
<event>
 5   0  0.3705828E-06  0.2099903E+04  0.7818609E-02  0.8561286E-01
        2   -1    0    0  501    0  0.00000000000E+00  0.00000000000E+00  0.55944848365E+03  0.55944848365E+03  0.25500000920E-02 0.  1.
       -2   -1    0    0    0  501  0.00000000000E+00  0.00000000000E+00 -0.19705078542E+04  0.19705078542E+04  0.25500000920E-02 0. -1.
    10030    2    1    2    0    0  0.00000000000E+00  0.00000000000E+00 -0.14110593706E+04  0.25299563379E+04  0.20999025035E+04 0.  0.
        5    1    3    3  502    0 -0.16847317904E+03 -0.94993471523E+03 -0.12046362077E+04  0.15433501411E+04  0.46999998093E+01 0. -1.
       -5    1    3    3    0  502  0.16847317904E+03  0.94993471523E+03 -0.20642316287E+03  0.98660619673E+03  0.46999998093E+01 0.  1.
</event>
<event>
 5   0  0.1646510E-06  0.2101576E+04  0.7818609E-02  0.8560549E-01
       -1   -1    0    0    0  501  0.00000000000E+00  0.00000000000E+00  0.12589663793E+04  0.12589663793E+04  0.50400001928E-02 0. -1.
        1   -1    0    0  501    0  0.00000000000E+00  0.00000000000E+00 -0.87703340760E+03  0.87703340761E+03  0.50400001928E-02 0.  1.
    10030    2    1    2    0    0  0.00000000000E+00  0.00000000000E+00  0.38193297169E+03  0.21359997869E+04  0.21015761454E+04 0.  0.
        4    1    3    3  502    0  0.30551486739E+03 -0.49260721144E+03  0.10817657980E+04  0.12272815706E+04  0.12699999809E+01 0. -1.
       -4    1    3    3    0  502 -0.30551486739E+03  0.49260721144E+03 -0.69983282630E+03  0.90871821630E+03  0.12699999809E+01 0.  1.
</event>
<event>
 5   0  0.3480134E-06  0.2099345E+04  0.7818609E-02  0.8561532E-01
       -2   -1    0    0    0  501  0.00000000000E+00  0.00000000000E+00  0.86735758582E+03  0.86735758582E+03  0.25500000920E-02 0.  1.
        2   -1    0    0  501    0  0.00000000000E+00  0.00000000000E+00 -0.12703086591E+04  0.12703086591E+04  0.25500000920E-02 0. -1.
    10030    2    1    2    0    0  0.00000000000E+00  0.00000000000E+00 -0.40295107324E+03  0.21376662449E+04  0.20993445184E+04 0.  0.
        1    1    3    3  502    0 -0.10171432246E+04 -0.23924367452E+03 -0.99680794369E+02  0.10496447666E+04  0.50400001928E-02 0. -1.
       -1    1    3    3    0  502  0.10171432246E+04  0.23924367452E+03 -0.30327027887E+03  0.10880214783E+04  0.50400001928E-02 0.  1.
</event>
<event>
 5   0  0.3547583E-06  0.2099246E+04  0.7818609E-02  0.8561575E-01
       -2   -1    0    0    0  501  0.00000000000E+00  0.00000000000E+00  0.79488698070E+03  0.79488698070E+03  0.25500000920E-02 0. -1.
        2   -1    0    0  501    0  0.00000000000E+00  0.00000000000E+00 -0.13859944405E+04  0.13859944405E+04  0.25500000920E-02 0.  1.
    10030    2    1    2    0    0  0.00000000000E+00  0.00000000000E+00 -0.59110745984E+03  0.21808814212E+04  0.20992464706E+04 0.  0.
        2    1    3    3  502    0  0.32773254263E+03 -0.59395619128E+02  0.73852972108E+03  0.81016208748E+03  0.25500000920E-02 0. -1.
       -2    1    3    3    0  502 -0.32773254263E+03  0.59395619128E+02 -0.13296371809E+04  0.13707193338E+04  0.25500000920E-02 0.  1.
</event>
<event>
 5   0  0.1590067E-06  0.2100119E+04  0.7818609E-02  0.8561191E-01
       -1   -1    0    0    0  501  0.00000000000E+00  0.00000000000E+00  0.77682595082E+03  0.77682595084E+03  0.50400001928E-02 0. -1.
        1   -1    0    0  501    0  0.00000000000E+00  0.00000000000E+00 -0.14193977568E+04  0.14193977568E+04  0.50400001928E-02 0.  1.
    10030    2    1    2    0    0  0.00000000000E+00  0.00000000000E+00 -0.64257180600E+03  0.21962237077E+04  0.21001190557E+04 0.  0.
        5    1    3    3  502    0 -0.13926857385E+03 -0.84654407084E+03  0.31187094815E+03  0.91286262813E+03  0.46999998093E+01 0. -1.
       -5    1    3    3    0  502  0.13926857385E+03  0.84654407084E+03 -0.95444275415E+03  0.12833610795E+04  0.46999998093E+01 0.  1.
</event>
<event>
 5   0  0.3636435E-06  0.2099888E+04  0.7818609E-02  0.8561293E-01
        2   -1    0    0  501    0  0.00000000000E+00  0.00000000000E+00  0.82963339660E+03  0.82963339661E+03  0.25500000920E-02 0.  1.
       -2   -1    0    0    0  501  0.00000000000E+00  0.00000000000E+00 -0.13287584892E+04  0.13287584892E+04  0.25500000920E-02 0. -1.
    10030    2    1    2    0    0  0.00000000000E+00  0.00000000000E+00 -0.49912509261E+03  0.21583918858E+04  0.20998880148E+04 0.  0.
        4    1    3    3  502    0  0.14019146419E+03 -0.70602938348E+03  0.53609520985E+03  0.89751369008E+03  0.12699999809E+01 0.  1.
       -4    1    3    3    0  502 -0.14019146419E+03  0.70602938348E+03 -0.10352203025E+04  0.12608781957E+04  0.12699999809E+01 0. -1.
</event>
<event>
 5   0  0.3705828E-06  0.2099986E+04  0.7818609E-02  0.8561250E-01
        2   -1    0    0  501    0  0.00000000000E+00  0.00000000000E+00  0.10826274605E+04  0.10826274605E+04  0.25500000920E-02 0. -1.
       -2   -1    0    0    0  501  0.00000000000E+00  0.00000000000E+00 -0.10183418494E+04  0.10183418494E+04  0.25500000920E-02 0.  1.
    10030    2    1    2    0    0  0.00000000000E+00  0.00000000000E+00  0.64285611150E+02  0.21009693099E+04  0.20999855717E+04 0.  0.
        5    1    3    3  502    0  0.52238910112E+02 -0.26859933508E+03 -0.98203234041E+03  0.10194528504E+04  0.46999998093E+01 0.  1.
       -5    1    3    3    0  502 -0.52238910112E+02  0.26859933508E+03  0.10463179516E+04  0.10815164596E+04  0.46999998093E+01 0. -1.
</event>
<event>
 5   0  0.1646510E-06  0.2100242E+04  0.7818609E-02  0.8561137E-01
        1   -1    0    0  501    0  0.00000000000E+00  0.00000000000E+00  0.94566507986E+03  0.94566507987E+03  0.50400001928E-02 0.  1.
       -1   -1    0    0    0  501  0.00000000000E+00  0.00000000000E+00 -0.11661144713E+04  0.11661144713E+04  0.50400001928E-02 0. -1.
    10030    2    1    2    0    0  0.00000000000E+00  0.00000000000E+00 -0.22044939141E+03  0.21117795512E+04  0.21002416381E+04 0.  0.
        4    1    3    3  502    0  0.50814141739E+03  0.21551746688E+03  0.78804564020E+03  0.96211902722E+03  0.12699999809E+01 0.  1.
       -4    1    3    3    0  502 -0.50814141739E+03 -0.21551746688E+03 -0.10084950316E+04  0.11496605239E+04  0.12699999809E+01 0. -1.
</event>
<event>
 5   0  0.3574927E-06  0.2099942E+04  0.7818609E-02  0.8561269E-01
        2   -1    0    0  501    0  0.00000000000E+00  0.00000000000E+00  0.92206091533E+03  0.92206091533E+03  0.25500000920E-02 0. -1.
       -2   -1    0    0    0  501  0.00000000000E+00  0.00000000000E+00 -0.11956245826E+04  0.11956245826E+04  0.25500000920E-02 0.  1.
    10030    2    1    2    0    0  0.00000000000E+00  0.00000000000E+00 -0.27356366723E+03  0.21176854979E+04  0.20999416154E+04 0.  0.
        3    1    3    3  502    0  0.88598076493E+03  0.28223688081E+03  0.35500581916E+03  0.99531337505E+03  0.10100000352E+00 0. -1.
       -3    1    3    3    0  502 -0.88598076493E+03 -0.28223688081E+03 -0.62856948639E+03  0.11223721228E+04  0.10100000352E+00 0.  1.
</event>
<event>
 5   0  0.1590067E-06  0.2100037E+04  0.7818609E-02  0.8561227E-01
        1   -1    0    0  501    0  0.00000000000E+00  0.00000000000E+00  0.13819851444E+04  0.13819851444E+04  0.50400001928E-02 0.  1.
       -1   -1    0    0    0  501  0.00000000000E+00  0.00000000000E+00 -0.79779325349E+03  0.79779325351E+03  0.50400001928E-02 0. -1.
    10030    2    1    2    0    0  0.00000000000E+00  0.00000000000E+00  0.58419189090E+03  0.21797783979E+04  0.21000365946E+04 0.  0.
        5    1    3    3  502    0  0.80247941128E+03 -0.36151272024E+03  0.88642120654E+03  0.12491714445E+04  0.46999998093E+01 0.  1.
       -5    1    3    3    0  502 -0.80247941128E+03  0.36151272024E+03 -0.30222931564E+03  0.93060695337E+03  0.46999998093E+01 0. -1.
</event>
<event>
 5   0  0.1653260E-06  0.2101736E+04  0.7818609E-02  0.8560479E-01
        1   -1    0    0  501    0  0.00000000000E+00  0.00000000000E+00  0.12835320989E+04  0.12835320989E+04  0.50400001928E-02 0. -1.
       -1   -1    0    0    0  501  0.00000000000E+00  0.00000000000E+00 -0.86037825715E+03  0.86037825717E+03  0.50400001928E-02 0.  1.
    10030    2    1    2    0    0  0.00000000000E+00  0.00000000000E+00  0.42315384178E+03  0.21439103561E+04  0.21017355783E+04 0.  0.
        3    1    3    3  502    0 -0.73651829507E+03  0.36349959328E+03 -0.45711698688E+03  0.93997186297E+03  0.10100000352E+00 0.  1.
       -3    1    3    3    0  502  0.73651829507E+03 -0.36349959328E+03  0.88027082865E+03  0.12039384931E+04  0.10100000352E+00 0. -1.
</event>
<event>
 5   0  0.1653260E-06  0.2100142E+04  0.7818609E-02  0.8561181E-01
       -1   -1    0    0    0  501  0.00000000000E+00  0.00000000000E+00  0.87348319879E+03  0.87348319881E+03  0.50400001928E-02 0. -1.
        1   -1    0    0  501    0  0.00000000000E+00  0.00000000000E+00 -0.12623581013E+04  0.12623581013E+04  0.50400001928E-02 0.  1.
    10030    2    1    2    0    0  0.00000000000E+00  0.00000000000E+00 -0.38887490246E+03  0.21358413001E+04  0.21001415117E+04 0.  0.
        3    1    3    3  502    0  0.40687166456E+03  0.13485751809E+03  0.78045942158E+03  0.89042013709E+03  0.10100000352E+00 0. -1.
       -3    1    3    3    0  502 -0.40687166456E+03 -0.13485751809E+03 -0.11693343240E+04  0.12454211630E+04  0.10100000352E+00 0.  1.
</event>
<event>
 5   0  0.1615098E-06  0.2102927E+04  0.7818609E-02  0.8559955E-01
       -1   -1    0    0    0  501  0.00000000000E+00  0.00000000000E+00  0.11846233840E+04  0.11846233840E+04  0.50400001928E-02 0.  1.
        1   -1    0    0  501    0  0.00000000000E+00  0.00000000000E+00 -0.93327173544E+03  0.93327173546E+03  0.50400001928E-02 0. -1.
    10030    2    1    2    0    0  0.00000000000E+00  0.00000000000E+00  0.25135164851E+03  0.21178951194E+04  0.21029270281E+04 0.  0.
        1    1    3    3  502    0  0.43332608984E+03  0.40093500789E+03  0.10019580508E+04  0.11629446747E+04  0.50400001928E-02 0.  1.
       -1    1    3    3    0  502 -0.43332608984E+03 -0.40093500789E+03 -0.75060640233E+03  0.95495044475E+03  0.50400001928E-02 0. -1.
</event>
<event>
 5   0  0.3574927E-06  0.2100181E+04  0.7818609E-02  0.8561164E-01
        2   -1    0    0  501    0  0.00000000000E+00  0.00000000000E+00  0.79882240658E+03  0.79882240658E+03  0.25500000920E-02 0. -1.
       -2   -1    0    0    0  501  0.00000000000E+00  0.00000000000E+00 -0.13803945627E+04  0.13803945627E+04  0.25500000920E-02 0.  1.
    10030    2    1    2    0    0  0.00000000000E+00  0.00000000000E+00 -0.58157215610E+03  0.21792169693E+04  0.21001810461E+04 0.  0.
        3    1    3    3  502    0  0.69156145820E+03 -0.78356279526E+03 -0.39692021091E+03  0.11179327210E+04  0.10100000352E+00 0. -1.
       -3    1    3    3    0  502 -0.69156145820E+03  0.78356279526E+03 -0.18465194519E+03  0.10612842483E+04  0.10100000352E+00 0.  1.
</event>
<event>
 5   0  0.1257125E-06  0.2098573E+04  0.7818609E-02  0.8561872E-01
        3   -1    0    0  501    0  0.00000000000E+00  0.00000000000E+00  0.12300568620E+04  0.12300568661E+04  0.10100000352E+00 0. -1.
       -3   -1    0    0    0  501  0.00000000000E+00  0.00000000000E+00 -0.89508218600E+03  0.89508219169E+03  0.10100000352E+00 0.  1.
    10030    2    1    2    0    0  0.00000000000E+00  0.00000000000E+00  0.33497467597E+03  0.21251390578E+04  0.20985728440E+04 0.  0.
        4    1    3    3  502    0  0.28019667129E+03  0.26693112544E+03 -0.82017364158E+03  0.90688963803E+03  0.12699999809E+01 0.  1.
       -4    1    3    3    0  502 -0.28019667129E+03 -0.26693112544E+03  0.11551483175E+04  0.12182494198E+04  0.12699999809E+01 0. -1.
</event>
<event>
 5   0  0.3574927E-06  0.2096496E+04  0.7818609E-02  0.8562788E-01
       -2   -1    0    0    0  501  0.00000000000E+00  0.00000000000E+00  0.77577580561E+03  0.77577580562E+03  0.25500000920E-02 0. -1.
        2   -1    0    0  501    0  0.00000000000E+00  0.00000000000E+00 -0.14164193841E+04  0.14164193841E+04  0.25500000920E-02 0.  1.
    10030    2    1    2    0    0  0.00000000000E+00  0.00000000000E+00 -0.64064357850E+03  0.21921951897E+04  0.20964960184E+04 0.  0.
        3    1    3    3  502    0  0.19232413955E+03  0.84181951156E+03 -0.94173472124E+03  0.12776983056E+04  0.10100000352E+00 0.  1.
       -3    1    3    3    0  502 -0.19232413955E+03 -0.84181951156E+03  0.30109114274E+03  0.91449688416E+03  0.10100000352E+00 0. -1.
</event>
<event>
 5   0  0.3705828E-06  0.2097683E+04  0.7818609E-02  0.8562265E-01
       -2   -1    0    0    0  501  0.00000000000E+00  0.00000000000E+00  0.14623493461E+04  0.14623493461E+04  0.25500000920E-02 0. -1.
        2   -1    0    0  501    0  0.00000000000E+00  0.00000000000E+00 -0.75226092195E+03  0.75226092195E+03  0.25500000920E-02 0.  1.
    10030    2    1    2    0    0  0.00000000000E+00  0.00000000000E+00  0.71008842420E+03  0.22146102681E+04  0.20976827857E+04 0.  0.
        5    1    3    3  502    0  0.40317317978E+03  0.90718095429E+03 -0.22275539327E+01  0.99275019452E+03  0.46999998093E+01 0.  1.
       -5    1    3    3    0  502 -0.40317317978E+03 -0.90718095429E+03  0.71231597813E+03  0.12218600736E+04  0.46999998093E+01 0. -1.
</event>
<event>
 5   0  0.1579820E-06  0.2098349E+04  0.7818609E-02  0.8561971E-01
        1   -1    0    0  501    0  0.00000000000E+00  0.00000000000E+00  0.72744836009E+03  0.72744836010E+03  0.50400001928E-02 0. -1.
       -1   -1    0    0    0  501  0.00000000000E+00  0.00000000000E+00 -0.15131888062E+04  0.15131888062E+04  0.50400001928E-02 0.  1.
    10030    2    1    2    0    0  0.00000000000E+00  0.00000000000E+00 -0.78574044611E+03  0.22406371663E+04  0.20983486036E+04 0.  0.
        2    1    3    3  502    0 -0.77398974273E+03  0.26715332833E+03 -0.10933531905E+04  0.13659620133E+04  0.25500000920E-02 0.  1.
       -2    1    3    3    0  502  0.77398974273E+03 -0.26715332833E+03  0.30761274440E+03  0.87467515297E+03  0.25500000920E-02 0. -1.
</event>
<event>
 5   0  0.1646510E-06  0.2099114E+04  0.7818609E-02  0.8561634E-01
        1   -1    0    0  501    0  0.00000000000E+00  0.00000000000E+00  0.11124987780E+04  0.11124987780E+04  0.50400001928E-02 0. -1.
       -1   -1    0    0    0  501  0.00000000000E+00  0.00000000000E+00 -0.99017582034E+03  0.99017582035E+03  0.50400001928E-02 0.  1.
    10030    2    1    2    0    0  0.00000000000E+00  0.00000000000E+00  0.12232295769E+03  0.21026745984E+04  0.20991135178E+04 0.  0.
        4    1    3    3  502    0  0.76349694217E+03  0.17828659343E+03  0.76009448986E+03  0.10919976816E+04  0.12699999809E+01 0. -1.
       -4    1    3    3    0  502 -0.76349694217E+03 -0.17828659343E+03 -0.63777153217E+03  0.10106769168E+04  0.12699999809E+01 0.  1.
</event>
<event>
 5   0  0.3547583E-06  0.2101777E+04  0.7818609E-02  0.8560461E-01
       -2   -1    0    0    0  501  0.00000000000E+00  0.00000000000E+00  0.62427419130E+03  0.62427419131E+03  0.25500000920E-02 0.  1.
        2   -1    0    0  501    0  0.00000000000E+00  0.00000000000E+00 -0.17690409754E+04  0.17690409754E+04  0.25500000920E-02 0. -1.
    10030    2    1    2    0    0  0.00000000000E+00  0.00000000000E+00 -0.11447667841E+04  0.23933151667E+04  0.21017769856E+04 0.  0.
        2    1    3    3  502    0 -0.96897323971E+03 -0.40012280147E+03 -0.65574467885E+03  0.12365308243E+04  0.25500000920E-02 0.  1.
       -2    1    3    3    0  502  0.96897323971E+03  0.40012280147E+03 -0.48902210527E+03  0.11567843425E+04  0.25500000920E-02 0. -1.
</event>
<event>
 5   0  0.3574927E-06  0.2099753E+04  0.7818609E-02  0.8561352E-01
        2   -1    0    0  501    0  0.00000000000E+00  0.00000000000E+00  0.17112588191E+04  0.17112588191E+04  0.25500000920E-02 0. -1.
       -2   -1    0    0    0  501  0.00000000000E+00  0.00000000000E+00 -0.64411100638E+03  0.64411100639E+03  0.25500000920E-02 0.  1.
    10030    2    1    2    0    0  0.00000000000E+00  0.00000000000E+00  0.10671478127E+04  0.23553698255E+04  0.20997529761E+04 0.  0.
        3    1    3    3  502    0  0.30351253560E+03  0.53620153901E+03  0.14871217505E+04  0.16097089988E+04  0.10100000352E+00 0. -1.
       -3    1    3    3    0  502 -0.30351253560E+03 -0.53620153901E+03 -0.41997393786E+03  0.74566082664E+03  0.10100000352E+00 0.  1.
</event>
<event>
 5   0  0.1615098E-06  0.2099697E+04  0.7818609E-02  0.8561377E-01
       -1   -1    0    0    0  501  0.00000000000E+00  0.00000000000E+00  0.10409612103E+04  0.10409612103E+04  0.50400001928E-02 0. -1.
        1   -1    0    0  501    0  0.00000000000E+00  0.00000000000E+00 -0.10588116925E+04  0.10588116926E+04  0.50400001928E-02 0.  1.
    10030    2    1    2    0    0  0.00000000000E+00  0.00000000000E+00 -0.17850482286E+02  0.20997729028E+04  0.20996970267E+04 0.  0.
        1    1    3    3  502    0 -0.28349663255E+03  0.14806979680E+03 -0.10089048220E+04  0.10583874268E+04  0.50400001928E-02 0.  1.
       -1    1    3    3    0  502  0.28349663255E+03 -0.14806979680E+03  0.99105433970E+03  0.10413854760E+04  0.50400001928E-02 0. -1.
</event>
<event>
 5   0  0.3705828E-06  0.2099577E+04  0.7818609E-02  0.8561430E-01
       -2   -1    0    0    0  501  0.00000000000E+00  0.00000000000E+00  0.48785205049E+03  0.48785205049E+03  0.25500000920E-02 0.  1.
        2   -1    0    0  501    0  0.00000000000E+00  0.00000000000E+00 -0.22589962074E+04  0.22589962074E+04  0.25500000920E-02 0. -1.
    10030    2    1    2    0    0  0.00000000000E+00  0.00000000000E+00 -0.17711441569E+04  0.27468482579E+04  0.20995770353E+04 0.  0.
        5    1    3    3  502    0  0.71372056325E+03  0.68827275807E+03 -0.13367268714E+04  0.16643248633E+04  0.46999998093E+01 0. -1.
       -5    1    3    3    0  502 -0.71372056325E+03 -0.68827275807E+03 -0.43441728555E+03  0.10825233946E+04  0.46999998093E+01 0.  1.
</event>
<event>
 5   0  0.1646510E-06  0.2101934E+04  0.7818609E-02  0.8560392E-01
        1   -1    0    0  501    0  0.00000000000E+00  0.00000000000E+00  0.13238999431E+04  0.13238999431E+04  0.50400001928E-02 0. -1.
       -1   -1    0    0    0  501  0.00000000000E+00  0.00000000000E+00 -0.83430113901E+03  0.83430113903E+03  0.50400001928E-02 0.  1.
    10030    2    1    2    0    0  0.00000000000E+00  0.00000000000E+00  0.48959880404E+03  0.21582010821E+04  0.21019336150E+04 0.  0.
        4    1    3    3  502    0  0.36294107310E+03 -0.18913904583E+03  0.12387152500E+04  0.13045753657E+04  0.12699999809E+01 0. -1.
       -4    1    3    3    0  502 -0.36294107310E+03  0.18913904583E+03 -0.74911644597E+03  0.85362571642E+03  0.12699999809E+01 0.  1.
</event>
<event>
 5   0  0.1590067E-06  0.2099271E+04  0.7818609E-02  0.8561564E-01
       -1   -1    0    0    0  501  0.00000000000E+00  0.00000000000E+00  0.19251255819E+04  0.19251255819E+04  0.50400001928E-02 0.  1.
        1   -1    0    0  501    0  0.00000000000E+00  0.00000000000E+00 -0.57229255378E+03  0.57229255381E+03  0.50400001928E-02 0. -1.
    10030    2    1    2    0    0  0.00000000000E+00  0.00000000000E+00  0.13528330281E+04  0.24974181357E+04  0.20992713361E+04 0.  0.
        5    1    3    3  502    0 -0.25078010285E+03  0.23601830284E+03 -0.50315813700E+03  0.60974215869E+03  0.46999998093E+01 0. -1.
       -5    1    3    3    0  502  0.25078010285E+03 -0.23601830284E+03  0.18559911651E+04  0.18876759770E+04  0.46999998093E+01 0.  1.
</event>
<event>
 5   0  0.3547583E-06  0.2100138E+04  0.7818609E-02  0.8561183E-01
       -2   -1    0    0    0  501  0.00000000000E+00  0.00000000000E+00  0.64618254059E+03  0.64618254060E+03  0.25500000920E-02 0. -1.
        2   -1    0    0  501    0  0.00000000000E+00  0.00000000000E+00 -0.17063982661E+04  0.17063982661E+04  0.25500000920E-02 0.  1.
    10030    2    1    2    0    0  0.00000000000E+00  0.00000000000E+00 -0.10602157255E+04  0.23525808067E+04  0.21001378687E+04 0.  0.
        2    1    3    3  502    0  0.42157751360E+02  0.48806151718E+03  0.51033309831E+03  0.70740454607E+03  0.25500000920E-02 0. -1.
       -2    1    3    3    0  502 -0.42157751360E+02 -0.48806151718E+03 -0.15705488239E+04  0.16451762607E+04  0.25500000920E-02 0.  1.
</event>
<event>
 5   0  0.1615098E-06  0.2099429E+04  0.7818609E-02  0.8561495E-01
       -1   -1    0    0    0  501  0.00000000000E+00  0.00000000000E+00  0.10552932775E+04  0.10552932775E+04  0.50400001928E-02 0. -1.
        1   -1    0    0  501    0  0.00000000000E+00  0.00000000000E+00 -0.10441654711E+04  0.10441654712E+04  0.50400001928E-02 0.  1.
    10030    2    1    2    0    0  0.00000000000E+00  0.00000000000E+00  0.11127806311E+02  0.20994587486E+04  0.20994292579E+04 0.  0.
        1    1    3    3  502    0  0.20638425440E+03 -0.48858354153E+03 -0.90031441021E+03  0.10449279280E+04  0.50400001928E-02 0.  1.
       -1    1    3    3    0  502 -0.20638425440E+03  0.48858354153E+03  0.91144221652E+03  0.10545308206E+04  0.50400001928E-02 0. -1.
</event>
<event>
 5   0  0.1579820E-06  0.2100402E+04  0.7818609E-02  0.8561066E-01
        1   -1    0    0  501    0  0.00000000000E+00  0.00000000000E+00  0.12365378653E+04  0.12365378654E+04  0.50400001928E-02 0.  1.
       -1   -1    0    0    0  501  0.00000000000E+00  0.00000000000E+00 -0.89194333979E+03  0.89194333980E+03  0.50400001928E-02 0. -1.
    10030    2    1    2    0    0  0.00000000000E+00  0.00000000000E+00  0.34459452555E+03  0.21284812052E+04  0.21004015934E+04 0.  0.
        2    1    3    3  502    0 -0.25463204040E+03  0.36768454847E+03 -0.79061220667E+03  0.90834853692E+03  0.25500000920E-02 0. -1.
       -2    1    3    3    0  502  0.25463204040E+03 -0.36768454847E+03  0.11352067322E+04  0.12201326682E+04  0.25500000920E-02 0.  1.
</event>
<event>
 5   0  0.3705828E-06  0.2100005E+04  0.7818609E-02  0.8561241E-01
       -2   -1    0    0    0  501  0.00000000000E+00  0.00000000000E+00  0.55561724256E+03  0.55561724257E+03  0.25500000920E-02 0.  1.
        2   -1    0    0  501    0  0.00000000000E+00  0.00000000000E+00 -0.19842897378E+04  0.19842897378E+04  0.25500000920E-02 0. -1.
    10030    2    1    2    0    0  0.00000000000E+00  0.00000000000E+00 -0.14286724952E+04  0.25399069804E+04  0.21000053263E+04 0.  0.
        5    1    3    3  502    0  0.60959869359E+03 -0.72773746387E+03 -0.12569466883E+04  0.15751664835E+04  0.46999998093E+01 0. -1.
       -5    1    3    3    0  502 -0.60959869359E+03  0.72773746387E+03 -0.17172580696E+03  0.96474049688E+03  0.46999998093E+01 0.  1.
</event>
<event>
 5   0  0.3636435E-06  0.2099952E+04  0.7818609E-02  0.8561265E-01
       -2   -1    0    0    0  501  0.00000000000E+00  0.00000000000E+00  0.65895107463E+03  0.65895107464E+03  0.25500000920E-02 0.  1.
        2   -1    0    0  501    0  0.00000000000E+00  0.00000000000E+00 -0.16730366849E+04  0.16730366849E+04  0.25500000920E-02 0. -1.
    10030    2    1    2    0    0  0.00000000000E+00  0.00000000000E+00 -0.10140856103E+04  0.23319877595E+04  0.20999517341E+04 0.  0.
        4    1    3    3  502    0 -0.65608734760E+03 -0.50156632396E+03 -0.12270932725E+04  0.14791142272E+04  0.12699999809E+01 0. -1.
       -4    1    3    3    0  502  0.65608734760E+03  0.50156632396E+03  0.21300766221E+03  0.85287353228E+03  0.12699999809E+01 0.  1.
</event>
<event>
 5   0  0.1579820E-06  0.2096462E+04  0.7818609E-02  0.8562803E-01
       -1   -1    0    0    0  501  0.00000000000E+00  0.00000000000E+00  0.11375102111E+04  0.11375102111E+04  0.50400001928E-02 0. -1.
        1   -1    0    0  501    0  0.00000000000E+00  0.00000000000E+00 -0.96595937014E+03  0.96595937015E+03  0.50400001928E-02 0.  1.
    10030    2    1    2    0    0  0.00000000000E+00  0.00000000000E+00  0.17155084095E+03  0.21034695813E+04  0.20964623985E+04 0.  0.
        2    1    3    3  502    0 -0.17693690299E+03  0.23424866615E+03  0.10954238318E+04  0.11340778088E+04  0.25500000920E-02 0. -1.
       -2    1    3    3    0  502  0.17693690299E+03 -0.23424866615E+03 -0.92387299084E+03  0.96939177242E+03  0.25500000920E-02 0.  1.
</event>
<event>
 5   0  0.1653260E-06  0.2099242E+04  0.7818609E-02  0.8561577E-01
       -1   -1    0    0    0  501  0.00000000000E+00  0.00000000000E+00  0.10930296756E+04  0.10930296756E+04  0.50400001928E-02 0. -1.
        1   -1    0    0  501    0  0.00000000000E+00  0.00000000000E+00 -0.10079363777E+04  0.10079363777E+04  0.50400001928E-02 0.  1.
    10030    2    1    2    0    0  0.00000000000E+00  0.00000000000E+00  0.85093297961E+02  0.21009660533E+04  0.20992421223E+04 0.  0.
        3    1    3    3  502    0 -0.53690394281E+03  0.60279995412E+03  0.71397069332E+03  0.10776770340E+04  0.10100000352E+00 0. -1.
       -3    1    3    3    0  502  0.53690394281E+03 -0.60279995412E+03 -0.62887739536E+03  0.10232890193E+04  0.10100000352E+00 0.  1.
</event>
<event>
 5   0  0.1579820E-06  0.2100732E+04  0.7818609E-02  0.8560921E-01
       -1   -1    0    0    0  501  0.00000000000E+00  0.00000000000E+00  0.52169550467E+03  0.52169550469E+03  0.50400001928E-02 0.  1.
        1   -1    0    0  501    0  0.00000000000E+00  0.00000000000E+00 -0.21147757971E+04  0.21147757971E+04  0.50400001928E-02 0. -1.
    10030    2    1    2    0    0  0.00000000000E+00  0.00000000000E+00 -0.15930802924E+04  0.26364713018E+04  0.21007322788E+04 0.  0.
        2    1    3    3  502    0  0.36603246265E+03  0.98378949324E+03 -0.84428878888E+03  0.13470876325E+04  0.25500000920E-02 0.  1.
       -2    1    3    3    0  502 -0.36603246265E+03 -0.98378949324E+03 -0.74879150356E+03  0.12893836693E+04  0.25500000920E-02 0. -1.
</event>
<event>
 5   0  0.3574927E-06  0.2099399E+04  0.7818609E-02  0.8561508E-01
       -2   -1    0    0    0  501  0.00000000000E+00  0.00000000000E+00  0.82432276771E+03  0.82432276771E+03  0.25500000920E-02 0. -1.
        2   -1    0    0  501    0  0.00000000000E+00  0.00000000000E+00 -0.13366966080E+04  0.13366966080E+04  0.25500000920E-02 0.  1.
    10030    2    1    2    0    0  0.00000000000E+00  0.00000000000E+00 -0.51237384027E+03  0.21610193757E+04  0.20993993879E+04 0.  0.
        3    1    3    3  502    0  0.15133624490E+03 -0.48701137728E+03 -0.12006057197E+04  0.13044297011E+04  0.10100000352E+00 0.  1.
       -3    1    3    3    0  502 -0.15133624490E+03  0.48701137728E+03  0.68823187943E+03  0.85658967463E+03  0.10100000352E+00 0. -1.
</event>
<event>
 5   0  0.1590067E-06  0.2103046E+04  0.7818609E-02  0.8559903E-01
       -1   -1    0    0    0  501  0.00000000000E+00  0.00000000000E+00  0.66300140950E+03  0.66300140952E+03  0.50400001928E-02 0. -1.
        1   -1    0    0  501    0  0.00000000000E+00  0.00000000000E+00 -0.16677199001E+04  0.16677199001E+04  0.50400001928E-02 0.  1.
    10030    2    1    2    0    0  0.00000000000E+00  0.00000000000E+00 -0.10047184906E+04  0.23307213096E+04  0.21030460237E+04 0.  0.
        5    1    3    3  502    0 -0.63000334232E+03 -0.82751393748E+03 -0.67403232004E+03  0.12393648319E+04  0.46999998093E+01 0.  1.
       -5    1    3    3    0  502  0.63000334232E+03  0.82751393748E+03 -0.33068617053E+03  0.10913564777E+04  0.46999998093E+01 0. -1.
</event>
<event>
 5   0  0.1646510E-06  0.2100143E+04  0.7818609E-02  0.8561180E-01
       -1   -1    0    0    0  501  0.00000000000E+00  0.00000000000E+00  0.16698378616E+04  0.16698378616E+04  0.50400001928E-02 0. -1.
        1   -1    0    0  501    0  0.00000000000E+00  0.00000000000E+00 -0.66033375193E+03  0.66033375195E+03  0.50400001928E-02 0.  1.
    10030    2    1    2    0    0  0.00000000000E+00  0.00000000000E+00  0.10095041096E+04  0.23301716135E+04  0.21001431382E+04 0.  0.
        4    1    3    3  502    0 -0.40306327369E+03  0.85367311822E+02 -0.56690743917E+03  0.70080898825E+03  0.12699999809E+01 0.  1.
       -4    1    3    3    0  502  0.40306327369E+03 -0.85367311822E+02  0.15764115488E+04  0.16293626253E+04  0.12699999809E+01 0. -1.
</event>
<event>
 5   0  0.1653260E-06  0.2098975E+04  0.7818609E-02  0.8561695E-01
       -1   -1    0    0    0  501  0.00000000000E+00  0.00000000000E+00  0.12727281236E+04  0.12727281236E+04  0.50400001928E-02 0.  1.
        1   -1    0    0  501    0  0.00000000000E+00  0.00000000000E+00 -0.86540390882E+03  0.86540390884E+03  0.50400001928E-02 0. -1.
    10030    2    1    2    0    0  0.00000000000E+00  0.00000000000E+00  0.40732421481E+03  0.21381320325E+04  0.20989748861E+04 0.  0.
        3    1    3    3  502    0  0.42858990804E+03 -0.64622666218E+03  0.92405074253E+03  0.12063034416E+04  0.10100000352E+00 0.  1.
       -3    1    3    3    0  502 -0.42858990804E+03  0.64622666218E+03 -0.51672652771E+03  0.93182859091E+03  0.10100000352E+00 0. -1.
</event>
<event>
 5   0  0.3480134E-06  0.2100033E+04  0.7818609E-02  0.8561229E-01
       -2   -1    0    0    0  501  0.00000000000E+00  0.00000000000E+00  0.53777745538E+03  0.53777745538E+03  0.25500000920E-02 0.  1.
        2   -1    0    0  501    0  0.00000000000E+00  0.00000000000E+00 -0.20501685357E+04  0.20501685357E+04  0.25500000920E-02 0. -1.
    10030    2    1    2    0    0  0.00000000000E+00  0.00000000000E+00 -0.15123910804E+04  0.25879459911E+04  0.21000327790E+04 0.  0.
        1    1    3    3  502    0 -0.34351039959E+03 -0.42741867184E+03  0.34731184017E+03  0.64908522554E+03  0.50400001928E-02 0.  1.
       -1    1    3    3    0  502  0.34351039959E+03  0.42741867184E+03 -0.18597029205E+04  0.19388607656E+04  0.50400001928E-02 0. -1.
</event>
<event>
 5   0  0.1615098E-06  0.2100863E+04  0.7818609E-02  0.8560863E-01
        1   -1    0    0  501    0  0.00000000000E+00  0.00000000000E+00  0.16859315374E+04  0.16859315374E+04  0.50400001928E-02 0. -1.
       -1   -1    0    0    0  501  0.00000000000E+00  0.00000000000E+00 -0.65447876190E+03  0.65447876192E+03  0.50400001928E-02 0.  1.
    10030    2    1    2    0    0  0.00000000000E+00  0.00000000000E+00  0.10314527755E+04  0.23404102993E+04  0.21008630467E+04 0.  0.
        1    1    3    3  502    0  0.63914239840E+03  0.73667773863E+03  0.81101253827E+02  0.97865954725E+03  0.50400001928E-02 0.  1.
       -1    1    3    3    0  502 -0.63914239840E+03 -0.73667773863E+03  0.95035152166E+03  0.13617507521E+04  0.50400001928E-02 0. -1.
</event>
<event>
 5   0  0.3574927E-06  0.2100607E+04  0.7818609E-02  0.8560976E-01
        2   -1    0    0  501    0  0.00000000000E+00  0.00000000000E+00  0.22649416300E+04  0.22649416300E+04  0.25500000920E-02 0. -1.
       -2   -1    0    0    0  501  0.00000000000E+00  0.00000000000E+00 -0.48704899976E+03  0.48704899977E+03  0.25500000920E-02 0.  1.
    10030    2    1    2    0    0  0.00000000000E+00  0.00000000000E+00  0.17778926303E+04  0.27519906298E+04  0.21006071079E+04 0.  0.
        3    1    3    3  502    0  0.17325301182E+03  0.84780721616E+03  0.16688026029E+04  0.18798127087E+04  0.10100000352E+00 0. -1.
       -3    1    3    3    0  502 -0.17325301182E+03 -0.84780721616E+03  0.10909002734E+03  0.87217792115E+03  0.10100000352E+00 0.  1.
</event>
<event>
 5   0  0.3574927E-06  0.2099966E+04  0.7818609E-02  0.8561258E-01
        2   -1    0    0  501    0  0.00000000000E+00  0.00000000000E+00  0.10980224796E+04  0.10980224796E+04  0.25500000920E-02 0.  1.
       -2   -1    0    0    0  501  0.00000000000E+00  0.00000000000E+00 -0.10040455456E+04  0.10040455456E+04  0.25500000920E-02 0. -1.
    10030    2    1    2    0    0  0.00000000000E+00  0.00000000000E+00  0.93976934087E+02  0.21020680252E+04  0.20999662660E+04 0.  0.
        3    1    3    3  502    0 -0.98231599220E+03 -0.81464475794E+02  0.40912866291E+03  0.10672241762E+04  0.10100000352E+00 0. -1.
       -3    1    3    3    0  502  0.98231599220E+03  0.81464475794E+02 -0.31515172883E+03  0.10348438490E+04  0.10100000352E+00 0.  1.
</event>
<event>
 5   0  0.3636435E-06  0.2099567E+04  0.7818609E-02  0.8561434E-01
        2   -1    0    0  501    0  0.00000000000E+00  0.00000000000E+00  0.14896079047E+04  0.14896079047E+04  0.25500000920E-02 0. -1.
       -2   -1    0    0    0  501  0.00000000000E+00  0.00000000000E+00 -0.73982275829E+03  0.73982275830E+03  0.25500000920E-02 0.  1.
    10030    2    1    2    0    0  0.00000000000E+00  0.00000000000E+00  0.74978514644E+03  0.22294306630E+04  0.20995674115E+04 0.  0.
        4    1    3    3  502    0 -0.45144731726E+03 -0.25943145575E+03  0.13428307853E+04  0.14402449414E+04  0.12699999809E+01 0. -1.
       -4    1    3    3    0  502  0.45144731726E+03  0.25943145575E+03 -0.59304563886E+03  0.78918572159E+03  0.12699999809E+01 0.  1.
</event>
<event>
 5   0  0.1653260E-06  0.2098800E+04  0.7818609E-02  0.8561772E-01
        1   -1    0    0  501    0  0.00000000000E+00  0.00000000000E+00  0.16833959217E+04  0.16833959218E+04  0.50400001928E-02 0.  1.
       -1   -1    0    0    0  501  0.00000000000E+00  0.00000000000E+00 -0.65417770069E+03  0.65417770071E+03  0.50400001928E-02 0. -1.
    10030    2    1    2    0    0  0.00000000000E+00  0.00000000000E+00  0.10292182211E+04  0.23375736225E+04  0.20987997270E+04 0.  0.
        3    1    3    3  502    0 -0.64521717481E+03 -0.79841796161E+03  0.75725599773E+03  0.12756226324E+04  0.10100000352E+00 0. -1.
       -3    1    3    3    0  502  0.64521717481E+03  0.79841796161E+03  0.27196222332E+03  0.10619509900E+04  0.10100000352E+00 0.  1.
</event>
<event>
 5   0  0.3636435E-06  0.2100881E+04  0.7818609E-02  0.8560855E-01
        2   -1    0    0  501    0  0.00000000000E+00  0.00000000000E+00  0.14812157640E+04  0.14812157640E+04  0.25500000920E-02 0. -1.
       -2   -1    0    0    0  501  0.00000000000E+00  0.00000000000E+00 -0.74494581816E+03  0.74494581816E+03  0.25500000920E-02 0.  1.
    10030    2    1    2    0    0  0.00000000000E+00  0.00000000000E+00  0.73626994580E+03  0.22261615821E+04  0.21008812333E+04 0.  0.
        4    1    3    3  502    0  0.34971257447E+03 -0.41052810517E+02 -0.68054753620E+03  0.76624459537E+03  0.12699999809E+01 0. -1.
       -4    1    3    3    0  502 -0.34971257447E+03  0.41052810517E+02  0.14168174820E+04  0.14599169868E+04  0.12699999809E+01 0.  1.
</event>
<event>
 5   0  0.1590067E-06  0.2099995E+04  0.7818609E-02  0.8561246E-01
       -1   -1    0    0    0  501  0.00000000000E+00  0.00000000000E+00  0.57472210341E+03  0.57472210343E+03  0.50400001928E-02 0. -1.
        1   -1    0    0  501    0  0.00000000000E+00  0.00000000000E+00 -0.19183084580E+04  0.19183084580E+04  0.50400001928E-02 0.  1.
    10030    2    1    2    0    0  0.00000000000E+00  0.00000000000E+00 -0.13435863546E+04  0.24930305614E+04  0.20999945447E+04 0.  0.
        5    1    3    3  502    0 -0.91887955052E+03 -0.48131126559E+02 -0.12722381928E+04  0.15701173023E+04  0.46999998093E+01 0. -1.
       -5    1    3    3    0  502  0.91887955052E+03  0.48131126559E+02 -0.71348161792E+02  0.92291325914E+03  0.46999998093E+01 0.  1.
</event>
<event>
 5   0  0.3480134E-06  0.2099682E+04  0.7818609E-02  0.8561383E-01
        2   -1    0    0  501    0  0.00000000000E+00  0.00000000000E+00  0.15598065907E+04  0.15598065907E+04  0.25500000920E-02 0. -1.
       -2   -1    0    0    0  501  0.00000000000E+00  0.00000000000E+00 -0.70660463632E+03  0.70660463633E+03  0.25500000920E-02 0.  1.
    10030    2    1    2    0    0  0.00000000000E+00  0.00000000000E+00  0.85320195436E+03  0.22664112270E+04  0.20996824224E+04 0.  0.
        1    1    3    3  502    0 -0.52484920170E+03 -0.75009594734E+03 -0.12806698625E+03  0.92439805697E+03  0.50400001928E-02 0.  1.
       -1    1    3    3    0  502  0.52484920170E+03  0.75009594734E+03  0.98126894061E+03  0.13420131700E+04  0.50400001928E-02 0. -1.
</event>
<event>
 5   0  0.1579820E-06  0.2097504E+04  0.7818609E-02  0.8562343E-01
       -1   -1    0    0    0  501  0.00000000000E+00  0.00000000000E+00  0.68610951446E+03  0.68610951448E+03  0.50400001928E-02 0.  1.
        1   -1    0    0  501    0  0.00000000000E+00  0.00000000000E+00 -0.16030695500E+04  0.16030695500E+04  0.50400001928E-02 0. -1.
    10030    2    1    2    0    0  0.00000000000E+00  0.00000000000E+00 -0.91696003550E+03  0.22891790644E+04  0.20975044892E+04 0.  0.
        2    1    3    3  502    0 -0.87418319531E+03 -0.28774163866E+03  0.90355854564E+02  0.92474628414E+03  0.25500000920E-02 0.  1.
       -2    1    3    3    0  502  0.87418319531E+03  0.28774163866E+03 -0.10073158901E+04  0.13644327803E+04  0.25500000920E-02 0. -1.
</event>
<event>
 5   0  0.3705828E-06  0.2100461E+04  0.7818609E-02  0.8561040E-01
        2   -1    0    0  501    0  0.00000000000E+00  0.00000000000E+00  0.82857149042E+03  0.82857149042E+03  0.25500000920E-02 0.  1.
       -2   -1    0    0    0  501  0.00000000000E+00  0.00000000000E+00 -0.13311877794E+04  0.13311877794E+04  0.25500000920E-02 0. -1.
    10030    2    1    2    0    0  0.00000000000E+00  0.00000000000E+00 -0.50261628895E+03  0.21597592698E+04  0.21004611326E+04 0.  0.
        5    1    3    3  502    0 -0.99041402558E+03 -0.17613805259E+03  0.58900130808E+02  0.10076883799E+04  0.46999998093E+01 0.  1.
       -5    1    3    3    0  502  0.99041402558E+03  0.17613805259E+03 -0.56151641976E+03  0.11520708899E+04  0.46999998093E+01 0. -1.
</event>
<event>
 5   0  0.1653260E-06  0.2100337E+04  0.7818609E-02  0.8561095E-01
        1   -1    0    0  501    0  0.00000000000E+00  0.00000000000E+00  0.87144031118E+03  0.87144031119E+03  0.50400001928E-02 0.  1.
       -1   -1    0    0    0  501  0.00000000000E+00  0.00000000000E+00 -0.12655534944E+04  0.12655534944E+04  0.50400001928E-02 0. -1.
    10030    2    1    2    0    0  0.00000000000E+00  0.00000000000E+00 -0.39411318320E+03  0.21369938056E+04  0.21003374310E+04 0.  0.
        3    1    3    3  502    0 -0.75739735600E+03 -0.24798872996E+02 -0.93678633250E+03  0.12049209028E+04  0.10100000352E+00 0. -1.
       -3    1    3    3    0  502  0.75739735600E+03  0.24798872996E+02  0.54267314930E+03  0.93207290281E+03  0.10100000352E+00 0.  1.
</event>
<event>
 5   0  0.1653260E-06  0.2100530E+04  0.7818609E-02  0.8561010E-01
       -1   -1    0    0    0  501  0.00000000000E+00  0.00000000000E+00  0.62093564296E+03  0.62093564298E+03  0.50400001928E-02 0.  1.
        1   -1    0    0  501    0  0.00000000000E+00  0.00000000000E+00 -0.17764435004E+04  0.17764435004E+04  0.50400001928E-02 0. -1.
    10030    2    1    2    0    0  0.00000000000E+00  0.00000000000E+00 -0.11555078575E+04  0.23973791434E+04  0.21005304922E+04 0.  0.
        3    1    3    3  502    0  0.58757200718E+03  0.83880190464E+03 -0.84353119909E+03  0.13267910133E+04  0.10100000352E+00 0. -1.
       -3    1    3    3    0  502 -0.58757200718E+03 -0.83880190464E+03 -0.31197665839E+03  0.10705881302E+04  0.10100000352E+00 0.  1.
</event>
<event>
 5   0  0.1257125E-06  0.2094470E+04  0.7818609E-02  0.8563683E-01
       -3   -1    0    0    0  501  0.00000000000E+00  0.00000000000E+00  0.17319554275E+04  0.17319554304E+04  0.10100000352E+00 0.  1.
        3   -1    0    0  501    0  0.00000000000E+00  0.00000000000E+00 -0.63321561122E+03  0.63321561927E+03  0.10100000352E+00 0. -1.
    10030    2    1    2    0    0  0.00000000000E+00  0.00000000000E+00  0.10987398163E+04  0.23651710497E+04  0.20944700787E+04 0.  0.
        1    1    3    3  502    0 -0.54492740566E+03  0.66952365695E+02  0.15564092551E+04  0.16504054854E+04  0.50400001928E-02 0.  1.
       -1    1    3    3    0  502  0.54492740566E+03 -0.66952365695E+02 -0.45766943883E+03  0.71476556435E+03  0.50400001928E-02 0. -1.
</event>
<event>
 5   0  0.1653260E-06  0.2100399E+04  0.7818609E-02  0.8561068E-01
        1   -1    0    0  501    0  0.00000000000E+00  0.00000000000E+00  0.12754602474E+04  0.12754602474E+04  0.50400001928E-02 0.  1.
       -1   -1    0    0    0  501  0.00000000000E+00  0.00000000000E+00 -0.86472228193E+03  0.86472228195E+03  0.50400001928E-02 0. -1.
    10030    2    1    2    0    0  0.00000000000E+00  0.00000000000E+00  0.41073796545E+03  0.21401825293E+04  0.21003989104E+04 0.  0.
        3    1    3    3  502    0 -0.77377702093E+03  0.48896760422E+03 -0.31926065393E+03  0.96940578265E+03  0.10100000352E+00 0.  1.
       -3    1    3    3    0  502  0.77377702093E+03 -0.48896760422E+03  0.72999861939E+03  0.11707767467E+04  0.10100000352E+00 0. -1.
</event>
<event>
 5   0  0.1579820E-06  0.2101045E+04  0.7818609E-02  0.8560783E-01
        1   -1    0    0  501    0  0.00000000000E+00  0.00000000000E+00  0.52755538762E+03  0.52755538764E+03  0.50400001928E-02 0. -1.
       -1   -1    0    0    0  501  0.00000000000E+00  0.00000000000E+00 -0.20919082132E+04  0.20919082132E+04  0.50400001928E-02 0.  1.
    10030    2    1    2    0    0  0.00000000000E+00  0.00000000000E+00 -0.15643528256E+04  0.26194636008E+04  0.21010449289E+04 0.  0.
        2    1    3    3  502    0 -0.37040049501E+03  0.96357310937E+03 -0.53937245260E+03  0.11647284260E+04  0.25500000920E-02 0. -1.
       -2    1    3    3    0  502  0.37040049501E+03 -0.96357310937E+03 -0.10249803730E+04  0.14547351748E+04  0.25500000920E-02 0.  1.
</event>
<event>
 5   0  0.1590067E-06  0.2100591E+04  0.7818609E-02  0.8560983E-01
       -1   -1    0    0    0  501  0.00000000000E+00  0.00000000000E+00  0.54323980935E+03  0.54323980938E+03  0.50400001928E-02 0.  1.
        1   -1    0    0  501    0  0.00000000000E+00  0.00000000000E+00 -0.20306323190E+04  0.20306323190E+04  0.50400001928E-02 0. -1.
    10030    2    1    2    0    0  0.00000000000E+00  0.00000000000E+00 -0.14873925096E+04  0.25738721284E+04  0.21005906920E+04 0.  0.
        5    1    3    3  502    0  0.10488771891E+04  0.50773733261E+02 -0.76748410234E+03  0.13006826159E+04  0.46999998093E+01 0.  1.
       -5    1    3    3    0  502 -0.10488771891E+04 -0.50773733261E+02 -0.71990840729E+03  0.12731895125E+04  0.46999998093E+01 0. -1.
</event>
<event>
 5   0  0.3705828E-06  0.2100739E+04  0.7818609E-02  0.8560918E-01
       -2   -1    0    0    0  501  0.00000000000E+00  0.00000000000E+00  0.50090248721E+03  0.50090248721E+03  0.25500000920E-02 0. -1.
        2   -1    0    0  501    0  0.00000000000E+00  0.00000000000E+00 -0.22025757549E+04  0.22025757549E+04  0.25500000920E-02 0.  1.
    10030    2    1    2    0    0  0.00000000000E+00  0.00000000000E+00 -0.17016732677E+04  0.27034782421E+04  0.21007386072E+04 0.  0.
        5    1    3    3  502    0 -0.94303771472E+03  0.36343083274E+03 -0.12190199765E+04  0.15834878890E+04  0.46999998093E+01 0.  1.
       -5    1    3    3    0  502  0.94303771472E+03 -0.36343083274E+03 -0.48265329122E+03  0.11199903531E+04  0.46999998093E+01 0. -1.
</event>
<event>
 5   0  0.1590067E-06  0.2100023E+04  0.7818609E-02  0.8561233E-01
       -1   -1    0    0    0  501  0.00000000000E+00  0.00000000000E+00  0.12252082102E+04  0.12252082102E+04  0.50400001928E-02 0.  1.
        1   -1    0    0  501    0  0.00000000000E+00  0.00000000000E+00 -0.89986660200E+03  0.89986660202E+03  0.50400001928E-02 0. -1.
    10030    2    1    2    0    0  0.00000000000E+00  0.00000000000E+00  0.32534160821E+03  0.21250748122E+04  0.21000228083E+04 0.  0.
        5    1    3    3  502    0  0.32057925020E+03 -0.99054237706E+03  0.30051847879E+03  0.10836414086E+04  0.46999998093E+01 0.  1.
       -5    1    3    3    0  502 -0.32057925020E+03  0.99054237706E+03  0.24823129419E+02  0.10414334036E+04  0.46999998093E+01 0. -1.
</event>
<event>
 5   0  0.3480134E-06  0.2100542E+04  0.7818609E-02  0.8561005E-01
       -2   -1    0    0    0  501  0.00000000000E+00  0.00000000000E+00  0.40881113673E+03  0.40881113674E+03  0.25500000920E-02 0. -1.
        2   -1    0    0  501    0  0.00000000000E+00  0.00000000000E+00 -0.26982353978E+04  0.26982353978E+04  0.25500000920E-02 0.  1.
    10030    2    1    2    0    0  0.00000000000E+00  0.00000000000E+00 -0.22894242611E+04  0.31070465346E+04  0.21005415303E+04 0.  0.
        1    1    3    3  502    0 -0.10052450868E+04  0.26587008026E+03 -0.92599527716E+03  0.13923619635E+04  0.50400001928E-02 0.  1.
       -1    1    3    3    0  502  0.10052450868E+04 -0.26587008026E+03 -0.13634289840E+04  0.17146845711E+04  0.50400001928E-02 0. -1.
</event>
<event>
 5   0  0.1615098E-06  0.2099798E+04  0.7818609E-02  0.8561332E-01
        1   -1    0    0  501    0  0.00000000000E+00  0.00000000000E+00  0.12255497721E+04  0.12255497721E+04  0.50400001928E-02 0.  1.
       -1   -1    0    0    0  501  0.00000000000E+00  0.00000000000E+00 -0.89942334626E+03  0.89942334628E+03  0.50400001928E-02 0. -1.
    10030    2    1    2    0    0  0.00000000000E+00  0.00000000000E+00  0.32612642584E+03  0.21249731184E+04  0.20997981589E+04 0.  0.
        1    1    3    3  502    0 -0.68870898013E+03 -0.65312646632E+03 -0.29108643065E+03  0.99278675981E+03  0.50400001928E-02 0. -1.
       -1    1    3    3    0  502  0.68870898013E+03  0.65312646632E+03  0.61721285649E+03  0.11321863586E+04  0.50400001928E-02 0.  1.
</event>
<event>
 5   0  0.3636435E-06  0.2097407E+04  0.7818609E-02  0.8562387E-01
        2   -1    0    0  501    0  0.00000000000E+00  0.00000000000E+00  0.69770006498E+03  0.69770006498E+03  0.25500000920E-02 0. -1.
       -2   -1    0    0    0  501  0.00000000000E+00  0.00000000000E+00 -0.15762915387E+04  0.15762915387E+04  0.25500000920E-02 0.  1.
    10030    2    1    2    0    0  0.00000000000E+00  0.00000000000E+00 -0.87859147368E+03  0.22739916036E+04  0.20974066930E+04 0.  0.
        4    1    3    3  502    0 -0.88741273074E+03 -0.49139083922E+03 -0.15078903220E+03  0.10255268191E+04  0.12699999809E+01 0.  1.
       -4    1    3    3    0  502  0.88741273074E+03  0.49139083922E+03 -0.72780244148E+03  0.12484647846E+04  0.12699999809E+01 0. -1.
</event>
<event>
 5   0  0.3574927E-06  0.2099002E+04  0.7818609E-02  0.8561683E-01
       -2   -1    0    0    0  501  0.00000000000E+00  0.00000000000E+00  0.89114382219E+03  0.89114382220E+03  0.25500000920E-02 0.  1.
        2   -1    0    0  501    0  0.00000000000E+00  0.00000000000E+00 -0.12359987496E+04  0.12359987496E+04  0.25500000920E-02 0. -1.
    10030    2    1    2    0    0  0.00000000000E+00  0.00000000000E+00 -0.34485492738E+03  0.21271425718E+04  0.20990022867E+04 0.  0.
        3    1    3    3  502    0 -0.44922502529E+03  0.37649414810E+03 -0.10546743221E+04  0.12066022140E+04  0.10100000352E+00 0. -1.
       -3    1    3    3    0  502  0.44922502529E+03 -0.37649414810E+03  0.70981939475E+03  0.92054035776E+03  0.10100000352E+00 0.  1.
</event>
<event>
 5   0  0.1653260E-06  0.2099938E+04  0.7818609E-02  0.8561271E-01
       -1   -1    0    0    0  501  0.00000000000E+00  0.00000000000E+00  0.66209636604E+03  0.66209636606E+03  0.50400001928E-02 0. -1.
        1   -1    0    0  501    0  0.00000000000E+00  0.00000000000E+00 -0.16650670256E+04  0.16650670256E+04  0.50400001928E-02 0.  1.
    10030    2    1    2    0    0  0.00000000000E+00  0.00000000000E+00 -0.10029706596E+04  0.23271633917E+04  0.20999379295E+04 0.  0.
        3    1    3    3  502    0 -0.76585533749E+03  0.57858826459E+03 -0.29832057806E+02  0.96030658633E+03  0.10100000352E+00 0. -1.
       -3    1    3    3    0  502  0.76585533749E+03 -0.57858826459E+03 -0.97313860175E+03  0.13668568053E+04  0.10100000352E+00 0.  1.
</event>
<event>
 5   0  0.1590067E-06  0.2100209E+04  0.7818609E-02  0.8561151E-01
       -1   -1    0    0    0  501  0.00000000000E+00  0.00000000000E+00  0.76946146402E+03  0.76946146404E+03  0.50400001928E-02 0. -1.
        1   -1    0    0  501    0  0.00000000000E+00  0.00000000000E+00 -0.14331052085E+04  0.14331052085E+04  0.50400001928E-02 0.  1.
    10030    2    1    2    0    0  0.00000000000E+00  0.00000000000E+00 -0.66364374450E+03  0.22025666726E+04  0.21002087819E+04 0.  0.
        5    1    3    3  502    0 -0.92263940048E+03 -0.49023596554E+03 -0.44232500023E+03  0.11345784508E+04  0.46999998093E+01 0.  1.
       -5    1    3    3    0  502  0.92263940048E+03  0.49023596554E+03 -0.22131874428E+03  0.10679882218E+04  0.46999998093E+01 0. -1.
</event>
<event>
 5   0  0.1257125E-06  0.2099125E+04  0.7818609E-02  0.8561629E-01
        3   -1    0    0  501    0  0.00000000000E+00  0.00000000000E+00  0.65973914742E+03  0.65973915516E+03  0.10100000352E+00 0.  1.
       -3   -1    0    0    0  501  0.00000000000E+00  0.00000000000E+00 -0.16697225568E+04  0.16697225598E+04  0.10100000352E+00 0. -1.
    10030    2    1    2    0    0  0.00000000000E+00  0.00000000000E+00 -0.10099834093E+04  0.23294617150E+04  0.20991249116E+04 0.  0.
        5    1    3    3  502    0  0.12197970216E+03 -0.29021060742E+03  0.60610124172E+03  0.68299491185E+03  0.46999998093E+01 0.  1.
       -5    1    3    3    0  502 -0.12197970216E+03  0.29021060742E+03 -0.16160846510E+04  0.16464668031E+04  0.46999998093E+01 0. -1.
</event>
<event>
 5   0  0.1646510E-06  0.2101392E+04  0.7818609E-02  0.8560630E-01
        1   -1    0    0  501    0  0.00000000000E+00  0.00000000000E+00  0.21953672506E+04  0.21953672506E+04  0.50400001928E-02 0. -1.
       -1   -1    0    0    0  501  0.00000000000E+00  0.00000000000E+00 -0.50286008806E+03  0.50286008808E+03  0.50400001928E-02 0.  1.
    10030    2    1    2    0    0  0.00000000000E+00  0.00000000000E+00  0.16925071625E+04  0.26982273387E+04  0.21013924612E+04 0.  0.
        4    1    3    3  502    0 -0.33482995258E+03  0.91607245876E+03  0.34456343022E+03  0.10344203291E+04  0.12699999809E+01 0.  1.
       -4    1    3    3    0  502  0.33482995258E+03 -0.91607245876E+03  0.13479437323E+04  0.16638070096E+04  0.12699999809E+01 0. -1.
</event>
<event>
 5   0  0.3705828E-06  0.2100796E+04  0.7818609E-02  0.8560893E-01
        2   -1    0    0  501    0  0.00000000000E+00  0.00000000000E+00  0.54797027211E+03  0.54797027212E+03  0.25500000920E-02 0. -1.
       -2   -1    0    0    0  501  0.00000000000E+00  0.00000000000E+00 -0.20134959607E+04  0.20134959607E+04  0.25500000920E-02 0.  1.
    10030    2    1    2    0    0  0.00000000000E+00  0.00000000000E+00 -0.14655256885E+04  0.25614662328E+04  0.21007959725E+04 0.  0.
        5    1    3    3  502    0 -0.35191652391E+03 -0.19179001625E+03 -0.19165894626E+04  0.19580515591E+04  0.46999998093E+01 0.  1.
       -5    1    3    3    0  502  0.35191652391E+03  0.19179001625E+03  0.45106377404E+03  0.60341467365E+03  0.46999998093E+01 0. -1.
</event>
<event>
 5   0  0.3547583E-06  0.2100325E+04  0.7818609E-02  0.8561100E-01
       -2   -1    0    0    0  501  0.00000000000E+00  0.00000000000E+00  0.95455703943E+03  0.95455703943E+03  0.25500000920E-02 0.  1.
        2   -1    0    0  501    0  0.00000000000E+00  0.00000000000E+00 -0.11553435638E+04  0.11553435638E+04  0.25500000920E-02 0. -1.
    10030    2    1    2    0    0  0.00000000000E+00  0.00000000000E+00 -0.20078652436E+03  0.21099006032E+04  0.21003250527E+04 0.  0.
        2    1    3    3  502    0 -0.53784574143E+03 -0.37708468368E+03  0.72271429426E+03  0.97662011621E+03  0.25500000920E-02 0.  1.
       -2    1    3    3    0  502  0.53784574143E+03  0.37708468368E+03 -0.92350081862E+03  0.11332804870E+04  0.25500000920E-02 0. -1.
</event>
<event>
 5   0  0.3574927E-06  0.2099467E+04  0.7818609E-02  0.8561478E-01
        2   -1    0    0  501    0  0.00000000000E+00  0.00000000000E+00  0.18744750060E+04  0.18744750060E+04  0.25500000920E-02 0.  1.
       -2   -1    0    0    0  501  0.00000000000E+00  0.00000000000E+00 -0.58786622839E+03  0.58786622840E+03  0.25500000920E-02 0. -1.
    10030    2    1    2    0    0  0.00000000000E+00  0.00000000000E+00  0.12866087776E+04  0.24623412344E+04  0.20994671248E+04 0.  0.
        3    1    3    3  502    0  0.53103526354E+03  0.58384869754E+02  0.17031097429E+04  0.17849341866E+04  0.10100000352E+00 0.  1.
       -3    1    3    3    0  502 -0.53103526354E+03 -0.58384869754E+02 -0.41650096524E+03  0.67740704779E+03  0.10100000352E+00 0. -1.
</event>
<event>
 5   0  0.3547583E-06  0.2102495E+04  0.7818609E-02  0.8560145E-01
       -2   -1    0    0    0  501  0.00000000000E+00  0.00000000000E+00  0.46181249002E+03  0.46181249002E+03  0.25500000920E-02 0.  1.
        2   -1    0    0  501    0  0.00000000000E+00  0.00000000000E+00 -0.23930091328E+04  0.23930091328E+04  0.25500000920E-02 0. -1.
    10030    2    1    2    0    0  0.00000000000E+00  0.00000000000E+00 -0.19311966428E+04  0.28548216228E+04  0.21024951902E+04 0.  0.
        2    1    3    3  502    0  0.99266291712E+02  0.32112420561E+02 -0.23859620246E+04  0.23882419867E+04  0.25500000920E-02 0. -1.
       -2    1    3    3    0  502 -0.99266291712E+02 -0.32112420561E+02  0.45476538188E+03  0.46657963606E+03  0.25500000920E-02 0.  1.
</event>
<event>
 5   0  0.3574927E-06  0.2100298E+04  0.7818609E-02  0.8561112E-01
        2   -1    0    0  501    0  0.00000000000E+00  0.00000000000E+00  0.16732534432E+04  0.16732534432E+04  0.25500000920E-02 0. -1.
       -2   -1    0    0    0  501  0.00000000000E+00  0.00000000000E+00 -0.65908291908E+03  0.65908291908E+03  0.25500000920E-02 0.  1.
    10030    2    1    2    0    0  0.00000000000E+00  0.00000000000E+00  0.10141705241E+04  0.23323363623E+04  0.21002978491E+04 0.  0.
        3    1    3    3  502    0 -0.99626107473E+02 -0.10297022912E+04  0.70758923558E+03  0.12533533844E+04  0.10100000352E+00 0. -1.
       -3    1    3    3    0  502  0.99626107473E+02  0.10297022912E+04  0.30658128853E+03  0.10789829778E+04  0.10100000352E+00 0.  1.
</event>
<event>
 5   0  0.3705828E-06  0.2102731E+04  0.7818609E-02  0.8560041E-01
        2   -1    0    0  501    0  0.00000000000E+00  0.00000000000E+00  0.13018874587E+04  0.13018874587E+04  0.25500000920E-02 0. -1.
       -2   -1    0    0    0  501  0.00000000000E+00  0.00000000000E+00 -0.84905181041E+03  0.84905181041E+03  0.25500000920E-02 0.  1.
    10030    2    1    2    0    0  0.00000000000E+00  0.00000000000E+00  0.45283564828E+03  0.21509392691E+04  0.21027314653E+04 0.  0.
        5    1    3    3  502    0  0.91372823895E+03 -0.38723135993E+03  0.58150792602E+03  0.11502264902E+04  0.46999998093E+01 0. -1.
       -5    1    3    3    0  502 -0.91372823895E+03  0.38723135993E+03 -0.12867227774E+03  0.10007127789E+04  0.46999998093E+01 0.  1.
</event>
<event>
 5   0  0.3636435E-06  0.2100990E+04  0.7818609E-02  0.8560807E-01
       -2   -1    0    0    0  501  0.00000000000E+00  0.00000000000E+00  0.57797324475E+03  0.57797324476E+03  0.25500000920E-02 0.  1.
        2   -1    0    0  501    0  0.00000000000E+00  0.00000000000E+00 -0.19093270801E+04  0.19093270801E+04  0.25500000920E-02 0. -1.
    10030    2    1    2    0    0  0.00000000000E+00  0.00000000000E+00 -0.13313538354E+04  0.24873003249E+04  0.21009902121E+04 0.  0.
        4    1    3    3  502    0 -0.40871326512E+03 -0.94188390859E+03 -0.40269100646E+03  0.11028841689E+04  0.12699999809E+01 0.  1.
       -4    1    3    3    0  502  0.40871326512E+03  0.94188390859E+03 -0.92866282891E+03  0.13844161560E+04  0.12699999809E+01 0. -1.
</event>
<event>
 5   0  0.3636435E-06  0.2097740E+04  0.7818609E-02  0.8562240E-01
       -2   -1    0    0    0  501  0.00000000000E+00  0.00000000000E+00  0.12641222120E+04  0.12641222120E+04  0.25500000920E-02 0.  1.
        2   -1    0    0  501    0  0.00000000000E+00  0.00000000000E+00 -0.87027042803E+03  0.87027042804E+03  0.25500000920E-02 0. -1.
    10030    2    1    2    0    0  0.00000000000E+00  0.00000000000E+00  0.39385178400E+03  0.21343926401E+04  0.20977399062E+04 0.  0.
        4    1    3    3  502    0 -0.63426360986E+02 -0.80870357529E+03  0.87345113757E+03  0.11920330862E+04  0.12699999809E+01 0.  1.
       -4    1    3    3    0  502  0.63426360986E+02  0.80870357529E+03 -0.47959935357E+03  0.94235955388E+03  0.12699999809E+01 0. -1.
</event>
<event>
 5   0  0.1615098E-06  0.2100111E+04  0.7818609E-02  0.8561194E-01
       -1   -1    0    0    0  501  0.00000000000E+00  0.00000000000E+00  0.68581258599E+03  0.68581258601E+03  0.50400001928E-02 0.  1.
        1   -1    0    0  501    0  0.00000000000E+00  0.00000000000E+00 -0.16077521840E+04  0.16077521841E+04  0.50400001928E-02 0. -1.
    10030    2    1    2    0    0  0.00000000000E+00  0.00000000000E+00 -0.92193959805E+03  0.22935647701E+04  0.21001111237E+04 0.  0.
        1    1    3    3  502    0 -0.66943908900E+03 -0.14455204396E+03 -0.13302643557E+04  0.14962109621E+04  0.50400001928E-02 0. -1.
       -1    1    3    3    0  502  0.66943908900E+03  0.14455204396E+03  0.40832475761E+03  0.79735380791E+03  0.50400001928E-02 0.  1.
</event>
<event>
 5   0  0.3547583E-06  0.2099754E+04  0.7818609E-02  0.8561352E-01
       -2   -1    0    0    0  501  0.00000000000E+00  0.00000000000E+00  0.87157611885E+03  0.87157611885E+03  0.25500000920E-02 0.  1.
        2   -1    0    0  501    0  0.00000000000E+00  0.00000000000E+00 -0.12646534336E+04  0.12646534336E+04  0.25500000920E-02 0. -1.
    10030    2    1    2    0    0  0.00000000000E+00  0.00000000000E+00 -0.39307731475E+03  0.21362295525E+04  0.20997540154E+04 0.  0.
        2    1    3    3  502    0  0.67386404077E+03 -0.77385333318E+03  0.29354449356E+02  0.10265492733E+04  0.25500000920E-02 0.  1.
       -2    1    3    3    0  502 -0.67386404077E+03  0.77385333318E+03 -0.42243176410E+03  0.11096802792E+04  0.25500000920E-02 0. -1.
</event>
<event>
 5   0  0.1590067E-06  0.2100749E+04  0.7818609E-02  0.8560913E-01
       -1   -1    0    0    0  501  0.00000000000E+00  0.00000000000E+00  0.91714108922E+03  0.91714108923E+03  0.50400001928E-02 0.  1.
        1   -1    0    0  501    0  0.00000000000E+00  0.00000000000E+00 -0.12029629840E+04  0.12029629840E+04  0.50400001928E-02 0. -1.
    10030    2    1    2    0    0  0.00000000000E+00  0.00000000000E+00 -0.28582189475E+03  0.21201040732E+04  0.21007491820E+04 0.  0.
        5    1    3    3  502    0  0.12128766124E+03  0.95004493403E+02 -0.11914870632E+04  0.12014158574E+04  0.46999998093E+01 0. -1.
       -5    1    3    3    0  502 -0.12128766124E+03 -0.95004493403E+02  0.90566516847E+03  0.91868821583E+03  0.46999998093E+01 0.  1.
</event>
<event>
 5   0  0.1646510E-06  0.2098971E+04  0.7818609E-02  0.8561697E-01
        1   -1    0    0  501    0  0.00000000000E+00  0.00000000000E+00  0.10788114070E+04  0.10788114070E+04  0.50400001928E-02 0.  1.
       -1   -1    0    0    0  501  0.00000000000E+00  0.00000000000E+00 -0.10209571661E+04  0.10209571661E+04  0.50400001928E-02 0. -1.
    10030    2    1    2    0    0  0.00000000000E+00  0.00000000000E+00  0.57854240854E+02  0.20997685731E+04  0.20989714023E+04 0.  0.
        4    1    3    3  502    0 -0.25248823548E+03 -0.17943799496E+01 -0.99011823525E+03  0.10218068612E+04  0.12699999809E+01 0. -1.
       -4    1    3    3    0  502  0.25248823548E+03  0.17943799496E+01  0.10479724761E+04  0.10779617120E+04  0.12699999809E+01 0.  1.
</event>
<event>
 5   0  0.1590067E-06  0.2098582E+04  0.7818609E-02  0.8561868E-01
        1   -1    0    0  501    0  0.00000000000E+00  0.00000000000E+00  0.14334763535E+04  0.14334763535E+04  0.50400001928E-02 0. -1.
       -1   -1    0    0    0  501  0.00000000000E+00  0.00000000000E+00 -0.76807135444E+03  0.76807135446E+03  0.50400001928E-02 0.  1.
    10030    2    1    2    0    0  0.00000000000E+00  0.00000000000E+00  0.66540499905E+03  0.22015477080E+04  0.20985824972E+04 0.  0.
        5    1    3    3  502    0  0.50615432274E+03  0.22292093763E+03 -0.60273343434E+03  0.81804377984E+03  0.46999998093E+01 0.  1.
       -5    1    3    3    0  502 -0.50615432274E+03 -0.22292093763E+03  0.12681384334E+04  0.13835039281E+04  0.46999998093E+01 0. -1.
</event>
<event>
 5   0  0.3480134E-06  0.2099862E+04  0.7818609E-02  0.8561304E-01
        2   -1    0    0  501    0  0.00000000000E+00  0.00000000000E+00  0.13856647520E+04  0.13856647520E+04  0.25500000920E-02 0.  1.
       -2   -1    0    0    0  501  0.00000000000E+00  0.00000000000E+00 -0.79554239468E+03  0.79554239468E+03  0.25500000920E-02 0. -1.
    10030    2    1    2    0    0  0.00000000000E+00  0.00000000000E+00  0.59012235733E+03  0.21812071467E+04  0.20998619526E+04 0.  0.
        1    1    3    3  502    0  0.46296114481E+03  0.68187725443E+03 -0.38057040574E+03  0.90781245060E+03  0.50400001928E-02 0. -1.
       -1    1    3    3    0  502 -0.46296114481E+03 -0.68187725443E+03  0.97069276307E+03  0.12733946961E+04  0.50400001928E-02 0.  1.
</event>
<event>
 5   0  0.3574927E-06  0.2100034E+04  0.7818609E-02  0.8561228E-01
        2   -1    0    0  501    0  0.00000000000E+00  0.00000000000E+00  0.92703217272E+03  0.92703217273E+03  0.25500000920E-02 0. -1.
       -2   -1    0    0    0  501  0.00000000000E+00  0.00000000000E+00 -0.11893173941E+04  0.11893173941E+04  0.25500000920E-02 0.  1.
    10030    2    1    2    0    0  0.00000000000E+00  0.00000000000E+00 -0.26228522135E+03  0.21163495668E+04  0.21000337977E+04 0.  0.
        3    1    3    3  502    0 -0.25785968096E+03  0.47321144648E+03 -0.10393182099E+04  0.11707275685E+04  0.10100000352E+00 0.  1.
       -3    1    3    3    0  502  0.25785968096E+03 -0.47321144648E+03  0.77703298853E+03  0.94562199827E+03  0.10100000352E+00 0. -1.
</event>
<event>
 5   0  0.3705828E-06  0.2100056E+04  0.7818609E-02  0.8561219E-01
        2   -1    0    0  501    0  0.00000000000E+00  0.00000000000E+00  0.13643081225E+04  0.13643081225E+04  0.25500000920E-02 0.  1.
       -2   -1    0    0    0  501  0.00000000000E+00  0.00000000000E+00 -0.80814490845E+03  0.80814490846E+03  0.25500000920E-02 0. -1.
    10030    2    1    2    0    0  0.00000000000E+00  0.00000000000E+00  0.55616321407E+03  0.21724530310E+04  0.21000558686E+04 0.  0.
        5    1    3    3  502    0  0.16575256080E+02 -0.85038659536E+03  0.91502230708E+03  0.12492878024E+04  0.46999998093E+01 0.  1.
       -5    1    3    3    0  502 -0.16575256080E+02  0.85038659536E+03 -0.35885909301E+03  0.92316522861E+03  0.46999998093E+01 0. -1.
</event>
<event>
 5   0  0.1590067E-06  0.2099561E+04  0.7818609E-02  0.8561437E-01
       -1   -1    0    0    0  501  0.00000000000E+00  0.00000000000E+00  0.77270353829E+03  0.77270353830E+03  0.50400001928E-02 0. -1.
        1   -1    0    0  501    0  0.00000000000E+00  0.00000000000E+00 -0.14262125484E+04  0.14262125484E+04  0.50400001928E-02 0.  1.
    10030    2    1    2    0    0  0.00000000000E+00  0.00000000000E+00 -0.65350901011E+03  0.21989160867E+04  0.20995613661E+04 0.  0.
        5    1    3    3  502    0  0.20943446247E+03 -0.20676479689E+02 -0.14038814638E+04  0.14195758400E+04  0.46999998093E+01 0.  1.
       -5    1    3    3    0  502 -0.20943446247E+03  0.20676479689E+02  0.75037245373E+03  0.77934024675E+03  0.46999998093E+01 0. -1.
</event>
<event>
 5   0  0.3574927E-06  0.2100056E+04  0.7818609E-02  0.8561219E-01
        2   -1    0    0  501    0  0.00000000000E+00  0.00000000000E+00  0.66120599523E+03  0.66120599524E+03  0.25500000920E-02 0.  1.
       -2   -1    0    0    0  501  0.00000000000E+00  0.00000000000E+00 -0.16674973115E+04  0.16674973115E+04  0.25500000920E-02 0. -1.
    10030    2    1    2    0    0  0.00000000000E+00  0.00000000000E+00 -0.10062913163E+04  0.23287033068E+04  0.21000563987E+04 0.  0.
        3    1    3    3  502    0 -0.18976798146E+03 -0.19824061526E+03 -0.16270280053E+04  0.16500095056E+04  0.10100000352E+00 0. -1.
       -3    1    3    3    0  502  0.18976798146E+03  0.19824061526E+03  0.62073668906E+03  0.67869380112E+03  0.10100000352E+00 0.  1.
</event>
<event>
 5   0  0.3636435E-06  0.2099027E+04  0.7818609E-02  0.8561672E-01
        2   -1    0    0  501    0  0.00000000000E+00  0.00000000000E+00  0.10636968971E+04  0.10636968971E+04  0.25500000920E-02 0.  1.
       -2   -1    0    0    0  501  0.00000000000E+00  0.00000000000E+00 -0.10355190495E+04  0.10355190495E+04  0.25500000920E-02 0. -1.
    10030    2    1    2    0    0  0.00000000000E+00  0.00000000000E+00  0.28177847596E+02  0.20992159467E+04  0.20990268221E+04 0.  0.
        4    1    3    3  502    0 -0.54544706003E+03 -0.85583146059E+03  0.28153927595E+03  0.10531979686E+04  0.12699999809E+01 0. -1.
       -4    1    3    3    0  502  0.54544706003E+03  0.85583146059E+03 -0.25336142835E+03  0.10460179781E+04  0.12699999809E+01 0.  1.
</event>
<event>
 5   0  0.3705828E-06  0.2102036E+04  0.7818609E-02  0.8560347E-01
        2   -1    0    0  501    0  0.00000000000E+00  0.00000000000E+00  0.13275572598E+04  0.13275572598E+04  0.25500000920E-02 0.  1.
       -2   -1    0    0    0  501  0.00000000000E+00  0.00000000000E+00 -0.83208383935E+03  0.83208383936E+03  0.25500000920E-02 0. -1.
    10030    2    1    2    0    0  0.00000000000E+00  0.00000000000E+00  0.49547342048E+03  0.21596410992E+04  0.21020361003E+04 0.  0.
        5    1    3    3  502    0  0.48209830691E+03  0.63284770669E+03 -0.45789031411E+03  0.91793280100E+03  0.46999998093E+01 0. -1.
       -5    1    3    3    0  502 -0.48209830691E+03 -0.63284770669E+03  0.95336373459E+03  0.12417082982E+04  0.46999998093E+01 0.  1.
</event>
<event>
 5   0  0.1590067E-06  0.2099314E+04  0.7818609E-02  0.8561545E-01
       -1   -1    0    0    0  501  0.00000000000E+00  0.00000000000E+00  0.44825385024E+03  0.44825385027E+03  0.50400001928E-02 0. -1.
        1   -1    0    0  501    0  0.00000000000E+00  0.00000000000E+00 -0.24579380864E+04  0.24579380864E+04  0.50400001928E-02 0.  1.
    10030    2    1    2    0    0  0.00000000000E+00  0.00000000000E+00 -0.20096842362E+04  0.29061919367E+04  0.20993143747E+04 0.  0.
        5    1    3    3  502    0 -0.45932934963E+03 -0.16433709561E+03  0.28176327173E+03  0.56338509363E+03  0.46999998093E+01 0. -1.
       -5    1    3    3    0  502  0.45932934963E+03  0.16433709561E+03 -0.22914475079E+04  0.23428068431E+04  0.46999998093E+01 0.  1.
</event>
<event>
 5   0  0.3574927E-06  0.2108478E+04  0.7818609E-02  0.8557518E-01
        2   -1    0    0  501    0  0.00000000000E+00  0.00000000000E+00  0.11274929914E+04  0.11274929914E+04  0.25500000920E-02 0. -1.
       -2   -1    0    0    0  501  0.00000000000E+00  0.00000000000E+00 -0.98574461895E+03  0.98574461896E+03  0.25500000920E-02 0.  1.
    10030    2    1    2    0    0  0.00000000000E+00  0.00000000000E+00  0.14174837247E+03  0.21132376104E+04  0.21084782657E+04 0.  0.
        3    1    3    3  502    0 -0.65324133107E+03 -0.77445462447E+03  0.36293534633E+03  0.10762092166E+04  0.10100000352E+00 0. -1.
       -3    1    3    3    0  502  0.65324133107E+03  0.77445462447E+03 -0.22118697386E+03  0.10370283938E+04  0.10100000352E+00 0.  1.
</event>
<event>
 5   0  0.3480134E-06  0.2102633E+04  0.7818609E-02  0.8560084E-01
        2   -1    0    0  501    0  0.00000000000E+00  0.00000000000E+00  0.24445251477E+04  0.24445251477E+04  0.25500000920E-02 0. -1.
       -2   -1    0    0    0  501  0.00000000000E+00  0.00000000000E+00 -0.45213956095E+03  0.45213956096E+03  0.25500000920E-02 0.  1.
    10030    2    1    2    0    0  0.00000000000E+00  0.00000000000E+00  0.19923855867E+04  0.28966647086E+04  0.21026331368E+04 0.  0.
        1    1    3    3  502    0 -0.46553764052E+03 -0.11725850104E+03 -0.29231498523E+03  0.56207019261E+03  0.50400001928E-02 0.  1.
       -1    1    3    3    0  502  0.46553764052E+03  0.11725850104E+03  0.22847005720E+04  0.23345945160E+04  0.50400001928E-02 0. -1.
</event>
<event>
 5   0  0.3636435E-06  0.2099565E+04  0.7818609E-02  0.8561435E-01
       -2   -1    0    0    0  501  0.00000000000E+00  0.00000000000E+00  0.83122977007E+03  0.83122977008E+03  0.25500000920E-02 0. -1.
        2   -1    0    0  501    0  0.00000000000E+00  0.00000000000E+00 -0.13257984543E+04  0.13257984543E+04  0.25500000920E-02 0.  1.
    10030    2    1    2    0    0  0.00000000000E+00  0.00000000000E+00 -0.49456868422E+03  0.21570282244E+04  0.20995648543E+04 0.  0.
        4    1    3    3  502    0  0.10431842311E+04  0.26263467900E+02 -0.12961391600E+03  0.10515343503E+04  0.12699999809E+01 0.  1.
       -4    1    3    3    0  502 -0.10431842311E+04 -0.26263467900E+02 -0.36495476822E+03  0.11054938740E+04  0.12699999809E+01 0. -1.
</event>
<event>
 5   0  0.3480134E-06  0.2099826E+04  0.7818609E-02  0.8561320E-01
        2   -1    0    0  501    0  0.00000000000E+00  0.00000000000E+00  0.95250446627E+03  0.95250446627E+03  0.25500000920E-02 0.  1.
       -2   -1    0    0    0  501  0.00000000000E+00  0.00000000000E+00 -0.11572831385E+04  0.11572831385E+04  0.25500000920E-02 0. -1.
    10030    2    1    2    0    0  0.00000000000E+00  0.00000000000E+00 -0.20477867223E+03  0.21097876048E+04  0.20998260482E+04 0.  0.
        1    1    3    3  502    0 -0.22572932550E+03 -0.81354153958E+03 -0.72946051185E+03  0.11157581294E+04  0.50400001928E-02 0. -1.
       -1    1    3    3    0  502  0.22572932550E+03  0.81354153958E+03  0.52468183962E+03  0.99402947535E+03  0.50400001928E-02 0.  1.
</event>
<event>
 5   0  0.3574927E-06  0.2100842E+04  0.7818609E-02  0.8560872E-01
        2   -1    0    0  501    0  0.00000000000E+00  0.00000000000E+00  0.17829469455E+04  0.17829469455E+04  0.25500000920E-02 0.  1.
       -2   -1    0    0    0  501  0.00000000000E+00  0.00000000000E+00 -0.61885444685E+03  0.61885444685E+03  0.25500000920E-02 0. -1.
    10030    2    1    2    0    0  0.00000000000E+00  0.00000000000E+00  0.11640924987E+04  0.24018013924E+04  0.21008423508E+04 0.  0.
        3    1    3    3  502    0 -0.86968906110E+03  0.51503382216E+03  0.25513542565E+03  0.10424552732E+04  0.10100000352E+00 0. -1.
       -3    1    3    3    0  502  0.86968906110E+03 -0.51503382216E+03  0.90895707303E+03  0.13593461192E+04  0.10100000352E+00 0.  1.
</event>
<event>
 5   0  0.3547583E-06  0.2096806E+04  0.7818609E-02  0.8562652E-01
        2   -1    0    0  501    0  0.00000000000E+00  0.00000000000E+00  0.12545189383E+04  0.12545189383E+04  0.25500000920E-02 0.  1.
       -2   -1    0    0    0  501  0.00000000000E+00  0.00000000000E+00 -0.87615178356E+03  0.87615178357E+03  0.25500000920E-02 0. -1.
    10030    2    1    2    0    0  0.00000000000E+00  0.00000000000E+00  0.37836715477E+03  0.21306707219E+04  0.20968061478E+04 0.  0.
        2    1    3    3  502    0  0.22199210750E+03  0.40174791526E+03 -0.76862503443E+03  0.89524651731E+03  0.25500000920E-02 0. -1.
       -2    1    3    3    0  502 -0.22199210750E+03 -0.40174791526E+03  0.11469921892E+04  0.12354242046E+04  0.25500000920E-02 0.  1.
</event>
<event>
 5   0  0.3480134E-06  0.2100292E+04  0.7818609E-02  0.8561115E-01
       -2   -1    0    0    0  501  0.00000000000E+00  0.00000000000E+00  0.84041827501E+03  0.84041827502E+03  0.25500000920E-02 0.  1.
        2   -1    0    0  501    0  0.00000000000E+00  0.00000000000E+00 -0.13122119250E+04  0.13122119250E+04  0.25500000920E-02 0. -1.
    10030    2    1    2    0    0  0.00000000000E+00  0.00000000000E+00 -0.47179364999E+03  0.21526302000E+04  0.21002922487E+04 0.  0.
        1    1    3    3  502    0  0.61094557208E+03 -0.59503960917E+03  0.39213731219E+03  0.93866836538E+03  0.50400001928E-02 0.  1.
       -1    1    3    3    0  502 -0.61094557208E+03  0.59503960917E+03 -0.86393096217E+03  0.12139618346E+04  0.50400001928E-02 0. -1.
</event>
<event>
 5   0  0.3547583E-06  0.2100974E+04  0.7818609E-02  0.8560814E-01
       -2   -1    0    0    0  501  0.00000000000E+00  0.00000000000E+00  0.82202965101E+03  0.82202965101E+03  0.25500000920E-02 0. -1.
        2   -1    0    0  501    0  0.00000000000E+00  0.00000000000E+00 -0.13424374500E+04  0.13424374500E+04  0.25500000920E-02 0.  1.
    10030    2    1    2    0    0  0.00000000000E+00  0.00000000000E+00 -0.52040779896E+03  0.21644671010E+04  0.21009744296E+04 0.  0.
        2    1    3    3  502    0 -0.68184030470E+03  0.72448956925E+03  0.87229574393E+02  0.99869932198E+03  0.25500000920E-02 0.  1.
       -2    1    3    3    0  502  0.68184030470E+03 -0.72448956925E+03 -0.60763737335E+03  0.11657677790E+04  0.25500000920E-02 0. -1.
</event>
<event>
 5   0  0.1615098E-06  0.2100202E+04  0.7818609E-02  0.8561155E-01
        1   -1    0    0  501    0  0.00000000000E+00  0.00000000000E+00  0.10423315327E+04  0.10423315327E+04  0.50400001928E-02 0.  1.
       -1   -1    0    0    0  501  0.00000000000E+00  0.00000000000E+00 -0.10579279065E+04  0.10579279066E+04  0.50400001928E-02 0. -1.
    10030    2    1    2    0    0  0.00000000000E+00  0.00000000000E+00 -0.15596373855E+02  0.21002594393E+04  0.21002015297E+04 0.  0.
        1    1    3    3  502    0  0.26874940963E+03 -0.10136226792E+04 -0.63066656802E+02  0.10505401393E+04  0.50400001928E-02 0.  1.
       -1    1    3    3    0  502 -0.26874940963E+03  0.10136226792E+04  0.47470282947E+02  0.10497193000E+04  0.50400001928E-02 0. -1.
</event>
<event>
 5   0  0.1579820E-06  0.2100339E+04  0.7818609E-02  0.8561094E-01
       -1   -1    0    0    0  501  0.00000000000E+00  0.00000000000E+00  0.92929741925E+03  0.92929741926E+03  0.50400001928E-02 0. -1.
        1   -1    0    0  501    0  0.00000000000E+00  0.00000000000E+00 -0.11867635183E+04  0.11867635183E+04  0.50400001928E-02 0.  1.
    10030    2    1    2    0    0  0.00000000000E+00  0.00000000000E+00 -0.25746609901E+03  0.21160609375E+04  0.21003392819E+04 0.  0.
        2    1    3    3  502    0 -0.43971109284E+03  0.29922646346E+03 -0.10410352950E+04  0.11690324234E+04  0.25500000920E-02 0.  1.
       -2    1    3    3    0  502  0.43971109284E+03 -0.29922646346E+03  0.78356919599E+03  0.94702851409E+03  0.25500000920E-02 0. -1.
</event>
<event>
 5   0  0.1646510E-06  0.2100350E+04  0.7818609E-02  0.8561089E-01
       -1   -1    0    0    0  501  0.00000000000E+00  0.00000000000E+00  0.89584749418E+03  0.89584749419E+03  0.50400001928E-02 0.  1.
        1   -1    0    0  501    0  0.00000000000E+00  0.00000000000E+00 -0.12310884038E+04  0.12310884038E+04  0.50400001928E-02 0. -1.
    10030    2    1    2    0    0  0.00000000000E+00  0.00000000000E+00 -0.33524090959E+03  0.21269358980E+04  0.21003499343E+04 0.  0.
        4    1    3    3  502    0 -0.83765587433E+03 -0.35474358086E+03 -0.69900583687E+03  0.11472232323E+04  0.12699999809E+01 0. -1.
       -4    1    3    3    0  502  0.83765587433E+03  0.35474358086E+03  0.36376492728E+03  0.97971266562E+03  0.12699999809E+01 0.  1.
</event>
<event>
 5   0  0.1590067E-06  0.2099917E+04  0.7818609E-02  0.8561280E-01
        1   -1    0    0  501    0  0.00000000000E+00  0.00000000000E+00  0.19403668291E+04  0.19403668291E+04  0.50400001928E-02 0.  1.
       -1   -1    0    0    0  501  0.00000000000E+00  0.00000000000E+00 -0.56814669579E+03  0.56814669581E+03  0.50400001928E-02 0. -1.
    10030    2    1    2    0    0  0.00000000000E+00  0.00000000000E+00  0.13722201333E+04  0.25085135249E+04  0.20999171437E+04 0.  0.
        5    1    3    3  502    0  0.31941981162E+03 -0.38788064059E+03  0.17873980144E+04  0.18566890314E+04  0.46999998093E+01 0.  1.
       -5    1    3    3    0  502 -0.31941981162E+03  0.38788064059E+03 -0.41517788110E+03  0.65182449352E+03  0.46999998093E+01 0. -1.
</event>
<event>
 5   0  0.3574927E-06  0.2100350E+04  0.7818609E-02  0.8561089E-01
       -2   -1    0    0    0  501  0.00000000000E+00  0.00000000000E+00  0.61438466588E+03  0.61438466588E+03  0.25500000920E-02 0. -1.
        2   -1    0    0  501    0  0.00000000000E+00  0.00000000000E+00 -0.17950759351E+04  0.17950759351E+04  0.25500000920E-02 0.  1.
    10030    2    1    2    0    0  0.00000000000E+00  0.00000000000E+00 -0.11806912692E+04  0.24094606010E+04  0.21003496172E+04 0.  0.
        3    1    3    3  502    0 -0.83019154704E+03 -0.63359295698E+03 -0.71710197155E+03  0.12668438292E+04  0.10100000352E+00 0.  1.
       -3    1    3    3    0  502  0.83019154704E+03  0.63359295698E+03 -0.46358929765E+03  0.11426167717E+04  0.10100000352E+00 0. -1.
</event>
<event>
 5   0  0.3574927E-06  0.2100055E+04  0.7818609E-02  0.8561219E-01
        2   -1    0    0  501    0  0.00000000000E+00  0.00000000000E+00  0.12103307820E+04  0.12103307820E+04  0.25500000920E-02 0. -1.
       -2   -1    0    0    0  501  0.00000000000E+00  0.00000000000E+00 -0.91095593035E+03  0.91095593035E+03  0.25500000920E-02 0.  1.
    10030    2    1    2    0    0  0.00000000000E+00  0.00000000000E+00  0.29937485165E+03  0.21212867124E+04  0.21000552408E+04 0.  0.
        3    1    3    3  502    0 -0.15931965939E+03 -0.56076657414E+03  0.10318530017E+04  0.11851424099E+04  0.10100000352E+00 0. -1.
       -3    1    3    3    0  502  0.15931965939E+03  0.56076657414E+03 -0.73247815001E+03  0.93614430244E+03  0.10100000352E+00 0.  1.
</event>
<event>
 5   0  0.1653260E-06  0.2095517E+04  0.7818609E-02  0.8563221E-01
       -1   -1    0    0    0  501  0.00000000000E+00  0.00000000000E+00  0.16784183340E+04  0.16784183340E+04  0.50400001928E-02 0. -1.
        1   -1    0    0  501    0  0.00000000000E+00  0.00000000000E+00 -0.65406716966E+03  0.65406716968E+03  0.50400001928E-02 0.  1.
    10030    2    1    2    0    0  0.00000000000E+00  0.00000000000E+00  0.10243511644E+04  0.23324855037E+04  0.20955174342E+04 0.  0.
        3    1    3    3  502    0 -0.23731257471E+03 -0.80087101445E+03 -0.19187639235E+03  0.85704620648E+03  0.10100000352E+00 0. -1.
       -3    1    3    3    0  502  0.23731257471E+03  0.80087101445E+03  0.12162275567E+04  0.14754392972E+04  0.10100000352E+00 0.  1.
</event>
<event>
 5   0  0.1646510E-06  0.2098450E+04  0.7818609E-02  0.8561926E-01
        1   -1    0    0  501    0  0.00000000000E+00  0.00000000000E+00  0.75508905590E+03  0.75508905591E+03  0.50400001928E-02 0.  1.
       -1   -1    0    0    0  501  0.00000000000E+00  0.00000000000E+00 -0.14579381872E+04  0.14579381872E+04  0.50400001928E-02 0. -1.
    10030    2    1    2    0    0  0.00000000000E+00  0.00000000000E+00 -0.70284913127E+03  0.22130272431E+04  0.20984500655E+04 0.  0.
        4    1    3    3  502    0 -0.19686519713E+03  0.42294297332E+03  0.63969541105E+03  0.79173764363E+03  0.12699999809E+01 0.  1.
       -4    1    3    3    0  502  0.19686519713E+03 -0.42294297332E+03 -0.13425445423E+04  0.14212895995E+04  0.12699999809E+01 0. -1.
</event>
<event>
 5   0  0.1590067E-06  0.2097841E+04  0.7818609E-02  0.8562195E-01
       -1   -1    0    0    0  501  0.00000000000E+00  0.00000000000E+00  0.19893999540E+04  0.19893999540E+04  0.50400001928E-02 0. -1.
        1   -1    0    0  501    0  0.00000000000E+00  0.00000000000E+00 -0.55304821406E+03  0.55304821408E+03  0.50400001928E-02 0.  1.
    10030    2    1    2    0    0  0.00000000000E+00  0.00000000000E+00  0.14363517399E+04  0.25424481681E+04  0.20978408821E+04 0.  0.
        5    1    3    3  502    0  0.37154475921E+03 -0.69215441682E+03  0.15605267392E+04  0.17471087655E+04  0.46999998093E+01 0. -1.
       -5    1    3    3    0  502 -0.37154475921E+03  0.69215441682E+03 -0.12417499926E+03  0.79533940255E+03  0.46999998093E+01 0.  1.
</event>
<event>
 5   0  0.3636435E-06  0.2100942E+04  0.7818609E-02  0.8560828E-01
        2   -1    0    0  501    0  0.00000000000E+00  0.00000000000E+00  0.21278366309E+04  0.21278366309E+04  0.25500000920E-02 0. -1.
       -2   -1    0    0    0  501  0.00000000000E+00  0.00000000000E+00 -0.51859696780E+03  0.51859696780E+03  0.25500000920E-02 0.  1.
    10030    2    1    2    0    0  0.00000000000E+00  0.00000000000E+00  0.16092396631E+04  0.26464335987E+04  0.21009422884E+04 0.  0.
        4    1    3    3  502    0  0.68359665834E+03  0.79746409975E+03  0.78532509677E+03  0.13114840839E+04  0.12699999809E+01 0. -1.
       -4    1    3    3    0  502 -0.68359665834E+03 -0.79746409975E+03  0.82391456633E+03  0.13349495149E+04  0.12699999809E+01 0.  1.
</event>
<event>
 5   0  0.3636435E-06  0.2099844E+04  0.7818609E-02  0.8561312E-01
        2   -1    0    0  501    0  0.00000000000E+00  0.00000000000E+00  0.12570532459E+04  0.12570532459E+04  0.25500000920E-02 0. -1.
       -2   -1    0    0    0  501  0.00000000000E+00  0.00000000000E+00 -0.87692066105E+03  0.87692066105E+03  0.25500000920E-02 0.  1.
    10030    2    1    2    0    0  0.00000000000E+00  0.00000000000E+00  0.38013258483E+03  0.21339739069E+04  0.20998437688E+04 0.  0.
        4    1    3    3  502    0  0.91635577076E+03  0.39922061797E+03 -0.13648077218E+03  0.10088179293E+04  0.12699999809E+01 0.  1.
       -4    1    3    3    0  502 -0.91635577076E+03 -0.39922061797E+03  0.51661335701E+03  0.11251559776E+04  0.12699999809E+01 0. -1.
</event>
<event>
 5   0  0.3574927E-06  0.2099782E+04  0.7818609E-02  0.8561340E-01
        2   -1    0    0  501    0  0.00000000000E+00  0.00000000000E+00  0.17657123857E+04  0.17657123857E+04  0.25500000920E-02 0. -1.
       -2   -1    0    0    0  501  0.00000000000E+00  0.00000000000E+00 -0.62426407282E+03  0.62426407283E+03  0.25500000920E-02 0.  1.
    10030    2    1    2    0    0  0.00000000000E+00  0.00000000000E+00  0.11414483129E+04  0.23899764585E+04  0.20997817080E+04 0.  0.
        3    1    3    3  502    0 -0.29056581449E+03 -0.86482916190E+03  0.11620559556E+04  0.14774071971E+04  0.10100000352E+00 0. -1.
       -3    1    3    3    0  502  0.29056581449E+03  0.86482916190E+03 -0.20607642713E+02  0.91256926146E+03  0.10100000352E+00 0.  1.
</event>
<event>
 5   0  0.1615098E-06  0.2101237E+04  0.7818609E-02  0.8560699E-01
        1   -1    0    0  501    0  0.00000000000E+00  0.00000000000E+00  0.15768844369E+04  0.15768844369E+04  0.50400001928E-02 0.  1.
       -1   -1    0    0    0  501  0.00000000000E+00  0.00000000000E+00 -0.69998756097E+03  0.69998756099E+03  0.50400001928E-02 0. -1.
    10030    2    1    2    0    0  0.00000000000E+00  0.00000000000E+00  0.87689687592E+03  0.22768719979E+04  0.21012372459E+04 0.  0.
        1    1    3    3  502    0 -0.64754610672E+02  0.56425266993E+03 -0.51930046462E+03  0.76957599216E+03  0.50400001928E-02 0. -1.
       -1    1    3    3    0  502  0.64754610672E+02 -0.56425266993E+03  0.13961973405E+04  0.15072960057E+04  0.50400001928E-02 0.  1.
</event>
<event>
 5   0  0.3636435E-06  0.2101337E+04  0.7818609E-02  0.8560655E-01
       -2   -1    0    0    0  501  0.00000000000E+00  0.00000000000E+00  0.47479336056E+03  0.47479336057E+03  0.25500000920E-02 0. -1.
        2   -1    0    0  501    0  0.00000000000E+00  0.00000000000E+00 -0.23250203707E+04  0.23250203707E+04  0.25500000920E-02 0.  1.
    10030    2    1    2    0    0  0.00000000000E+00  0.00000000000E+00 -0.18502270101E+04  0.27998137313E+04  0.21013369413E+04 0.  0.
        4    1    3    3  502    0  0.78202039910E+03  0.22090914891E+03 -0.18124793559E+04  0.19863131136E+04  0.12699999809E+01 0.  1.
       -4    1    3    3    0  502 -0.78202039910E+03 -0.22090914891E+03 -0.37747654226E+02  0.81350061769E+03  0.12699999809E+01 0. -1.
</event>
<event>
 5   0  0.1646510E-06  0.2098923E+04  0.7818609E-02  0.8561718E-01
        1   -1    0    0  501    0  0.00000000000E+00  0.00000000000E+00  0.18781137130E+04  0.18781137130E+04  0.50400001928E-02 0.  1.
       -1   -1    0    0    0  501  0.00000000000E+00  0.00000000000E+00 -0.58642327046E+03  0.58642327048E+03  0.50400001928E-02 0. -1.
    10030    2    1    2    0    0  0.00000000000E+00  0.00000000000E+00  0.12916904425E+04  0.24645369834E+04  0.20989231390E+04 0.  0.
        4    1    3    3  502    0 -0.24663476656E+03  0.98096665418E+03  0.31739961127E+03  0.10601266013E+04  0.12699999809E+01 0. -1.
       -4    1    3    3    0  502  0.24663476656E+03 -0.98096665418E+03  0.97429083124E+03  0.14044103821E+04  0.12699999809E+01 0.  1.
</event>
<event>
 5   0  0.3480134E-06  0.2094618E+04  0.7818609E-02  0.8563618E-01
        2   -1    0    0  501    0  0.00000000000E+00  0.00000000000E+00  0.11536380207E+04  0.11536380207E+04  0.25500000920E-02 0.  1.
       -2   -1    0    0    0  501  0.00000000000E+00  0.00000000000E+00 -0.95078028006E+03  0.95078028007E+03  0.25500000920E-02 0. -1.
    10030    2    1    2    0    0  0.00000000000E+00  0.00000000000E+00  0.20285774068E+03  0.21044183008E+04  0.20946181327E+04 0.  0.
        1    1    3    3  502    0  0.64955109699E+03  0.72450434281E+03  0.49058221471E+03  0.10897220195E+04  0.50400001928E-02 0.  1.
       -1    1    3    3    0  502 -0.64955109699E+03 -0.72450434281E+03 -0.28772447403E+03  0.10146962813E+04  0.50400001928E-02 0. -1.
</event>
<event>
 5   0  0.3705828E-06  0.2102211E+04  0.7818609E-02  0.8560270E-01
        2   -1    0    0  501    0  0.00000000000E+00  0.00000000000E+00  0.20823257118E+04  0.20823257118E+04  0.25500000920E-02 0. -1.
       -2   -1    0    0    0  501  0.00000000000E+00  0.00000000000E+00 -0.53057155473E+03  0.53057155473E+03  0.25500000920E-02 0.  1.
    10030    2    1    2    0    0  0.00000000000E+00  0.00000000000E+00  0.15517541571E+04  0.26128972666E+04  0.21022110174E+04 0.  0.
        5    1    3    3  502    0  0.94186507192E+03  0.93674838568E+02  0.20776792667E+03  0.96905850723E+03  0.46999998093E+01 0. -1.
       -5    1    3    3    0  502 -0.94186507192E+03 -0.93674838568E+02  0.13439862304E+04  0.16438387593E+04  0.46999998093E+01 0.  1.
</event>
<event>
 5   0  0.1615098E-06  0.2100402E+04  0.7818609E-02  0.8561066E-01
       -1   -1    0    0    0  501  0.00000000000E+00  0.00000000000E+00  0.11331022234E+04  0.11331022235E+04  0.50400001928E-02 0. -1.
        1   -1    0    0  501    0  0.00000000000E+00  0.00000000000E+00 -0.97336549274E+03  0.97336549275E+03  0.50400001928E-02 0.  1.
    10030    2    1    2    0    0  0.00000000000E+00  0.00000000000E+00  0.15973673071E+03  0.21064677162E+04  0.21004024415E+04 0.  0.
        1    1    3    3  502    0  0.72288826683E+03  0.26317951883E+03  0.79683955826E+03  0.11076029014E+04  0.50400001928E-02 0. -1.
       -1    1    3    3    0  502 -0.72288826683E+03 -0.26317951883E+03 -0.63710282756E+03  0.99886481485E+03  0.50400001928E-02 0.  1.
</event>
<event>
 5   0  0.1615098E-06  0.2101236E+04  0.7818609E-02  0.8560699E-01
       -1   -1    0    0    0  501  0.00000000000E+00  0.00000000000E+00  0.60112079025E+03  0.60112079027E+03  0.50400001928E-02 0.  1.
        1   -1    0    0  501    0  0.00000000000E+00  0.00000000000E+00 -0.18362339849E+04  0.18362339849E+04  0.50400001928E-02 0. -1.
    10030    2    1    2    0    0  0.00000000000E+00  0.00000000000E+00 -0.12351131947E+04  0.24373547752E+04  0.21012362305E+04 0.  0.
        1    1    3    3  502    0  0.11746077850E+03  0.10397919510E+03  0.58745927455E+03  0.60804367177E+03  0.50400001928E-02 0.  1.
       -1    1    3    3    0  502 -0.11746077850E+03 -0.10397919510E+03 -0.18225724692E+04  0.18293111034E+04  0.50400001928E-02 0. -1.
</event>
<event>
 5   0  0.1646510E-06  0.2107718E+04  0.7818609E-02  0.8557851E-01
        1   -1    0    0  501    0  0.00000000000E+00  0.00000000000E+00  0.10877371433E+04  0.10877371433E+04  0.50400001928E-02 0.  1.
       -1   -1    0    0    0  501  0.00000000000E+00  0.00000000000E+00 -0.10210358461E+04  0.10210358461E+04  0.50400001928E-02 0. -1.
    10030    2    1    2    0    0  0.00000000000E+00  0.00000000000E+00  0.66701297174E+02  0.21087729894E+04  0.21077178316E+04 0.  0.
        4    1    3    3  502    0  0.10494853446E+04  0.82924729301E+02 -0.14850250498E+02  0.10528618818E+04  0.12699999809E+01 0.  1.
       -4    1    3    3    0  502 -0.10494853446E+04 -0.82924729301E+02  0.81551547672E+02  0.10559111076E+04  0.12699999809E+01 0. -1.
</event>
<event>
 5   0  0.3636435E-06  0.2100625E+04  0.7818609E-02  0.8560968E-01
        2   -1    0    0  501    0  0.00000000000E+00  0.00000000000E+00  0.22851126841E+04  0.22851126841E+04  0.25500000920E-02 0.  1.
       -2   -1    0    0    0  501  0.00000000000E+00  0.00000000000E+00 -0.48275773761E+03  0.48275773762E+03  0.25500000920E-02 0. -1.
    10030    2    1    2    0    0  0.00000000000E+00  0.00000000000E+00  0.18023549465E+04  0.27678704217E+04  0.21006245067E+04 0.  0.
        4    1    3    3  502    0 -0.70785882072E+03 -0.20681205487E+03  0.18866103938E+04  0.20256198377E+04  0.12699999809E+01 0.  1.
       -4    1    3    3    0  502  0.70785882072E+03  0.20681205487E+03 -0.84255447326E+02  0.74225058398E+03  0.12699999809E+01 0. -1.
</event>
<event>
 5   0  0.1615098E-06  0.2097769E+04  0.7818609E-02  0.8562227E-01
        1   -1    0    0  501    0  0.00000000000E+00  0.00000000000E+00  0.10897942400E+04  0.10897942400E+04  0.50400001928E-02 0.  1.
       -1   -1    0    0    0  501  0.00000000000E+00  0.00000000000E+00 -0.10095107721E+04  0.10095107721E+04  0.50400001928E-02 0. -1.
    10030    2    1    2    0    0  0.00000000000E+00  0.00000000000E+00  0.80283467923E+02  0.20993050121E+04  0.20977693149E+04 0.  0.
        1    1    3    3  502    0 -0.86720101568E+03  0.41860780842E+03 -0.37596179791E+03  0.10337395090E+04  0.50400001928E-02 0. -1.
       -1    1    3    3    0  502  0.86720101568E+03 -0.41860780842E+03  0.45624526584E+03  0.10655655031E+04  0.50400001928E-02 0.  1.
</event>
<event>
 5   0  0.3480134E-06  0.2103767E+04  0.7818609E-02  0.8559586E-01
        2   -1    0    0  501    0  0.00000000000E+00  0.00000000000E+00  0.12175488712E+04  0.12175488712E+04  0.25500000920E-02 0. -1.
       -2   -1    0    0    0  501  0.00000000000E+00  0.00000000000E+00 -0.90875913741E+03  0.90875913742E+03  0.25500000920E-02 0.  1.
    10030    2    1    2    0    0  0.00000000000E+00  0.00000000000E+00  0.30878973380E+03  0.21263080086E+04  0.21037667760E+04 0.  0.
        1    1    3    3  502    0  0.10346149804E+04 -0.16808596216E+03  0.65259149484E+02  0.10502094101E+04  0.50400001928E-02 0.  1.
       -1    1    3    3    0  502 -0.10346149804E+04  0.16808596216E+03  0.24353058431E+03  0.10760985986E+04  0.50400001928E-02 0. -1.
</event>
<event>
 5   0  0.1257125E-06  0.2100434E+04  0.7818609E-02  0.8561052E-01
       -3   -1    0    0    0  501  0.00000000000E+00  0.00000000000E+00  0.11228027192E+04  0.11228027238E+04  0.10100000352E+00 0.  1.
        3   -1    0    0  501    0  0.00000000000E+00  0.00000000000E+00 -0.98232404723E+03  0.98232405242E+03  0.10100000352E+00 0. -1.
    10030    2    1    2    0    0  0.00000000000E+00  0.00000000000E+00  0.14047867202E+03  0.21051267762E+04  0.21004343567E+04 0.  0.
        3    1    3    3  502    0  0.90086573141E+02 -0.32090804283E+03 -0.92790652985E+03  0.98595542544E+03  0.10100000352E+00 0. -1.
       -3    1    3    3    0  502 -0.90086573141E+02  0.32090804283E+03  0.10683852019E+04  0.11191713508E+04  0.10100000352E+00 0.  1.
</event>
<event>
 5   0  0.1590067E-06  0.2100304E+04  0.7818609E-02  0.8561110E-01
        1   -1    0    0  501    0  0.00000000000E+00  0.00000000000E+00  0.79381777561E+03  0.79381777563E+03  0.50400001928E-02 0. -1.
       -1   -1    0    0    0  501  0.00000000000E+00  0.00000000000E+00 -0.13892596298E+04  0.13892596298E+04  0.50400001928E-02 0.  1.
    10030    2    1    2    0    0  0.00000000000E+00  0.00000000000E+00 -0.59544185416E+03  0.21830774054E+04  0.21003037771E+04 0.  0.
        5    1    3    3  502    0  0.31449834015E+03  0.75673289735E+03  0.38485042750E+03  0.90536502331E+03  0.46999998093E+01 0. -1.
       -5    1    3    3    0  502 -0.31449834015E+03 -0.75673289735E+03 -0.98029228166E+03  0.12777123821E+04  0.46999998093E+01 0.  1.
</event>
<event>
 5   0  0.3574927E-06  0.2100150E+04  0.7818609E-02  0.8561177E-01
        2   -1    0    0  501    0  0.00000000000E+00  0.00000000000E+00  0.72078508871E+03  0.72078508871E+03  0.25500000920E-02 0. -1.
       -2   -1    0    0    0  501  0.00000000000E+00  0.00000000000E+00 -0.15298010829E+04  0.15298010829E+04  0.25500000920E-02 0.  1.
    10030    2    1    2    0    0  0.00000000000E+00  0.00000000000E+00 -0.80901599414E+03  0.22505861716E+04  0.21001502891E+04 0.  0.
        3    1    3    3  502    0 -0.85241013357E+03 -0.59447416069E+03 -0.56580621232E+03  0.11832747963E+04  0.10100000352E+00 0.  1.
       -3    1    3    3    0  502  0.85241013357E+03  0.59447416069E+03 -0.24320978182E+03  0.10673113752E+04  0.10100000352E+00 0. -1.
</event>
<event>
 5   0  0.1615098E-06  0.2099513E+04  0.7818609E-02  0.8561458E-01
        1   -1    0    0  501    0  0.00000000000E+00  0.00000000000E+00  0.10810253198E+04  0.10810253198E+04  0.50400001928E-02 0.  1.
       -1   -1    0    0    0  501  0.00000000000E+00  0.00000000000E+00 -0.10193924000E+04  0.10193924001E+04  0.50400001928E-02 0. -1.
    10030    2    1    2    0    0  0.00000000000E+00  0.00000000000E+00  0.61632919715E+02  0.21004177198E+04  0.20995132724E+04 0.  0.
        1    1    3    3  502    0 -0.13648300009E+03 -0.87566961024E+03 -0.53206623049E+03  0.10336920960E+04  0.50400001928E-02 0. -1.
       -1    1    3    3    0  502  0.13648300009E+03  0.87566961024E+03  0.59369915021E+03  0.10667256239E+04  0.50400001928E-02 0.  1.
</event>
<event>
 5   0  0.1590067E-06  0.2100362E+04  0.7818609E-02  0.8561084E-01
       -1   -1    0    0    0  501  0.00000000000E+00  0.00000000000E+00  0.90219592548E+03  0.90219592549E+03  0.50400001928E-02 0. -1.
        1   -1    0    0  501    0  0.00000000000E+00  0.00000000000E+00 -0.12224395003E+04  0.12224395003E+04  0.50400001928E-02 0.  1.
    10030    2    1    2    0    0  0.00000000000E+00  0.00000000000E+00 -0.32024357484E+03  0.21246354258E+04  0.21003618130E+04 0.  0.
        5    1    3    3  502    0 -0.82482084034E+03  0.59326802556E+03  0.10858221659E+03  0.10218163028E+04  0.46999998093E+01 0. -1.
       -5    1    3    3    0  502  0.82482084034E+03 -0.59326802556E+03 -0.42882579143E+03  0.11028191231E+04  0.46999998093E+01 0.  1.
</event>
<event>
 5   0  0.3705828E-06  0.2101131E+04  0.7818609E-02  0.8560746E-01
       -2   -1    0    0    0  501  0.00000000000E+00  0.00000000000E+00  0.79338302373E+03  0.79338302373E+03  0.25500000920E-02 0. -1.
        2   -1    0    0  501    0  0.00000000000E+00  0.00000000000E+00 -0.13911154597E+04  0.13911154597E+04  0.25500000920E-02 0.  1.
    10030    2    1    2    0    0  0.00000000000E+00  0.00000000000E+00 -0.59773243596E+03  0.21844984834E+04  0.21011305431E+04 0.  0.
        5    1    3    3  502    0 -0.13676446404E+03  0.99711203225E+03  0.14296663839E+02  0.10065601860E+04  0.46999998093E+01 0. -1.
       -5    1    3    3    0  502  0.13676446404E+03 -0.99711203225E+03 -0.61202909980E+03  0.11779382974E+04  0.46999998093E+01 0.  1.
</event>
<event>
 5   0  0.1615098E-06  0.2100542E+04  0.7818609E-02  0.8561005E-01
       -1   -1    0    0    0  501  0.00000000000E+00  0.00000000000E+00  0.98925415214E+03  0.98925415216E+03  0.50400001928E-02 0. -1.
        1   -1    0    0  501    0  0.00000000000E+00  0.00000000000E+00 -0.11150516814E+04  0.11150516814E+04  0.50400001928E-02 0.  1.
    10030    2    1    2    0    0  0.00000000000E+00  0.00000000000E+00 -0.12579752928E+03  0.21043058336E+04  0.21005423164E+04 0.  0.
        1    1    3    3  502    0 -0.10342299557E+04  0.35307408008E+01 -0.24605258424E+03  0.10631020372E+04  0.50400001928E-02 0.  1.
       -1    1    3    3    0  502  0.10342299557E+04 -0.35307408008E+01  0.12025505496E+03  0.10412037964E+04  0.50400001928E-02 0. -1.
</event>
<event>
 5   0  0.1590067E-06  0.2101189E+04  0.7818609E-02  0.8560720E-01
       -1   -1    0    0    0  501  0.00000000000E+00  0.00000000000E+00  0.56508265413E+03  0.56508265415E+03  0.50400001928E-02 0. -1.
        1   -1    0    0  501    0  0.00000000000E+00  0.00000000000E+00 -0.19532515594E+04  0.19532515594E+04  0.50400001928E-02 0.  1.
    10030    2    1    2    0    0  0.00000000000E+00  0.00000000000E+00 -0.13881689053E+04  0.25183342136E+04  0.21011887830E+04 0.  0.
        5    1    3    3  502    0 -0.21586182976E+03  0.73676996134E+03  0.16543682102E+03  0.78537744889E+03  0.46999998093E+01 0. -1.
       -5    1    3    3    0  502  0.21586182976E+03 -0.73676996134E+03 -0.15536057263E+04  0.17329567647E+04  0.46999998093E+01 0.  1.
</event>
<event>
 5   0  0.1653260E-06  0.2098635E+04  0.7818609E-02  0.8561845E-01
        1   -1    0    0  501    0  0.00000000000E+00  0.00000000000E+00  0.54879900244E+03  0.54879900246E+03  0.50400001928E-02 0. -1.
       -1   -1    0    0    0  501  0.00000000000E+00  0.00000000000E+00 -0.20063219360E+04  0.20063219360E+04  0.50400001928E-02 0.  1.
    10030    2    1    2    0    0  0.00000000000E+00  0.00000000000E+00 -0.14575229335E+04  0.25551209384E+04  0.20986352490E+04 0.  0.
        3    1    3    3  502    0 -0.86878365403E+02 -0.46147844555E+03 -0.18712538123E+04  0.19292747462E+04  0.10100000352E+00 0.  1.
       -3    1    3    3    0  502  0.86878365403E+02  0.46147844555E+03  0.41373087877E+03  0.62584619223E+03  0.10100000352E+00 0. -1.
</event>
<event>
 5   0  0.3636435E-06  0.2099555E+04  0.7818609E-02  0.8561440E-01
       -2   -1    0    0    0  501  0.00000000000E+00  0.00000000000E+00  0.57420855888E+03  0.57420855889E+03  0.25500000920E-02 0. -1.
        2   -1    0    0  501    0  0.00000000000E+00  0.00000000000E+00 -0.19192196040E+04  0.19192196040E+04  0.25500000920E-02 0.  1.
    10030    2    1    2    0    0  0.00000000000E+00  0.00000000000E+00 -0.13450110452E+04  0.24934281629E+04  0.20995545461E+04 0.  0.
        4    1    3    3  502    0 -0.46909910834E+03  0.70561189061E+03  0.63507341579E+02  0.84969224367E+03  0.12699999809E+01 0. -1.
       -4    1    3    3    0  502  0.46909910834E+03 -0.70561189061E+03 -0.14085183867E+04  0.16437359193E+04  0.12699999809E+01 0.  1.
</event>
<event>
 5   0  0.1579820E-06  0.2100177E+04  0.7818609E-02  0.8561166E-01
        1   -1    0    0  501    0  0.00000000000E+00  0.00000000000E+00  0.16279425536E+04  0.16279425536E+04  0.50400001928E-02 0. -1.
       -1   -1    0    0    0  501  0.00000000000E+00  0.00000000000E+00 -0.67734918282E+03  0.67734918284E+03  0.50400001928E-02 0.  1.
    10030    2    1    2    0    0  0.00000000000E+00  0.00000000000E+00  0.95059337081E+03  0.23052917365E+04  0.21001767149E+04 0.  0.
        2    1    3    3  502    0  0.77387928099E+03  0.20393504440E+03 -0.27096006652E+03  0.84492484964E+03  0.25500000920E-02 0.  1.
       -2    1    3    3    0  502 -0.77387928099E+03 -0.20393504440E+03  0.12215534373E+04  0.14603668868E+04  0.25500000920E-02 0. -1.
</event>
<event>
 5   0  0.1257125E-06  0.2098914E+04  0.7818609E-02  0.8561722E-01
        3   -1    0    0  501    0  0.00000000000E+00  0.00000000000E+00  0.22304760566E+04  0.22304760589E+04  0.10100000352E+00 0. -1.
       -3   -1    0    0    0  501  0.00000000000E+00  0.00000000000E+00 -0.49377820732E+03  0.49377821765E+03  0.10100000352E+00 0.  1.
    10030    2    1    2    0    0  0.00000000000E+00  0.00000000000E+00  0.17366978492E+04  0.27242542765E+04  0.20989144679E+04 0.  0.
        4    1    3    3  502    0  0.58410879376E+02  0.36542803627E+03 -0.40627954894E+03  0.54955815461E+03  0.12699999809E+01 0.  1.
       -4    1    3    3    0  502 -0.58410879376E+02 -0.36542803627E+03  0.21429773982E+04  0.21746961219E+04  0.12699999809E+01 0. -1.
</event>
<event>
 5   0  0.3480134E-06  0.2114042E+04  0.7818609E-02  0.8555083E-01
       -2   -1    0    0    0  501  0.00000000000E+00  0.00000000000E+00  0.48198494185E+03  0.48198494185E+03  0.25500000920E-02 0.  1.
        2   -1    0    0  501    0  0.00000000000E+00  0.00000000000E+00 -0.23181081893E+04  0.23181081893E+04  0.25500000920E-02 0. -1.
    10030    2    1    2    0    0  0.00000000000E+00  0.00000000000E+00 -0.18361232474E+04  0.28000931311E+04  0.21140418547E+04 0.  0.
        1    1    3    3  502    0 -0.10079468810E+04  0.17609912388E+03 -0.12693106067E+04  0.16303733415E+04  0.50400001928E-02 0. -1.
       -1    1    3    3    0  502  0.10079468810E+04 -0.17609912388E+03 -0.56681264069E+03  0.11697197896E+04  0.50400001928E-02 0.  1.
</event>
<event>
 5   0  0.3636435E-06  0.2099997E+04  0.7818609E-02  0.8561245E-01
       -2   -1    0    0    0  501  0.00000000000E+00  0.00000000000E+00  0.45514887445E+03  0.45514887446E+03  0.25500000920E-02 0.  1.
        2   -1    0    0  501    0  0.00000000000E+00  0.00000000000E+00 -0.24222783229E+04  0.24222783229E+04  0.25500000920E-02 0. -1.
    10030    2    1    2    0    0  0.00000000000E+00  0.00000000000E+00 -0.19671294485E+04  0.28774271974E+04  0.20999973831E+04 0.  0.
        4    1    3    3  502    0  0.10462625997E+04 -0.78538151799E+02 -0.92770519686E+03  0.14005256920E+04  0.12699999809E+01 0. -1.
       -4    1    3    3    0  502 -0.10462625997E+04  0.78538151799E+02 -0.10394242516E+04  0.14769015054E+04  0.12699999809E+01 0.  1.
</event>
<event>
 5   0  0.3636435E-06  0.2099467E+04  0.7818609E-02  0.8561478E-01
       -2   -1    0    0    0  501  0.00000000000E+00  0.00000000000E+00  0.53182690877E+03  0.53182690877E+03  0.25500000920E-02 0.  1.
        2   -1    0    0  501    0  0.00000000000E+00  0.00000000000E+00 -0.20719910036E+04  0.20719910036E+04  0.25500000920E-02 0. -1.
    10030    2    1    2    0    0  0.00000000000E+00  0.00000000000E+00 -0.15401640948E+04  0.26038179123E+04  0.20994671423E+04 0.  0.
        4    1    3    3  502    0 -0.32830283370E+03 -0.15167659318E+03  0.45212498682E+03  0.57897077313E+03  0.12699999809E+01 0.  1.
       -4    1    3    3    0  502  0.32830283370E+03  0.15167659318E+03 -0.19922890816E+04  0.20248471392E+04  0.12699999809E+01 0. -1.
</event>
<event>
 5   0  0.3547583E-06  0.2100779E+04  0.7818609E-02  0.8560900E-01
        2   -1    0    0  501    0  0.00000000000E+00  0.00000000000E+00  0.68584885612E+03  0.68584885612E+03  0.25500000920E-02 0. -1.
       -2   -1    0    0    0  501  0.00000000000E+00  0.00000000000E+00 -0.16086896182E+04  0.16086896182E+04  0.25500000920E-02 0.  1.
    10030    2    1    2    0    0  0.00000000000E+00  0.00000000000E+00 -0.92284076205E+03  0.22945384743E+04  0.21007788408E+04 0.  0.
        2    1    3    3  502    0  0.89182403629E+03  0.13475987698E+03  0.12656955614E+03  0.91078547897E+03  0.25500000920E-02 0. -1.
       -2    1    3    3    0  502 -0.89182403629E+03 -0.13475987698E+03 -0.10494103182E+04  0.13837529953E+04  0.25500000920E-02 0.  1.
</event>
<event>
 5   0  0.3574927E-06  0.2099339E+04  0.7818609E-02  0.8561535E-01
       -2   -1    0    0    0  501  0.00000000000E+00  0.00000000000E+00  0.10978556553E+04  0.10978556553E+04  0.25500000920E-02 0. -1.
        2   -1    0    0  501    0  0.00000000000E+00  0.00000000000E+00 -0.10035983466E+04  0.10035983466E+04  0.25500000920E-02 0.  1.
    10030    2    1    2    0    0  0.00000000000E+00  0.00000000000E+00  0.94257308711E+02  0.21014540018E+04  0.20993390583E+04 0.  0.
        3    1    3    3  502    0 -0.36017063653E+03  0.34060656969E+03  0.97330149110E+03  0.10922689804E+04  0.10100000352E+00 0. -1.
       -3    1    3    3    0  502  0.36017063653E+03 -0.34060656969E+03 -0.87904418239E+03  0.10091850215E+04  0.10100000352E+00 0.  1.
</event>
<event>
 5   0  0.1653260E-06  0.2100148E+04  0.7818609E-02  0.8561178E-01
        1   -1    0    0  501    0  0.00000000000E+00  0.00000000000E+00  0.15072129227E+04  0.15072129227E+04  0.50400001928E-02 0. -1.
       -1   -1    0    0    0  501  0.00000000000E+00  0.00000000000E+00 -0.73158601318E+03  0.73158601319E+03  0.50400001928E-02 0.  1.
    10030    2    1    2    0    0  0.00000000000E+00  0.00000000000E+00  0.77562690954E+03  0.22387989359E+04  0.21001484644E+04 0.  0.
        3    1    3    3  502    0  0.69931312181E+03  0.56668818970E+03  0.96433338090E+03  0.13191335135E+04  0.10100000352E+00 0. -1.
       -3    1    3    3    0  502 -0.69931312181E+03 -0.56668818970E+03 -0.18870647137E+03  0.91966542243E+03  0.10100000352E+00 0.  1.
</event>
<event>
 5   0  0.1646510E-06  0.2095121E+04  0.7818609E-02  0.8563395E-01
        1   -1    0    0  501    0  0.00000000000E+00  0.00000000000E+00  0.10185205754E+04  0.10185205754E+04  0.50400001928E-02 0.  1.
       -1   -1    0    0    0  501  0.00000000000E+00  0.00000000000E+00 -0.10774288623E+04  0.10774288623E+04  0.50400001928E-02 0. -1.
    10030    2    1    2    0    0  0.00000000000E+00  0.00000000000E+00 -0.58908286874E+02  0.20959494377E+04  0.20951214426E+04 0.  0.
        4    1    3    3  502    0 -0.79322845092E+03  0.68254066050E+03  0.18614021202E+02  0.10466237257E+04  0.12699999809E+01 0. -1.
       -4    1    3    3    0  502  0.79322845092E+03 -0.68254066050E+03 -0.77522308076E+02  0.10493257119E+04  0.12699999809E+01 0.  1.
</event>
<event>
 5   0  0.3574927E-06  0.2101387E+04  0.7818609E-02  0.8560633E-01
       -2   -1    0    0    0  501  0.00000000000E+00  0.00000000000E+00  0.95015406639E+03  0.95015406639E+03  0.25500000920E-02 0.  1.
        2   -1    0    0  501    0  0.00000000000E+00  0.00000000000E+00 -0.11618716633E+04  0.11618716633E+04  0.25500000920E-02 0. -1.
    10030    2    1    2    0    0  0.00000000000E+00  0.00000000000E+00 -0.21171759688E+03  0.21120257297E+04  0.21013872423E+04 0.  0.
        3    1    3    3  502    0 -0.44864288150E+03 -0.83728975262E+03 -0.55715598096E+03  0.11012526333E+04  0.10100000352E+00 0. -1.
       -3    1    3    3    0  502  0.44864288150E+03  0.83728975262E+03  0.34543838408E+03  0.10107730964E+04  0.10100000352E+00 0.  1.
</event>
<event>
 5   0  0.3547583E-06  0.2099858E+04  0.7818609E-02  0.8561306E-01
        2   -1    0    0  501    0  0.00000000000E+00  0.00000000000E+00  0.93334054558E+03  0.93334054558E+03  0.25500000920E-02 0. -1.
       -2   -1    0    0    0  501  0.00000000000E+00  0.00000000000E+00 -0.11810806694E+04  0.11810806694E+04  0.25500000920E-02 0.  1.
    10030    2    1    2    0    0  0.00000000000E+00  0.00000000000E+00 -0.24774012385E+03  0.21144212150E+04  0.20998575917E+04 0.  0.
        2    1    3    3  502    0  0.42567625014E+01  0.68433729248E+03 -0.92564295998E+03  0.11511518315E+04  0.25500000920E-02 0.  1.
       -2    1    3    3    0  502 -0.42567625014E+01 -0.68433729248E+03  0.67790283612E+03  0.96326938347E+03  0.25500000920E-02 0. -1.
</event>
<event>
 5   0  0.1615098E-06  0.2099546E+04  0.7818609E-02  0.8561444E-01
        1   -1    0    0  501    0  0.00000000000E+00  0.00000000000E+00  0.10006834931E+04  0.10006834931E+04  0.50400001928E-02 0.  1.
       -1   -1    0    0    0  501  0.00000000000E+00  0.00000000000E+00 -0.11012703048E+04  0.11012703048E+04  0.50400001928E-02 0. -1.
    10030    2    1    2    0    0  0.00000000000E+00  0.00000000000E+00 -0.10058681175E+03  0.21019537979E+04  0.20995456799E+04 0.  0.
        1    1    3    3  502    0 -0.50540995302E+03 -0.29943384246E+03 -0.92130460123E+03  0.10926582333E+04  0.50400001928E-02 0. -1.
       -1    1    3    3    0  502  0.50540995302E+03  0.29943384246E+03  0.82071778948E+03  0.10092955645E+04  0.50400001928E-02 0.  1.
</event>
<event>
 5   0  0.3480134E-06  0.2101194E+04  0.7818609E-02  0.8560717E-01
        2   -1    0    0  501    0  0.00000000000E+00  0.00000000000E+00  0.11919851532E+04  0.11919851532E+04  0.25500000920E-02 0.  1.
       -2   -1    0    0    0  501  0.00000000000E+00  0.00000000000E+00 -0.92598008701E+03  0.92598008701E+03  0.25500000920E-02 0. -1.
    10030    2    1    2    0    0  0.00000000000E+00  0.00000000000E+00  0.26600506619E+03  0.21179652402E+04  0.21011944373E+04 0.  0.
        1    1    3    3  502    0 -0.53697006734E+03 -0.74677551452E+03 -0.37873451840E+03  0.99471119314E+03  0.50400001928E-02 0. -1.
       -1    1    3    3    0  502  0.53697006734E+03  0.74677551452E+03  0.64473958459E+03  0.11232540471E+04  0.50400001928E-02 0.  1.
</event>
<event>
 5   0  0.1579820E-06  0.2099674E+04  0.7818609E-02  0.8561387E-01
        1   -1    0    0  501    0  0.00000000000E+00  0.00000000000E+00  0.13064127050E+04  0.13064127050E+04  0.50400001928E-02 0.  1.
       -1   -1    0    0    0  501  0.00000000000E+00  0.00000000000E+00 -0.84365216268E+03  0.84365216269E+03  0.50400001928E-02 0. -1.
    10030    2    1    2    0    0  0.00000000000E+00  0.00000000000E+00  0.46276054236E+03  0.21500648677E+04  0.20996741690E+04 0.  0.
        2    1    3    3  502    0 -0.39296685116E+03  0.64746412259E+03  0.97582505942E+03  0.12352600061E+04  0.25500000920E-02 0.  1.
       -2    1    3    3    0  502  0.39296685116E+03 -0.64746412259E+03 -0.51306451706E+03  0.91480486161E+03  0.25500000920E-02 0. -1.
</event>
<event>
 5   0  0.3705828E-06  0.2100328E+04  0.7818609E-02  0.8561099E-01
       -2   -1    0    0    0  501  0.00000000000E+00  0.00000000000E+00  0.57765514709E+03  0.57765514710E+03  0.25500000920E-02 0. -1.
        2   -1    0    0  501    0  0.00000000000E+00  0.00000000000E+00 -0.19091752487E+04  0.19091752487E+04  0.25500000920E-02 0.  1.
    10030    2    1    2    0    0  0.00000000000E+00  0.00000000000E+00 -0.13315201016E+04  0.24868303958E+04  0.21003284592E+04 0.  0.
        5    1    3    3  502    0  0.21546827394E+03 -0.68531989217E+03  0.24118122158E+03  0.75781290786E+03  0.46999998093E+01 0. -1.
       -5    1    3    3    0  502 -0.21546827394E+03  0.68531989217E+03 -0.15727013232E+04  0.17290174880E+04  0.46999998093E+01 0.  1.
</event>
<event>
 5   0  0.1579820E-06  0.2101114E+04  0.7818609E-02  0.8560753E-01
        1   -1    0    0  501    0  0.00000000000E+00  0.00000000000E+00  0.11804744920E+04  0.11804744920E+04  0.50400001928E-02 0. -1.
       -1   -1    0    0    0  501  0.00000000000E+00  0.00000000000E+00 -0.93493805268E+03  0.93493805270E+03  0.50400001928E-02 0.  1.
    10030    2    1    2    0    0  0.00000000000E+00  0.00000000000E+00  0.24553643932E+03  0.21154125447E+04  0.21011144879E+04 0.  0.
        2    1    3    3  502    0  0.51486017600E+03 -0.89271605124E+02 -0.79481735387E+03  0.95120189568E+03  0.25500000920E-02 0.  1.
       -2    1    3    3    0  502 -0.51486017600E+03  0.89271605124E+02  0.10403537932E+04  0.11642106490E+04  0.25500000920E-02 0. -1.
</event>
<event>
 5   0  0.1653260E-06  0.2099943E+04  0.7818609E-02  0.8561269E-01
        1   -1    0    0  501    0  0.00000000000E+00  0.00000000000E+00  0.12311212037E+04  0.12311212037E+04  0.50400001928E-02 0. -1.
       -1   -1    0    0    0  501  0.00000000000E+00  0.00000000000E+00 -0.89547615572E+03  0.89547615574E+03  0.50400001928E-02 0.  1.
    10030    2    1    2    0    0  0.00000000000E+00  0.00000000000E+00  0.33564504796E+03  0.21265973594E+04  0.20999425542E+04 0.  0.
        3    1    3    3  502    0  0.81282162975E+03  0.61864716833E+03 -0.78235545406E+02  0.10244628502E+04  0.10100000352E+00 0.  1.
       -3    1    3    3    0  502 -0.81282162975E+03 -0.61864716833E+03  0.41388059337E+03  0.11021345092E+04  0.10100000352E+00 0. -1.
</event>
<event>
 5   0  0.1590067E-06  0.2100421E+04  0.7818609E-02  0.8561058E-01
        1   -1    0    0  501    0  0.00000000000E+00  0.00000000000E+00  0.14201449972E+04  0.14201449972E+04  0.50400001928E-02 0. -1.
       -1   -1    0    0    0  501  0.00000000000E+00  0.00000000000E+00 -0.77664067662E+03  0.77664067663E+03  0.50400001928E-02 0.  1.
    10030    2    1    2    0    0  0.00000000000E+00  0.00000000000E+00  0.64350432061E+03  0.21967856739E+04  0.21004212640E+04 0.  0.
        5    1    3    3  502    0  0.30354967733E+03 -0.67069903248E+03  0.11050731263E+04  0.13278510094E+04  0.46999998093E+01 0. -1.
       -5    1    3    3    0  502 -0.30354967733E+03  0.67069903248E+03 -0.46156880565E+03  0.86893466447E+03  0.46999998093E+01 0.  1.
</event>
<event>
 5   0  0.3480134E-06  0.2101826E+04  0.7818609E-02  0.8560439E-01
        2   -1    0    0  501    0  0.00000000000E+00  0.00000000000E+00  0.10575707857E+04  0.10575707857E+04  0.25500000920E-02 0. -1.
       -2   -1    0    0    0  501  0.00000000000E+00  0.00000000000E+00 -0.10442972166E+04  0.10442972166E+04  0.25500000920E-02 0.  1.
    10030    2    1    2    0    0  0.00000000000E+00  0.00000000000E+00  0.13273569104E+02  0.21018680023E+04  0.21018260897E+04 0.  0.
        1    1    3    3  502    0  0.93121534958E+03  0.43367435694E+03 -0.21513948598E+03  0.10495334552E+04  0.50400001928E-02 0.  1.
       -1    1    3    3    0  502 -0.93121534958E+03 -0.43367435694E+03  0.22841305508E+03  0.10523345471E+04  0.50400001928E-02 0. -1.
</event>
<event>
 5   0  0.1653260E-06  0.2100321E+04  0.7818609E-02  0.8561102E-01
        1   -1    0    0  501    0  0.00000000000E+00  0.00000000000E+00  0.82625769005E+03  0.82625769006E+03  0.50400001928E-02 0. -1.
       -1   -1    0    0    0  501  0.00000000000E+00  0.00000000000E+00 -0.13347375020E+04  0.13347375020E+04  0.50400001928E-02 0.  1.
    10030    2    1    2    0    0  0.00000000000E+00  0.00000000000E+00 -0.50847981196E+03  0.21609951921E+04  0.21003210471E+04 0.  0.
        3    1    3    3  502    0 -0.67155178877E+03  0.80330537957E+03 -0.33754665927E+03  0.11000995842E+04  0.10100000352E+00 0. -1.
       -3    1    3    3    0  502  0.67155178877E+03 -0.80330537957E+03 -0.17093315269E+03  0.10608956078E+04  0.10100000352E+00 0.  1.
</event>
<event>
 5   0  0.3547583E-06  0.2106224E+04  0.7818609E-02  0.8558506E-01
        2   -1    0    0  501    0  0.00000000000E+00  0.00000000000E+00  0.13827716190E+04  0.13827716190E+04  0.25500000920E-02 0. -1.
       -2   -1    0    0    0  501  0.00000000000E+00  0.00000000000E+00 -0.80204514653E+03  0.80204514653E+03  0.25500000920E-02 0.  1.
    10030    2    1    2    0    0  0.00000000000E+00  0.00000000000E+00  0.58072647247E+03  0.21848167655E+04  0.21062243620E+04 0.  0.
        2    1    3    3  502    0  0.16817943545E+03 -0.10360449975E+04  0.20130083388E+03  0.10687355075E+04  0.25500000920E-02 0.  1.
       -2    1    3    3    0  502 -0.16817943545E+03  0.10360449975E+04  0.37942563859E+03  0.11160812580E+04  0.25500000920E-02 0. -1.
</event>
<event>
 5   0  0.1646510E-06  0.2099957E+04  0.7818609E-02  0.8561262E-01
       -1   -1    0    0    0  501  0.00000000000E+00  0.00000000000E+00  0.59060160495E+03  0.59060160497E+03  0.50400001928E-02 0.  1.
        1   -1    0    0  501    0  0.00000000000E+00  0.00000000000E+00 -0.18666635096E+04  0.18666635096E+04  0.50400001928E-02 0. -1.
    10030    2    1    2    0    0  0.00000000000E+00  0.00000000000E+00 -0.12760619046E+04  0.24572651145E+04  0.20999566326E+04 0.  0.
        4    1    3    3  502    0 -0.84322292253E+03 -0.60103905290E+03 -0.43474779834E+03  0.11230672737E+04  0.12699999809E+01 0.  1.
       -4    1    3    3    0  502  0.84322292253E+03  0.60103905290E+03 -0.84131410628E+03  0.13341978408E+04  0.12699999809E+01 0. -1.
</event>
<event>
 5   0  0.1590067E-06  0.2098230E+04  0.7818609E-02  0.8562024E-01
       -1   -1    0    0    0  501  0.00000000000E+00  0.00000000000E+00  0.63261332984E+03  0.63261332986E+03  0.50400001928E-02 0.  1.
        1   -1    0    0  501    0  0.00000000000E+00  0.00000000000E+00 -0.17398336823E+04  0.17398336823E+04  0.50400001928E-02 0. -1.
    10030    2    1    2    0    0  0.00000000000E+00  0.00000000000E+00 -0.11072203524E+04  0.23724470122E+04  0.20982297102E+04 0.  0.
        5    1    3    3  502    0  0.15846423223E+02 -0.10407162498E+04 -0.70223662388E+03  0.12555874273E+04  0.46999998093E+01 0. -1.
       -5    1    3    3    0  502 -0.15846423223E+02  0.10407162498E+04 -0.40498372857E+03  0.11168595848E+04  0.46999998093E+01 0.  1.
</event>
<event>
 5   0  0.3705828E-06  0.2100013E+04  0.7818609E-02  0.8561238E-01
        2   -1    0    0  501    0  0.00000000000E+00  0.00000000000E+00  0.96147317088E+03  0.96147317089E+03  0.25500000920E-02 0.  1.
       -2   -1    0    0    0  501  0.00000000000E+00  0.00000000000E+00 -0.11466917397E+04  0.11466917397E+04  0.25500000920E-02 0. -1.
    10030    2    1    2    0    0  0.00000000000E+00  0.00000000000E+00 -0.18521856882E+03  0.21081649106E+04  0.21000127076E+04 0.  0.
        5    1    3    3  502    0  0.33901971804E+03 -0.28144814023E+03  0.86416125134E+03  0.97002277456E+03  0.46999998093E+01 0.  1.
       -5    1    3    3    0  502 -0.33901971804E+03  0.28144814023E+03 -0.10493798202E+04  0.11381421360E+04  0.46999998093E+01 0. -1.
</event>
<event>
 5   0  0.1590067E-06  0.2099332E+04  0.7818609E-02  0.8561538E-01
       -1   -1    0    0    0  501  0.00000000000E+00  0.00000000000E+00  0.71548126700E+03  0.71548126702E+03  0.50400001928E-02 0.  1.
        1   -1    0    0  501    0  0.00000000000E+00  0.00000000000E+00 -0.15399408394E+04  0.15399408394E+04  0.50400001928E-02 0. -1.
    10030    2    1    2    0    0  0.00000000000E+00  0.00000000000E+00 -0.82445957242E+03  0.22554221064E+04  0.20993321061E+04 0.  0.
        5    1    3    3  502    0 -0.20222479931E+02  0.73027112676E+03  0.39751530811E+03  0.83171231652E+03  0.46999998093E+01 0.  1.
       -5    1    3    3    0  502  0.20222479931E+02 -0.73027112676E+03 -0.12219748805E+04  0.14237097899E+04  0.46999998093E+01 0. -1.
</event>
<event>
 5   0  0.1579820E-06  0.2100888E+04  0.7818609E-02  0.8560852E-01
       -1   -1    0    0    0  501  0.00000000000E+00  0.00000000000E+00  0.60670298800E+03  0.60670298802E+03  0.50400001928E-02 0. -1.
        1   -1    0    0  501    0  0.00000000000E+00  0.00000000000E+00 -0.18187358502E+04  0.18187358502E+04  0.50400001928E-02 0.  1.
    10030    2    1    2    0    0  0.00000000000E+00  0.00000000000E+00 -0.12120328622E+04  0.24254388383E+04  0.21008878835E+04 0.  0.
        2    1    3    3  502    0  0.96292128020E+03 -0.35742441429E+03 -0.35186531552E+03  0.10857158026E+04  0.25500000920E-02 0.  1.
       -2    1    3    3    0  502 -0.96292128020E+03  0.35742441429E+03 -0.86016754671E+03  0.13397230356E+04  0.25500000920E-02 0. -1.
</event>
<event>
 5   0  0.3480134E-06  0.2098840E+04  0.7818609E-02  0.8561754E-01
        2   -1    0    0  501    0  0.00000000000E+00  0.00000000000E+00  0.10730704934E+04  0.10730704934E+04  0.25500000920E-02 0. -1.
       -2   -1    0    0    0  501  0.00000000000E+00  0.00000000000E+00 -0.10262909254E+04  0.10262909254E+04  0.25500000920E-02 0.  1.
    10030    2    1    2    0    0  0.00000000000E+00  0.00000000000E+00  0.46779567984E+02  0.20993614188E+04  0.20988401651E+04 0.  0.
        1    1    3    3  502    0 -0.23484342366E+03  0.37354996940E+03  0.97577723777E+03  0.10709025311E+04  0.50400001928E-02 0. -1.
       -1    1    3    3    0  502  0.23484342366E+03 -0.37354996940E+03 -0.92899766978E+03  0.10284588877E+04  0.50400001928E-02 0.  1.
</event>
<event>
 5   0  0.1646510E-06  0.2101498E+04  0.7818609E-02  0.8560584E-01
       -1   -1    0    0    0  501  0.00000000000E+00  0.00000000000E+00  0.97411426906E+03  0.97411426908E+03  0.50400001928E-02 0. -1.
        1   -1    0    0  501    0  0.00000000000E+00  0.00000000000E+00 -0.11334128821E+04  0.11334128821E+04  0.50400001928E-02 0.  1.
    10030    2    1    2    0    0  0.00000000000E+00  0.00000000000E+00 -0.15929861301E+03  0.21075271512E+04  0.21014981905E+04 0.  0.
        4    1    3    3  502    0 -0.26061436325E+03  0.85124718655E+02  0.93761077944E+03  0.97687340566E+03  0.12699999809E+01 0. -1.
       -4    1    3    3    0  502  0.26061436325E+03 -0.85124718655E+02 -0.10969093925E+04  0.11306537455E+04  0.12699999809E+01 0.  1.
</event>
<event>
 5   0  0.3480134E-06  0.2100246E+04  0.7818609E-02  0.8561135E-01
        2   -1    0    0  501    0  0.00000000000E+00  0.00000000000E+00  0.11292951577E+04  0.11292951577E+04  0.25500000920E-02 0. -1.
       -2   -1    0    0    0  501  0.00000000000E+00  0.00000000000E+00 -0.97650143010E+03  0.97650143010E+03  0.25500000920E-02 0.  1.
    10030    2    1    2    0    0  0.00000000000E+00  0.00000000000E+00  0.15279372761E+03  0.21057965878E+04  0.21002460204E+04 0.  0.
        1    1    3    3  502    0  0.23007839413E+03  0.29610324102E+03 -0.90708542291E+03  0.98153816089E+03  0.50400001928E-02 0.  1.
       -1    1    3    3    0  502 -0.23007839413E+03 -0.29610324102E+03  0.10598791505E+04  0.11242584269E+04  0.50400001928E-02 0. -1.
</event>
<event>
 5   0  0.3480134E-06  0.2099205E+04  0.7818609E-02  0.8561594E-01
        2   -1    0    0  501    0  0.00000000000E+00  0.00000000000E+00  0.10712426149E+04  0.10712426149E+04  0.25500000920E-02 0. -1.
       -2   -1    0    0    0  501  0.00000000000E+00  0.00000000000E+00 -0.10283993269E+04  0.10283993269E+04  0.25500000920E-02 0.  1.
    10030    2    1    2    0    0  0.00000000000E+00  0.00000000000E+00  0.42843287939E+02  0.20996419418E+04  0.20992047867E+04 0.  0.
        1    1    3    3  502    0 -0.83997923658E+03 -0.55079061860E+03  0.32600067522E+03  0.10560359197E+04  0.50400001928E-02 0. -1.
       -1    1    3    3    0  502  0.83997923658E+03  0.55079061860E+03 -0.28315738728E+03  0.10436060221E+04  0.50400001928E-02 0.  1.
</event>
<event>
 5   0  0.1646510E-06  0.2092707E+04  0.7818609E-02  0.8564463E-01
        1   -1    0    0  501    0  0.00000000000E+00  0.00000000000E+00  0.23682608983E+04  0.23682608983E+04  0.50400001928E-02 0. -1.
       -1   -1    0    0    0  501  0.00000000000E+00  0.00000000000E+00 -0.46230374634E+03  0.46230374637E+03  0.50400001928E-02 0.  1.
    10030    2    1    2    0    0  0.00000000000E+00  0.00000000000E+00  0.19059571520E+04  0.28305646447E+04  0.20927072281E+04 0.  0.
        4    1    3    3  502    0 -0.33578602601E+03  0.86373268764E+03  0.29580054531E+03  0.97277231995E+03  0.12699999809E+01 0.  1.
       -4    1    3    3    0  502  0.33578602601E+03 -0.86373268764E+03  0.16101566067E+04  0.18577923247E+04  0.12699999809E+01 0. -1.
</event>
<event>
 5   0  0.1653260E-06  0.2100366E+04  0.7818609E-02  0.8561082E-01
        1   -1    0    0  501    0  0.00000000000E+00  0.00000000000E+00  0.18269732551E+04  0.18269732551E+04  0.50400001928E-02 0.  1.
       -1   -1    0    0    0  501  0.00000000000E+00  0.00000000000E+00 -0.60366770883E+03  0.60366770885E+03  0.50400001928E-02 0. -1.
    10030    2    1    2    0    0  0.00000000000E+00  0.00000000000E+00  0.12233055463E+04  0.24306409640E+04  0.21003664052E+04 0.  0.
        3    1    3    3  502    0 -0.25734156910E+03  0.48695241589E+03 -0.42312036008E+03  0.69453451163E+03  0.10100000352E+00 0. -1.
       -3    1    3    3    0  502  0.25734156910E+03 -0.48695241589E+03  0.16464259064E+04  0.17361064524E+04  0.10100000352E+00 0.  1.
</event>
<event>
 5   0  0.3636435E-06  0.2098344E+04  0.7818609E-02  0.8561973E-01
        2   -1    0    0  501    0  0.00000000000E+00  0.00000000000E+00  0.10781024997E+04  0.10781024997E+04  0.25500000920E-02 0. -1.
       -2   -1    0    0    0  501  0.00000000000E+00  0.00000000000E+00 -0.10210180772E+04  0.10210180772E+04  0.25500000920E-02 0.  1.
    10030    2    1    2    0    0  0.00000000000E+00  0.00000000000E+00  0.57084422541E+02  0.20991205769E+04  0.20983442437E+04 0.  0.
        4    1    3    3  502    0 -0.92128928797E+03  0.26344526288E+03 -0.39891339670E+03  0.10379358697E+04  0.12699999809E+01 0. -1.
       -4    1    3    3    0  502  0.92128928797E+03 -0.26344526288E+03  0.45599781924E+03  0.10611847072E+04  0.12699999809E+01 0.  1.
</event>
<event>
 5   0  0.1646510E-06  0.2101516E+04  0.7818609E-02  0.8560576E-01
       -1   -1    0    0    0  501  0.00000000000E+00  0.00000000000E+00  0.59368431784E+03  0.59368431787E+03  0.50400001928E-02 0. -1.
        1   -1    0    0  501    0  0.00000000000E+00  0.00000000000E+00 -0.18597289873E+04  0.18597289873E+04  0.50400001928E-02 0.  1.
    10030    2    1    2    0    0  0.00000000000E+00  0.00000000000E+00 -0.12660446694E+04  0.24534133052E+04  0.21015155819E+04 0.  0.
        4    1    3    3  502    0 -0.99490847468E+02 -0.76093085538E+03  0.20492353876E+03  0.79429809583E+03  0.12699999809E+01 0. -1.
       -4    1    3    3    0  502  0.99490847468E+02  0.76093085538E+03 -0.14709682082E+04  0.16591152093E+04  0.12699999809E+01 0.  1.
</event>
<event>
 5   0  0.1615098E-06  0.2102155E+04  0.7818609E-02  0.8560295E-01
        1   -1    0    0  501    0  0.00000000000E+00  0.00000000000E+00  0.15853894291E+04  0.15853894291E+04  0.50400001928E-02 0. -1.
       -1   -1    0    0    0  501  0.00000000000E+00  0.00000000000E+00 -0.69684070175E+03  0.69684070177E+03  0.50400001928E-02 0.  1.
    10030    2    1    2    0    0  0.00000000000E+00  0.00000000000E+00  0.88854872738E+03  0.22822301309E+04  0.21021549728E+04 0.  0.
        1    1    3    3  502    0  0.90202611988E+03 -0.46264308317E+03  0.14287033964E+03  0.10237683709E+04  0.50400001928E-02 0.  1.
       -1    1    3    3    0  502 -0.90202611988E+03  0.46264308317E+03  0.74567838775E+03  0.12584617600E+04  0.50400001928E-02 0. -1.
</event>
<event>
 5   0  0.1590067E-06  0.2100747E+04  0.7818609E-02  0.8560914E-01
       -1   -1    0    0    0  501  0.00000000000E+00  0.00000000000E+00  0.91332464334E+03  0.91332464335E+03  0.50400001928E-02 0.  1.
        1   -1    0    0  501    0  0.00000000000E+00  0.00000000000E+00 -0.12079875841E+04  0.12079875841E+04  0.50400001928E-02 0. -1.
    10030    2    1    2    0    0  0.00000000000E+00  0.00000000000E+00 -0.29466294075E+03  0.21213122275E+04  0.21007473236E+04 0.  0.
        5    1    3    3  502    0 -0.12364529222E+03  0.91209186148E+03 -0.65831182779E+03  0.11316343379E+04  0.46999998093E+01 0. -1.
       -5    1    3    3    0  502  0.12364529222E+03 -0.91209186148E+03  0.36364888704E+03  0.98967788957E+03  0.46999998093E+01 0.  1.
</event>
<event>
 5   0  0.3636435E-06  0.2098315E+04  0.7818609E-02  0.8561986E-01
        2   -1    0    0  501    0  0.00000000000E+00  0.00000000000E+00  0.95741491430E+03  0.95741491430E+03  0.25500000920E-02 0. -1.
       -2   -1    0    0    0  501  0.00000000000E+00  0.00000000000E+00 -0.11496906453E+04  0.11496906453E+04  0.25500000920E-02 0.  1.
    10030    2    1    2    0    0  0.00000000000E+00  0.00000000000E+00 -0.19227573095E+03  0.21071055596E+04  0.20983145337E+04 0.  0.
        4    1    3    3  502    0 -0.85279759376E+03 -0.48108122337E+03 -0.47458076688E+03  0.10880861164E+04  0.12699999809E+01 0.  1.
       -4    1    3    3    0  502  0.85279759376E+03  0.48108122337E+03  0.28230503593E+03  0.10190194432E+04  0.12699999809E+01 0. -1.
</event>
<event>
 5   0  0.3547583E-06  0.2099948E+04  0.7818609E-02  0.8561266E-01
        2   -1    0    0  501    0  0.00000000000E+00  0.00000000000E+00  0.66646666417E+03  0.66646666418E+03  0.25500000920E-02 0. -1.
       -2   -1    0    0    0  501  0.00000000000E+00  0.00000000000E+00 -0.16541643035E+04  0.16541643035E+04  0.25500000920E-02 0.  1.
    10030    2    1    2    0    0  0.00000000000E+00  0.00000000000E+00 -0.98769763928E+03  0.23206309676E+04  0.20999479663E+04 0.  0.
        2    1    3    3  502    0  0.60055437267E+03  0.70526002262E+03 -0.10401568536E+04  0.13928329168E+04  0.25500000920E-02 0.  1.
       -2    1    3    3    0  502 -0.60055437267E+03 -0.70526002262E+03  0.52459214273E+02  0.92779805087E+03  0.25500000920E-02 0. -1.
</event>
<event>
 5   0  0.1590067E-06  0.2099582E+04  0.7818609E-02  0.8561428E-01
        1   -1    0    0  501    0  0.00000000000E+00  0.00000000000E+00  0.84988515138E+03  0.84988515140E+03  0.50400001928E-02 0.  1.
       -1   -1    0    0    0  501  0.00000000000E+00  0.00000000000E+00 -0.12967173148E+04  0.12967173148E+04  0.50400001928E-02 0. -1.
    10030    2    1    2    0    0  0.00000000000E+00  0.00000000000E+00 -0.44683216343E+03  0.21466024662E+04  0.20995816644E+04 0.  0.
        5    1    3    3  502    0 -0.53418513907E+03  0.24871998623E+02 -0.11470110970E+04  0.12655547898E+04  0.46999998093E+01 0. -1.
       -5    1    3    3    0  502  0.53418513907E+03 -0.24871998623E+02  0.70017893362E+03  0.88104767646E+03  0.46999998093E+01 0.  1.
</event>
<event>
 5   0  0.1615098E-06  0.2100790E+04  0.7818609E-02  0.8560895E-01
       -1   -1    0    0    0  501  0.00000000000E+00  0.00000000000E+00  0.10459177452E+04  0.10459177453E+04  0.50400001928E-02 0. -1.
        1   -1    0    0  501    0  0.00000000000E+00  0.00000000000E+00 -0.10548917703E+04  0.10548917703E+04  0.50400001928E-02 0.  1.
    10030    2    1    2    0    0  0.00000000000E+00  0.00000000000E+00 -0.89740250542E+01  0.21008095156E+04  0.21007903483E+04 0.  0.
        1    1    3    3  502    0  0.80913070245E+03  0.13159331853E+03 -0.66124312964E+03  0.10532102220E+04  0.50400001928E-02 0.  1.
       -1    1    3    3    0  502 -0.80913070245E+03 -0.13159331853E+03  0.65226910459E+03  0.10475992936E+04  0.50400001928E-02 0. -1.
</event>
<event>
 5   0  0.3574927E-06  0.2099404E+04  0.7818609E-02  0.8561506E-01
        2   -1    0    0  501    0  0.00000000000E+00  0.00000000000E+00  0.97281345719E+03  0.97281345720E+03  0.25500000920E-02 0. -1.
       -2   -1    0    0    0  501  0.00000000000E+00  0.00000000000E+00 -0.11326676075E+04  0.11326676075E+04  0.25500000920E-02 0.  1.
    10030    2    1    2    0    0  0.00000000000E+00  0.00000000000E+00 -0.15985415034E+03  0.21054810647E+04  0.20994040022E+04 0.  0.
        3    1    3    3  502    0 -0.87144657985E+03 -0.55633778657E+03  0.10210150127E+03  0.10389204017E+04  0.10100000352E+00 0. -1.
       -3    1    3    3    0  502  0.87144657985E+03  0.55633778657E+03 -0.26195565160E+03  0.10665606630E+04  0.10100000352E+00 0.  1.
</event>
<event>
 5   0  0.3636435E-06  0.2099734E+04  0.7818609E-02  0.8561361E-01
       -2   -1    0    0    0  501  0.00000000000E+00  0.00000000000E+00  0.93081911909E+03  0.93081911909E+03  0.25500000920E-02 0. -1.
        2   -1    0    0  501    0  0.00000000000E+00  0.00000000000E+00 -0.11841402419E+04  0.11841402419E+04  0.25500000920E-02 0.  1.
    10030    2    1    2    0    0  0.00000000000E+00  0.00000000000E+00 -0.25332112278E+03  0.21149593610E+04  0.20997336753E+04 0.  0.
        4    1    3    3  502    0 -0.85580991425E+03  0.39352294077E+03  0.34032598154E+03  0.10015459554E+04  0.12699999809E+01 0. -1.
       -4    1    3    3    0  502  0.85580991425E+03 -0.39352294077E+03 -0.59364710432E+03  0.11134134055E+04  0.12699999809E+01 0.  1.
</event>
<event>
 5   0  0.3636435E-06  0.2099908E+04  0.7818609E-02  0.8561284E-01
        2   -1    0    0  501    0  0.00000000000E+00  0.00000000000E+00  0.12037758373E+04  0.12037758373E+04  0.25500000920E-02 0. -1.
       -2   -1    0    0    0  501  0.00000000000E+00  0.00000000000E+00 -0.91578810698E+03  0.91578810699E+03  0.25500000920E-02 0.  1.
    10030    2    1    2    0    0  0.00000000000E+00  0.00000000000E+00  0.28798773035E+03  0.21195639443E+04  0.20999081840E+04 0.  0.
        4    1    3    3  502    0  0.31827673968E+03 -0.51905097413E+03  0.10073881688E+04  0.11770924060E+04  0.12699999809E+01 0. -1.
       -4    1    3    3    0  502 -0.31827673968E+03  0.51905097413E+03 -0.71940043845E+03  0.94247153830E+03  0.12699999809E+01 0.  1.
</event>
<event>
 5   0  0.1653260E-06  0.2099861E+04  0.7818609E-02  0.8561304E-01
        1   -1    0    0  501    0  0.00000000000E+00  0.00000000000E+00  0.27033751958E+04  0.27033751958E+04  0.50400001928E-02 0. -1.
       -1   -1    0    0    0  501  0.00000000000E+00  0.00000000000E+00 -0.40776963767E+03  0.40776963770E+03  0.50400001928E-02 0.  1.
    10030    2    1    2    0    0  0.00000000000E+00  0.00000000000E+00  0.22956055581E+04  0.31111448335E+04  0.20998612565E+04 0.  0.
        3    1    3    3  502    0  0.44074666637E+03  0.59060062130E+03  0.22558218170E+04  0.23731411248E+04  0.10100000352E+00 0. -1.
       -3    1    3    3    0  502 -0.44074666637E+03 -0.59060062130E+03  0.39783741085E+02  0.73800370870E+03  0.10100000352E+00 0.  1.
</event>
<event>
 5   0  0.1653260E-06  0.2098817E+04  0.7818609E-02  0.8561765E-01
       -1   -1    0    0    0  501  0.00000000000E+00  0.00000000000E+00  0.14858031706E+04  0.14858031706E+04  0.50400001928E-02 0.  1.
        1   -1    0    0  501    0  0.00000000000E+00  0.00000000000E+00 -0.74118697424E+03  0.74118697426E+03  0.50400001928E-02 0. -1.
    10030    2    1    2    0    0  0.00000000000E+00  0.00000000000E+00  0.74461619633E+03  0.22269901448E+04  0.20988167679E+04 0.  0.
        3    1    3    3  502    0  0.47860391470E+03 -0.82314940394E+03 -0.95792236913E+02  0.95698109241E+03  0.10100000352E+00 0.  1.
       -3    1    3    3    0  502 -0.47860391470E+03  0.82314940394E+03  0.84040843324E+03  0.12700090524E+04  0.10100000352E+00 0. -1.
</event>
<event>
 5   0  0.1615098E-06  0.2098693E+04  0.7818609E-02  0.8561819E-01
        1   -1    0    0  501    0  0.00000000000E+00  0.00000000000E+00  0.22929162388E+04  0.22929162388E+04  0.50400001928E-02 0.  1.
       -1   -1    0    0    0  501  0.00000000000E+00  0.00000000000E+00 -0.48023049668E+03  0.48023049670E+03  0.50400001928E-02 0. -1.
    10030    2    1    2    0    0  0.00000000000E+00  0.00000000000E+00  0.18126857421E+04  0.27731467355E+04  0.20986932165E+04 0.  0.
        1    1    3    3  502    0  0.75797276895E+03 -0.35032897567E+03  0.17460879768E+04  0.19354783213E+04  0.50400001928E-02 0.  1.
       -1    1    3    3    0  502 -0.75797276895E+03  0.35032897567E+03  0.66597765299E+02  0.83766841413E+03  0.50400001928E-02 0. -1.
</event>
<event>
 5   0  0.1579820E-06  0.2099943E+04  0.7818609E-02  0.8561269E-01
       -1   -1    0    0    0  501  0.00000000000E+00  0.00000000000E+00  0.10921345343E+04  0.10921345343E+04  0.50400001928E-02 0. -1.
        1   -1    0    0  501    0  0.00000000000E+00  0.00000000000E+00 -0.10094360433E+04  0.10094360433E+04  0.50400001928E-02 0.  1.
    10030    2    1    2    0    0  0.00000000000E+00  0.00000000000E+00  0.82698491021E+02  0.21015705776E+04  0.20999428212E+04 0.  0.
        2    1    3    3  502    0 -0.96489835683E+03  0.33001833119E+03  0.29154107998E+03  0.10606305385E+04  0.25500000920E-02 0. -1.
       -2    1    3    3    0  502  0.96489835683E+03 -0.33001833119E+03 -0.20884258895E+03  0.10409400391E+04  0.25500000920E-02 0.  1.
</event>
<event>
 5   0  0.3574927E-06  0.2100466E+04  0.7818609E-02  0.8561038E-01
       -2   -1    0    0    0  501  0.00000000000E+00  0.00000000000E+00  0.83838600348E+03  0.83838600348E+03  0.25500000920E-02 0. -1.
        2   -1    0    0  501    0  0.00000000000E+00  0.00000000000E+00 -0.13156099252E+04  0.13156099252E+04  0.25500000920E-02 0.  1.
    10030    2    1    2    0    0  0.00000000000E+00  0.00000000000E+00 -0.47722392168E+03  0.21539959286E+04  0.21004656125E+04 0.  0.
        3    1    3    3  502    0  0.33901864434E+03 -0.62953703197E+03  0.55023759711E+03  0.90222610210E+03  0.10100000352E+00 0. -1.
       -3    1    3    3    0  502 -0.33901864434E+03  0.62953703197E+03 -0.10274615188E+04  0.12517698265E+04  0.10100000352E+00 0.  1.
</event>
<event>
 5   0  0.3574927E-06  0.2100150E+04  0.7818609E-02  0.8561177E-01
       -2   -1    0    0    0  501  0.00000000000E+00  0.00000000000E+00  0.67248056277E+03  0.67248056278E+03  0.25500000920E-02 0.  1.
        2   -1    0    0  501    0  0.00000000000E+00  0.00000000000E+00 -0.16396866051E+04  0.16396866051E+04  0.25500000920E-02 0. -1.
    10030    2    1    2    0    0  0.00000000000E+00  0.00000000000E+00 -0.96720604228E+03  0.23121671678E+04  0.21001498717E+04 0.  0.
        3    1    3    3  502    0  0.31074287148E+03  0.31798285482E+03  0.56374058140E+03  0.71796774402E+03  0.10100000352E+00 0.  1.
       -3    1    3    3    0  502 -0.31074287148E+03 -0.31798285482E+03 -0.15309466237E+04  0.15941994238E+04  0.10100000352E+00 0. -1.
</event>
<event>
 5   0  0.1653260E-06  0.2099888E+04  0.7818609E-02  0.8561293E-01
       -1   -1    0    0    0  501  0.00000000000E+00  0.00000000000E+00  0.74125383868E+03  0.74125383870E+03  0.50400001928E-02 0.  1.
        1   -1    0    0  501    0  0.00000000000E+00  0.00000000000E+00 -0.14871862311E+04  0.14871862311E+04  0.50400001928E-02 0. -1.
    10030    2    1    2    0    0  0.00000000000E+00  0.00000000000E+00 -0.74593239246E+03  0.22284400698E+04  0.20998880948E+04 0.  0.
        3    1    3    3  502    0  0.29432798165E+03 -0.58459209803E+03 -0.12442037029E+04  0.14058519646E+04  0.10100000352E+00 0. -1.
       -3    1    3    3    0  502 -0.29432798165E+03  0.58459209803E+03  0.49827131045E+03  0.82258810524E+03  0.10100000352E+00 0.  1.
</event>
<event>
 5   0  0.3547583E-06  0.2099526E+04  0.7818609E-02  0.8561452E-01
       -2   -1    0    0    0  501  0.00000000000E+00  0.00000000000E+00  0.63967095119E+03  0.63967095120E+03  0.25500000920E-02 0.  1.
        2   -1    0    0  501    0  0.00000000000E+00  0.00000000000E+00 -0.17227649869E+04  0.17227649869E+04  0.25500000920E-02 0. -1.
    10030    2    1    2    0    0  0.00000000000E+00  0.00000000000E+00 -0.10830940357E+04  0.23624359381E+04  0.20995263446E+04 0.  0.
        2    1    3    3  502    0 -0.10098354057E+04  0.25790632364E+03 -0.68262461985E+03  0.12458971025E+04  0.25500000920E-02 0.  1.
       -2    1    3    3    0  502  0.10098354057E+04 -0.25790632364E+03 -0.40046941590E+03  0.11165388356E+04  0.25500000920E-02 0. -1.
</event>
<event>
 5   0  0.3480134E-06  0.2098932E+04  0.7818609E-02  0.8561714E-01
       -2   -1    0    0    0  501  0.00000000000E+00  0.00000000000E+00  0.10544849186E+04  0.10544849186E+04  0.25500000920E-02 0. -1.
        2   -1    0    0  501    0  0.00000000000E+00  0.00000000000E+00 -0.10444712521E+04  0.10444712521E+04  0.25500000920E-02 0.  1.
    10030    2    1    2    0    0  0.00000000000E+00  0.00000000000E+00  0.10013666548E+02  0.20989561707E+04  0.20989322840E+04 0.  0.
        1    1    3    3  502    0  0.99512517490E+03 -0.19541152252E+03  0.27504584163E+03  0.10507663831E+04  0.50400001928E-02 0.  1.
       -1    1    3    3    0  502 -0.99512517490E+03  0.19541152252E+03 -0.26503217508E+03  0.10481897875E+04  0.50400001928E-02 0. -1.
</event>
<event>
 5   0  0.3636435E-06  0.2099535E+04  0.7818609E-02  0.8561448E-01
        2   -1    0    0  501    0  0.00000000000E+00  0.00000000000E+00  0.27178323200E+04  0.27178323200E+04  0.25500000920E-02 0. -1.
       -2   -1    0    0    0  501  0.00000000000E+00  0.00000000000E+00 -0.40547446754E+03  0.40547446755E+03  0.25500000920E-02 0.  1.
    10030    2    1    2    0    0  0.00000000000E+00  0.00000000000E+00  0.23123578525E+04  0.31233067876E+04  0.20995348179E+04 0.  0.
        4    1    3    3  502    0 -0.33988435114E+03  0.98910211578E+03  0.10217519360E+04  0.14621296109E+04  0.12699999809E+01 0.  1.
       -4    1    3    3    0  502  0.33988435114E+03 -0.98910211578E+03  0.12906059165E+04  0.16611771766E+04  0.12699999809E+01 0. -1.
</event>
<event>
 5   0  0.1590067E-06  0.2101202E+04  0.7818609E-02  0.8560714E-01
       -1   -1    0    0    0  501  0.00000000000E+00  0.00000000000E+00  0.10056842579E+04  0.10056842579E+04  0.50400001928E-02 0. -1.
        1   -1    0    0  501    0  0.00000000000E+00  0.00000000000E+00 -0.10975237477E+04  0.10975237477E+04  0.50400001928E-02 0.  1.
    10030    2    1    2    0    0  0.00000000000E+00  0.00000000000E+00 -0.91839489855E+02  0.21032080056E+04  0.21012018996E+04 0.  0.
        5    1    3    3  502    0  0.71333637674E+03 -0.46289400734E+03  0.57161386012E+03  0.10246385429E+04  0.46999998093E+01 0. -1.
       -5    1    3    3    0  502 -0.71333637674E+03  0.46289400734E+03 -0.66345334998E+03  0.10785694628E+04  0.46999998093E+01 0.  1.
</event>
<event>
 5   0  0.3480134E-06  0.2101049E+04  0.7818609E-02  0.8560781E-01
       -2   -1    0    0    0  501  0.00000000000E+00  0.00000000000E+00  0.47973631676E+03  0.47973631677E+03  0.25500000920E-02 0. -1.
        2   -1    0    0  501    0  0.00000000000E+00  0.00000000000E+00 -0.23004339461E+04  0.23004339461E+04  0.25500000920E-02 0.  1.
    10030    2    1    2    0    0  0.00000000000E+00  0.00000000000E+00 -0.18206976293E+04  0.27801702629E+04  0.21010489840E+04 0.  0.
        1    1    3    3  502    0  0.97138544502E+03  0.37865122906E+03 -0.10810160572E+04  0.15018529062E+04  0.50400001928E-02 0. -1.
       -1    1    3    3    0  502 -0.97138544502E+03 -0.37865122906E+03 -0.73968157218E+03  0.12783173567E+04  0.50400001928E-02 0.  1.
</event>
<event>
 5   0  0.3574927E-06  0.2100458E+04  0.7818609E-02  0.8561042E-01
       -2   -1    0    0    0  501  0.00000000000E+00  0.00000000000E+00  0.14881772614E+04  0.14881772614E+04  0.25500000920E-02 0. -1.
        2   -1    0    0  501    0  0.00000000000E+00  0.00000000000E+00 -0.74116224126E+03  0.74116224126E+03  0.25500000920E-02 0.  1.
    10030    2    1    2    0    0  0.00000000000E+00  0.00000000000E+00  0.74701502012E+03  0.22293395026E+04  0.21004578496E+04 0.  0.
        3    1    3    3  502    0  0.10811413525E+02  0.98579277915E+03 -0.10752021663E+02  0.98591069893E+03  0.10100000352E+00 0.  1.
       -3    1    3    3    0  502 -0.10811413525E+02 -0.98579277915E+03  0.75776704178E+03  0.12434288037E+04  0.10100000352E+00 0. -1.
</event>
<event>
 5   0  0.1646510E-06  0.2099849E+04  0.7818609E-02  0.8561310E-01
       -1   -1    0    0    0  501  0.00000000000E+00  0.00000000000E+00  0.57585350527E+03  0.57585350529E+03  0.50400001928E-02 0.  1.
        1   -1    0    0  501    0  0.00000000000E+00  0.00000000000E+00 -0.19142736786E+04  0.19142736786E+04  0.50400001928E-02 0. -1.
    10030    2    1    2    0    0  0.00000000000E+00  0.00000000000E+00 -0.13384201733E+04  0.24901271839E+04  0.20998487640E+04 0.  0.
        4    1    3    3  502    0  0.78258316082E+03  0.39925434669E+03 -0.13509499530E+04  0.16114924217E+04  0.12699999809E+01 0. -1.
       -4    1    3    3    0  502 -0.78258316082E+03 -0.39925434669E+03  0.12529779678E+02  0.87863476214E+03  0.12699999809E+01 0.  1.
</event>
<event>
 5   0  0.3705828E-06  0.2100333E+04  0.7818609E-02  0.8561097E-01
        2   -1    0    0  501    0  0.00000000000E+00  0.00000000000E+00  0.16190550081E+04  0.16190550081E+04  0.25500000920E-02 0.  1.
       -2   -1    0    0    0  501  0.00000000000E+00  0.00000000000E+00 -0.68116895328E+03  0.68116895328E+03  0.25500000920E-02 0. -1.
    10030    2    1    2    0    0  0.00000000000E+00  0.00000000000E+00  0.93788605486E+03  0.23002239614E+04  0.21003333118E+04 0.  0.
        5    1    3    3  502    0 -0.34830392493E+03  0.99069970955E+03  0.47456762000E+03  0.11524053343E+04  0.46999998093E+01 0.  1.
       -5    1    3    3    0  502  0.34830392493E+03 -0.99069970955E+03  0.46331843486E+03  0.11478186271E+04  0.46999998093E+01 0. -1.
</event>
<event>
 5   0  0.3547583E-06  0.2099463E+04  0.7818609E-02  0.8561480E-01
        2   -1    0    0  501    0  0.00000000000E+00  0.00000000000E+00  0.13254834037E+04  0.13254834037E+04  0.25500000920E-02 0.  1.
       -2   -1    0    0    0  501  0.00000000000E+00  0.00000000000E+00 -0.83134635784E+03  0.83134635784E+03  0.25500000920E-02 0. -1.
    10030    2    1    2    0    0  0.00000000000E+00  0.00000000000E+00  0.49413704588E+03  0.21568297616E+04  0.20994625980E+04 0.  0.
        2    1    3    3  502    0  0.58740693555E+03  0.86712125009E+03  0.31963597700E+03  0.10950403317E+04  0.25500000920E-02 0. -1.
       -2    1    3    3    0  502 -0.58740693555E+03 -0.86712125009E+03  0.17450106888E+03  0.10617894298E+04  0.25500000920E-02 0.  1.
</event>
<event>
 5   0  0.3547583E-06  0.2098405E+04  0.7818609E-02  0.8561946E-01
       -2   -1    0    0    0  501  0.00000000000E+00  0.00000000000E+00  0.60818503560E+03  0.60818503561E+03  0.25500000920E-02 0. -1.
        2   -1    0    0  501    0  0.00000000000E+00  0.00000000000E+00 -0.18100185220E+04  0.18100185220E+04  0.25500000920E-02 0.  1.
    10030    2    1    2    0    0  0.00000000000E+00  0.00000000000E+00 -0.12018334864E+04  0.24182035576E+04  0.20984052795E+04 0.  0.
        2    1    3    3  502    0 -0.24610231560E+03 -0.56004046563E+03 -0.15832424684E+04  0.16973121064E+04  0.25500000920E-02 0.  1.
       -2    1    3    3    0  502  0.24610231560E+03  0.56004046563E+03  0.38140898197E+03  0.72089145121E+03  0.25500000920E-02 0. -1.
</event>
<event>
 5   0  0.1653260E-06  0.2099121E+04  0.7818609E-02  0.8561631E-01
        1   -1    0    0  501    0  0.00000000000E+00  0.00000000000E+00  0.11478576533E+04  0.11478576533E+04  0.50400001928E-02 0.  1.
       -1   -1    0    0    0  501  0.00000000000E+00  0.00000000000E+00 -0.95968085192E+03  0.95968085193E+03  0.50400001928E-02 0. -1.
    10030    2    1    2    0    0  0.00000000000E+00  0.00000000000E+00  0.18817680139E+03  0.21075385052E+04  0.20991207784E+04 0.  0.
        3    1    3    3  502    0  0.66379688750E+03  0.36147538324E+03 -0.63703935193E+03  0.98848869829E+03  0.10100000352E+00 0. -1.
       -3    1    3    3    0  502 -0.66379688750E+03 -0.36147538324E+03  0.82521615332E+03  0.11190498070E+04  0.10100000352E+00 0.  1.
</event>
<event>
 5   0  0.1579820E-06  0.2100550E+04  0.7818609E-02  0.8561001E-01
       -1   -1    0    0    0  501  0.00000000000E+00  0.00000000000E+00  0.10118799702E+04  0.10118799702E+04  0.50400001928E-02 0. -1.
        1   -1    0    0  501    0  0.00000000000E+00  0.00000000000E+00 -0.10901268472E+04  0.10901268473E+04  0.50400001928E-02 0.  1.
    10030    2    1    2    0    0  0.00000000000E+00  0.00000000000E+00 -0.78246877070E+02  0.21020068175E+04  0.21005499487E+04 0.  0.
        2    1    3    3  502    0  0.28766727982E+01  0.97933279690E+03 -0.41882898617E+03  0.10651378887E+04  0.25500000920E-02 0.  1.
       -2    1    3    3    0  502 -0.28766727982E+01 -0.97933279690E+03  0.34058210910E+03  0.10368689287E+04  0.25500000920E-02 0. -1.
</event>
<event>
 5   0  0.3480134E-06  0.2100478E+04  0.7818609E-02  0.8561033E-01
       -2   -1    0    0    0  501  0.00000000000E+00  0.00000000000E+00  0.65739063780E+03  0.65739063781E+03  0.25500000920E-02 0.  1.
        2   -1    0    0  501    0  0.00000000000E+00  0.00000000000E+00 -0.16778486172E+04  0.16778486172E+04  0.25500000920E-02 0. -1.
    10030    2    1    2    0    0  0.00000000000E+00  0.00000000000E+00 -0.10204579794E+04  0.23352392550E+04  0.21004780148E+04 0.  0.
        1    1    3    3  502    0 -0.10094192261E+04  0.19233068197E+03 -0.75146857217E+03  0.12730370302E+04  0.50400001928E-02 0. -1.
       -1    1    3    3    0  502  0.10094192261E+04 -0.19233068197E+03 -0.26898940725E+03  0.10622022248E+04  0.50400001928E-02 0.  1.
</event>
<event>
 5   0  0.1579820E-06  0.2099647E+04  0.7818609E-02  0.8561399E-01
        1   -1    0    0  501    0  0.00000000000E+00  0.00000000000E+00  0.15472722977E+04  0.15472722978E+04  0.50400001928E-02 0. -1.
       -1   -1    0    0    0  501  0.00000000000E+00  0.00000000000E+00 -0.71230487028E+03  0.71230487030E+03  0.50400001928E-02 0.  1.
    10030    2    1    2    0    0  0.00000000000E+00  0.00000000000E+00  0.83496742747E+03  0.22595771681E+04  0.20996472021E+04 0.  0.
        2    1    3    3  502    0  0.19978119992E+03  0.29167364445E+03 -0.64631640668E+03  0.73668917479E+03  0.25500000920E-02 0.  1.
       -2    1    3    3    0  502 -0.19978119992E+03 -0.29167364445E+03  0.14812838341E+04  0.15228879933E+04  0.25500000920E-02 0. -1.
</event>
<event>
 5   0  0.1590067E-06  0.2100149E+04  0.7818609E-02  0.8561178E-01
       -1   -1    0    0    0  501  0.00000000000E+00  0.00000000000E+00  0.62772162024E+03  0.62772162026E+03  0.50400001928E-02 0.  1.
        1   -1    0    0  501    0  0.00000000000E+00  0.00000000000E+00 -0.17566016728E+04  0.17566016728E+04  0.50400001928E-02 0. -1.
    10030    2    1    2    0    0  0.00000000000E+00  0.00000000000E+00 -0.11288800526E+04  0.23843232931E+04  0.21001493739E+04 0.  0.
        5    1    3    3  502    0  0.53256551693E+03  0.21029875396E+03 -0.15637610942E+04  0.16652995062E+04  0.46999998093E+01 0. -1.
       -5    1    3    3    0  502 -0.53256551693E+03 -0.21029875396E+03  0.43488104161E+03  0.71902378687E+03  0.46999998093E+01 0.  1.
</event>
<event>
 5   0  0.3705828E-06  0.2098330E+04  0.7818609E-02  0.8561979E-01
       -2   -1    0    0    0  501  0.00000000000E+00  0.00000000000E+00  0.97240711654E+03  0.97240711654E+03  0.25500000920E-02 0.  1.
        2   -1    0    0  501    0  0.00000000000E+00  0.00000000000E+00 -0.11319816392E+04  0.11319816392E+04  0.25500000920E-02 0. -1.
    10030    2    1    2    0    0  0.00000000000E+00  0.00000000000E+00 -0.15957452263E+03  0.21043887557E+04  0.20983298137E+04 0.  0.
        5    1    3    3  502    0 -0.86382490694E+03 -0.39716296733E+03  0.36510726831E+03  0.10184582956E+04  0.46999998093E+01 0.  1.
       -5    1    3    3    0  502  0.86382490694E+03  0.39716296733E+03 -0.52468179094E+03  0.10859304601E+04  0.46999998093E+01 0. -1.
</event>
<event>
 5   0  0.1579820E-06  0.2090934E+04  0.7818609E-02  0.8565247E-01
        1   -1    0    0  501    0  0.00000000000E+00  0.00000000000E+00  0.13962036056E+04  0.13962036057E+04  0.50400001928E-02 0. -1.
       -1   -1    0    0    0  501  0.00000000000E+00  0.00000000000E+00 -0.78283832256E+03  0.78283832257E+03  0.50400001928E-02 0.  1.
    10030    2    1    2    0    0  0.00000000000E+00  0.00000000000E+00  0.61336528309E+03  0.21790419282E+04  0.20909344214E+04 0.  0.
        2    1    3    3  502    0 -0.82308886258E+03  0.45838988381E+03 -0.16563135416E+03  0.95657216495E+03  0.25500000920E-02 0.  1.
       -2    1    3    3    0  502  0.82308886258E+03 -0.45838988381E+03  0.77899663725E+03  0.12224697633E+04  0.25500000920E-02 0. -1.
</event>
<event>
 5   0  0.1653260E-06  0.2101033E+04  0.7818609E-02  0.8560789E-01
        1   -1    0    0  501    0  0.00000000000E+00  0.00000000000E+00  0.13038035120E+04  0.13038035120E+04  0.50400001928E-02 0.  1.
       -1   -1    0    0    0  501  0.00000000000E+00  0.00000000000E+00 -0.84643486324E+03  0.84643486326E+03  0.50400001928E-02 0. -1.
    10030    2    1    2    0    0  0.00000000000E+00  0.00000000000E+00  0.45736864874E+03  0.21502383753E+04  0.21010328388E+04 0.  0.
        3    1    3    3  502    0  0.60548208192E+03 -0.17347420735E+03 -0.63176936566E+03  0.89209550707E+03  0.10100000352E+00 0. -1.
       -3    1    3    3    0  502 -0.60548208192E+03  0.17347420735E+03  0.10891380144E+04  0.12581428682E+04  0.10100000352E+00 0.  1.
</event>
<event>
 5   0  0.1590067E-06  0.2099983E+04  0.7818609E-02  0.8561251E-01
        1   -1    0    0  501    0  0.00000000000E+00  0.00000000000E+00  0.99207397659E+03  0.99207397660E+03  0.50400001928E-02 0.  1.
       -1   -1    0    0    0  501  0.00000000000E+00  0.00000000000E+00 -0.11112899687E+04  0.11112899687E+04  0.50400001928E-02 0. -1.
    10030    2    1    2    0    0  0.00000000000E+00  0.00000000000E+00 -0.11921599209E+03  0.21033639453E+04  0.20999827222E+04 0.  0.
        5    1    3    3  502    0  0.68990013678E+03  0.64143937828E+03 -0.52409284353E+03  0.10780083828E+04  0.46999998093E+01 0. -1.
       -5    1    3    3    0  502 -0.68990013678E+03 -0.64143937828E+03  0.40487685144E+03  0.10253555625E+04  0.46999998093E+01 0.  1.
</event>
<event>
 5   0  0.3547583E-06  0.2100169E+04  0.7818609E-02  0.8561169E-01
       -2   -1    0    0    0  501  0.00000000000E+00  0.00000000000E+00  0.65508356679E+03  0.65508356679E+03  0.25500000920E-02 0.  1.
        2   -1    0    0  501    0  0.00000000000E+00  0.00000000000E+00 -0.16832616866E+04  0.16832616866E+04  0.25500000920E-02 0. -1.
    10030    2    1    2    0    0  0.00000000000E+00  0.00000000000E+00 -0.10281781198E+04  0.23383452534E+04  0.21001686309E+04 0.  0.
        2    1    3    3  502    0 -0.80787278749E+03  0.45443017432E+03  0.35343652526E+02  0.92758525100E+03  0.25500000920E-02 0.  1.
       -2    1    3    3    0  502  0.80787278749E+03 -0.45443017432E+03 -0.10635217723E+04  0.14107600024E+04  0.25500000920E-02 0. -1.
</event>
<event>
 5   0  0.3480134E-06  0.2086399E+04  0.7818609E-02  0.8567258E-01
        2   -1    0    0  501    0  0.00000000000E+00  0.00000000000E+00  0.11368088605E+04  0.11368088605E+04  0.25500000920E-02 0.  1.
       -2   -1    0    0    0  501  0.00000000000E+00  0.00000000000E+00 -0.95729842193E+03  0.95729842194E+03  0.25500000920E-02 0. -1.
    10030    2    1    2    0    0  0.00000000000E+00  0.00000000000E+00  0.17951043861E+03  0.20941072825E+04  0.20863991260E+04 0.  0.
        1    1    3    3  502    0  0.64762226288E+03  0.52819788209E+03  0.71644788189E+03  0.11007748024E+04  0.50400001928E-02 0.  1.
       -1    1    3    3    0  502 -0.64762226288E+03 -0.52819788209E+03 -0.53693744328E+03  0.99333248012E+03  0.50400001928E-02 0. -1.
</event>
<event>
 5   0  0.1653260E-06  0.2100555E+04  0.7818609E-02  0.8560999E-01
       -1   -1    0    0    0  501  0.00000000000E+00  0.00000000000E+00  0.65632094731E+03  0.65632094733E+03  0.50400001928E-02 0.  1.
        1   -1    0    0  501    0  0.00000000000E+00  0.00000000000E+00 -0.16807068376E+04  0.16807068376E+04  0.50400001928E-02 0. -1.
    10030    2    1    2    0    0  0.00000000000E+00  0.00000000000E+00 -0.10243858903E+04  0.23370277849E+04  0.21005552636E+04 0.  0.
        3    1    3    3  502    0 -0.63673836268E+03  0.70257078783E+03 -0.10147543879E+04  0.13888008973E+04  0.10100000352E+00 0. -1.
       -3    1    3    3    0  502  0.63673836268E+03 -0.70257078783E+03 -0.96315024214E+01  0.94822688765E+03  0.10100000352E+00 0.  1.
</event>
<event>
 5   0  0.3480134E-06  0.2097015E+04  0.7818609E-02  0.8562559E-01
        2   -1    0    0  501    0  0.00000000000E+00  0.00000000000E+00  0.19037034815E+04  0.19037034815E+04  0.25500000920E-02 0.  1.
       -2   -1    0    0    0  501  0.00000000000E+00  0.00000000000E+00 -0.57748922015E+03  0.57748922016E+03  0.25500000920E-02 0. -1.
    10030    2    1    2    0    0  0.00000000000E+00  0.00000000000E+00  0.13262142613E+04  0.24811927017E+04  0.20970152493E+04 0.  0.
        1    1    3    3  502    0 -0.15812962627E+03  0.10141232107E+02  0.18894550342E+04  0.18960875902E+04  0.50400001928E-02 0.  1.
       -1    1    3    3    0  502  0.15812962627E+03 -0.10141232107E+02 -0.56324077284E+03  0.58510511150E+03  0.50400001928E-02 0. -1.
</event>
<event>
 5   0  0.3480134E-06  0.2100191E+04  0.7818609E-02  0.8561159E-01
        2   -1    0    0  501    0  0.00000000000E+00  0.00000000000E+00  0.14428660082E+04  0.14428660082E+04  0.25500000920E-02 0.  1.
       -2   -1    0    0    0  501  0.00000000000E+00  0.00000000000E+00 -0.76424288655E+03  0.76424288655E+03  0.25500000920E-02 0. -1.
    10030    2    1    2    0    0  0.00000000000E+00  0.00000000000E+00  0.67862312167E+03  0.22071088948E+04  0.21001905466E+04 0.  0.
        1    1    3    3  502    0 -0.54749582438E+03  0.89256518941E+02 -0.59769713594E+03  0.81545096126E+03  0.50400001928E-02 0. -1.
       -1    1    3    3    0  502  0.54749582438E+03 -0.89256518941E+02  0.12763202576E+04  0.13916579335E+04  0.50400001928E-02 0.  1.
</event>
<event>
 5   0  0.3705828E-06  0.2099387E+04  0.7818609E-02  0.8561513E-01
        2   -1    0    0  501    0  0.00000000000E+00  0.00000000000E+00  0.22658543196E+04  0.22658543196E+04  0.25500000920E-02 0. -1.
       -2   -1    0    0    0  501  0.00000000000E+00  0.00000000000E+00 -0.48628737087E+03  0.48628737088E+03  0.25500000920E-02 0.  1.
    10030    2    1    2    0    0  0.00000000000E+00  0.00000000000E+00  0.17795669487E+04  0.27521416905E+04  0.20993869009E+04 0.  0.
        5    1    3    3  502    0  0.24249039787E+03  0.13248531218E+03 -0.43773925847E+03  0.51767914717E+03  0.46999998093E+01 0.  1.
       -5    1    3    3    0  502 -0.24249039787E+03 -0.13248531218E+03  0.22173062072E+04  0.22344625433E+04  0.46999998093E+01 0. -1.
</event>
<event>
 5   0  0.3574927E-06  0.2099920E+04  0.7818609E-02  0.8561278E-01
       -2   -1    0    0    0  501  0.00000000000E+00  0.00000000000E+00  0.66091847769E+03  0.66091847770E+03  0.25500000920E-02 0. -1.
        2   -1    0    0  501    0  0.00000000000E+00  0.00000000000E+00 -0.16680068009E+04  0.16680068009E+04  0.25500000920E-02 0.  1.
    10030    2    1    2    0    0  0.00000000000E+00  0.00000000000E+00 -0.10070883232E+04  0.23289252786E+04  0.20999204896E+04 0.  0.
        3    1    3    3  502    0 -0.62256539533E+03 -0.58308769711E+03 -0.11825511771E+04  0.14580830671E+04  0.10100000352E+00 0.  1.
       -3    1    3    3    0  502  0.62256539533E+03  0.58308769711E+03  0.17546285388E+03  0.87084221148E+03  0.10100000352E+00 0. -1.
</event>
<event>
 5   0  0.1615098E-06  0.2100181E+04  0.7818609E-02  0.8561163E-01
        1   -1    0    0  501    0  0.00000000000E+00  0.00000000000E+00  0.18439601997E+04  0.18439601997E+04  0.50400001928E-02 0. -1.
       -1   -1    0    0    0  501  0.00000000000E+00  0.00000000000E+00 -0.59800127631E+03  0.59800127633E+03  0.50400001928E-02 0.  1.
    10030    2    1    2    0    0  0.00000000000E+00  0.00000000000E+00  0.12459589234E+04  0.24419614760E+04  0.21001814711E+04 0.  0.
        1    1    3    3  502    0  0.55206487410E+03 -0.73869034420E+03  0.38998260508E+02  0.92301674642E+03  0.50400001928E-02 0.  1.
       -1    1    3    3    0  502 -0.55206487410E+03  0.73869034420E+03  0.12069606629E+04  0.15189447296E+04  0.50400001928E-02 0. -1.
</event>
<event>
 5   0  0.1615098E-06  0.2099268E+04  0.7818609E-02  0.8561566E-01
        1   -1    0    0  501    0  0.00000000000E+00  0.00000000000E+00  0.15662084896E+04  0.15662084896E+04  0.50400001928E-02 0. -1.
       -1   -1    0    0    0  501  0.00000000000E+00  0.00000000000E+00 -0.70343892300E+03  0.70343892302E+03  0.50400001928E-02 0.  1.
    10030    2    1    2    0    0  0.00000000000E+00  0.00000000000E+00  0.86276956658E+03  0.22696474126E+04  0.20992684565E+04 0.  0.
        1    1    3    3  502    0  0.26231487285E+03  0.88607820910E+03  0.96956885198E+03  0.13394056308E+04  0.50400001928E-02 0. -1.
       -1    1    3    3    0  502 -0.26231487285E+03 -0.88607820910E+03 -0.10679928540E+03  0.93024178177E+03  0.50400001928E-02 0.  1.
</event>
<event>
 5   0  0.1615098E-06  0.2099531E+04  0.7818609E-02  0.8561450E-01
        1   -1    0    0  501    0  0.00000000000E+00  0.00000000000E+00  0.86834296924E+03  0.86834296926E+03  0.50400001928E-02 0.  1.
       -1   -1    0    0    0  501  0.00000000000E+00  0.00000000000E+00 -0.12690920026E+04  0.12690920026E+04  0.50400001928E-02 0. -1.
    10030    2    1    2    0    0  0.00000000000E+00  0.00000000000E+00 -0.40074903336E+03  0.21374349719E+04  0.20995305359E+04 0.  0.
        1    1    3    3  502    0 -0.13152935162E+02  0.95144626546E+03  0.25100820827E+03  0.98408745364E+03  0.50400001928E-02 0.  1.
       -1    1    3    3    0  502  0.13152935162E+02 -0.95144626546E+03 -0.65175724163E+03  0.11533475182E+04  0.50400001928E-02 0. -1.
</event>
<event>
 5   0  0.3705828E-06  0.2101249E+04  0.7818609E-02  0.8560694E-01
        2   -1    0    0  501    0  0.00000000000E+00  0.00000000000E+00  0.16024029355E+04  0.16024029355E+04  0.25500000920E-02 0. -1.
       -2   -1    0    0    0  501  0.00000000000E+00  0.00000000000E+00 -0.68884756115E+03  0.68884756115E+03  0.25500000920E-02 0.  1.
    10030    2    1    2    0    0  0.00000000000E+00  0.00000000000E+00  0.91355537434E+03  0.22912504966E+04  0.21012485375E+04 0.  0.
        5    1    3    3  502    0  0.10429561542E+04  0.50721130997E+02  0.58328132644E+03  0.11960641155E+04  0.46999998093E+01 0. -1.
       -5    1    3    3    0  502 -0.10429561542E+04 -0.50721130997E+02  0.33027404790E+03  0.10951863811E+04  0.46999998093E+01 0.  1.
</event>
<event>
 5   0  0.3480134E-06  0.2101582E+04  0.7818609E-02  0.8560547E-01
       -2   -1    0    0    0  501  0.00000000000E+00  0.00000000000E+00  0.51545864297E+03  0.51545864297E+03  0.25500000920E-02 0.  1.
        2   -1    0    0  501    0  0.00000000000E+00  0.00000000000E+00 -0.21420949047E+04  0.21420949047E+04  0.25500000920E-02 0. -1.
    10030    2    1    2    0    0  0.00000000000E+00  0.00000000000E+00 -0.16266362618E+04  0.26575535477E+04  0.21015816260E+04 0.  0.
        1    1    3    3  502    0  0.16212191632E+03 -0.41744178521E+03  0.38874899460E+03  0.59301512680E+03  0.50400001928E-02 0.  1.
       -1    1    3    3    0  502 -0.16212191632E+03  0.41744178521E+03 -0.20153852564E+04  0.20645384209E+04  0.50400001928E-02 0. -1.
</event>
<event>
 5   0  0.1590067E-06  0.2100223E+04  0.7818609E-02  0.8561145E-01
        1   -1    0    0  501    0  0.00000000000E+00  0.00000000000E+00  0.69892454389E+03  0.69892454390E+03  0.50400001928E-02 0.  1.
       -1   -1    0    0    0  501  0.00000000000E+00  0.00000000000E+00 -0.15777592448E+04  0.15777592449E+04  0.50400001928E-02 0. -1.
    10030    2    1    2    0    0  0.00000000000E+00  0.00000000000E+00 -0.87883470096E+03  0.22766837888E+04  0.21002234744E+04 0.  0.
        5    1    3    3  502    0 -0.83570438866E+03  0.42322314209E+03 -0.95383347172E+03  0.13369143709E+04  0.46999998093E+01 0. -1.
       -5    1    3    3    0  502  0.83570438866E+03 -0.42322314209E+03  0.74998770759E+02  0.93976941791E+03  0.46999998093E+01 0.  1.
</event>
<event>
 5   0  0.1653260E-06  0.2106787E+04  0.7818609E-02  0.8558259E-01
        1   -1    0    0  501    0  0.00000000000E+00  0.00000000000E+00  0.10247386780E+04  0.10247386780E+04  0.50400001928E-02 0. -1.
       -1   -1    0    0    0  501  0.00000000000E+00  0.00000000000E+00 -0.10828500557E+04  0.10828500557E+04  0.50400001928E-02 0.  1.
    10030    2    1    2    0    0  0.00000000000E+00  0.00000000000E+00 -0.58111377674E+02  0.21075887338E+04  0.21067874450E+04 0.  0.
        3    1    3    3  502    0  0.79056294677E+03 -0.16279784789E+03 -0.70617752257E+03  0.10724642724E+04  0.10100000352E+00 0.  1.
       -3    1    3    3    0  502 -0.79056294677E+03  0.16279784789E+03  0.64806614490E+03  0.10351244613E+04  0.10100000352E+00 0. -1.
</event>
<event>
 5   0  0.3480134E-06  0.2099161E+04  0.7818609E-02  0.8561613E-01
       -2   -1    0    0    0  501  0.00000000000E+00  0.00000000000E+00  0.89088488781E+03  0.89088488781E+03  0.25500000920E-02 0.  1.
        2   -1    0    0  501    0  0.00000000000E+00  0.00000000000E+00 -0.12365445842E+04  0.12365445842E+04  0.25500000920E-02 0. -1.
    10030    2    1    2    0    0  0.00000000000E+00  0.00000000000E+00 -0.34565969639E+03  0.21274294720E+04  0.20991606734E+04 0.  0.
        1    1    3    3  502    0  0.16950759794E+03 -0.15439303245E+03 -0.12108537305E+04  0.12323703952E+04  0.50400001928E-02 0. -1.
       -1    1    3    3    0  502 -0.16950759794E+03  0.15439303245E+03  0.86519403414E+03  0.89505907680E+03  0.50400001928E-02 0.  1.
</event>
<event>
 5   0  0.1615098E-06  0.2100215E+04  0.7818609E-02  0.8561149E-01
        1   -1    0    0  501    0  0.00000000000E+00  0.00000000000E+00  0.13801416665E+04  0.13801416665E+04  0.50400001928E-02 0.  1.
       -1   -1    0    0    0  501  0.00000000000E+00  0.00000000000E+00 -0.79899446665E+03  0.79899446667E+03  0.50400001928E-02 0. -1.
    10030    2    1    2    0    0  0.00000000000E+00  0.00000000000E+00  0.58114719986E+03  0.21791361332E+04  0.21002148031E+04 0.  0.
        1    1    3    3  502    0  0.60945875715E+03  0.45167614671E+03  0.10439966843E+04  0.12904961817E+04  0.50400001928E-02 0.  1.
       -1    1    3    3    0  502 -0.60945875715E+03 -0.45167614671E+03 -0.46284948440E+03  0.88863995150E+03  0.50400001928E-02 0. -1.
</event>
<event>
 5   0  0.1579820E-06  0.2101082E+04  0.7818609E-02  0.8560767E-01
        1   -1    0    0  501    0  0.00000000000E+00  0.00000000000E+00  0.12360068425E+04  0.12360068425E+04  0.50400001928E-02 0. -1.
       -1   -1    0    0    0  501  0.00000000000E+00  0.00000000000E+00 -0.89290475034E+03  0.89290475035E+03  0.50400001928E-02 0.  1.
    10030    2    1    2    0    0  0.00000000000E+00  0.00000000000E+00  0.34310209220E+03  0.21289115929E+04  0.21010819891E+04 0.  0.
        2    1    3    3  502    0  0.43543557017E+03  0.72844560281E+03 -0.45584280214E+03  0.96334302940E+03  0.25500000920E-02 0.  1.
       -2    1    3    3    0  502 -0.43543557017E+03 -0.72844560281E+03  0.79894489433E+03  0.11655685635E+04  0.25500000920E-02 0. -1.
</event>
<event>
 5   0  0.1646510E-06  0.2100293E+04  0.7818609E-02  0.8561114E-01
        1   -1    0    0  501    0  0.00000000000E+00  0.00000000000E+00  0.94886423607E+03  0.94886423608E+03  0.50400001928E-02 0. -1.
       -1   -1    0    0    0  501  0.00000000000E+00  0.00000000000E+00 -0.11622397875E+04  0.11622397875E+04  0.50400001928E-02 0.  1.
    10030    2    1    2    0    0  0.00000000000E+00  0.00000000000E+00 -0.21337555147E+03  0.21111040236E+04  0.21002930921E+04 0.  0.
        4    1    3    3  502    0 -0.22008759020E+03 -0.96468943722E+03 -0.46026812086E+03  0.10912894271E+04  0.12699999809E+01 0.  1.
       -4    1    3    3    0  502  0.22008759020E+03  0.96468943722E+03  0.24689256940E+03  0.10198145966E+04  0.12699999809E+01 0. -1.
</event>
<event>
 5   0  0.1646510E-06  0.2099953E+04  0.7818609E-02  0.8561264E-01
        1   -1    0    0  501    0  0.00000000000E+00  0.00000000000E+00  0.14559459461E+04  0.14559459461E+04  0.50400001928E-02 0.  1.
       -1   -1    0    0    0  501  0.00000000000E+00  0.00000000000E+00 -0.75720571917E+03  0.75720571919E+03  0.50400001928E-02 0. -1.
    10030    2    1    2    0    0  0.00000000000E+00  0.00000000000E+00  0.69874022689E+03  0.22131516653E+04  0.20999529492E+04 0.  0.
        4    1    3    3  502    0 -0.68060201617E+03 -0.56271328978E+03 -0.24921067941E+03  0.91759082741E+03  0.12699999809E+01 0.  1.
       -4    1    3    3    0  502  0.68060201617E+03  0.56271328978E+03  0.94795090631E+03  0.12955608379E+04  0.12699999809E+01 0. -1.
</event>
<event>
 5   0  0.1615098E-06  0.2100131E+04  0.7818609E-02  0.8561186E-01
        1   -1    0    0  501    0  0.00000000000E+00  0.00000000000E+00  0.10602871799E+04  0.10602871799E+04  0.50400001928E-02 0. -1.
       -1   -1    0    0    0  501  0.00000000000E+00  0.00000000000E+00 -0.10399423800E+04  0.10399423800E+04  0.50400001928E-02 0.  1.
    10030    2    1    2    0    0  0.00000000000E+00  0.00000000000E+00  0.20344799849E+02  0.21002295599E+04  0.21001310181E+04 0.  0.
        1    1    3    3  502    0 -0.16683018824E+03 -0.56868342557E+03 -0.85670414210E+03  0.10417173980E+04  0.50400001928E-02 0.  1.
       -1    1    3    3    0  502  0.16683018824E+03  0.56868342557E+03  0.87704894195E+03  0.10585121619E+04  0.50400001928E-02 0. -1.
</event>
<event>
 5   0  0.1653260E-06  0.2099943E+04  0.7818609E-02  0.8561268E-01
        1   -1    0    0  501    0  0.00000000000E+00  0.00000000000E+00  0.65693903834E+03  0.65693903836E+03  0.50400001928E-02 0. -1.
       -1   -1    0    0    0  501  0.00000000000E+00  0.00000000000E+00 -0.16781471318E+04  0.16781471318E+04  0.50400001928E-02 0.  1.
    10030    2    1    2    0    0  0.00000000000E+00  0.00000000000E+00 -0.10212080935E+04  0.23350861702E+04  0.20999432021E+04 0.  0.
        3    1    3    3  502    0 -0.43946675632E+03  0.56675931945E+03  0.34213949897E+03  0.79461097592E+03  0.10100000352E+00 0. -1.
       -3    1    3    3    0  502  0.43946675632E+03 -0.56675931945E+03 -0.13633475924E+04  0.15404751942E+04  0.10100000352E+00 0.  1.
</event>
<event>
 5   0  0.1646510E-06  0.2099359E+04  0.7818609E-02  0.8561526E-01
       -1   -1    0    0    0  501  0.00000000000E+00  0.00000000000E+00  0.83846768312E+03  0.83846768313E+03  0.50400001928E-02 0. -1.
        1   -1    0    0  501    0  0.00000000000E+00  0.00000000000E+00 -0.13140962578E+04  0.13140962578E+04  0.50400001928E-02 0.  1.
    10030    2    1    2    0    0  0.00000000000E+00  0.00000000000E+00 -0.47562857466E+03  0.21525639409E+04  0.20993591829E+04 0.  0.
        4    1    3    3  502    0 -0.38522300246E+03  0.67924121158E+03  0.48143336287E+03  0.91735766248E+03  0.12699999809E+01 0. -1.
       -4    1    3    3    0  502  0.38522300246E+03 -0.67924121158E+03 -0.95706193752E+03  0.12352062784E+04  0.12699999809E+01 0.  1.
</event>
<event>
 5   0  0.3574927E-06  0.2100054E+04  0.7818609E-02  0.8561220E-01
        2   -1    0    0  501    0  0.00000000000E+00  0.00000000000E+00  0.16570838251E+04  0.16570838251E+04  0.25500000920E-02 0. -1.
       -2   -1    0    0    0  501  0.00000000000E+00  0.00000000000E+00 -0.66535963320E+03  0.66535963320E+03  0.25500000920E-02 0.  1.
    10030    2    1    2    0    0  0.00000000000E+00  0.00000000000E+00  0.99172419187E+03  0.23224434583E+04  0.21000539860E+04 0.  0.
        3    1    3    3  502    0  0.47050113847E+03  0.81006353406E+03 -0.28690435663E+02  0.93722857501E+03  0.10100000352E+00 0.  1.
       -3    1    3    3    0  502 -0.47050113847E+03 -0.81006353406E+03  0.10204146275E+04  0.13852148833E+04  0.10100000352E+00 0. -1.
</event>
<event>
 5   0  0.1579820E-06  0.2100214E+04  0.7818609E-02  0.8561149E-01
       -1   -1    0    0    0  501  0.00000000000E+00  0.00000000000E+00  0.13470309549E+04  0.13470309549E+04  0.50400001928E-02 0.  1.
        1   -1    0    0  501    0  0.00000000000E+00  0.00000000000E+00 -0.81863317469E+03  0.81863317471E+03  0.50400001928E-02 0. -1.
    10030    2    1    2    0    0  0.00000000000E+00  0.00000000000E+00  0.52839778024E+03  0.21656641296E+04  0.21002135387E+04 0.  0.
        2    1    3    3  502    0  0.29416997173E+03  0.10026366181E+04  0.15650240076E+03  0.10565553282E+04  0.25500000920E-02 0.  1.
       -2    1    3    3    0  502 -0.29416997173E+03 -0.10026366181E+04  0.37189537948E+03  0.11091088014E+04  0.25500000920E-02 0. -1.
</event>
<event>
 5   0  0.1653260E-06  0.2100691E+04  0.7818609E-02  0.8560939E-01
        1   -1    0    0  501    0  0.00000000000E+00  0.00000000000E+00  0.10049328126E+04  0.10049328126E+04  0.50400001928E-02 0. -1.
       -1   -1    0    0    0  501  0.00000000000E+00  0.00000000000E+00 -0.10978105301E+04  0.10978105301E+04  0.50400001928E-02 0.  1.
    10030    2    1    2    0    0  0.00000000000E+00  0.00000000000E+00 -0.92877717452E+02  0.21027433427E+04  0.21006911470E+04 0.  0.
        3    1    3    3  502    0  0.45449591756E+03 -0.94554334250E+03 -0.97548135424E+02  0.10536291570E+04  0.10100000352E+00 0. -1.
       -3    1    3    3    0  502 -0.45449591756E+03  0.94554334250E+03  0.46704179714E+01  0.10491141857E+04  0.10100000352E+00 0.  1.
</event>
<event>
 5   0  0.1579820E-06  0.2100673E+04  0.7818609E-02  0.8560947E-01
       -1   -1    0    0    0  501  0.00000000000E+00  0.00000000000E+00  0.72492442436E+03  0.72492442438E+03  0.50400001928E-02 0. -1.
        1   -1    0    0  501    0  0.00000000000E+00  0.00000000000E+00 -0.15218231666E+04  0.15218231666E+04  0.50400001928E-02 0.  1.
    10030    2    1    2    0    0  0.00000000000E+00  0.00000000000E+00 -0.79689874227E+03  0.22467475910E+04  0.21006730189E+04 0.  0.
        2    1    3    3  502    0  0.66337250152E+03 -0.58670521364E+03 -0.10024497087E+04  0.13376066320E+04  0.25500000920E-02 0.  1.
       -2    1    3    3    0  502 -0.66337250152E+03  0.58670521364E+03  0.20555096647E+03  0.90914095899E+03  0.25500000920E-02 0. -1.
</event>
<event>
 5   0  0.3480134E-06  0.2100343E+04  0.7818609E-02  0.8561092E-01
       -2   -1    0    0    0  501  0.00000000000E+00  0.00000000000E+00  0.70643500097E+03  0.70643500098E+03  0.25500000920E-02 0. -1.
        2   -1    0    0  501    0  0.00000000000E+00  0.00000000000E+00 -0.15611630410E+04  0.15611630410E+04  0.25500000920E-02 0.  1.
    10030    2    1    2    0    0  0.00000000000E+00  0.00000000000E+00 -0.85472804004E+03  0.22675980420E+04  0.21003430333E+04 0.  0.
        1    1    3    3  502    0  0.74336553055E+03  0.15894895399E+03 -0.12096342265E+04  0.14286609268E+04  0.50400001928E-02 0.  1.
       -1    1    3    3    0  502 -0.74336553055E+03 -0.15894895399E+03  0.35490618644E+03  0.83893711515E+03  0.50400001928E-02 0. -1.
</event>
<event>
 5   0  0.1615098E-06  0.2099690E+04  0.7818609E-02  0.8561380E-01
        1   -1    0    0  501    0  0.00000000000E+00  0.00000000000E+00  0.94380100760E+03  0.94380100761E+03  0.50400001928E-02 0.  1.
       -1   -1    0    0    0  501  0.00000000000E+00  0.00000000000E+00 -0.11678042210E+04  0.11678042210E+04  0.50400001928E-02 0. -1.
    10030    2    1    2    0    0  0.00000000000E+00  0.00000000000E+00 -0.22400321338E+03  0.21116052286E+04  0.20996902633E+04 0.  0.
        1    1    3    3  502    0 -0.74378063155E+02  0.25218070071E+03 -0.11341587324E+04  0.11642350418E+04  0.50400001928E-02 0. -1.
       -1    1    3    3    0  502  0.74378063155E+02 -0.25218070071E+03  0.91015551904E+03  0.94737018686E+03  0.50400001928E-02 0.  1.
</event>
<event>
 5   0  0.3547583E-06  0.2101016E+04  0.7818609E-02  0.8560796E-01
       -2   -1    0    0    0  501  0.00000000000E+00  0.00000000000E+00  0.15635850606E+04  0.15635850606E+04  0.25500000920E-02 0.  1.
        2   -1    0    0  501    0  0.00000000000E+00  0.00000000000E+00 -0.70579299670E+03  0.70579299671E+03  0.25500000920E-02 0. -1.
    10030    2    1    2    0    0  0.00000000000E+00  0.00000000000E+00  0.85779206385E+03  0.22693780573E+04  0.21010163117E+04 0.  0.
        2    1    3    3  502    0  0.76419680168E+03  0.26546208731E+03  0.11527470728E+04  0.14082942467E+04  0.25500000920E-02 0.  1.
       -2    1    3    3    0  502 -0.76419680168E+03 -0.26546208731E+03 -0.29495500893E+03  0.86108381056E+03  0.25500000920E-02 0. -1.
</event>
<event>
 5   0  0.1590067E-06  0.2101581E+04  0.7818609E-02  0.8560547E-01
        1   -1    0    0  501    0  0.00000000000E+00  0.00000000000E+00  0.61183040731E+03  0.61183040733E+03  0.50400001928E-02 0. -1.
       -1   -1    0    0    0  501  0.00000000000E+00  0.00000000000E+00 -0.18046844245E+04  0.18046844245E+04  0.50400001928E-02 0.  1.
    10030    2    1    2    0    0  0.00000000000E+00  0.00000000000E+00 -0.11928540172E+04  0.24165148318E+04  0.21015811253E+04 0.  0.
        5    1    3    3  502    0  0.78241887038E+03  0.59344045794E+03 -0.16651654113E+03  0.99604252636E+03  0.46999998093E+01 0. -1.
       -5    1    3    3    0  502 -0.78241887038E+03 -0.59344045794E+03 -0.10263374760E+04  0.14204723055E+04  0.46999998093E+01 0.  1.
</event>
<event>
 5   0  0.1615098E-06  0.2103681E+04  0.7818609E-02  0.8559624E-01
        1   -1    0    0  501    0  0.00000000000E+00  0.00000000000E+00  0.10683383965E+04  0.10683383965E+04  0.50400001928E-02 0. -1.
       -1   -1    0    0    0  501  0.00000000000E+00  0.00000000000E+00 -0.10355969814E+04  0.10355969814E+04  0.50400001928E-02 0.  1.
    10030    2    1    2    0    0  0.00000000000E+00  0.00000000000E+00  0.32741415150E+02  0.21039353779E+04  0.21036806018E+04 0.  0.
        1    1    3    3  502    0 -0.30859669319E+03 -0.77330392150E+03  0.65920600560E+03  0.10619714836E+04  0.50400001928E-02 0. -1.
       -1    1    3    3    0  502  0.30859669319E+03  0.77330392150E+03 -0.62646459045E+03  0.10419638944E+04  0.50400001928E-02 0.  1.
</event>
<event>
 5   0  0.1653260E-06  0.2100989E+04  0.7818609E-02  0.8560808E-01
        1   -1    0    0  501    0  0.00000000000E+00  0.00000000000E+00  0.76716084126E+03  0.76716084128E+03  0.50400001928E-02 0.  1.
       -1   -1    0    0    0  501  0.00000000000E+00  0.00000000000E+00 -0.14384711478E+04  0.14384711478E+04  0.50400001928E-02 0. -1.
    10030    2    1    2    0    0  0.00000000000E+00  0.00000000000E+00 -0.67131030656E+03  0.22056319891E+04  0.21009890394E+04 0.  0.
        3    1    3    3  502    0 -0.59289892464E+03  0.51778491840E+03  0.39462724269E+03  0.88054586902E+03  0.10100000352E+00 0.  1.
       -3    1    3    3    0  502  0.59289892464E+03 -0.51778491840E+03 -0.10659375493E+04  0.13250861201E+04  0.10100000352E+00 0. -1.
</event>
<event>
 5   0  0.3574927E-06  0.2100962E+04  0.7818609E-02  0.8560820E-01
        2   -1    0    0  501    0  0.00000000000E+00  0.00000000000E+00  0.20276313028E+04  0.20276313028E+04  0.25500000920E-02 0. -1.
       -2   -1    0    0    0  501  0.00000000000E+00  0.00000000000E+00 -0.54423643557E+03  0.54423643558E+03  0.25500000920E-02 0.  1.
    10030    2    1    2    0    0  0.00000000000E+00  0.00000000000E+00  0.14833948672E+04  0.25718677384E+04  0.21009624774E+04 0.  0.
        3    1    3    3  502    0 -0.28230677207E+03 -0.80801551103E+03  0.14872412600E+04  0.17159466062E+04  0.10100000352E+00 0. -1.
       -3    1    3    3    0  502  0.28230677207E+03  0.80801551103E+03 -0.38463927461E+01  0.85592113221E+03  0.10100000352E+00 0.  1.
</event>
<event>
 5   0  0.3636435E-06  0.2099444E+04  0.7818609E-02  0.8561488E-01
       -2   -1    0    0    0  501  0.00000000000E+00  0.00000000000E+00  0.59116016231E+03  0.59116016232E+03  0.25500000920E-02 0. -1.
        2   -1    0    0  501    0  0.00000000000E+00  0.00000000000E+00 -0.18639899210E+04  0.18639899210E+04  0.25500000920E-02 0.  1.
    10030    2    1    2    0    0  0.00000000000E+00  0.00000000000E+00 -0.12728297587E+04  0.24551500833E+04  0.20994442924E+04 0.  0.
        4    1    3    3  502    0  0.46710955129E+03  0.53693031474E+03 -0.15387936201E+04  0.16953975681E+04  0.12699999809E+01 0.  1.
       -4    1    3    3    0  502 -0.46710955129E+03 -0.53693031474E+03  0.26596386146E+03  0.75975251516E+03  0.12699999809E+01 0. -1.
</event>
<event>
 5   0  0.1615098E-06  0.2100373E+04  0.7818609E-02  0.8561079E-01
       -1   -1    0    0    0  501  0.00000000000E+00  0.00000000000E+00  0.43736505755E+03  0.43736505758E+03  0.50400001928E-02 0.  1.
        1   -1    0    0  501    0  0.00000000000E+00  0.00000000000E+00 -0.25216731981E+04  0.25216731981E+04  0.50400001928E-02 0. -1.
    10030    2    1    2    0    0  0.00000000000E+00  0.00000000000E+00 -0.20843081406E+04  0.29590382557E+04  0.21003730559E+04 0.  0.
        1    1    3    3  502    0  0.88457328903E+03  0.52483441564E+03 -0.13409115927E+04  0.16899600489E+04  0.50400001928E-02 0.  1.
       -1    1    3    3    0  502 -0.88457328903E+03 -0.52483441564E+03 -0.74339654787E+03  0.12690782068E+04  0.50400001928E-02 0. -1.
</event>
<event>
 5   0  0.1590067E-06  0.2100032E+04  0.7818609E-02  0.8561229E-01
        1   -1    0    0  501    0  0.00000000000E+00  0.00000000000E+00  0.83153021785E+03  0.83153021787E+03  0.50400001928E-02 0. -1.
       -1   -1    0    0    0  501  0.00000000000E+00  0.00000000000E+00 -0.13259090570E+04  0.13259090570E+04  0.50400001928E-02 0.  1.
    10030    2    1    2    0    0  0.00000000000E+00  0.00000000000E+00 -0.49437883914E+03  0.21574392749E+04  0.21000318541E+04 0.  0.
        5    1    3    3  502    0  0.13363017396E+03  0.35157731593E+03  0.75993975219E+03  0.84793522714E+03  0.46999998093E+01 0. -1.
       -5    1    3    3    0  502 -0.13363017396E+03 -0.35157731593E+03 -0.12543185913E+04  0.13095040477E+04  0.46999998093E+01 0.  1.
</event>
<event>
 5   0  0.3574927E-06  0.2100621E+04  0.7818609E-02  0.8560970E-01
       -2   -1    0    0    0  501  0.00000000000E+00  0.00000000000E+00  0.12237397154E+04  0.12237397154E+04  0.25500000920E-02 0. -1.
        2   -1    0    0  501    0  0.00000000000E+00  0.00000000000E+00 -0.90146014119E+03  0.90146014120E+03  0.25500000920E-02 0.  1.
    10030    2    1    2    0    0  0.00000000000E+00  0.00000000000E+00  0.32227957425E+03  0.21251998566E+04  0.21006214097E+04 0.  0.
        3    1    3    3  502    0 -0.76278165775E+02  0.10009591475E+04  0.47364718436E+03  0.11099906481E+04  0.10100000352E+00 0. -1.
       -3    1    3    3    0  502  0.76278165775E+02 -0.10009591475E+04 -0.15136761010E+03  0.10152092085E+04  0.10100000352E+00 0.  1.
</event>
<event>
 5   0  0.1646510E-06  0.2099868E+04  0.7818609E-02  0.8561302E-01
       -1   -1    0    0    0  501  0.00000000000E+00  0.00000000000E+00  0.95213241882E+03  0.95213241884E+03  0.50400001928E-02 0.  1.
        1   -1    0    0  501    0  0.00000000000E+00  0.00000000000E+00 -0.11577810621E+04  0.11577810621E+04  0.50400001928E-02 0. -1.
    10030    2    1    2    0    0  0.00000000000E+00  0.00000000000E+00 -0.20564864328E+03  0.21099134810E+04  0.20998675036E+04 0.  0.
        4    1    3    3  502    0 -0.45091583464E+02  0.82391569720E+03 -0.75515206223E+03  0.11185376958E+04  0.12699999809E+01 0. -1.
       -4    1    3    3    0  502  0.45091583464E+02 -0.82391569720E+03  0.54950341895E+03  0.99137578512E+03  0.12699999809E+01 0.  1.
</event>
<event>
 5   0  0.3574927E-06  0.2100374E+04  0.7818609E-02  0.8561079E-01
        2   -1    0    0  501    0  0.00000000000E+00  0.00000000000E+00  0.28332664192E+04  0.28332664192E+04  0.25500000920E-02 0.  1.
       -2   -1    0    0    0  501  0.00000000000E+00  0.00000000000E+00 -0.38926552497E+03  0.38926552498E+03  0.25500000920E-02 0. -1.
    10030    2    1    2    0    0  0.00000000000E+00  0.00000000000E+00  0.24440008942E+04  0.32225319442E+04  0.21003741953E+04 0.  0.
        3    1    3    3  502    0  0.44737735185E+03  0.81292074385E+03  0.19766132092E+04  0.21835719406E+04  0.10100000352E+00 0.  1.
       -3    1    3    3    0  502 -0.44737735185E+03 -0.81292074385E+03  0.46738768503E+03  0.10389600036E+04  0.10100000352E+00 0. -1.
</event>
<event>
 5   0  0.1590067E-06  0.2103174E+04  0.7818609E-02  0.8559846E-01
       -1   -1    0    0    0  501  0.00000000000E+00  0.00000000000E+00  0.89075032472E+03  0.89075032473E+03  0.50400001928E-02 0. -1.
        1   -1    0    0  501    0  0.00000000000E+00  0.00000000000E+00 -0.12414649416E+04  0.12414649416E+04  0.50400001928E-02 0.  1.
    10030    2    1    2    0    0  0.00000000000E+00  0.00000000000E+00 -0.35071461684E+03  0.21322152663E+04  0.21031740773E+04 0.  0.
        5    1    3    3  502    0  0.35403935415E+03  0.95861278191E+03 -0.42683669432E+03  0.11074718884E+04  0.46999998093E+01 0. -1.
       -5    1    3    3    0  502 -0.35403935415E+03 -0.95861278191E+03  0.76122077479E+02  0.10247433779E+04  0.46999998093E+01 0.  1.
</event>
<event>
 5   0  0.1579820E-06  0.2100163E+04  0.7818609E-02  0.8561172E-01
       -1   -1    0    0    0  501  0.00000000000E+00  0.00000000000E+00  0.22818331643E+04  0.22818331643E+04  0.50400001928E-02 0. -1.
        1   -1    0    0  501    0  0.00000000000E+00  0.00000000000E+00 -0.48323917442E+03  0.48323917445E+03  0.50400001928E-02 0.  1.
    10030    2    1    2    0    0  0.00000000000E+00  0.00000000000E+00  0.17985939899E+04  0.27650723387E+04  0.21001630170E+04 0.  0.
        2    1    3    3  502    0  0.57399558926E+02 -0.10096182573E+04  0.12717977983E+04  0.16248364148E+04  0.25500000920E-02 0. -1.
       -2    1    3    3    0  502 -0.57399558926E+02  0.10096182573E+04  0.52679619153E+03  0.11402359240E+04  0.25500000920E-02 0.  1.
</event>
<event>
 5   0  0.3705828E-06  0.2099001E+04  0.7818609E-02  0.8561684E-01
        2   -1    0    0  501    0  0.00000000000E+00  0.00000000000E+00  0.28792436397E+04  0.28792436397E+04  0.25500000920E-02 0. -1.
       -2   -1    0    0    0  501  0.00000000000E+00  0.00000000000E+00 -0.38254871585E+03  0.38254871586E+03  0.25500000920E-02 0.  1.
    10030    2    1    2    0    0  0.00000000000E+00  0.00000000000E+00  0.24966949238E+04  0.32617923555E+04  0.20990006736E+04 0.  0.
        5    1    3    3  502    0 -0.61301480253E+03 -0.57684314376E+03  0.27429742167E+03  0.88532272430E+03  0.46999998093E+01 0.  1.
       -5    1    3    3    0  502  0.61301480253E+03  0.57684314376E+03  0.22223975021E+04  0.23764696312E+04  0.46999998093E+01 0. -1.
</event>
<event>
 5   0  0.1615098E-06  0.2099716E+04  0.7818609E-02  0.8561368E-01
        1   -1    0    0  501    0  0.00000000000E+00  0.00000000000E+00  0.13731926636E+04  0.13731926636E+04  0.50400001928E-02 0. -1.
       -1   -1    0    0    0  501  0.00000000000E+00  0.00000000000E+00 -0.80265664165E+03  0.80265664167E+03  0.50400001928E-02 0.  1.
    10030    2    1    2    0    0  0.00000000000E+00  0.00000000000E+00  0.57053602193E+03  0.21758493053E+04  0.20997163730E+04 0.  0.
        1    1    3    3  502    0  0.88833389869E+03 -0.38048131523E+03 -0.13984953540E+03  0.97645329606E+03  0.50400001928E-02 0.  1.
       -1    1    3    3    0  502 -0.88833389869E+03  0.38048131523E+03  0.71038555733E+03  0.11993960092E+04  0.50400001928E-02 0. -1.
</event>
<event>
 5   0  0.1615098E-06  0.2099867E+04  0.7818609E-02  0.8561302E-01
        1   -1    0    0  501    0  0.00000000000E+00  0.00000000000E+00  0.26187555993E+04  0.26187555993E+04  0.50400001928E-02 0.  1.
       -1   -1    0    0    0  501  0.00000000000E+00  0.00000000000E+00 -0.42094826195E+03  0.42094826198E+03  0.50400001928E-02 0. -1.
    10030    2    1    2    0    0  0.00000000000E+00  0.00000000000E+00  0.21978073373E+04  0.30397038613E+04  0.20998672511E+04 0.  0.
        1    1    3    3  502    0  0.68597069691E+03 -0.18043337957E+02 -0.51417150591E+02  0.68813158804E+03  0.50400001928E-02 0. -1.
       -1    1    3    3    0  502 -0.68597069691E+03  0.18043337957E+02  0.22492244879E+04  0.23515722732E+04  0.50400001928E-02 0.  1.
</event>
<event>
 5   0  0.3574927E-06  0.2099997E+04  0.7818609E-02  0.8561245E-01
       -2   -1    0    0    0  501  0.00000000000E+00  0.00000000000E+00  0.43352755646E+03  0.43352755647E+03  0.25500000920E-02 0.  1.
        2   -1    0    0  501    0  0.00000000000E+00  0.00000000000E+00 -0.25430837561E+04  0.25430837561E+04  0.25500000920E-02 0. -1.
    10030    2    1    2    0    0  0.00000000000E+00  0.00000000000E+00 -0.21095561996E+04  0.29766113125E+04  0.20999970349E+04 0.  0.
        3    1    3    3  502    0 -0.37169427556E+03 -0.94683256292E+03 -0.68556843679E+03  0.12266428284E+04  0.10100000352E+00 0.  1.
       -3    1    3    3    0  502  0.37169427556E+03  0.94683256292E+03 -0.14239877628E+04  0.17499684842E+04  0.10100000352E+00 0. -1.
</event>
<event>
 5   0  0.1646510E-06  0.2100475E+04  0.7818609E-02  0.8561034E-01
        1   -1    0    0  501    0  0.00000000000E+00  0.00000000000E+00  0.13796662032E+04  0.13796662032E+04  0.50400001928E-02 0.  1.
       -1   -1    0    0    0  501  0.00000000000E+00  0.00000000000E+00 -0.79946770146E+03  0.79946770147E+03  0.50400001928E-02 0. -1.
    10030    2    1    2    0    0  0.00000000000E+00  0.00000000000E+00  0.58019850171E+03  0.21791339047E+04  0.21004747732E+04 0.  0.
        4    1    3    3  502    0  0.61556208300E+03  0.48281939667E+03  0.10170283052E+04  0.12831131806E+04  0.12699999809E+01 0.  1.
       -4    1    3    3    0  502 -0.61556208300E+03 -0.48281939667E+03 -0.43682980346E+03  0.89602072404E+03  0.12699999809E+01 0. -1.
</event>
<event>
 5   0  0.1615098E-06  0.2099892E+04  0.7818609E-02  0.8561291E-01
       -1   -1    0    0    0  501  0.00000000000E+00  0.00000000000E+00  0.81826149341E+03  0.81826149343E+03  0.50400001928E-02 0. -1.
        1   -1    0    0  501    0  0.00000000000E+00  0.00000000000E+00 -0.13472300047E+04  0.13472300047E+04  0.50400001928E-02 0.  1.
    10030    2    1    2    0    0  0.00000000000E+00  0.00000000000E+00 -0.52896851126E+03  0.21654914981E+04  0.20998918407E+04 0.  0.
        1    1    3    3  502    0  0.94340378351E+01 -0.82955949948E+02  0.81483281606E+03  0.81909902262E+03  0.50400001928E-02 0. -1.
       -1    1    3    3    0  502 -0.94340378351E+01  0.82955949948E+02 -0.13438013273E+04  0.13463924755E+04  0.50400001928E-02 0.  1.
</event>
<event>
 5   0  0.3705828E-06  0.2099798E+04  0.7818609E-02  0.8561332E-01
        2   -1    0    0  501    0  0.00000000000E+00  0.00000000000E+00  0.15895617422E+04  0.15895617422E+04  0.25500000920E-02 0.  1.
       -2   -1    0    0    0  501  0.00000000000E+00  0.00000000000E+00 -0.69345392213E+03  0.69345392213E+03  0.25500000920E-02 0. -1.
    10030    2    1    2    0    0  0.00000000000E+00  0.00000000000E+00  0.89610782011E+03  0.22830156644E+04  0.20997979185E+04 0.  0.
        5    1    3    3  502    0 -0.46106571536E+03 -0.87503398834E+03  0.65192461990E+02  0.99123066021E+03  0.46999998093E+01 0. -1.
       -5    1    3    3    0  502  0.46106571536E+03  0.87503398834E+03  0.83091535812E+03  0.12917850042E+04  0.46999998093E+01 0.  1.
</event>
<event>
 5   0  0.1590067E-06  0.2100253E+04  0.7818609E-02  0.8561132E-01
       -1   -1    0    0    0  501  0.00000000000E+00  0.00000000000E+00  0.97501782953E+03  0.97501782954E+03  0.50400001928E-02 0.  1.
        1   -1    0    0  501    0  0.00000000000E+00  0.00000000000E+00 -0.11310212336E+04  0.11310212336E+04  0.50400001928E-02 0. -1.
    10030    2    1    2    0    0  0.00000000000E+00  0.00000000000E+00 -0.15600340406E+03  0.21060390631E+04  0.21002531927E+04 0.  0.
        5    1    3    3  502    0  0.24023475103E+03 -0.75733950660E+03 -0.76652848719E+03  0.11040216826E+04  0.46999998093E+01 0. -1.
       -5    1    3    3    0  502 -0.24023475103E+03  0.75733950660E+03  0.61052508314E+03  0.10020173806E+04  0.46999998093E+01 0.  1.
</event>
<event>
 5   0  0.3574927E-06  0.2099965E+04  0.7818609E-02  0.8561259E-01
        2   -1    0    0  501    0  0.00000000000E+00  0.00000000000E+00  0.14196889046E+04  0.14196889046E+04  0.25500000920E-02 0.  1.
       -2   -1    0    0    0  501  0.00000000000E+00  0.00000000000E+00 -0.77655289763E+03  0.77655289763E+03  0.25500000920E-02 0. -1.
    10030    2    1    2    0    0  0.00000000000E+00  0.00000000000E+00  0.64313600694E+03  0.21962418022E+04  0.20999652688E+04 0.  0.
        3    1    3    3  502    0 -0.23617518576E+03 -0.96186989330E+03  0.68610389589E+03  0.12048696926E+04  0.10100000352E+00 0.  1.
       -3    1    3    3    0  502  0.23617518576E+03  0.96186989330E+03 -0.42967888947E+02  0.99137210960E+03  0.10100000352E+00 0. -1.
</event>
<event>
 5   0  0.1579820E-06  0.2099953E+04  0.7818609E-02  0.8561264E-01
        1   -1    0    0  501    0  0.00000000000E+00  0.00000000000E+00  0.13060239751E+04  0.13060239751E+04  0.50400001928E-02 0.  1.
       -1   -1    0    0    0  501  0.00000000000E+00  0.00000000000E+00 -0.84412735790E+03  0.84412735792E+03  0.50400001928E-02 0. -1.
    10030    2    1    2    0    0  0.00000000000E+00  0.00000000000E+00  0.46189661720E+03  0.21501513330E+04  0.20999529209E+04 0.  0.
        2    1    3    3  502    0 -0.85988114170E+03  0.44084521513E+03 -0.18961415450E+03  0.98473022150E+03  0.25500000920E-02 0. -1.
       -2    1    3    3    0  502  0.85988114170E+03 -0.44084521513E+03  0.65151077170E+03  0.11654211115E+04  0.25500000920E-02 0.  1.
</event>
<event>
 5   0  0.1646510E-06  0.2099885E+04  0.7818609E-02  0.8561294E-01
        1   -1    0    0  501    0  0.00000000000E+00  0.00000000000E+00  0.80970948795E+03  0.80970948796E+03  0.50400001928E-02 0.  1.
       -1   -1    0    0    0  501  0.00000000000E+00  0.00000000000E+00 -0.13614509719E+04  0.13614509719E+04  0.50400001928E-02 0. -1.
    10030    2    1    2    0    0  0.00000000000E+00  0.00000000000E+00 -0.55174148397E+03  0.21711604599E+04  0.20998854915E+04 0.  0.
        4    1    3    3  502    0 -0.55095370683E+03 -0.87963901433E+03 -0.43955845257E+03  0.11271770175E+04  0.12699999809E+01 0. -1.
       -4    1    3    3    0  502  0.55095370683E+03  0.87963901433E+03 -0.11218303140E+03  0.10439834424E+04  0.12699999809E+01 0.  1.
</event>
<event>
 5   0  0.1615098E-06  0.2108113E+04  0.7818609E-02  0.8557678E-01
       -1   -1    0    0    0  501  0.00000000000E+00  0.00000000000E+00  0.16619948656E+04  0.16619948656E+04  0.50400001928E-02 0. -1.
        1   -1    0    0  501    0  0.00000000000E+00  0.00000000000E+00 -0.66849498656E+03  0.66849498658E+03  0.50400001928E-02 0.  1.
    10030    2    1    2    0    0  0.00000000000E+00  0.00000000000E+00  0.99349987908E+03  0.23304898522E+04  0.21081131235E+04 0.  0.
        1    1    3    3  502    0 -0.11635667993E+03 -0.76963778034E+03 -0.28896538200E+03  0.83029042022E+03  0.50400001928E-02 0. -1.
       -1    1    3    3    0  502  0.11635667993E+03  0.76963778034E+03  0.12824652611E+04  0.15001994320E+04  0.50400001928E-02 0.  1.
</event>
<event>
 5   0  0.1646510E-06  0.2100069E+04  0.7818609E-02  0.8561213E-01
        1   -1    0    0  501    0  0.00000000000E+00  0.00000000000E+00  0.13861863775E+04  0.13861863775E+04  0.50400001928E-02 0. -1.
       -1   -1    0    0    0  501  0.00000000000E+00  0.00000000000E+00 -0.79539974449E+03  0.79539974451E+03  0.50400001928E-02 0.  1.
    10030    2    1    2    0    0  0.00000000000E+00  0.00000000000E+00  0.59078663298E+03  0.21815861220E+04  0.21000688469E+04 0.  0.
        4    1    3    3  502    0 -0.52477007796E+03  0.50129192000E+03 -0.49294003552E+03  0.87730765145E+03  0.12699999809E+01 0.  1.
       -4    1    3    3    0  502  0.52477007796E+03 -0.50129192000E+03  0.10837266685E+04  0.13042784705E+04  0.12699999809E+01 0. -1.
</event>
<event>
 5   0  0.3547583E-06  0.2100589E+04  0.7818609E-02  0.8560984E-01
       -2   -1    0    0    0  501  0.00000000000E+00  0.00000000000E+00  0.12974626467E+04  0.12974626467E+04  0.25500000920E-02 0. -1.
        2   -1    0    0  501    0  0.00000000000E+00  0.00000000000E+00 -0.85021248499E+03  0.85021248499E+03  0.25500000920E-02 0.  1.
    10030    2    1    2    0    0  0.00000000000E+00  0.00000000000E+00  0.44725016174E+03  0.21476751317E+04  0.21005893850E+04 0.  0.
        2    1    3    3  502    0 -0.68662080987E+03 -0.17261716740E+03 -0.56957044515E+03  0.90865577367E+03  0.25500000920E-02 0.  1.
       -2    1    3    3    0  502  0.68662080987E+03  0.17261716740E+03  0.10168206069E+04  0.12390193581E+04  0.25500000920E-02 0. -1.
</event>
<event>
 5   0  0.3480134E-06  0.2105351E+04  0.7818609E-02  0.8558890E-01
       -2   -1    0    0    0  501  0.00000000000E+00  0.00000000000E+00  0.10089845339E+04  0.10089845339E+04  0.25500000920E-02 0.  1.
        2   -1    0    0  501    0  0.00000000000E+00  0.00000000000E+00 -0.10982583645E+04  0.10982583645E+04  0.25500000920E-02 0. -1.
    10030    2    1    2    0    0  0.00000000000E+00  0.00000000000E+00 -0.89273830619E+02  0.21072428983E+04  0.21053509959E+04 0.  0.
        1    1    3    3  502    0 -0.55393884702E+03 -0.76535212401E+03 -0.50928849013E+03  0.10733065201E+04  0.50400001928E-02 0. -1.
       -1    1    3    3    0  502  0.55393884702E+03  0.76535212401E+03  0.42001465951E+03  0.10339363782E+04  0.50400001928E-02 0.  1.
</event>
<event>
 5   0  0.3574927E-06  0.2100440E+04  0.7818609E-02  0.8561050E-01
        2   -1    0    0  501    0  0.00000000000E+00  0.00000000000E+00  0.83503892576E+03  0.83503892576E+03  0.25500000920E-02 0. -1.
       -2   -1    0    0    0  501  0.00000000000E+00  0.00000000000E+00 -0.13208512164E+04  0.13208512164E+04  0.25500000920E-02 0.  1.
    10030    2    1    2    0    0  0.00000000000E+00  0.00000000000E+00 -0.48581229066E+03  0.21558901422E+04  0.21004401261E+04 0.  0.
        3    1    3    3  502    0  0.27009162564E+03  0.88507635657E+03 -0.75265834136E+03  0.11928135781E+04  0.10100000352E+00 0.  1.
       -3    1    3    3    0  502 -0.27009162564E+03 -0.88507635657E+03  0.26684605070E+03  0.96307656403E+03  0.10100000352E+00 0. -1.
</event>
<event>
 5   0  0.3480134E-06  0.2099790E+04  0.7818609E-02  0.8561336E-01
        2   -1    0    0  501    0  0.00000000000E+00  0.00000000000E+00  0.15101901463E+04  0.15101901463E+04  0.25500000920E-02 0.  1.
       -2   -1    0    0    0  501  0.00000000000E+00  0.00000000000E+00 -0.72989485595E+03  0.72989485596E+03  0.25500000920E-02 0. -1.
    10030    2    1    2    0    0  0.00000000000E+00  0.00000000000E+00  0.78029529032E+03  0.22400850022E+04  0.20997904841E+04 0.  0.
        1    1    3    3  502    0  0.12026831885E+03 -0.17301894541E+03 -0.70710525509E+03  0.73783322356E+03  0.50400001928E-02 0. -1.
       -1    1    3    3    0  502 -0.12026831885E+03  0.17301894541E+03  0.14874005454E+04  0.15022517787E+04  0.50400001928E-02 0.  1.
</event>
<event>
 5   0  0.3636435E-06  0.2099615E+04  0.7818609E-02  0.8561413E-01
        2   -1    0    0  501    0  0.00000000000E+00  0.00000000000E+00  0.12317222302E+04  0.12317222302E+04  0.25500000920E-02 0.  1.
       -2   -1    0    0    0  501  0.00000000000E+00  0.00000000000E+00 -0.89475988076E+03  0.89475988076E+03  0.25500000920E-02 0. -1.
    10030    2    1    2    0    0  0.00000000000E+00  0.00000000000E+00  0.33696234948E+03  0.21264821110E+04  0.20996148560E+04 0.  0.
        4    1    3    3  502    0 -0.10272108917E+04  0.16781568419E+03  0.29725485749E+02  0.10412538294E+04  0.12699999809E+01 0. -1.
       -4    1    3    3    0  502  0.10272108917E+04 -0.16781568419E+03  0.30723686373E+03  0.10852282816E+04  0.12699999809E+01 0.  1.
</event>
<event>
 5   0  0.1653260E-06  0.2100225E+04  0.7818609E-02  0.8561144E-01
        1   -1    0    0  501    0  0.00000000000E+00  0.00000000000E+00  0.16654170360E+04  0.16654170360E+04  0.50400001928E-02 0. -1.
       -1   -1    0    0    0  501  0.00000000000E+00  0.00000000000E+00 -0.66213852510E+03  0.66213852512E+03  0.50400001928E-02 0.  1.
    10030    2    1    2    0    0  0.00000000000E+00  0.00000000000E+00  0.10032785109E+04  0.23275555611E+04  0.21002254926E+04 0.  0.
        3    1    3    3  502    0 -0.72059268188E+03  0.75414834834E+03  0.36707479288E+03  0.11057745965E+04  0.10100000352E+00 0. -1.
       -3    1    3    3    0  502  0.72059268188E+03 -0.75414834834E+03  0.63620371800E+03  0.12217809646E+04  0.10100000352E+00 0.  1.
</event>
<event>
 5   0  0.1615098E-06  0.2099245E+04  0.7818609E-02  0.8561576E-01
        1   -1    0    0  501    0  0.00000000000E+00  0.00000000000E+00  0.17683452015E+04  0.17683452015E+04  0.50400001928E-02 0. -1.
       -1   -1    0    0    0  501  0.00000000000E+00  0.00000000000E+00 -0.62301584262E+03  0.62301584264E+03  0.50400001928E-02 0.  1.
    10030    2    1    2    0    0  0.00000000000E+00  0.00000000000E+00  0.11453293588E+04  0.23913610441E+04  0.20992446982E+04 0.  0.
        1    1    3    3  502    0  0.10923607229E+03 -0.30577379176E+03  0.17096952076E+04  0.17402551061E+04  0.50400001928E-02 0. -1.
       -1    1    3    3    0  502 -0.10923607229E+03  0.30577379176E+03 -0.56436584880E+03  0.65110593802E+03  0.50400001928E-02 0.  1.
</event>
<event>
 5   0  0.1590067E-06  0.2102682E+04  0.7818609E-02  0.8560063E-01
       -1   -1    0    0    0  501  0.00000000000E+00  0.00000000000E+00  0.15184860170E+04  0.15184860170E+04  0.50400001928E-02 0.  1.
        1   -1    0    0  501    0  0.00000000000E+00  0.00000000000E+00 -0.72790811676E+03  0.72790811677E+03  0.50400001928E-02 0. -1.
    10030    2    1    2    0    0  0.00000000000E+00  0.00000000000E+00  0.79057790021E+03  0.22463941337E+04  0.21026823792E+04 0.  0.
        5    1    3    3  502    0  0.22341753854E+03 -0.79134172958E+03 -0.30458758420E+03  0.87688814335E+03  0.46999998093E+01 0. -1.
       -5    1    3    3    0  502 -0.22341753854E+03  0.79134172958E+03  0.10951654844E+04  0.13695059904E+04  0.46999998093E+01 0.  1.
</event>
<event>
 5   0  0.1615098E-06  0.2101258E+04  0.7818609E-02  0.8560689E-01
        1   -1    0    0  501    0  0.00000000000E+00  0.00000000000E+00  0.58288960284E+03  0.58288960286E+03  0.50400001928E-02 0.  1.
       -1   -1    0    0    0  501  0.00000000000E+00  0.00000000000E+00 -0.18937063817E+04  0.18937063818E+04  0.50400001928E-02 0. -1.
    10030    2    1    2    0    0  0.00000000000E+00  0.00000000000E+00 -0.13108167789E+04  0.24765959846E+04  0.21012584427E+04 0.  0.
        1    1    3    3  502    0  0.42144266885E+03 -0.35534427709E+03  0.39874530127E+03  0.68035380038E+03  0.50400001928E-02 0.  1.
       -1    1    3    3    0  502 -0.42144266885E+03  0.35534427709E+03 -0.17095620802E+04  0.17962421842E+04  0.50400001928E-02 0. -1.
</event>
<event>
 5   0  0.1646510E-06  0.2104100E+04  0.7818609E-02  0.8559440E-01
       -1   -1    0    0    0  501  0.00000000000E+00  0.00000000000E+00  0.90903230791E+03  0.90903230792E+03  0.50400001928E-02 0. -1.
        1   -1    0    0  501    0  0.00000000000E+00  0.00000000000E+00 -0.12175682182E+04  0.12175682182E+04  0.50400001928E-02 0.  1.
    10030    2    1    2    0    0  0.00000000000E+00  0.00000000000E+00 -0.30853591029E+03  0.21266005261E+04  0.21040996625E+04 0.  0.
        4    1    3    3  502    0 -0.32051104758E+03 -0.91438647349E+03  0.25996522464E+03  0.10032016175E+04  0.12699999809E+01 0. -1.
       -4    1    3    3    0  502  0.32051104758E+03  0.91438647349E+03 -0.56850113493E+03  0.11233989086E+04  0.12699999809E+01 0.  1.
</event>
<event>
 5   0  0.1653260E-06  0.2100239E+04  0.7818609E-02  0.8561138E-01
       -1   -1    0    0    0  501  0.00000000000E+00  0.00000000000E+00  0.13704024301E+04  0.13704024301E+04  0.50400001928E-02 0.  1.
        1   -1    0    0  501    0  0.00000000000E+00  0.00000000000E+00 -0.80469110252E+03  0.80469110253E+03  0.50400001928E-02 0. -1.
    10030    2    1    2    0    0  0.00000000000E+00  0.00000000000E+00  0.56571132755E+03  0.21750935326E+04  0.21002386935E+04 0.  0.
        3    1    3    3  502    0 -0.67680100502E+03  0.79353726265E+03  0.40965148742E+03  0.11205245820E+04  0.10100000352E+00 0. -1.
       -3    1    3    3    0  502  0.67680100502E+03 -0.79353726265E+03  0.15605984014E+03  0.10545689506E+04  0.10100000352E+00 0.  1.
</event>
<event>
 5   0  0.3636435E-06  0.2099714E+04  0.7818609E-02  0.8561369E-01
       -2   -1    0    0    0  501  0.00000000000E+00  0.00000000000E+00  0.80362141595E+03  0.80362141595E+03  0.25500000920E-02 0.  1.
        2   -1    0    0  501    0  0.00000000000E+00  0.00000000000E+00 -0.13715415985E+04  0.13715415985E+04  0.25500000920E-02 0. -1.
    10030    2    1    2    0    0  0.00000000000E+00  0.00000000000E+00 -0.56792018252E+03  0.21751630144E+04  0.20997144581E+04 0.  0.
        4    1    3    3  502    0 -0.75350922967E+03  0.72701404762E+03 -0.36334934409E+03  0.11083094980E+04  0.12699999809E+01 0. -1.
       -4    1    3    3    0  502  0.75350922967E+03 -0.72701404762E+03 -0.20457083843E+03  0.10668535164E+04  0.12699999809E+01 0.  1.
</event>
<event>
 5   0  0.1579820E-06  0.2100238E+04  0.7818609E-02  0.8561139E-01
       -1   -1    0    0    0  501  0.00000000000E+00  0.00000000000E+00  0.10225850274E+04  0.10225850274E+04  0.50400001928E-02 0.  1.
        1   -1    0    0  501    0  0.00000000000E+00  0.00000000000E+00 -0.10783944172E+04  0.10783944172E+04  0.50400001928E-02 0. -1.
    10030    2    1    2    0    0  0.00000000000E+00  0.00000000000E+00 -0.55809389792E+02  0.21009794446E+04  0.21002380671E+04 0.  0.
        2    1    3    3  502    0 -0.74488299666E+03  0.35367074863E+03 -0.67837749666E+03  0.10677685635E+04  0.25500000920E-02 0. -1.
       -2    1    3    3    0  502  0.74488299666E+03 -0.35367074863E+03  0.62256810687E+03  0.10332108811E+04  0.25500000920E-02 0.  1.
</event>
<event>
 5   0  0.1653260E-06  0.2099777E+04  0.7818609E-02  0.8561342E-01
        1   -1    0    0  501    0  0.00000000000E+00  0.00000000000E+00  0.17217308474E+04  0.17217308474E+04  0.50400001928E-02 0.  1.
       -1   -1    0    0    0  501  0.00000000000E+00  0.00000000000E+00 -0.64020798102E+03  0.64020798104E+03  0.50400001928E-02 0. -1.
    10030    2    1    2    0    0  0.00000000000E+00  0.00000000000E+00  0.10815228664E+04  0.23619388285E+04  0.20997769688E+04 0.  0.
        3    1    3    3  502    0  0.27590963877E+03  0.47366209044E+03  0.15479809847E+04  0.16421714417E+04  0.10100000352E+00 0.  1.
       -3    1    3    3    0  502 -0.27590963877E+03 -0.47366209044E+03 -0.46645811833E+03  0.71976738676E+03  0.10100000352E+00 0. -1.
</event>
<event>
 5   0  0.3705828E-06  0.2099932E+04  0.7818609E-02  0.8561273E-01
       -2   -1    0    0    0  501  0.00000000000E+00  0.00000000000E+00  0.13772126748E+04  0.13772126748E+04  0.25500000920E-02 0.  1.
        2   -1    0    0  501    0  0.00000000000E+00  0.00000000000E+00 -0.80047831201E+03  0.80047831202E+03  0.25500000920E-02 0. -1.
    10030    2    1    2    0    0  0.00000000000E+00  0.00000000000E+00  0.57673436282E+03  0.21776909869E+04  0.20999322629E+04 0.  0.
        5    1    3    3  502    0 -0.58134100415E+03 -0.75936778688E+03  0.73778502393E+03  0.12078682173E+04  0.46999998093E+01 0.  1.
       -5    1    3    3    0  502  0.58134100415E+03  0.75936778688E+03 -0.16105066111E+03  0.96982276954E+03  0.46999998093E+01 0. -1.
</event>
<event>
 5   0  0.1579820E-06  0.2100511E+04  0.7818609E-02  0.8561018E-01
       -1   -1    0    0    0  501  0.00000000000E+00  0.00000000000E+00  0.89398964174E+03  0.89398964176E+03  0.50400001928E-02 0.  1.
        1   -1    0    0  501    0  0.00000000000E+00  0.00000000000E+00 -0.12338358694E+04  0.12338358694E+04  0.50400001928E-02 0. -1.
    10030    2    1    2    0    0  0.00000000000E+00  0.00000000000E+00 -0.33984622766E+03  0.21278255112E+04  0.21005108778E+04 0.  0.
        2    1    3    3  502    0  0.66415016332E+03 -0.43853804513E+03 -0.86412674277E+03  0.11747876762E+04  0.25500000920E-02 0. -1.
       -2    1    3    3    0  502 -0.66415016332E+03  0.43853804513E+03  0.52428051510E+03  0.95303783502E+03  0.25500000920E-02 0.  1.
</event>
<event>
 5   0  0.1590067E-06  0.2099260E+04  0.7818609E-02  0.8561569E-01
       -1   -1    0    0    0  501  0.00000000000E+00  0.00000000000E+00  0.13670802658E+04  0.13670802658E+04  0.50400001928E-02 0.  1.
        1   -1    0    0  501    0  0.00000000000E+00  0.00000000000E+00 -0.80589534405E+03  0.80589534406E+03  0.50400001928E-02 0. -1.
    10030    2    1    2    0    0  0.00000000000E+00  0.00000000000E+00  0.56118492171E+03  0.21729756098E+04  0.20992604613E+04 0.  0.
        5    1    3    3  502    0 -0.93220248480E+02  0.10439288298E+04  0.33936761431E+03  0.11016668662E+04  0.46999998093E+01 0. -1.
       -5    1    3    3    0  502  0.93220248480E+02 -0.10439288298E+04  0.22181730740E+03  0.10713087437E+04  0.46999998093E+01 0.  1.
</event>
<event>
 5   0  0.1590067E-06  0.2083635E+04  0.7818609E-02  0.8568487E-01
       -1   -1    0    0    0  501  0.00000000000E+00  0.00000000000E+00  0.64601520928E+03  0.64601520930E+03  0.50400001928E-02 0. -1.
        1   -1    0    0  501    0  0.00000000000E+00  0.00000000000E+00 -0.16801204507E+04  0.16801204507E+04  0.50400001928E-02 0.  1.
    10030    2    1    2    0    0  0.00000000000E+00  0.00000000000E+00 -0.10341052414E+04  0.23261356600E+04  0.20836346749E+04 0.  0.
        5    1    3    3  502    0 -0.33839626629E+03  0.14551284153E+03 -0.16049827990E+04  0.16467173088E+04  0.46999998093E+01 0.  1.
       -5    1    3    3    0  502  0.33839626629E+03 -0.14551284153E+03  0.57087755761E+03  0.67941835114E+03  0.46999998093E+01 0. -1.
</event>
<event>
 5   0  0.3547583E-06  0.2107716E+04  0.7818609E-02  0.8557852E-01
        2   -1    0    0  501    0  0.00000000000E+00  0.00000000000E+00  0.15252281386E+04  0.15252281386E+04  0.25500000920E-02 0. -1.
       -2   -1    0    0    0  501  0.00000000000E+00  0.00000000000E+00 -0.72816397681E+03  0.72816397682E+03  0.25500000920E-02 0.  1.
    10030    2    1    2    0    0  0.00000000000E+00  0.00000000000E+00  0.79706416177E+03  0.22533921154E+04  0.21077155282E+04 0.  0.
        2    1    3    3  502    0 -0.61938387546E+03 -0.17237779003E+03  0.12912698851E+04  0.14424730167E+04  0.25500000920E-02 0. -1.
       -2    1    3    3    0  502  0.61938387546E+03  0.17237779003E+03 -0.49420572334E+03  0.81091909871E+03  0.25500000920E-02 0.  1.
</event>
<event>
 5   0  0.3547583E-06  0.2099965E+04  0.7818609E-02  0.8561259E-01
       -2   -1    0    0    0  501  0.00000000000E+00  0.00000000000E+00  0.12230981761E+04  0.12230981761E+04  0.25500000920E-02 0.  1.
        2   -1    0    0  501    0  0.00000000000E+00  0.00000000000E+00 -0.90136953304E+03  0.90136953304E+03  0.25500000920E-02 0. -1.
    10030    2    1    2    0    0  0.00000000000E+00  0.00000000000E+00  0.32172864310E+03  0.21244677092E+04  0.20999651729E+04 0.  0.
        2    1    3    3  502    0 -0.36155975734E+03 -0.62298111661E+03  0.93373668319E+03  0.11792773734E+04  0.25500000920E-02 0.  1.
       -2    1    3    3    0  502  0.36155975734E+03  0.62298111661E+03 -0.61200804009E+03  0.94519033582E+03  0.25500000920E-02 0. -1.
</event>
<event>
 5   0  0.3705828E-06  0.2098127E+04  0.7818609E-02  0.8562069E-01
       -2   -1    0    0    0  501  0.00000000000E+00  0.00000000000E+00  0.11012403010E+04  0.11012403010E+04  0.25500000920E-02 0.  1.
        2   -1    0    0  501    0  0.00000000000E+00  0.00000000000E+00 -0.99935865920E+03  0.99935865920E+03  0.25500000920E-02 0. -1.
    10030    2    1    2    0    0  0.00000000000E+00  0.00000000000E+00  0.10188164176E+03  0.21005989602E+04  0.20981268128E+04 0.  0.
        5    1    3    3  502    0 -0.18403558957E+03  0.63907821475E+02 -0.98107858648E+03  0.10002452653E+04  0.46999998093E+01 0. -1.
       -5    1    3    3    0  502  0.18403558957E+03 -0.63907821475E+02  0.10829602282E+04  0.11003536949E+04  0.46999998093E+01 0.  1.
</event>
<event>
 5   0  0.3636435E-06  0.2100729E+04  0.7818609E-02  0.8560922E-01
       -2   -1    0    0    0  501  0.00000000000E+00  0.00000000000E+00  0.46787560009E+03  0.46787560010E+03  0.25500000920E-02 0. -1.
        2   -1    0    0  501    0  0.00000000000E+00  0.00000000000E+00 -0.23580316263E+04  0.23580316263E+04  0.25500000920E-02 0.  1.
    10030    2    1    2    0    0  0.00000000000E+00  0.00000000000E+00 -0.18901560262E+04  0.28259072264E+04  0.21007288851E+04 0.  0.
        4    1    3    3  502    0 -0.26867336991E+03 -0.61483373722E+03  0.14200760885E+03  0.68583793858E+03  0.12699999809E+01 0. -1.
       -4    1    3    3    0  502  0.26867336991E+03  0.61483373722E+03 -0.20321636351E+04  0.21400692878E+04  0.12699999809E+01 0.  1.
</event>
<event>
 5   0  0.1615098E-06  0.2099900E+04  0.7818609E-02  0.8561287E-01
       -1   -1    0    0    0  501  0.00000000000E+00  0.00000000000E+00  0.10098046534E+04  0.10098046534E+04  0.50400001928E-02 0.  1.
        1   -1    0    0  501    0  0.00000000000E+00  0.00000000000E+00 -0.10916916055E+04  0.10916916055E+04  0.50400001928E-02 0. -1.
    10030    2    1    2    0    0  0.00000000000E+00  0.00000000000E+00 -0.81886952087E+02  0.21014962589E+04  0.20999002484E+04 0.  0.
        1    1    3    3  502    0 -0.44066011078E+03  0.83301591970E+03  0.42233212506E+03  0.10326961216E+04  0.50400001928E-02 0.  1.
       -1    1    3    3    0  502  0.44066011078E+03 -0.83301591970E+03 -0.50421907714E+03  0.10688001373E+04  0.50400001928E-02 0. -1.
</event>
<event>
 5   0  0.3636435E-06  0.2097397E+04  0.7818609E-02  0.8562391E-01
       -2   -1    0    0    0  501  0.00000000000E+00  0.00000000000E+00  0.49375218870E+03  0.49375218871E+03  0.25500000920E-02 0.  1.
        2   -1    0    0  501    0  0.00000000000E+00  0.00000000000E+00 -0.22273690966E+04  0.22273690966E+04  0.25500000920E-02 0. -1.
    10030    2    1    2    0    0  0.00000000000E+00  0.00000000000E+00 -0.17336169079E+04  0.27211212853E+04  0.20973968308E+04 0.  0.
        4    1    3    3  502    0 -0.83120217243E+03 -0.24135999912E+03 -0.16350230790E+04  0.18499875087E+04  0.12699999809E+01 0.  1.
       -4    1    3    3    0  502  0.83120217243E+03  0.24135999912E+03 -0.98593828826E+02  0.87113377653E+03  0.12699999809E+01 0. -1.
</event>
<event>
 5   0  0.1646510E-06  0.2101255E+04  0.7818609E-02  0.8560691E-01
       -1   -1    0    0    0  501  0.00000000000E+00  0.00000000000E+00  0.11658850555E+04  0.11658850555E+04  0.50400001928E-02 0.  1.
        1   -1    0    0  501    0  0.00000000000E+00  0.00000000000E+00 -0.94676456659E+03  0.94676456660E+03  0.50400001928E-02 0. -1.
    10030    2    1    2    0    0  0.00000000000E+00  0.00000000000E+00  0.21912048893E+03  0.21126496221E+04  0.21012554907E+04 0.  0.
        4    1    3    3  502    0 -0.92417712642E+03 -0.13784754459E+03  0.59248944076E+03  0.11064134204E+04  0.12699999809E+01 0. -1.
       -4    1    3    3    0  502  0.92417712642E+03  0.13784754459E+03 -0.37336895183E+03  0.10062362017E+04  0.12699999809E+01 0.  1.
</event>
<event>
 5   0  0.3480134E-06  0.2101255E+04  0.7818609E-02  0.8560691E-01
        2   -1    0    0  501    0  0.00000000000E+00  0.00000000000E+00  0.19248609777E+04  0.19248609777E+04  0.25500000920E-02 0.  1.
       -2   -1    0    0    0  501  0.00000000000E+00  0.00000000000E+00 -0.57345342069E+03  0.57345342069E+03  0.25500000920E-02 0. -1.
    10030    2    1    2    0    0  0.00000000000E+00  0.00000000000E+00  0.13514075570E+04  0.24983143984E+04  0.21012549698E+04 0.  0.
        1    1    3    3  502    0 -0.99135262183E+03 -0.28782154802E+03  0.90807487027E+03  0.13748531683E+04  0.50400001928E-02 0.  1.
       -1    1    3    3    0  502  0.99135262183E+03  0.28782154802E+03  0.44333268669E+03  0.11234612301E+04  0.50400001928E-02 0. -1.
</event>
<event>
 5   0  0.1653260E-06  0.2098873E+04  0.7818609E-02  0.8561740E-01
        1   -1    0    0  501    0  0.00000000000E+00  0.00000000000E+00  0.14222443276E+04  0.14222443276E+04  0.50400001928E-02 0. -1.
       -1   -1    0    0    0  501  0.00000000000E+00  0.00000000000E+00 -0.77435154270E+03  0.77435154272E+03  0.50400001928E-02 0.  1.
    10030    2    1    2    0    0  0.00000000000E+00  0.00000000000E+00  0.64789278490E+03  0.21965958703E+04  0.20988731159E+04 0.  0.
        3    1    3    3  502    0  0.16127338844E+03  0.20223177671E+03  0.13883599371E+04  0.14122500212E+04  0.10100000352E+00 0. -1.
       -3    1    3    3    0  502 -0.16127338844E+03 -0.20223177671E+03 -0.74046715219E+03  0.78434584911E+03  0.10100000352E+00 0.  1.
</event>
<event>
 5   0  0.3574927E-06  0.2100175E+04  0.7818609E-02  0.8561166E-01
        2   -1    0    0  501    0  0.00000000000E+00  0.00000000000E+00  0.15884032320E+04  0.15884032320E+04  0.25500000920E-02 0. -1.
       -2   -1    0    0    0  501  0.00000000000E+00  0.00000000000E+00 -0.69420888991E+03  0.69420888991E+03  0.25500000920E-02 0.  1.
    10030    2    1    2    0    0  0.00000000000E+00  0.00000000000E+00  0.89419434209E+03  0.22826121219E+04  0.21001748922E+04 0.  0.
        3    1    3    3  502    0  0.97600119136E+01 -0.27424216416E+03  0.15487433403E+04  0.15728667988E+04  0.10100000352E+00 0. -1.
       -3    1    3    3    0  502 -0.97600119136E+01  0.27424216416E+03 -0.65454899821E+03  0.70974532312E+03  0.10100000352E+00 0.  1.
</event>
<event>
 5   0  0.1590067E-06  0.2100071E+04  0.7818609E-02  0.8561212E-01
        1   -1    0    0  501    0  0.00000000000E+00  0.00000000000E+00  0.17705395543E+04  0.17705395543E+04  0.50400001928E-02 0. -1.
       -1   -1    0    0    0  501  0.00000000000E+00  0.00000000000E+00 -0.62273379302E+03  0.62273379304E+03  0.50400001928E-02 0.  1.
    10030    2    1    2    0    0  0.00000000000E+00  0.00000000000E+00  0.11478057613E+04  0.23932733474E+04  0.21000712487E+04 0.  0.
        5    1    3    3  502    0  0.51995567090E+03  0.19251873336E+03  0.15901019871E+04  0.16840023105E+04  0.46999998093E+01 0. -1.
       -5    1    3    3    0  502 -0.51995567090E+03 -0.19251873336E+03 -0.44229622579E+03  0.70927103687E+03  0.46999998093E+01 0.  1.
</event>
<event>
 5   0  0.3480134E-06  0.2109031E+04  0.7818609E-02  0.8557276E-01
        2   -1    0    0  501    0  0.00000000000E+00  0.00000000000E+00  0.18771473597E+04  0.18771473597E+04  0.25500000920E-02 0. -1.
       -2   -1    0    0    0  501  0.00000000000E+00  0.00000000000E+00 -0.59238963832E+03  0.59238963832E+03  0.25500000920E-02 0.  1.
    10030    2    1    2    0    0  0.00000000000E+00  0.00000000000E+00  0.12847577214E+04  0.24695369980E+04  0.21090307210E+04 0.  0.
        1    1    3    3  502    0 -0.61505409594E+03 -0.60630602831E+03  0.13508708271E+04  0.16033560218E+04  0.50400001928E-02 0. -1.
       -1    1    3    3    0  502  0.61505409594E+03  0.60630602831E+03 -0.66113105732E+02  0.86618097628E+03  0.50400001928E-02 0.  1.
</event>
<event>
 5   0  0.3574927E-06  0.2098353E+04  0.7818609E-02  0.8561969E-01
       -2   -1    0    0    0  501  0.00000000000E+00  0.00000000000E+00  0.15557512832E+04  0.15557512832E+04  0.25500000920E-02 0.  1.
        2   -1    0    0  501    0  0.00000000000E+00  0.00000000000E+00 -0.70754997735E+03  0.70754997735E+03  0.25500000920E-02 0. -1.
    10030    2    1    2    0    0  0.00000000000E+00  0.00000000000E+00  0.84820130585E+03  0.22633012606E+04  0.20983534356E+04 0.  0.
        3    1    3    3  502    0  0.42304035287E+03 -0.95631973113E+03  0.33218951890E+03  0.10972057487E+04  0.10100000352E+00 0.  1.
       -3    1    3    3    0  502 -0.42304035287E+03  0.95631973113E+03  0.51601178695E+03  0.11660955119E+04  0.10100000352E+00 0. -1.
</event>
<event>
 5   0  0.1590067E-06  0.2099898E+04  0.7818609E-02  0.8561288E-01
       -1   -1    0    0    0  501  0.00000000000E+00  0.00000000000E+00  0.95056889685E+03  0.95056889687E+03  0.50400001928E-02 0. -1.
        1   -1    0    0  501    0  0.00000000000E+00  0.00000000000E+00 -0.11597194436E+04  0.11597194436E+04  0.50400001928E-02 0.  1.
    10030    2    1    2    0    0  0.00000000000E+00  0.00000000000E+00 -0.20915054677E+03  0.21102883405E+04  0.20998983139E+04 0.  0.
        5    1    3    3  502    0  0.12312544682E+03  0.86570556055E+03 -0.68862651678E+03  0.11130294528E+04  0.46999998093E+01 0.  1.
       -5    1    3    3    0  502 -0.12312544682E+03 -0.86570556055E+03  0.47947597002E+03  0.99725888768E+03  0.46999998093E+01 0. -1.
</event>
<event>
 5   0  0.1646510E-06  0.2098359E+04  0.7818609E-02  0.8561967E-01
       -1   -1    0    0    0  501  0.00000000000E+00  0.00000000000E+00  0.13064683919E+04  0.13064683919E+04  0.50400001928E-02 0.  1.
        1   -1    0    0  501    0  0.00000000000E+00  0.00000000000E+00 -0.84255982921E+03  0.84255982923E+03  0.50400001928E-02 0. -1.
    10030    2    1    2    0    0  0.00000000000E+00  0.00000000000E+00  0.46390856271E+03  0.21490282212E+04  0.20983591544E+04 0.  0.
        4    1    3    3  502    0 -0.85754464688E+03 -0.12298337436E+03 -0.37417155894E+03  0.94367033448E+03  0.12699999809E+01 0. -1.
       -4    1    3    3    0  502  0.85754464688E+03  0.12298337436E+03  0.83808012165E+03  0.12053578867E+04  0.12699999809E+01 0.  1.
</event>
<event>
 5   0  0.1579820E-06  0.2099125E+04  0.7818609E-02  0.8561629E-01
        1   -1    0    0  501    0  0.00000000000E+00  0.00000000000E+00  0.17994290316E+04  0.17994290316E+04  0.50400001928E-02 0. -1.
       -1   -1    0    0    0  501  0.00000000000E+00  0.00000000000E+00 -0.61218396349E+03  0.61218396351E+03  0.50400001928E-02 0.  1.
    10030    2    1    2    0    0  0.00000000000E+00  0.00000000000E+00  0.11872450681E+04  0.24116129951E+04  0.20991251479E+04 0.  0.
        2    1    3    3  502    0  0.84624459752E+02 -0.31851954035E+03  0.17384403658E+04  0.17694041093E+04  0.25500000920E-02 0. -1.
       -2    1    3    3    0  502 -0.84624459752E+02  0.31851954035E+03 -0.55119529767E+03  0.64220888576E+03  0.25500000920E-02 0.  1.
</event>
<event>
 5   0  0.3636435E-06  0.2099822E+04  0.7818609E-02  0.8561322E-01
        2   -1    0    0  501    0  0.00000000000E+00  0.00000000000E+00  0.49026897858E+03  0.49026897859E+03  0.25500000920E-02 0. -1.
       -2   -1    0    0    0  501  0.00000000000E+00  0.00000000000E+00 -0.22483849198E+04  0.22483849198E+04  0.25500000920E-02 0.  1.
    10030    2    1    2    0    0  0.00000000000E+00  0.00000000000E+00 -0.17581159412E+04  0.27386538983E+04  0.20998222573E+04 0.  0.
        4    1    3    3  502    0 -0.47085804983E+03 -0.25600097384E+03 -0.20565325178E+04  0.21252226734E+04  0.12699999809E+01 0.  1.
       -4    1    3    3    0  502  0.47085804983E+03  0.25600097384E+03  0.29841657661E+03  0.61343122499E+03  0.12699999809E+01 0. -1.
</event>
<event>
 5   0  0.3480134E-06  0.2100010E+04  0.7818609E-02  0.8561239E-01
       -2   -1    0    0    0  501  0.00000000000E+00  0.00000000000E+00  0.51249826325E+03  0.51249826326E+03  0.25500000920E-02 0. -1.
        2   -1    0    0  501    0  0.00000000000E+00  0.00000000000E+00 -0.21512465630E+04  0.21512465630E+04  0.25500000920E-02 0.  1.
    10030    2    1    2    0    0  0.00000000000E+00  0.00000000000E+00 -0.16387482997E+04  0.26637448262E+04  0.21000096451E+04 0.  0.
        1    1    3    3  502    0 -0.72357575994E+03 -0.73298888878E+03 -0.56042652833E+03  0.11725666229E+04  0.50400001928E-02 0. -1.
       -1    1    3    3    0  502  0.72357575994E+03  0.73298888878E+03 -0.10783217714E+04  0.14911782034E+04  0.50400001928E-02 0.  1.
</event>
<event>
 5   0  0.1615098E-06  0.2099708E+04  0.7818609E-02  0.8561372E-01
       -1   -1    0    0    0  501  0.00000000000E+00  0.00000000000E+00  0.94115878359E+03  0.94115878360E+03  0.50400001928E-02 0.  1.
        1   -1    0    0  501    0  0.00000000000E+00  0.00000000000E+00 -0.11711020970E+04  0.11711020970E+04  0.50400001928E-02 0. -1.
    10030    2    1    2    0    0  0.00000000000E+00  0.00000000000E+00 -0.22994331344E+03  0.21122608806E+04  0.20997076226E+04 0.  0.
        1    1    3    3  502    0 -0.83282868495E+03  0.42993525380E+03 -0.59081662598E+03  0.11079315080E+04  0.50400001928E-02 0. -1.
       -1    1    3    3    0  502  0.83282868495E+03 -0.42993525380E+03  0.36087331254E+03  0.10043293726E+04  0.50400001928E-02 0.  1.
</event>
<event>
 5   0  0.3705828E-06  0.2099890E+04  0.7818609E-02  0.8561292E-01
       -2   -1    0    0    0  501  0.00000000000E+00  0.00000000000E+00  0.43108956146E+03  0.43108956147E+03  0.25500000920E-02 0. -1.
        2   -1    0    0  501    0  0.00000000000E+00  0.00000000000E+00 -0.25572046454E+04  0.25572046454E+04  0.25500000920E-02 0.  1.
    10030    2    1    2    0    0  0.00000000000E+00  0.00000000000E+00 -0.21261150840E+04  0.29882942069E+04  0.20998897392E+04 0.  0.
        5    1    3    3  502    0 -0.26966989137E+03  0.75792212275E+03 -0.10293804183E+03  0.81104015000E+03  0.46999998093E+01 0. -1.
       -5    1    3    3    0  502  0.26966989137E+03 -0.75792212275E+03 -0.20231770421E+04  0.21772540569E+04  0.46999998093E+01 0.  1.
</event>
<event>
 5   0  0.1646510E-06  0.2099989E+04  0.7818609E-02  0.8561248E-01
       -1   -1    0    0    0  501  0.00000000000E+00  0.00000000000E+00  0.91865030976E+03  0.91865030977E+03  0.50400001928E-02 0.  1.
        1   -1    0    0  501    0  0.00000000000E+00  0.00000000000E+00 -0.12001171731E+04  0.12001171731E+04  0.50400001928E-02 0. -1.
    10030    2    1    2    0    0  0.00000000000E+00  0.00000000000E+00 -0.28146686330E+03  0.21187674828E+04  0.20999885836E+04 0.  0.
        4    1    3    3  502    0 -0.74450418694E+03  0.26038249426E+03  0.55857418583E+03  0.96648448600E+03  0.12699999809E+01 0. -1.
       -4    1    3    3    0  502  0.74450418694E+03 -0.26038249426E+03 -0.84004104913E+03  0.11522829968E+04  0.12699999809E+01 0.  1.
</event>
<event>
 5   0  0.1653260E-06  0.2099669E+04  0.7818609E-02  0.8561389E-01
       -1   -1    0    0    0  501  0.00000000000E+00  0.00000000000E+00  0.51792214831E+03  0.51792214834E+03  0.50400001928E-02 0.  1.
        1   -1    0    0  501    0  0.00000000000E+00  0.00000000000E+00 -0.21280277843E+04  0.21280277843E+04  0.50400001928E-02 0. -1.
    10030    2    1    2    0    0  0.00000000000E+00  0.00000000000E+00 -0.16101056360E+04  0.26459499326E+04  0.20996692328E+04 0.  0.
        3    1    3    3  502    0  0.68925453098E+03  0.79185266811E+03 -0.79611933752E+03  0.13175387912E+04  0.10100000352E+00 0. -1.
       -3    1    3    3    0  502 -0.68925453098E+03 -0.79185266811E+03 -0.81398629843E+03  0.13284111414E+04  0.10100000352E+00 0.  1.
</event>
<event>
 5   0  0.1579820E-06  0.2099478E+04  0.7818609E-02  0.8561473E-01
        1   -1    0    0  501    0  0.00000000000E+00  0.00000000000E+00  0.14866705678E+04  0.14866705678E+04  0.50400001928E-02 0.  1.
       -1   -1    0    0    0  501  0.00000000000E+00  0.00000000000E+00 -0.74122167788E+03  0.74122167789E+03  0.50400001928E-02 0. -1.
    10030    2    1    2    0    0  0.00000000000E+00  0.00000000000E+00  0.74544888989E+03  0.22278922457E+04  0.20994784616E+04 0.  0.
        2    1    3    3  502    0  0.63696270867E+03  0.64631630800E+03  0.93274012194E+03  0.13013263992E+04  0.25500000920E-02 0.  1.
       -2    1    3    3    0  502 -0.63696270867E+03 -0.64631630800E+03 -0.18729123204E+03  0.92656584646E+03  0.25500000920E-02 0. -1.
</event>
<event>
 5   0  0.3636435E-06  0.2099122E+04  0.7818609E-02  0.8561630E-01
       -2   -1    0    0    0  501  0.00000000000E+00  0.00000000000E+00  0.54518833598E+03  0.54518833599E+03  0.25500000920E-02 0. -1.
        2   -1    0    0  501    0  0.00000000000E+00  0.00000000000E+00 -0.20205468610E+04  0.20205468610E+04  0.25500000920E-02 0.  1.
    10030    2    1    2    0    0  0.00000000000E+00  0.00000000000E+00 -0.14753585250E+04  0.25657351970E+04  0.20991222746E+04 0.  0.
        4    1    3    3  502    0  0.30363501132E+03  0.36962379450E+03 -0.18795626639E+04  0.19394776075E+04  0.12699999809E+01 0.  1.
       -4    1    3    3    0  502 -0.30363501132E+03 -0.36962379450E+03  0.40420413890E+03  0.62625758947E+03  0.12699999809E+01 0. -1.
</event>
<event>
 5   0  0.1615098E-06  0.2100109E+04  0.7818609E-02  0.8561196E-01
        1   -1    0    0  501    0  0.00000000000E+00  0.00000000000E+00  0.20997757551E+04  0.20997757551E+04  0.50400001928E-02 0. -1.
       -1   -1    0    0    0  501  0.00000000000E+00  0.00000000000E+00 -0.52511036754E+03  0.52511036756E+03  0.50400001928E-02 0.  1.
    10030    2    1    2    0    0  0.00000000000E+00  0.00000000000E+00  0.15746653876E+04  0.26248861227E+04  0.21001085863E+04 0.  0.
        1    1    3    3  502    0  0.39485697069E+03  0.58106158903E+01 -0.42876262605E+03  0.58290923829E+03  0.50400001928E-02 0.  1.
       -1    1    3    3    0  502 -0.39485697069E+03 -0.58106158903E+01  0.20034280136E+04  0.20419768844E+04  0.50400001928E-02 0. -1.
</event>
<event>
 5   0  0.1653260E-06  0.2100753E+04  0.7818609E-02  0.8560912E-01
       -1   -1    0    0    0  501  0.00000000000E+00  0.00000000000E+00  0.11380301552E+04  0.11380301552E+04  0.50400001928E-02 0.  1.
        1   -1    0    0  501    0  0.00000000000E+00  0.00000000000E+00 -0.96947439310E+03  0.96947439311E+03  0.50400001928E-02 0. -1.
    10030    2    1    2    0    0  0.00000000000E+00  0.00000000000E+00  0.16855576214E+03  0.21075045484E+04  0.21007532878E+04 0.  0.
        3    1    3    3  502    0  0.35811773558E+03  0.89156379373E+02  0.10708476268E+04  0.11326569748E+04  0.10100000352E+00 0.  1.
       -3    1    3    3    0  502 -0.35811773558E+03 -0.89156379373E+02 -0.90229186464E+03  0.97484757358E+03  0.10100000352E+00 0. -1.
</event>
<event>
 5   0  0.3547583E-06  0.2100012E+04  0.7818609E-02  0.8561238E-01
        2   -1    0    0  501    0  0.00000000000E+00  0.00000000000E+00  0.75646456846E+03  0.75646456847E+03  0.25500000920E-02 0. -1.
       -2   -1    0    0    0  501  0.00000000000E+00  0.00000000000E+00 -0.14574538820E+04  0.14574538820E+04  0.25500000920E-02 0.  1.
    10030    2    1    2    0    0  0.00000000000E+00  0.00000000000E+00 -0.70098931357E+03  0.22139184505E+04  0.21000116399E+04 0.  0.
        2    1    3    3  502    0  0.43570930904E+03  0.93298965843E+03 -0.56706337052E+03  0.11755310166E+04  0.25500000920E-02 0.  1.
       -2    1    3    3    0  502 -0.43570930904E+03 -0.93298965843E+03 -0.13392594305E+03  0.10383874339E+04  0.25500000920E-02 0. -1.
</event>
<event>
 5   0  0.3636435E-06  0.2102768E+04  0.7818609E-02  0.8560025E-01
        2   -1    0    0  501    0  0.00000000000E+00  0.00000000000E+00  0.10737068628E+04  0.10737068628E+04  0.25500000920E-02 0.  1.
       -2   -1    0    0    0  501  0.00000000000E+00  0.00000000000E+00 -0.10295249166E+04  0.10295249166E+04  0.25500000920E-02 0. -1.
    10030    2    1    2    0    0  0.00000000000E+00  0.00000000000E+00  0.44181946125E+02  0.21032317794E+04  0.21027676699E+04 0.  0.
        4    1    3    3  502    0  0.13475686772E+03  0.16035729220E+03 -0.10084434136E+04  0.10299677693E+04  0.12699999809E+01 0. -1.
       -4    1    3    3    0  502 -0.13475686772E+03 -0.16035729220E+03  0.10526253597E+04  0.10732640101E+04  0.12699999809E+01 0.  1.
</event>
<event>
 5   0  0.1590067E-06  0.2101069E+04  0.7818609E-02  0.8560773E-01
       -1   -1    0    0    0  501  0.00000000000E+00  0.00000000000E+00  0.66192841288E+03  0.66192841290E+03  0.50400001928E-02 0.  1.
        1   -1    0    0  501    0  0.00000000000E+00  0.00000000000E+00 -0.16672839845E+04  0.16672839845E+04  0.50400001928E-02 0. -1.
    10030    2    1    2    0    0  0.00000000000E+00  0.00000000000E+00 -0.10053555716E+04  0.23292123974E+04  0.21010689105E+04 0.  0.
        5    1    3    3  502    0  0.90387374084E+03  0.28051261776E+02 -0.10953568901E+04  0.14204236760E+04  0.46999998093E+01 0. -1.
       -5    1    3    3    0  502 -0.90387374084E+03 -0.28051261776E+02  0.90001318563E+02  0.90878872133E+03  0.46999998093E+01 0.  1.
</event>
<event>
 5   0  0.3636435E-06  0.2100493E+04  0.7818609E-02  0.8561026E-01
        2   -1    0    0  501    0  0.00000000000E+00  0.00000000000E+00  0.24964006648E+04  0.24964006648E+04  0.25500000920E-02 0. -1.
       -2   -1    0    0    0  501  0.00000000000E+00  0.00000000000E+00 -0.44184331484E+03  0.44184331485E+03  0.25500000920E-02 0.  1.
    10030    2    1    2    0    0  0.00000000000E+00  0.00000000000E+00  0.20545573500E+04  0.29382439797E+04  0.21004932230E+04 0.  0.
        4    1    3    3  502    0 -0.66891167928E+03  0.67519469588E+03  0.16523649538E+04  0.19062114954E+04  0.12699999809E+01 0. -1.
       -4    1    3    3    0  502  0.66891167928E+03 -0.67519469588E+03  0.40219239622E+03  0.10320324842E+04  0.12699999809E+01 0.  1.
</event>
<event>
 5   0  0.1579820E-06  0.2102410E+04  0.7818609E-02  0.8560183E-01
       -1   -1    0    0    0  501  0.00000000000E+00  0.00000000000E+00  0.72770840378E+03  0.72770840379E+03  0.50400001928E-02 0. -1.
        1   -1    0    0  501    0  0.00000000000E+00  0.00000000000E+00 -0.15185090684E+04  0.15185090684E+04  0.50400001928E-02 0.  1.
    10030    2    1    2    0    0  0.00000000000E+00  0.00000000000E+00 -0.79080066458E+03  0.22462174722E+04  0.21024098652E+04 0.  0.
        2    1    3    3  502    0  0.94990938743E+03  0.41469244089E+03 -0.20809722327E+03  0.10571670252E+04  0.25500000920E-02 0.  1.
       -2    1    3    3    0  502 -0.94990938743E+03 -0.41469244089E+03 -0.58270344131E+03  0.11890504469E+04  0.25500000920E-02 0. -1.
</event>
<event>
 5   0  0.3705828E-06  0.2100032E+04  0.7818609E-02  0.8561229E-01
       -2   -1    0    0    0  501  0.00000000000E+00  0.00000000000E+00  0.54291542432E+03  0.54291542433E+03  0.25500000920E-02 0. -1.
        2   -1    0    0  501    0  0.00000000000E+00  0.00000000000E+00 -0.20307642870E+04  0.20307642870E+04  0.25500000920E-02 0.  1.
    10030    2    1    2    0    0  0.00000000000E+00  0.00000000000E+00 -0.14878488627E+04  0.25736797113E+04  0.21000316708E+04 0.  0.
        5    1    3    3  502    0 -0.16878095042E+03 -0.98763941402E+03 -0.11287382767E+04  0.15093014306E+04  0.46999998093E+01 0.  1.
       -5    1    3    3    0  502  0.16878095042E+03  0.98763941402E+03 -0.35911058599E+03  0.10643782807E+04  0.46999998093E+01 0. -1.
</event>
<event>
 5   0  0.1646510E-06  0.2099934E+04  0.7818609E-02  0.8561272E-01
       -1   -1    0    0    0  501  0.00000000000E+00  0.00000000000E+00  0.64454669967E+03  0.64454669969E+03  0.50400001928E-02 0. -1.
        1   -1    0    0  501    0  0.00000000000E+00  0.00000000000E+00 -0.17103973805E+04  0.17103973805E+04  0.50400001928E-02 0.  1.
    10030    2    1    2    0    0  0.00000000000E+00  0.00000000000E+00 -0.10658506808E+04  0.23549440802E+04  0.20999342721E+04 0.  0.
        4    1    3    3  502    0 -0.24669168922E+03  0.40799242924E+03  0.51615174827E+03  0.70265841772E+03  0.12699999809E+01 0. -1.
       -4    1    3    3    0  502  0.24669168922E+03 -0.40799242924E+03 -0.15820024291E+04  0.16522856625E+04  0.12699999809E+01 0.  1.
</event>
<event>
 5   0  0.3574927E-06  0.2098354E+04  0.7818609E-02  0.8561969E-01
       -2   -1    0    0    0  501  0.00000000000E+00  0.00000000000E+00  0.88723271321E+03  0.88723271322E+03  0.25500000920E-02 0.  1.
        2   -1    0    0  501    0  0.00000000000E+00  0.00000000000E+00 -0.12406809158E+04  0.12406809158E+04  0.25500000920E-02 0. -1.
    10030    2    1    2    0    0  0.00000000000E+00  0.00000000000E+00 -0.35344820254E+03  0.21279136290E+04  0.20983543029E+04 0.  0.
        3    1    3    3  502    0 -0.91234807747E+03 -0.19126687076E+03  0.31152547274E+03  0.98285815899E+03  0.10100000352E+00 0.  1.
       -3    1    3    3    0  502  0.91234807747E+03  0.19126687076E+03 -0.66497367528E+03  0.11450554700E+04  0.10100000352E+00 0. -1.
</event>
<event>
 5   0  0.1579820E-06  0.2100583E+04  0.7818609E-02  0.8560986E-01
        1   -1    0    0  501    0  0.00000000000E+00  0.00000000000E+00  0.71296946367E+03  0.71296946368E+03  0.50400001928E-02 0. -1.
       -1   -1    0    0    0  501  0.00000000000E+00  0.00000000000E+00 -0.15472088231E+04  0.15472088231E+04  0.50400001928E-02 0.  1.
    10030    2    1    2    0    0  0.00000000000E+00  0.00000000000E+00 -0.83423935943E+03  0.22601782868E+04  0.21005833902E+04 0.  0.
        2    1    3    3  502    0  0.22140422274E+03  0.20690517669E+02 -0.15215898482E+04  0.15377527738E+04  0.25500000920E-02 0.  1.
       -2    1    3    3    0  502 -0.22140422274E+03 -0.20690517669E+02  0.68735048875E+03  0.72242551295E+03  0.25500000920E-02 0. -1.
</event>
<event>
 5   0  0.3547583E-06  0.2100221E+04  0.7818609E-02  0.8561146E-01
       -2   -1    0    0    0  501  0.00000000000E+00  0.00000000000E+00  0.71419461152E+03  0.71419461152E+03  0.25500000920E-02 0. -1.
        2   -1    0    0  501    0  0.00000000000E+00  0.00000000000E+00 -0.15440217475E+04  0.15440217475E+04  0.25500000920E-02 0.  1.
    10030    2    1    2    0    0  0.00000000000E+00  0.00000000000E+00 -0.82982713599E+03  0.22582163590E+04  0.21002209523E+04 0.  0.
        2    1    3    3  502    0  0.44601743300E+03 -0.22373143133E+01 -0.14371130091E+04  0.15047359759E+04  0.25500000920E-02 0.  1.
       -2    1    3    3    0  502 -0.44601743300E+03  0.22373143133E+01  0.60728587312E+03  0.75348038316E+03  0.25500000920E-02 0. -1.
</event>
<event>
 5   0  0.1257125E-06  0.2099831E+04  0.7818609E-02  0.8561318E-01
        3   -1    0    0  501    0  0.00000000000E+00  0.00000000000E+00  0.11378154347E+04  0.11378154392E+04  0.10100000352E+00 0. -1.
       -3   -1    0    0    0  501  0.00000000000E+00  0.00000000000E+00 -0.96880633814E+03  0.96880634340E+03  0.10100000352E+00 0.  1.
    10030    2    1    2    0    0  0.00000000000E+00  0.00000000000E+00  0.16900909658E+03  0.21066217826E+04  0.20998312456E+04 0.  0.
        4    1    3    3  502    0  0.40531549322E+03  0.86949216809E+03  0.51252686317E+03  0.10876500714E+04  0.12699999809E+01 0. -1.
       -4    1    3    3    0  502 -0.40531549322E+03 -0.86949216809E+03 -0.34351776659E+03  0.10189717112E+04  0.12699999809E+01 0.  1.
</event>
<event>
 5   0  0.3636435E-06  0.2103113E+04  0.7818609E-02  0.8559873E-01
        2   -1    0    0  501    0  0.00000000000E+00  0.00000000000E+00  0.27766676076E+04  0.27766676076E+04  0.25500000920E-02 0. -1.
       -2   -1    0    0    0  501  0.00000000000E+00  0.00000000000E+00 -0.39823679086E+03  0.39823679087E+03  0.25500000920E-02 0.  1.
    10030    2    1    2    0    0  0.00000000000E+00  0.00000000000E+00  0.23784308167E+04  0.31749043985E+04  0.21031131186E+04 0.  0.
        4    1    3    3  502    0 -0.88704025085E+03 -0.51219593243E+03  0.15483165446E+04  0.18564672943E+04  0.12699999809E+01 0. -1.
       -4    1    3    3    0  502  0.88704025085E+03  0.51219593243E+03  0.83011427215E+03  0.13184371041E+04  0.12699999809E+01 0.  1.
</event>
<event>
 5   0  0.3705828E-06  0.2095257E+04  0.7818609E-02  0.8563335E-01
        2   -1    0    0  501    0  0.00000000000E+00  0.00000000000E+00  0.22447360503E+04  0.22447360503E+04  0.25500000920E-02 0.  1.
       -2   -1    0    0    0  501  0.00000000000E+00  0.00000000000E+00 -0.48893306945E+03  0.48893306946E+03  0.25500000920E-02 0. -1.
    10030    2    1    2    0    0  0.00000000000E+00  0.00000000000E+00  0.17558029808E+04  0.27336691197E+04  0.20952572035E+04 0.  0.
        5    1    3    3  502    0 -0.40196996500E+03  0.96651297856E+03  0.82291198635E+03  0.13315154591E+04  0.46999998093E+01 0. -1.
       -5    1    3    3    0  502  0.40196996500E+03 -0.96651297856E+03  0.93289099445E+03  0.14021536606E+04  0.46999998093E+01 0.  1.
</event>
<event>
 5   0  0.1646510E-06  0.2097351E+04  0.7818609E-02  0.8562411E-01
        1   -1    0    0  501    0  0.00000000000E+00  0.00000000000E+00  0.10963379435E+04  0.10963379435E+04  0.50400001928E-02 0. -1.
       -1   -1    0    0    0  501  0.00000000000E+00  0.00000000000E+00 -0.10030855156E+04  0.10030855156E+04  0.50400001928E-02 0.  1.
    10030    2    1    2    0    0  0.00000000000E+00  0.00000000000E+00  0.93252427885E+02  0.20994234590E+04  0.20973513881E+04 0.  0.
        4    1    3    3  502    0 -0.79861366723E+03  0.65051187721E+03 -0.15046830381E+03  0.10409571630E+04  0.12699999809E+01 0.  1.
       -4    1    3    3    0  502  0.79861366723E+03 -0.65051187721E+03  0.24372073170E+03  0.10584662960E+04  0.12699999809E+01 0. -1.
</event>
<event>
 5   0  0.1579820E-06  0.2096737E+04  0.7818609E-02  0.8562682E-01
        1   -1    0    0  501    0  0.00000000000E+00  0.00000000000E+00  0.11412291267E+04  0.11412291267E+04  0.50400001928E-02 0. -1.
       -1   -1    0    0    0  501  0.00000000000E+00  0.00000000000E+00 -0.96306349030E+03  0.96306349031E+03  0.50400001928E-02 0.  1.
    10030    2    1    2    0    0  0.00000000000E+00  0.00000000000E+00  0.17816563640E+03  0.21042926170E+04  0.20967366129E+04 0.  0.
        2    1    3    3  502    0  0.10832866167E+03  0.61894286714E+03  0.93130350963E+03  0.11234552055E+04  0.25500000920E-02 0. -1.
       -2    1    3    3    0  502 -0.10832866167E+03 -0.61894286714E+03 -0.75313787323E+03  0.98083741151E+03  0.25500000920E-02 0.  1.
</event>
<event>
 5   0  0.3705828E-06  0.2099393E+04  0.7818609E-02  0.8561511E-01
       -2   -1    0    0    0  501  0.00000000000E+00  0.00000000000E+00  0.12479191332E+04  0.12479191332E+04  0.25500000920E-02 0.  1.
        2   -1    0    0  501    0  0.00000000000E+00  0.00000000000E+00 -0.88295990545E+03  0.88295990546E+03  0.25500000920E-02 0. -1.
    10030    2    1    2    0    0  0.00000000000E+00  0.00000000000E+00  0.36495922772E+03  0.21308790386E+04  0.20993928264E+04 0.  0.
        5    1    3    3  502    0 -0.70173829755E+03  0.51748553253E+03 -0.41076253633E+03  0.96383394103E+03  0.46999998093E+01 0. -1.
       -5    1    3    3    0  502  0.70173829755E+03 -0.51748553253E+03  0.77572176404E+03  0.11670450976E+04  0.46999998093E+01 0.  1.
</event>
<event>
 5   0  0.1653260E-06  0.2100705E+04  0.7818609E-02  0.8560933E-01
       -1   -1    0    0    0  501  0.00000000000E+00  0.00000000000E+00  0.52794672463E+03  0.52794672465E+03  0.50400001928E-02 0.  1.
        1   -1    0    0  501    0  0.00000000000E+00  0.00000000000E+00 -0.20896822455E+04  0.20896822455E+04  0.50400001928E-02 0. -1.
    10030    2    1    2    0    0  0.00000000000E+00  0.00000000000E+00 -0.15617355209E+04  0.26176289702E+04  0.21007054978E+04 0.  0.
        3    1    3    3  502    0  0.32740688366E+03  0.90569682602E+03 -0.25846970324E+03  0.99714021372E+03  0.10100000352E+00 0.  1.
       -3    1    3    3    0  502 -0.32740688366E+03 -0.90569682602E+03 -0.13032658177E+04  0.16204887565E+04  0.10100000352E+00 0. -1.
</event>
<event>
 5   0  0.3480134E-06  0.2099451E+04  0.7818609E-02  0.8561485E-01
        2   -1    0    0  501    0  0.00000000000E+00  0.00000000000E+00  0.10107991191E+04  0.10107991191E+04  0.25500000920E-02 0. -1.
       -2   -1    0    0    0  501  0.00000000000E+00  0.00000000000E+00 -0.10901507597E+04  0.10901507597E+04  0.25500000920E-02 0.  1.
    10030    2    1    2    0    0  0.00000000000E+00  0.00000000000E+00 -0.79351640568E+02  0.21009498788E+04  0.20994508116E+04 0.  0.
        1    1    3    3  502    0  0.10411298395E+03 -0.10196028113E+04  0.18740915043E+03  0.10418980737E+04  0.50400001928E-02 0. -1.
       -1    1    3    3    0  502 -0.10411298395E+03  0.10196028113E+04 -0.26676079100E+03  0.10590518051E+04  0.50400001928E-02 0.  1.
</event>
<event>
 5   0  0.1615098E-06  0.2100865E+04  0.7818609E-02  0.8560862E-01
       -1   -1    0    0    0  501  0.00000000000E+00  0.00000000000E+00  0.79117718518E+03  0.79117718519E+03  0.50400001928E-02 0.  1.
        1   -1    0    0  501    0  0.00000000000E+00  0.00000000000E+00 -0.13946414313E+04  0.13946414313E+04  0.50400001928E-02 0. -1.
    10030    2    1    2    0    0  0.00000000000E+00  0.00000000000E+00 -0.60346424607E+03  0.21858186165E+04  0.21008650427E+04 0.  0.
        1    1    3    3  502    0 -0.16460345624E+03  0.10263380967E+04 -0.14413316994E+03  0.10493991411E+04  0.50400001928E-02 0.  1.
       -1    1    3    3    0  502  0.16460345624E+03 -0.10263380967E+04 -0.45933107614E+03  0.11364194754E+04  0.50400001928E-02 0. -1.
</event>
<event>
 5   0  0.3480134E-06  0.2099059E+04  0.7818609E-02  0.8561658E-01
       -2   -1    0    0    0  501  0.00000000000E+00  0.00000000000E+00  0.73873988469E+03  0.73873988469E+03  0.25500000920E-02 0. -1.
        2   -1    0    0  501    0  0.00000000000E+00  0.00000000000E+00 -0.14910686243E+04  0.14910686243E+04  0.25500000920E-02 0.  1.
    10030    2    1    2    0    0  0.00000000000E+00  0.00000000000E+00 -0.75232873966E+03  0.22298085090E+04  0.20990587068E+04 0.  0.
        1    1    3    3  502    0  0.42532959948E+03  0.91189693661E+03 -0.59162852543E+02  0.10079491725E+04  0.50400001928E-02 0. -1.
       -1    1    3    3    0  502 -0.42532959948E+03 -0.91189693661E+03 -0.69316588711E+03  0.12218593365E+04  0.50400001928E-02 0.  1.
</event>
<event>
 5   0  0.3480134E-06  0.2100115E+04  0.7818609E-02  0.8561193E-01
       -2   -1    0    0    0  501  0.00000000000E+00  0.00000000000E+00  0.10849667573E+04  0.10849667573E+04  0.25500000920E-02 0. -1.
        2   -1    0    0  501    0  0.00000000000E+00  0.00000000000E+00 -0.10162711574E+04  0.10162711574E+04  0.25500000920E-02 0.  1.
    10030    2    1    2    0    0  0.00000000000E+00  0.00000000000E+00  0.68695599851E+02  0.21012379147E+04  0.21001146847E+04 0.  0.
        1    1    3    3  502    0 -0.91036870279E+03  0.16142183386E+03  0.53240138048E+03  0.10669017825E+04  0.50400001928E-02 0. -1.
       -1    1    3    3    0  502  0.91036870279E+03 -0.16142183386E+03 -0.46370578063E+03  0.10343361323E+04  0.50400001928E-02 0.  1.
</event>
<event>
 5   0  0.3705828E-06  0.2099892E+04  0.7818609E-02  0.8561291E-01
       -2   -1    0    0    0  501  0.00000000000E+00  0.00000000000E+00  0.62834297579E+03  0.62834297580E+03  0.25500000920E-02 0.  1.
        2   -1    0    0  501    0  0.00000000000E+00  0.00000000000E+00 -0.17544346484E+04  0.17544346484E+04  0.25500000920E-02 0. -1.
    10030    2    1    2    0    0  0.00000000000E+00  0.00000000000E+00 -0.11260916726E+04  0.23827776242E+04  0.20998920809E+04 0.  0.
        5    1    3    3  502    0 -0.79339367645E+03 -0.61859155177E+03 -0.90390533911E+03  0.13524777210E+04  0.46999998093E+01 0. -1.
       -5    1    3    3    0  502  0.79339367645E+03  0.61859155177E+03 -0.22218633352E+03  0.10302999032E+04  0.46999998093E+01 0.  1.
</event>
<event>
 5   0  0.3574927E-06  0.2100367E+04  0.7818609E-02  0.8561082E-01
       -2   -1    0    0    0  501  0.00000000000E+00  0.00000000000E+00  0.87769293257E+03  0.87769293257E+03  0.25500000920E-02 0.  1.
        2   -1    0    0  501    0  0.00000000000E+00  0.00000000000E+00 -0.12565726588E+04  0.12565726588E+04  0.25500000920E-02 0. -1.
    10030    2    1    2    0    0  0.00000000000E+00  0.00000000000E+00 -0.37887972619E+03  0.21342655913E+04  0.21003665793E+04 0.  0.
        3    1    3    3  502    0  0.15650381963E+03 -0.88803717669E+02  0.86191128137E+03  0.88049452751E+03  0.10100000352E+00 0.  1.
       -3    1    3    3    0  502 -0.15650381963E+03  0.88803717669E+02 -0.12407910076E+04  0.12537710638E+04  0.10100000352E+00 0. -1.
</event>
<event>
 5   0  0.1579820E-06  0.2099445E+04  0.7818609E-02  0.8561488E-01
       -1   -1    0    0    0  501  0.00000000000E+00  0.00000000000E+00  0.56619003930E+03  0.56619003932E+03  0.50400001928E-02 0.  1.
        1   -1    0    0  501    0  0.00000000000E+00  0.00000000000E+00 -0.19461974263E+04  0.19461974263E+04  0.50400001928E-02 0. -1.
    10030    2    1    2    0    0  0.00000000000E+00  0.00000000000E+00 -0.13800073870E+04  0.25123874657E+04  0.20994452575E+04 0.  0.
        2    1    3    3  502    0 -0.70427235526E+03  0.73744895474E+03 -0.98818657137E+03  0.14199800038E+04  0.25500000920E-02 0.  1.
       -2    1    3    3    0  502  0.70427235526E+03 -0.73744895474E+03 -0.39182081568E+03  0.10924074619E+04  0.25500000920E-02 0. -1.
</event>
<event>
 5   0  0.1653260E-06  0.2101987E+04  0.7818609E-02  0.8560368E-01
       -1   -1    0    0    0  501  0.00000000000E+00  0.00000000000E+00  0.75278831601E+03  0.75278831602E+03  0.50400001928E-02 0.  1.
        1   -1    0    0  501    0  0.00000000000E+00  0.00000000000E+00 -0.14673284627E+04  0.14673284627E+04  0.50400001928E-02 0. -1.
    10030    2    1    2    0    0  0.00000000000E+00  0.00000000000E+00 -0.71454014669E+03  0.22201167787E+04  0.21019873667E+04 0.  0.
        3    1    3    3  502    0  0.55652565524E+03  0.33575346084E+02  0.58371935099E+03  0.80720282441E+03  0.10100000352E+00 0.  1.
       -3    1    3    3    0  502 -0.55652565524E+03 -0.33575346084E+02 -0.12982594977E+04  0.14129139543E+04  0.10100000352E+00 0. -1.
</event>
<event>
 5   0  0.1257125E-06  0.2097569E+04  0.7818609E-02  0.8562315E-01
       -3   -1    0    0    0  501  0.00000000000E+00  0.00000000000E+00  0.14052599823E+04  0.14052599859E+04  0.10100000352E+00 0.  1.
        3   -1    0    0  501    0  0.00000000000E+00  0.00000000000E+00 -0.78273732095E+03  0.78273732746E+03  0.10100000352E+00 0. -1.
    10030    2    1    2    0    0  0.00000000000E+00  0.00000000000E+00  0.62252266136E+03  0.21879973134E+04  0.20975694934E+04 0.  0.
        3    1    3    3  502    0 -0.97131626937E+03 -0.25040320883E+03  0.63071963876E+03  0.11848900097E+04  0.10100000352E+00 0.  1.
       -3    1    3    3    0  502  0.97131626937E+03  0.25040320883E+03 -0.81969774008E+01  0.10031073037E+04  0.10100000352E+00 0. -1.
</event>
<event>
 5   0  0.1579820E-06  0.2101608E+04  0.7818609E-02  0.8560535E-01
       -1   -1    0    0    0  501  0.00000000000E+00  0.00000000000E+00  0.13806095226E+04  0.13806095226E+04  0.50400001928E-02 0.  1.
        1   -1    0    0  501    0  0.00000000000E+00  0.00000000000E+00 -0.79978365767E+03  0.79978365769E+03  0.50400001928E-02 0. -1.
    10030    2    1    2    0    0  0.00000000000E+00  0.00000000000E+00  0.58082586490E+03  0.21803931803E+04  0.21016078928E+04 0.  0.
        2    1    3    3  502    0  0.97351618573E+03 -0.21312673930E+03  0.63611941566E+03  0.11822879014E+04  0.25500000920E-02 0.  1.
       -2    1    3    3    0  502 -0.97351618573E+03  0.21312673930E+03 -0.55293550759E+02  0.99810527884E+03  0.25500000920E-02 0. -1.
</event>
<event>
 5   0  0.1615098E-06  0.2101541E+04  0.7818609E-02  0.8560565E-01
       -1   -1    0    0    0  501  0.00000000000E+00  0.00000000000E+00  0.86654628887E+03  0.86654628889E+03  0.50400001928E-02 0. -1.
        1   -1    0    0  501    0  0.00000000000E+00  0.00000000000E+00 -0.12741601691E+04  0.12741601691E+04  0.50400001928E-02 0.  1.
    10030    2    1    2    0    0  0.00000000000E+00  0.00000000000E+00 -0.40761388019E+03  0.21407064580E+04  0.21015411164E+04 0.  0.
        1    1    3    3  502    0  0.10156412322E+03 -0.95731143140E+03 -0.63279480656E+03  0.11520372021E+04  0.50400001928E-02 0.  1.
       -1    1    3    3    0  502 -0.10156412322E+03  0.95731143140E+03  0.22518092637E+03  0.98866925584E+03  0.50400001928E-02 0. -1.
</event>
<event>
 5   0  0.3480134E-06  0.2100030E+04  0.7818609E-02  0.8561230E-01
        2   -1    0    0  501    0  0.00000000000E+00  0.00000000000E+00  0.11299262147E+04  0.11299262147E+04  0.25500000920E-02 0. -1.
       -2   -1    0    0    0  501  0.00000000000E+00  0.00000000000E+00 -0.97575505926E+03  0.97575505927E+03  0.25500000920E-02 0.  1.
    10030    2    1    2    0    0  0.00000000000E+00  0.00000000000E+00  0.15417115544E+03  0.21056812740E+04  0.21000297337E+04 0.  0.
        1    1    3    3  502    0  0.10072710164E+04  0.15124111670E+03 -0.17867427906E+03  0.10341147295E+04  0.50400001928E-02 0. -1.
       -1    1    3    3    0  502 -0.10072710164E+04 -0.15124111670E+03  0.33284543450E+03  0.10715665444E+04  0.50400001928E-02 0.  1.
</event>
<event>
 5   0  0.1653260E-06  0.2099964E+04  0.7818609E-02  0.8561259E-01
        1   -1    0    0  501    0  0.00000000000E+00  0.00000000000E+00  0.58158256235E+03  0.58158256237E+03  0.50400001928E-02 0.  1.
       -1   -1    0    0    0  501  0.00000000000E+00  0.00000000000E+00 -0.18956244703E+04  0.18956244703E+04  0.50400001928E-02 0. -1.
    10030    2    1    2    0    0  0.00000000000E+00  0.00000000000E+00 -0.13140419079E+04  0.24772070327E+04  0.20999639394E+04 0.  0.
        3    1    3    3  502    0 -0.31526570670E+03 -0.77610470481E+02 -0.18349201489E+04  0.18634236808E+04  0.10100000352E+00 0. -1.
       -3    1    3    3    0  502  0.31526570670E+03  0.77610470481E+02  0.52087824097E+03  0.61378335190E+03  0.10100000352E+00 0.  1.
</event>
<event>
 5   0  0.3547583E-06  0.2099772E+04  0.7818609E-02  0.8561344E-01
       -2   -1    0    0    0  501  0.00000000000E+00  0.00000000000E+00  0.10087024858E+04  0.10087024858E+04  0.25500000920E-02 0. -1.
        2   -1    0    0  501    0  0.00000000000E+00  0.00000000000E+00 -0.10927511369E+04  0.10927511369E+04  0.25500000920E-02 0.  1.
    10030    2    1    2    0    0  0.00000000000E+00  0.00000000000E+00 -0.84048651147E+02  0.21014536227E+04  0.20997721668E+04 0.  0.
        2    1    3    3  502    0  0.41526830544E+03  0.39399358889E+03  0.83878388916E+03  0.10154984620E+04  0.25500000920E-02 0. -1.
       -2    1    3    3    0  502 -0.41526830544E+03 -0.39399358889E+03 -0.92283254031E+03  0.10859551607E+04  0.25500000920E-02 0.  1.
</event>
<event>
 5   0  0.1590067E-06  0.2102476E+04  0.7818609E-02  0.8560154E-01
       -1   -1    0    0    0  501  0.00000000000E+00  0.00000000000E+00  0.38161689544E+03  0.38161689547E+03  0.50400001928E-02 0. -1.
        1   -1    0    0  501    0  0.00000000000E+00  0.00000000000E+00 -0.28958392566E+04  0.28958392566E+04  0.50400001928E-02 0.  1.
    10030    2    1    2    0    0  0.00000000000E+00  0.00000000000E+00 -0.25142223612E+04  0.32774561521E+04  0.21024758613E+04 0.  0.
        5    1    3    3  502    0 -0.93612678367E+03  0.45627417242E+03 -0.10335927047E+04  0.14672612053E+04  0.46999998093E+01 0. -1.
       -5    1    3    3    0  502  0.93612678367E+03 -0.45627417242E+03 -0.14806296565E+04  0.18101949467E+04  0.46999998093E+01 0.  1.
</event>
<event>
 5   0  0.3636435E-06  0.2111943E+04  0.7818609E-02  0.8556001E-01
        2   -1    0    0  501    0  0.00000000000E+00  0.00000000000E+00  0.19071288109E+04  0.19071288109E+04  0.25500000920E-02 0. -1.
       -2   -1    0    0    0  501  0.00000000000E+00  0.00000000000E+00 -0.58468815402E+03  0.58468815403E+03  0.25500000920E-02 0.  1.
    10030    2    1    2    0    0  0.00000000000E+00  0.00000000000E+00  0.13224406568E+04  0.24918169649E+04  0.21119428249E+04 0.  0.
        4    1    3    3  502    0  0.74314317992E+03  0.10646998091E+03  0.15374085991E+04  0.17109133397E+04  0.12699999809E+01 0. -1.
       -4    1    3    3    0  502 -0.74314317992E+03 -0.10646998091E+03 -0.21496794223E+03  0.78090362515E+03  0.12699999809E+01 0.  1.
</event>
<event>
 5   0  0.3480134E-06  0.2099863E+04  0.7818609E-02  0.8561304E-01
        2   -1    0    0  501    0  0.00000000000E+00  0.00000000000E+00  0.71321444138E+03  0.71321444138E+03  0.25500000920E-02 0.  1.
       -2   -1    0    0    0  501  0.00000000000E+00  0.00000000000E+00 -0.15456169268E+04  0.15456169268E+04  0.25500000920E-02 0. -1.
    10030    2    1    2    0    0  0.00000000000E+00  0.00000000000E+00 -0.83240248541E+03  0.22588313682E+04  0.20998631508E+04 0.  0.
        1    1    3    3  502    0  0.45975843396E+03 -0.27595667661E+03  0.55481247552E+03  0.77158718754E+03  0.50400001928E-02 0.  1.
       -1    1    3    3    0  502 -0.45975843396E+03  0.27595667661E+03 -0.13872149609E+04  0.14872441806E+04  0.50400001928E-02 0. -1.
</event>
<event>
 5   0  0.3480134E-06  0.2100283E+04  0.7818609E-02  0.8561119E-01
       -2   -1    0    0    0  501  0.00000000000E+00  0.00000000000E+00  0.51947137766E+03  0.51947137767E+03  0.25500000920E-02 0.  1.
        2   -1    0    0  501    0  0.00000000000E+00  0.00000000000E+00 -0.21229219797E+04  0.21229219797E+04  0.25500000920E-02 0. -1.
    10030    2    1    2    0    0  0.00000000000E+00  0.00000000000E+00 -0.16034506021E+04  0.26423933574E+04  0.21002830338E+04 0.  0.
        1    1    3    3  502    0  0.22407333046E+03 -0.51199568517E+03  0.31682754668E+03  0.64243920601E+03  0.50400001928E-02 0.  1.
       -1    1    3    3    0  502 -0.22407333046E+03  0.51199568517E+03 -0.19202781488E+04  0.19999541514E+04  0.50400001928E-02 0. -1.
</event>
<event>
 5   0  0.1646510E-06  0.2099283E+04  0.7818609E-02  0.8561559E-01
       -1   -1    0    0    0  501  0.00000000000E+00  0.00000000000E+00  0.70694886210E+03  0.70694886212E+03  0.50400001928E-02 0.  1.
        1   -1    0    0  501    0  0.00000000000E+00  0.00000000000E+00 -0.15584542116E+04  0.15584542116E+04  0.50400001928E-02 0. -1.
    10030    2    1    2    0    0  0.00000000000E+00  0.00000000000E+00 -0.85150534946E+03  0.22654030737E+04  0.20992831458E+04 0.  0.
        4    1    3    3  502    0 -0.25459005906E+03 -0.46243335580E+03 -0.14047845674E+04  0.15006938397E+04  0.12699999809E+01 0. -1.
       -4    1    3    3    0  502  0.25459005906E+03  0.46243335580E+03  0.55327921792E+03  0.76470923403E+03  0.12699999809E+01 0.  1.
</event>
<event>
 5   0  0.3636435E-06  0.2106637E+04  0.7818609E-02  0.8558325E-01
        2   -1    0    0  501    0  0.00000000000E+00  0.00000000000E+00  0.22711021868E+04  0.22711021868E+04  0.25500000920E-02 0.  1.
       -2   -1    0    0    0  501  0.00000000000E+00  0.00000000000E+00 -0.48852031876E+03  0.48852031877E+03  0.25500000920E-02 0. -1.
    10030    2    1    2    0    0  0.00000000000E+00  0.00000000000E+00  0.17825818680E+04  0.27596225055E+04  0.21066367169E+04 0.  0.
        4    1    3    3  502    0 -0.20250279854E+03 -0.86625867674E+03  0.15250439255E+03  0.90259109295E+03  0.12699999809E+01 0. -1.
       -4    1    3    3    0  502  0.20250279854E+03  0.86625867674E+03  0.16300774755E+04  0.18570314126E+04  0.12699999809E+01 0.  1.
</event>
<event>
 5   0  0.3636435E-06  0.2100276E+04  0.7818609E-02  0.8561122E-01
        2   -1    0    0  501    0  0.00000000000E+00  0.00000000000E+00  0.10057707919E+04  0.10057707919E+04  0.25500000920E-02 0. -1.
       -2   -1    0    0    0  501  0.00000000000E+00  0.00000000000E+00 -0.10964623352E+04  0.10964623353E+04  0.25500000920E-02 0.  1.
    10030    2    1    2    0    0  0.00000000000E+00  0.00000000000E+00 -0.90691543320E+02  0.21022331272E+04  0.21002759735E+04 0.  0.
        4    1    3    3  502    0 -0.19073853694E+03 -0.10156877766E+03  0.98327463318E+03  0.10067412891E+04  0.12699999809E+01 0. -1.
       -4    1    3    3    0  502  0.19073853694E+03  0.10156877766E+03 -0.10739661765E+04  0.10954918381E+04  0.12699999809E+01 0.  1.
</event>
<event>
 5   0  0.1579820E-06  0.2100223E+04  0.7818609E-02  0.8561145E-01
        1   -1    0    0  501    0  0.00000000000E+00  0.00000000000E+00  0.10732353425E+04  0.10732353425E+04  0.50400001928E-02 0. -1.
       -1   -1    0    0    0  501  0.00000000000E+00  0.00000000000E+00 -0.10274860280E+04  0.10274860280E+04  0.50400001928E-02 0.  1.
    10030    2    1    2    0    0  0.00000000000E+00  0.00000000000E+00  0.45749314479E+02  0.21007213706E+04  0.21002231493E+04 0.  0.
        2    1    3    3  502    0 -0.88426170797E+03  0.57612931117E+02 -0.54072711167E+03  0.10380866184E+04  0.25500000920E-02 0.  1.
       -2    1    3    3    0  502  0.88426170797E+03 -0.57612931117E+02  0.58647642615E+03  0.10626347521E+04  0.25500000920E-02 0. -1.
</event>
<event>
 5   0  0.3480134E-06  0.2100338E+04  0.7818609E-02  0.8561094E-01
        2   -1    0    0  501    0  0.00000000000E+00  0.00000000000E+00  0.11818676500E+04  0.11818676500E+04  0.25500000920E-02 0. -1.
       -2   -1    0    0    0  501  0.00000000000E+00  0.00000000000E+00 -0.93314632161E+03  0.93314632161E+03  0.25500000920E-02 0.  1.
    10030    2    1    2    0    0  0.00000000000E+00  0.00000000000E+00  0.24872132840E+03  0.21150139716E+04  0.21003384968E+04 0.  0.
        1    1    3    3  502    0 -0.65939964294E+03 -0.64384076706E+03 -0.38266176624E+03  0.99788218233E+03  0.50400001928E-02 0.  1.
       -1    1    3    3    0  502  0.65939964294E+03  0.64384076706E+03  0.63138309464E+03  0.11171317893E+04  0.50400001928E-02 0. -1.
</event>
<event>
 5   0  0.1590067E-06  0.2101001E+04  0.7818609E-02  0.8560802E-01
       -1   -1    0    0    0  501  0.00000000000E+00  0.00000000000E+00  0.95235915768E+03  0.95235915769E+03  0.50400001928E-02 0.  1.
        1   -1    0    0  501    0  0.00000000000E+00  0.00000000000E+00 -0.11587555247E+04  0.11587555247E+04  0.50400001928E-02 0. -1.
    10030    2    1    2    0    0  0.00000000000E+00  0.00000000000E+00 -0.20639636700E+03  0.21111146824E+04  0.21010011285E+04 0.  0.
        5    1    3    3  502    0  0.47848119940E+03 -0.68848820680E+02  0.83394609499E+03  0.96393599250E+03  0.46999998093E+01 0.  1.
       -5    1    3    3    0  502 -0.47848119940E+03  0.68848820680E+02 -0.10403424620E+04  0.11471786899E+04  0.46999998093E+01 0. -1.
</event>
<event>
 5   0  0.1590067E-06  0.2099728E+04  0.7818609E-02  0.8561363E-01
       -1   -1    0    0    0  501  0.00000000000E+00  0.00000000000E+00  0.90482217891E+03  0.90482217892E+03  0.50400001928E-02 0.  1.
        1   -1    0    0  501    0  0.00000000000E+00  0.00000000000E+00 -0.12181552927E+04  0.12181552927E+04  0.50400001928E-02 0. -1.
    10030    2    1    2    0    0  0.00000000000E+00  0.00000000000E+00 -0.31333311383E+03  0.21229774717E+04  0.20997275311E+04 0.  0.
        5    1    3    3  502    0 -0.20985015738E+03  0.10092354554E+04  0.44530696462E+02  0.10317937613E+04  0.46999998093E+01 0. -1.
       -5    1    3    3    0  502  0.20985015738E+03 -0.10092354554E+04 -0.35786381029E+03  0.10911837103E+04  0.46999998093E+01 0.  1.
</event>
<event>
 5   0  0.1590067E-06  0.2099516E+04  0.7818609E-02  0.8561457E-01
        1   -1    0    0  501    0  0.00000000000E+00  0.00000000000E+00  0.90333743104E+03  0.90333743106E+03  0.50400001928E-02 0.  1.
       -1   -1    0    0    0  501  0.00000000000E+00  0.00000000000E+00 -0.12199111352E+04  0.12199111353E+04  0.50400001928E-02 0. -1.
    10030    2    1    2    0    0  0.00000000000E+00  0.00000000000E+00 -0.31657370421E+03  0.21232485663E+04  0.20995155546E+04 0.  0.
        5    1    3    3  502    0  0.79157746631E+03  0.62924243748E+03  0.12672936405E+03  0.10191287220E+04  0.46999998093E+01 0. -1.
       -5    1    3    3    0  502 -0.79157746631E+03 -0.62924243748E+03 -0.44330306825E+03  0.11041198443E+04  0.46999998093E+01 0.  1.
</event>
<event>
 5   0  0.1579820E-06  0.2099686E+04  0.7818609E-02  0.8561382E-01
        1   -1    0    0  501    0  0.00000000000E+00  0.00000000000E+00  0.11003624983E+04  0.11003624983E+04  0.50400001928E-02 0. -1.
       -1   -1    0    0    0  501  0.00000000000E+00  0.00000000000E+00 -0.10016430551E+04  0.10016430551E+04  0.50400001928E-02 0.  1.
    10030    2    1    2    0    0  0.00000000000E+00  0.00000000000E+00  0.98719443231E+02  0.21020055534E+04  0.20996861237E+04 0.  0.
        2    1    3    3  502    0  0.79467278004E+03  0.68559015329E+03  0.24196943760E+02  0.10498210218E+04  0.25500000920E-02 0.  1.
       -2    1    3    3    0  502 -0.79467278004E+03 -0.68559015329E+03  0.74522499472E+02  0.10521845316E+04  0.25500000920E-02 0. -1.
</event>
<event>
 5   0  0.3574927E-06  0.2101069E+04  0.7818609E-02  0.8560773E-01
        2   -1    0    0  501    0  0.00000000000E+00  0.00000000000E+00  0.85751222764E+03  0.85751222764E+03  0.25500000920E-02 0.  1.
       -2   -1    0    0    0  501  0.00000000000E+00  0.00000000000E+00 -0.12870050369E+04  0.12870050369E+04  0.25500000920E-02 0. -1.
    10030    2    1    2    0    0  0.00000000000E+00  0.00000000000E+00 -0.42949280930E+03  0.21445172646E+04  0.21010688292E+04 0.  0.
        3    1    3    3  502    0 -0.17040096069E+01  0.10337568645E+04 -0.40560628614E+03  0.11104830607E+04  0.10100000352E+00 0.  1.
       -3    1    3    3    0  502  0.17040096069E+01 -0.10337568645E+04 -0.23886523154E+02  0.10340342039E+04  0.10100000352E+00 0. -1.
</event>
<event>
 5   0  0.3705828E-06  0.2100276E+04  0.7818609E-02  0.8561122E-01
        2   -1    0    0  501    0  0.00000000000E+00  0.00000000000E+00  0.98822177613E+03  0.98822177613E+03  0.25500000920E-02 0.  1.
       -2   -1    0    0    0  501  0.00000000000E+00  0.00000000000E+00 -0.11159337530E+04  0.11159337530E+04  0.25500000920E-02 0. -1.
    10030    2    1    2    0    0  0.00000000000E+00  0.00000000000E+00 -0.12771197684E+03  0.21041555291E+04  0.21002762060E+04 0.  0.
        5    1    3    3  502    0  0.15697900415E+03  0.52597419434E+03  0.83304989289E+03  0.99763995253E+03  0.46999998093E+01 0.  1.
       -5    1    3    3    0  502 -0.15697900415E+03 -0.52597419434E+03 -0.96076186973E+03  0.11065155766E+04  0.46999998093E+01 0. -1.
</event>
<event>
 5   0  0.3547583E-06  0.2101093E+04  0.7818609E-02  0.8560762E-01
       -2   -1    0    0    0  501  0.00000000000E+00  0.00000000000E+00  0.70293997188E+03  0.70293997189E+03  0.25500000920E-02 0.  1.
        2   -1    0    0  501    0  0.00000000000E+00  0.00000000000E+00 -0.15700463449E+04  0.15700463449E+04  0.25500000920E-02 0. -1.
    10030    2    1    2    0    0  0.00000000000E+00  0.00000000000E+00 -0.86710637306E+03  0.22729863168E+04  0.21010933664E+04 0.  0.
        2    1    3    3  502    0 -0.83363387800E+03  0.40564988209E+03  0.10098751650E+03  0.93257479480E+03  0.25500000920E-02 0.  1.
       -2    1    3    3    0  502  0.83363387800E+03 -0.40564988209E+03 -0.96809388956E+03  0.13404115220E+04  0.25500000920E-02 0. -1.
</event>
<event>
 5   0  0.1579820E-06  0.2100437E+04  0.7818609E-02  0.8561051E-01
       -1   -1    0    0    0  501  0.00000000000E+00  0.00000000000E+00  0.78448892850E+03  0.78448892851E+03  0.50400001928E-02 0. -1.
        1   -1    0    0  501    0  0.00000000000E+00  0.00000000000E+00 -0.14059581556E+04  0.14059581557E+04  0.50400001928E-02 0.  1.
    10030    2    1    2    0    0  0.00000000000E+00  0.00000000000E+00 -0.62146922715E+03  0.21904470842E+04  0.21004367232E+04 0.  0.
        2    1    3    3  502    0  0.10366654665E+04 -0.16698297753E+03 -0.33159175298E+03  0.11011410876E+04  0.25500000920E-02 0.  1.
       -2    1    3    3    0  502 -0.10366654665E+04  0.16698297753E+03 -0.28987747416E+03  0.10893059966E+04  0.25500000920E-02 0. -1.
</event>
<event>
 5   0  0.3480134E-06  0.2100261E+04  0.7818609E-02  0.8561128E-01
       -2   -1    0    0    0  501  0.00000000000E+00  0.00000000000E+00  0.82205764550E+03  0.82205764550E+03  0.25500000920E-02 0. -1.
        2   -1    0    0  501    0  0.00000000000E+00  0.00000000000E+00 -0.13414808470E+04  0.13414808470E+04  0.25500000920E-02 0.  1.
    10030    2    1    2    0    0  0.00000000000E+00  0.00000000000E+00 -0.51942320154E+03  0.21635384925E+04  0.21002614948E+04 0.  0.
        1    1    3    3  502    0 -0.13919205170E+03  0.76036904342E+03  0.47250525576E+03  0.90597832545E+03  0.50400001928E-02 0. -1.
       -1    1    3    3    0  502  0.13919205170E+03 -0.76036904342E+03 -0.99192845730E+03  0.12575601671E+04  0.50400001928E-02 0.  1.
</event>
<event>
 5   0  0.1257125E-06  0.2098274E+04  0.7818609E-02  0.8562004E-01
        3   -1    0    0  501    0  0.00000000000E+00  0.00000000000E+00  0.72302638059E+03  0.72302638765E+03  0.10100000352E+00 0. -1.
       -3   -1    0    0    0  501  0.00000000000E+00  0.00000000000E+00 -0.15223344032E+04  0.15223344066E+04  0.10100000352E+00 0.  1.
    10030    2    1    2    0    0  0.00000000000E+00  0.00000000000E+00 -0.79930802264E+03  0.22453607942E+04  0.20982735239E+04 0.  0.
        5    1    3    3  502    0  0.29706585101E+03  0.62629279329E+03 -0.12423699104E+04  0.14226720869E+04  0.46999998093E+01 0.  1.
       -5    1    3    3    0  502 -0.29706585101E+03 -0.62629279329E+03  0.44306188772E+03  0.82268870730E+03  0.46999998093E+01 0. -1.
</event>
<event>
 5   0  0.1579820E-06  0.2105205E+04  0.7818609E-02  0.8558954E-01
        1   -1    0    0  501    0  0.00000000000E+00  0.00000000000E+00  0.97116505190E+03  0.97116505191E+03  0.50400001928E-02 0. -1.
       -1   -1    0    0    0  501  0.00000000000E+00  0.00000000000E+00 -0.11408684194E+04  0.11408684194E+04  0.50400001928E-02 0.  1.
    10030    2    1    2    0    0  0.00000000000E+00  0.00000000000E+00 -0.16970336747E+03  0.21120334713E+04  0.21052045390E+04 0.  0.
        2    1    3    3  502    0 -0.17459044290E+03  0.41905050993E+02  0.95568856164E+03  0.97240859874E+03  0.25500000920E-02 0. -1.
       -2    1    3    3    0  502  0.17459044290E+03 -0.41905050993E+02 -0.11253919291E+04  0.11396248726E+04  0.25500000920E-02 0.  1.
</event>
<event>
 5   0  0.1615098E-06  0.2101269E+04  0.7818609E-02  0.8560684E-01
       -1   -1    0    0    0  501  0.00000000000E+00  0.00000000000E+00  0.77122144590E+03  0.77122144592E+03  0.50400001928E-02 0.  1.
        1   -1    0    0  501    0  0.00000000000E+00  0.00000000000E+00 -0.14312791289E+04  0.14312791289E+04  0.50400001928E-02 0. -1.
    10030    2    1    2    0    0  0.00000000000E+00  0.00000000000E+00 -0.66005768302E+03  0.22025005748E+04  0.21012692919E+04 0.  0.
        1    1    3    3  502    0  0.52970857258E+03 -0.56921821067E+03  0.41057471321E+03  0.87930207459E+03  0.50400001928E-02 0.  1.
       -1    1    3    3    0  502 -0.52970857258E+03  0.56921821067E+03 -0.10706323962E+04  0.13231985003E+04  0.50400001928E-02 0. -1.
</event>
<event>
 5   0  0.1653260E-06  0.2099664E+04  0.7818609E-02  0.8561391E-01
        1   -1    0    0  501    0  0.00000000000E+00  0.00000000000E+00  0.15246484259E+04  0.15246484259E+04  0.50400001928E-02 0. -1.
       -1   -1    0    0    0  501  0.00000000000E+00  0.00000000000E+00 -0.72288622043E+03  0.72288622044E+03  0.50400001928E-02 0.  1.
    10030    2    1    2    0    0  0.00000000000E+00  0.00000000000E+00  0.80176220545E+03  0.22475346463E+04  0.20996641046E+04 0.  0.
        3    1    3    3  502    0 -0.44572295614E+03 -0.26084658843E+03 -0.57751234690E+03  0.77474538873E+03  0.10100000352E+00 0.  1.
       -3    1    3    3    0  502  0.44572295614E+03  0.26084658843E+03  0.13792745523E+04  0.14727892576E+04  0.10100000352E+00 0. -1.
</event>
<event>
 5   0  0.1579820E-06  0.2099489E+04  0.7818609E-02  0.8561469E-01
        1   -1    0    0  501    0  0.00000000000E+00  0.00000000000E+00  0.77939616920E+03  0.77939616922E+03  0.50400001928E-02 0.  1.
       -1   -1    0    0    0  501  0.00000000000E+00  0.00000000000E+00 -0.14138680367E+04  0.14138680367E+04  0.50400001928E-02 0. -1.
    10030    2    1    2    0    0  0.00000000000E+00  0.00000000000E+00 -0.63447186751E+03  0.21932642059E+04  0.20994888250E+04 0.  0.
        2    1    3    3  502    0 -0.94864562660E+03 -0.62992250031E+02  0.14768939597E+03  0.96213757130E+03  0.25500000920E-02 0.  1.
       -2    1    3    3    0  502  0.94864562660E+03  0.62992250031E+02 -0.78216126347E+03  0.12311266346E+04  0.25500000920E-02 0. -1.
</event>
<event>
 5   0  0.1653260E-06  0.2101823E+04  0.7818609E-02  0.8560441E-01
       -1   -1    0    0    0  501  0.00000000000E+00  0.00000000000E+00  0.68869662378E+03  0.68869662380E+03  0.50400001928E-02 0. -1.
        1   -1    0    0  501    0  0.00000000000E+00  0.00000000000E+00 -0.16036308112E+04  0.16036308112E+04  0.50400001928E-02 0.  1.
    10030    2    1    2    0    0  0.00000000000E+00  0.00000000000E+00 -0.91493418743E+03  0.22923274350E+04  0.21018231377E+04 0.  0.
        3    1    3    3  502    0 -0.74646980944E+03 -0.30820967502E+03 -0.11908791356E+04  0.14388896782E+04  0.10100000352E+00 0.  1.
       -3    1    3    3    0  502  0.74646980944E+03  0.30820967502E+03  0.27594494817E+03  0.85343775684E+03  0.10100000352E+00 0. -1.
</event>
<event>
 5   0  0.1615098E-06  0.2098259E+04  0.7818609E-02  0.8562011E-01
        1   -1    0    0  501    0  0.00000000000E+00  0.00000000000E+00  0.10490072073E+04  0.10490072073E+04  0.50400001928E-02 0.  1.
       -1   -1    0    0    0  501  0.00000000000E+00  0.00000000000E+00 -0.10492522248E+04  0.10492522249E+04  0.50400001928E-02 0. -1.
    10030    2    1    2    0    0  0.00000000000E+00  0.00000000000E+00 -0.24501756135E+00  0.20982594321E+04  0.20982594178E+04 0.  0.
        1    1    3    3  502    0 -0.29804924693E+03  0.35300335534E+03 -0.94205055048E+03  0.10492397067E+04  0.50400001928E-02 0. -1.
       -1    1    3    3    0  502  0.29804924693E+03 -0.35300335534E+03  0.94180553292E+03  0.10490197254E+04  0.50400001928E-02 0.  1.
</event>
<event>
 5   0  0.1579820E-06  0.2100278E+04  0.7818609E-02  0.8561121E-01
       -1   -1    0    0    0  501  0.00000000000E+00  0.00000000000E+00  0.11030629238E+04  0.11030629238E+04  0.50400001928E-02 0.  1.
        1   -1    0    0  501    0  0.00000000000E+00  0.00000000000E+00 -0.99975452139E+03  0.99975452140E+03  0.50400001928E-02 0. -1.
    10030    2    1    2    0    0  0.00000000000E+00  0.00000000000E+00  0.10330840244E+03  0.21028174452E+04  0.21002782154E+04 0.  0.
        2    1    3    3  502    0 -0.66854361027E+03  0.29672064794E+03  0.80608922613E+03  0.10884730324E+04  0.25500000920E-02 0.  1.
       -2    1    3    3    0  502  0.66854361027E+03 -0.29672064794E+03 -0.70278082369E+03  0.10143444129E+04  0.25500000920E-02 0. -1.
</event>
<event>
 5   0  0.3547583E-06  0.2099487E+04  0.7818609E-02  0.8561470E-01
       -2   -1    0    0    0  501  0.00000000000E+00  0.00000000000E+00  0.75081999136E+03  0.75081999136E+03  0.25500000920E-02 0.  1.
        2   -1    0    0  501    0  0.00000000000E+00  0.00000000000E+00 -0.14676765674E+04  0.14676765674E+04  0.25500000920E-02 0. -1.
    10030    2    1    2    0    0  0.00000000000E+00  0.00000000000E+00 -0.71685657604E+03  0.22184965588E+04  0.20994865159E+04 0.  0.
        2    1    3    3  502    0  0.40054114433E+03  0.96761378068E+03 -0.43500167845E+03  0.11339912244E+04  0.25500000920E-02 0.  1.
       -2    1    3    3    0  502 -0.40054114433E+03 -0.96761378068E+03 -0.28185489759E+03  0.10845053343E+04  0.25500000920E-02 0. -1.
</event>
<event>
 5   0  0.1579820E-06  0.2102763E+04  0.7818609E-02  0.8560027E-01
        1   -1    0    0  501    0  0.00000000000E+00  0.00000000000E+00  0.10760220510E+04  0.10760220510E+04  0.50400001928E-02 0. -1.
       -1   -1    0    0    0  501  0.00000000000E+00  0.00000000000E+00 -0.10273054891E+04  0.10273054891E+04  0.50400001928E-02 0.  1.
    10030    2    1    2    0    0  0.00000000000E+00  0.00000000000E+00  0.48716561889E+02  0.21033275401E+04  0.21027632861E+04 0.  0.
        2    1    3    3  502    0 -0.38641941850E+03 -0.14383747898E+02  0.10023100013E+04  0.10743147574E+04  0.25500000920E-02 0. -1.
       -2    1    3    3    0  502  0.38641941850E+03  0.14383747898E+02 -0.95359343942E+03  0.10290127827E+04  0.25500000920E-02 0.  1.
</event>
<event>
 5   0  0.1590067E-06  0.2100381E+04  0.7818609E-02  0.8561076E-01
        1   -1    0    0  501    0  0.00000000000E+00  0.00000000000E+00  0.21269317912E+04  0.21269317912E+04  0.50400001928E-02 0.  1.
       -1   -1    0    0    0  501  0.00000000000E+00  0.00000000000E+00 -0.51854040376E+03  0.51854040379E+03  0.50400001928E-02 0. -1.
    10030    2    1    2    0    0  0.00000000000E+00  0.00000000000E+00  0.16083913875E+04  0.26454721950E+04  0.21003809843E+04 0.  0.
        5    1    3    3  502    0 -0.99347386053E+03 -0.26703178741E+03  0.10701355324E+04  0.14844219194E+04  0.46999998093E+01 0.  1.
       -5    1    3    3    0  502  0.99347386053E+03  0.26703178741E+03  0.53825585507E+03  0.11610502756E+04  0.46999998093E+01 0. -1.
</event>
<event>
 5   0  0.1257125E-06  0.2098889E+04  0.7818609E-02  0.8561733E-01
        3   -1    0    0  501    0  0.00000000000E+00  0.00000000000E+00  0.10078290163E+04  0.10078290214E+04  0.10100000352E+00 0.  1.
       -3   -1    0    0    0  501  0.00000000000E+00  0.00000000000E+00 -0.10927783268E+04  0.10927783314E+04  0.10100000352E+00 0. -1.
    10030    2    1    2    0    0  0.00000000000E+00  0.00000000000E+00 -0.84949310417E+02  0.21006073528E+04  0.20988889598E+04 0.  0.
        1    1    3    3  502    0  0.30482346395E+03  0.89530707917E+03 -0.49764542940E+03  0.10687109448E+04  0.50400001928E-02 0. -1.
       -1    1    3    3    0  502 -0.30482346395E+03 -0.89530707917E+03  0.41269611899E+03  0.10318964080E+04  0.50400001928E-02 0.  1.
</event>
<event>
 5   0  0.3574927E-06  0.2100297E+04  0.7818609E-02  0.8561112E-01
       -2   -1    0    0    0  501  0.00000000000E+00  0.00000000000E+00  0.84331524464E+03  0.84331524465E+03  0.25500000920E-02 0. -1.
        2   -1    0    0  501    0  0.00000000000E+00  0.00000000000E+00 -0.13077104874E+04  0.13077104874E+04  0.25500000920E-02 0.  1.
    10030    2    1    2    0    0  0.00000000000E+00  0.00000000000E+00 -0.46439524277E+03  0.21510257321E+04  0.21002973024E+04 0.  0.
        3    1    3    3  502    0 -0.24654972403E+03 -0.10108277390E+04 -0.37794684240E+03  0.11069793631E+04  0.10100000352E+00 0.  1.
       -3    1    3    3    0  502  0.24654972403E+03  0.10108277390E+04 -0.86448400373E+02  0.10440463690E+04  0.10100000352E+00 0. -1.
</event>
<event>
 5   0  0.3574927E-06  0.2102131E+04  0.7818609E-02  0.8560305E-01
       -2   -1    0    0    0  501  0.00000000000E+00  0.00000000000E+00  0.47609541089E+03  0.47609541090E+03  0.25500000920E-02 0. -1.
        2   -1    0    0  501    0  0.00000000000E+00  0.00000000000E+00 -0.23204143923E+04  0.23204143923E+04  0.25500000920E-02 0.  1.
    10030    2    1    2    0    0  0.00000000000E+00  0.00000000000E+00 -0.18443189814E+04  0.27965098032E+04  0.21021309603E+04 0.  0.
        3    1    3    3  502    0  0.67384509992E+03 -0.66994668675E+01  0.15089669444E+03  0.69056637924E+03  0.10100000352E+00 0. -1.
       -3    1    3    3    0  502 -0.67384509992E+03  0.66994668675E+01 -0.19952156758E+04  0.21059434239E+04  0.10100000352E+00 0.  1.
</event>
<event>
 5   0  0.3636435E-06  0.2099603E+04  0.7818609E-02  0.8561418E-01
        2   -1    0    0  501    0  0.00000000000E+00  0.00000000000E+00  0.14603955993E+04  0.14603955993E+04  0.25500000920E-02 0. -1.
       -2   -1    0    0    0  501  0.00000000000E+00  0.00000000000E+00 -0.75464712251E+03  0.75464712252E+03  0.25500000920E-02 0.  1.
    10030    2    1    2    0    0  0.00000000000E+00  0.00000000000E+00  0.70574847679E+03  0.22150427218E+04  0.20996031404E+04 0.  0.
        4    1    3    3  502    0  0.10165561497E+03  0.19325058600E+03 -0.73042395371E+03  0.76236501632E+03  0.12699999809E+01 0.  1.
       -4    1    3    3    0  502 -0.10165561497E+03 -0.19325058600E+03  0.14361724305E+04  0.14526777055E+04  0.12699999809E+01 0. -1.
</event>
<event>
 5   0  0.3574927E-06  0.2100077E+04  0.7818609E-02  0.8561209E-01
       -2   -1    0    0    0  501  0.00000000000E+00  0.00000000000E+00  0.54102356202E+03  0.54102356203E+03  0.25500000920E-02 0.  1.
        2   -1    0    0  501    0  0.00000000000E+00  0.00000000000E+00 -0.20379536506E+04  0.20379536506E+04  0.25500000920E-02 0. -1.
    10030    2    1    2    0    0  0.00000000000E+00  0.00000000000E+00 -0.14969300886E+04  0.25789772126E+04  0.21000770874E+04 0.  0.
        3    1    3    3  502    0  0.16998988174E+02 -0.74399344662E+03  0.16125079177E+03  0.76145718348E+03  0.10100000352E+00 0.  1.
       -3    1    3    3    0  502 -0.16998988174E+02  0.74399344662E+03 -0.16581808803E+04  0.18175200291E+04  0.10100000352E+00 0. -1.
</event>
<event>
 5   0  0.3480134E-06  0.2099579E+04  0.7818609E-02  0.8561429E-01
       -2   -1    0    0    0  501  0.00000000000E+00  0.00000000000E+00  0.57051705271E+03  0.57051705272E+03  0.25500000920E-02 0.  1.
        2   -1    0    0  501    0  0.00000000000E+00  0.00000000000E+00 -0.19316836525E+04  0.19316836525E+04  0.25500000920E-02 0. -1.
    10030    2    1    2    0    0  0.00000000000E+00  0.00000000000E+00 -0.13611665997E+04  0.25022007052E+04  0.20995794476E+04 0.  0.
        1    1    3    3  502    0 -0.31190910355E+03  0.45329846700E+03 -0.17460563620E+04  0.18307046753E+04  0.50400001928E-02 0. -1.
       -1    1    3    3    0  502  0.31190910355E+03 -0.45329846700E+03  0.38488976220E+03  0.67149602987E+03  0.50400001928E-02 0.  1.
</event>
<event>
 5   0  0.3574927E-06  0.2100028E+04  0.7818609E-02  0.8561231E-01
        2   -1    0    0  501    0  0.00000000000E+00  0.00000000000E+00  0.80694617411E+03  0.80694617411E+03  0.25500000920E-02 0.  1.
       -2   -1    0    0    0  501  0.00000000000E+00  0.00000000000E+00 -0.13662990415E+04  0.13662990415E+04  0.25500000920E-02 0. -1.
    10030    2    1    2    0    0  0.00000000000E+00  0.00000000000E+00 -0.55935286743E+03  0.21732452156E+04  0.21000283658E+04 0.  0.
        3    1    3    3  502    0 -0.50865101709E+03  0.84700736194E+03 -0.64757402884E+03  0.11813126011E+04  0.10100000352E+00 0. -1.
       -3    1    3    3    0  502  0.50865101709E+03 -0.84700736194E+03  0.88221161414E+02  0.99193261459E+03  0.10100000352E+00 0.  1.
</event>
<event>
 5   0  0.3705828E-06  0.2099852E+04  0.7818609E-02  0.8561308E-01
       -2   -1    0    0    0  501  0.00000000000E+00  0.00000000000E+00  0.52510027170E+03  0.52510027171E+03  0.25500000920E-02 0. -1.
        2   -1    0    0  501    0  0.00000000000E+00  0.00000000000E+00 -0.20993038326E+04  0.20993038326E+04  0.25500000920E-02 0.  1.
    10030    2    1    2    0    0  0.00000000000E+00  0.00000000000E+00 -0.15742035609E+04  0.26244041043E+04  0.20998523880E+04 0.  0.
        5    1    3    3  502    0 -0.82532465214E+02 -0.51852011044E+03  0.34922255256E+03  0.63059748965E+03  0.46999998093E+01 0. -1.
       -5    1    3    3    0  502  0.82532465214E+02  0.51852011044E+03 -0.19234261134E+04  0.19938066146E+04  0.46999998093E+01 0.  1.
</event>
<event>
 5   0  0.1653260E-06  0.2098693E+04  0.7818609E-02  0.8561819E-01
        1   -1    0    0  501    0  0.00000000000E+00  0.00000000000E+00  0.14362215764E+04  0.14362215764E+04  0.50400001928E-02 0.  1.
       -1   -1    0    0    0  501  0.00000000000E+00  0.00000000000E+00 -0.76668392599E+03  0.76668392600E+03  0.50400001928E-02 0. -1.
    10030    2    1    2    0    0  0.00000000000E+00  0.00000000000E+00  0.66953765037E+03  0.22029055024E+04  0.20986929235E+04 0.  0.
        3    1    3    3  502    0 -0.92506119262E+03 -0.26415789740E+03  0.77463651570E+03  0.12351434518E+04  0.10100000352E+00 0.  1.
       -3    1    3    3    0  502  0.92506119262E+03  0.26415789740E+03 -0.10509886533E+03  0.96776205058E+03  0.10100000352E+00 0. -1.
</event>
<event>
 5   0  0.1615098E-06  0.2104288E+04  0.7818609E-02  0.8559357E-01
        1   -1    0    0  501    0  0.00000000000E+00  0.00000000000E+00  0.57220673038E+03  0.57220673040E+03  0.50400001928E-02 0.  1.
       -1   -1    0    0    0  501  0.00000000000E+00  0.00000000000E+00 -0.19346269275E+04  0.19346269275E+04  0.50400001928E-02 0. -1.
    10030    2    1    2    0    0  0.00000000000E+00  0.00000000000E+00 -0.13624201971E+04  0.25068336579E+04  0.21042875742E+04 0.  0.
        1    1    3    3  502    0  0.70151385053E+03  0.17032843674E+02  0.25272102558E+03  0.74584161660E+03  0.50400001928E-02 0.  1.
       -1    1    3    3    0  502 -0.70151385053E+03 -0.17032843674E+02 -0.16151412227E+04  0.17609920413E+04  0.50400001928E-02 0. -1.
</event>
<event>
 5   0  0.1653260E-06  0.2100447E+04  0.7818609E-02  0.8561047E-01
       -1   -1    0    0    0  501  0.00000000000E+00  0.00000000000E+00  0.43269422560E+03  0.43269422563E+03  0.50400001928E-02 0. -1.
        1   -1    0    0  501    0  0.00000000000E+00  0.00000000000E+00 -0.25490732424E+04  0.25490732424E+04  0.50400001928E-02 0.  1.
    10030    2    1    2    0    0  0.00000000000E+00  0.00000000000E+00 -0.21163790168E+04  0.29817674681E+04  0.21004468788E+04 0.  0.
        3    1    3    3  502    0  0.85137407164E+03  0.60605695043E+03 -0.12058977113E+04  0.15957230767E+04  0.10100000352E+00 0.  1.
       -3    1    3    3    0  502 -0.85137407164E+03 -0.60605695043E+03 -0.91048130550E+03  0.13860443914E+04  0.10100000352E+00 0. -1.
</event>
<event>
 5   0  0.1615098E-06  0.2100233E+04  0.7818609E-02  0.8561141E-01
        1   -1    0    0  501    0  0.00000000000E+00  0.00000000000E+00  0.16577163111E+04  0.16577163111E+04  0.50400001928E-02 0. -1.
       -1   -1    0    0    0  501  0.00000000000E+00  0.00000000000E+00 -0.66521923752E+03  0.66521923754E+03  0.50400001928E-02 0.  1.
    10030    2    1    2    0    0  0.00000000000E+00  0.00000000000E+00  0.99249707361E+03  0.23229355487E+04  0.21002331114E+04 0.  0.
        1    1    3    3  502    0  0.76511554376E+03  0.11453995447E+03 -0.28913399320E+03  0.82590535930E+03  0.50400001928E-02 0.  1.
       -1    1    3    3    0  502 -0.76511554376E+03 -0.11453995447E+03  0.12816310668E+04  0.14970301894E+04  0.50400001928E-02 0. -1.
</event>
<event>
 5   0  0.1646510E-06  0.2099809E+04  0.7818609E-02  0.8561327E-01
       -1   -1    0    0    0  501  0.00000000000E+00  0.00000000000E+00  0.54583963544E+03  0.54583963546E+03  0.50400001928E-02 0. -1.
        1   -1    0    0  501    0  0.00000000000E+00  0.00000000000E+00 -0.20194575313E+04  0.20194575313E+04  0.50400001928E-02 0.  1.
    10030    2    1    2    0    0  0.00000000000E+00  0.00000000000E+00 -0.14736178959E+04  0.25652971668E+04  0.20998094797E+04 0.  0.
        4    1    3    3  502    0 -0.23055318613E+03  0.95149771926E+03 -0.12000752294E+04  0.15487688176E+04  0.12699999809E+01 0.  1.
       -4    1    3    3    0  502  0.23055318613E+03 -0.95149771926E+03 -0.27354266653E+03  0.10165283492E+04  0.12699999809E+01 0. -1.
</event>
<event>
 5   0  0.3636435E-06  0.2099730E+04  0.7818609E-02  0.8561362E-01
        2   -1    0    0  501    0  0.00000000000E+00  0.00000000000E+00  0.16456006694E+04  0.16456006694E+04  0.25500000920E-02 0.  1.
       -2   -1    0    0    0  501  0.00000000000E+00  0.00000000000E+00 -0.66979591018E+03  0.66979591018E+03  0.25500000920E-02 0. -1.
    10030    2    1    2    0    0  0.00000000000E+00  0.00000000000E+00  0.97580475918E+03  0.23153965795E+04  0.20997300761E+04 0.  0.
        4    1    3    3  502    0  0.70270775285E+02  0.76773455252E+03 -0.29793775394E+03  0.82651245793E+03  0.12699999809E+01 0. -1.
       -4    1    3    3    0  502 -0.70270775285E+02 -0.76773455252E+03  0.12737425131E+04  0.14888841216E+04  0.12699999809E+01 0.  1.
</event>
<event>
 5   0  0.3705828E-06  0.2100817E+04  0.7818609E-02  0.8560883E-01
        2   -1    0    0  501    0  0.00000000000E+00  0.00000000000E+00  0.19173370630E+04  0.19173370630E+04  0.25500000920E-02 0.  1.
       -2   -1    0    0    0  501  0.00000000000E+00  0.00000000000E+00 -0.57546401066E+03  0.57546401067E+03  0.25500000920E-02 0. -1.
    10030    2    1    2    0    0  0.00000000000E+00  0.00000000000E+00  0.13418730523E+04  0.24928010737E+04  0.21008174372E+04 0.  0.
        5    1    3    3  502    0 -0.93237481675E+02 -0.78651586649E+03 -0.14775290765E+03  0.80570059448E+03  0.46999998093E+01 0. -1.
       -5    1    3    3    0  502  0.93237481675E+02  0.78651586649E+03  0.14896259600E+04  0.16871004792E+04  0.46999998093E+01 0.  1.
</event>
<event>
 5   0  0.1615098E-06  0.2101339E+04  0.7818609E-02  0.8560654E-01
        1   -1    0    0  501    0  0.00000000000E+00  0.00000000000E+00  0.10277551591E+04  0.10277551591E+04  0.50400001928E-02 0.  1.
       -1   -1    0    0    0  501  0.00000000000E+00  0.00000000000E+00 -0.10740945012E+04  0.10740945012E+04  0.50400001928E-02 0. -1.
    10030    2    1    2    0    0  0.00000000000E+00  0.00000000000E+00 -0.46339342076E+02  0.21018496603E+04  0.21013387780E+04 0.  0.
        1    1    3    3  502    0  0.63157820154E+03 -0.44534079136E+03 -0.73516203297E+03  0.10666220792E+04  0.50400001928E-02 0. -1.
       -1    1    3    3    0  502 -0.63157820154E+03  0.44534079136E+03  0.68882269089E+03  0.10352275811E+04  0.50400001928E-02 0.  1.
</event>
<event>
 5   0  0.3574927E-06  0.2100027E+04  0.7818609E-02  0.8561232E-01
        2   -1    0    0  501    0  0.00000000000E+00  0.00000000000E+00  0.13250981133E+04  0.13250981133E+04  0.25500000920E-02 0. -1.
       -2   -1    0    0    0  501  0.00000000000E+00  0.00000000000E+00 -0.83203510561E+03  0.83203510561E+03  0.25500000920E-02 0.  1.
    10030    2    1    2    0    0  0.00000000000E+00  0.00000000000E+00  0.49306300765E+03  0.21571332189E+04  0.21000268080E+04 0.  0.
        3    1    3    3  502    0  0.60825213154E+03 -0.71333220731E+03 -0.23931528376E+03  0.96751501733E+03  0.10100000352E+00 0.  1.
       -3    1    3    3    0  502 -0.60825213154E+03  0.71333220731E+03  0.73237829141E+03  0.11896182015E+04  0.10100000352E+00 0. -1.
</event>
<event>
 5   0  0.3480134E-06  0.2099412E+04  0.7818609E-02  0.8561502E-01
        2   -1    0    0  501    0  0.00000000000E+00  0.00000000000E+00  0.11733521934E+04  0.11733521934E+04  0.25500000920E-02 0. -1.
       -2   -1    0    0    0  501  0.00000000000E+00  0.00000000000E+00 -0.93908987614E+03  0.93908987614E+03  0.25500000920E-02 0.  1.
    10030    2    1    2    0    0  0.00000000000E+00  0.00000000000E+00  0.23426231731E+03  0.21124420696E+04  0.20994124569E+04 0.  0.
        1    1    3    3  502    0  0.64984869768E+03 -0.61269852127E+03 -0.43781726439E+03  0.99467922712E+03  0.50400001928E-02 0.  1.
       -1    1    3    3    0  502 -0.64984869768E+03  0.61269852127E+03  0.67207958169E+03  0.11177628425E+04  0.50400001928E-02 0. -1.
</event>
<event>
 5   0  0.3547583E-06  0.2100198E+04  0.7818609E-02  0.8561156E-01
        2   -1    0    0  501    0  0.00000000000E+00  0.00000000000E+00  0.74455647660E+03  0.74455647661E+03  0.25500000920E-02 0. -1.
       -2   -1    0    0    0  501  0.00000000000E+00  0.00000000000E+00 -0.14810272052E+04  0.14810272052E+04  0.25500000920E-02 0.  1.
    10030    2    1    2    0    0  0.00000000000E+00  0.00000000000E+00 -0.73647072864E+03  0.22255836818E+04  0.21001984646E+04 0.  0.
        2    1    3    3  502    0  0.68447475988E+03 -0.64171226810E+03  0.13152160390E+03  0.94741662654E+03  0.25500000920E-02 0. -1.
       -2    1    3    3    0  502 -0.68447475988E+03  0.64171226810E+03 -0.86799233254E+03  0.12781670553E+04  0.25500000920E-02 0.  1.
</event>
<event>
 5   0  0.1579820E-06  0.2099947E+04  0.7818609E-02  0.8561267E-01
       -1   -1    0    0    0  501  0.00000000000E+00  0.00000000000E+00  0.86330739644E+03  0.86330739645E+03  0.50400001928E-02 0. -1.
        1   -1    0    0  501    0  0.00000000000E+00  0.00000000000E+00 -0.12770011614E+04  0.12770011614E+04  0.50400001928E-02 0.  1.
    10030    2    1    2    0    0  0.00000000000E+00  0.00000000000E+00 -0.41369376496E+03  0.21403085579E+04  0.20999471878E+04 0.  0.
        2    1    3    3  502    0 -0.82796142444E+03  0.40998678056E+03  0.30157470424E+03  0.97188300883E+03  0.25500000920E-02 0. -1.
       -2    1    3    3    0  502  0.82796142444E+03 -0.40998678056E+03 -0.71526846920E+03  0.11684255490E+04  0.25500000920E-02 0.  1.
</event>
<event>
 5   0  0.1646510E-06  0.2100700E+04  0.7818609E-02  0.8560935E-01
        1   -1    0    0  501    0  0.00000000000E+00  0.00000000000E+00  0.10544043795E+04  0.10544043795E+04  0.50400001928E-02 0. -1.
       -1   -1    0    0    0  501  0.00000000000E+00  0.00000000000E+00 -0.10463113697E+04  0.10463113697E+04  0.50400001928E-02 0.  1.
    10030    2    1    2    0    0  0.00000000000E+00  0.00000000000E+00  0.80930098061E+01  0.21007157492E+04  0.21007001600E+04 0.  0.
        4    1    3    3  502    0  0.40520228802E+03 -0.79598684271E+03 -0.54863266348E+03  0.10482286775E+04  0.12699999809E+01 0.  1.
       -4    1    3    3    0  502 -0.40520228802E+03  0.79598684271E+03  0.55672567329E+03  0.10524870717E+04  0.12699999809E+01 0. -1.
</event>
<event>
 5   0  0.3705828E-06  0.2100609E+04  0.7818609E-02  0.8560975E-01
        2   -1    0    0  501    0  0.00000000000E+00  0.00000000000E+00  0.95378067351E+03  0.95378067351E+03  0.25500000920E-02 0.  1.
       -2   -1    0    0    0  501  0.00000000000E+00  0.00000000000E+00 -0.11565964640E+04  0.11565964640E+04  0.25500000920E-02 0. -1.
    10030    2    1    2    0    0  0.00000000000E+00  0.00000000000E+00 -0.20281579045E+03  0.21103771375E+04  0.21006088207E+04 0.  0.
        5    1    3    3  502    0  0.93646492447E+03  0.18518293010E+03  0.33864495266E+03  0.10128977077E+04  0.46999998093E+01 0.  1.
       -5    1    3    3    0  502 -0.93646492447E+03 -0.18518293010E+03 -0.54146074311E+03  0.10974794297E+04  0.46999998093E+01 0. -1.
</event>
<event>
 5   0  0.1579820E-06  0.2101404E+04  0.7818609E-02  0.8560625E-01
       -1   -1    0    0    0  501  0.00000000000E+00  0.00000000000E+00  0.72858802226E+03  0.72858802228E+03  0.50400001928E-02 0. -1.
        1   -1    0    0  501    0  0.00000000000E+00  0.00000000000E+00 -0.15152247207E+04  0.15152247207E+04  0.50400001928E-02 0.  1.
    10030    2    1    2    0    0  0.00000000000E+00  0.00000000000E+00 -0.78663669844E+03  0.22438127430E+04  0.21014038951E+04 0.  0.
        2    1    3    3  502    0 -0.27378343598E+03  0.19860072721E+03  0.66886973907E+03  0.74952408001E+03  0.25500000920E-02 0. -1.
       -2    1    3    3    0  502  0.27378343598E+03 -0.19860072721E+03 -0.14555064375E+04  0.14942886630E+04  0.25500000920E-02 0.  1.
</event>
<event>
 5   0  0.1590067E-06  0.2099417E+04  0.7818609E-02  0.8561500E-01
       -1   -1    0    0    0  501  0.00000000000E+00  0.00000000000E+00  0.59195823067E+03  0.59195823069E+03  0.50400001928E-02 0. -1.
        1   -1    0    0  501    0  0.00000000000E+00  0.00000000000E+00 -0.18614282178E+04  0.18614282178E+04  0.50400001928E-02 0.  1.
    10030    2    1    2    0    0  0.00000000000E+00  0.00000000000E+00 -0.12694699871E+04  0.24533864485E+04  0.20994168279E+04 0.  0.
        5    1    3    3  502    0 -0.22580516484E+02  0.96678904906E+03 -0.11118270155E+04  0.14735577177E+04  0.46999998093E+01 0.  1.
       -5    1    3    3    0  502  0.22580516484E+02 -0.96678904906E+03 -0.15764297162E+03  0.97982873075E+03  0.46999998093E+01 0. -1.
</event>
<event>
 5   0  0.1646510E-06  0.2100207E+04  0.7818609E-02  0.8561152E-01
       -1   -1    0    0    0  501  0.00000000000E+00  0.00000000000E+00  0.75922615954E+03  0.75922615955E+03  0.50400001928E-02 0. -1.
        1   -1    0    0  501    0  0.00000000000E+00  0.00000000000E+00 -0.14524224300E+04  0.14524224300E+04  0.50400001928E-02 0.  1.
    10030    2    1    2    0    0  0.00000000000E+00  0.00000000000E+00 -0.69319627049E+03  0.22116485896E+04  0.21002067552E+04 0.  0.
        4    1    3    3  502    0  0.44164433602E+03 -0.28368958211E+03  0.61115957616E+03  0.80563461877E+03  0.12699999809E+01 0. -1.
       -4    1    3    3    0  502 -0.44164433602E+03  0.28368958211E+03 -0.13043558467E+04  0.14060139708E+04  0.12699999809E+01 0.  1.
</event>
<event>
 5   0  0.1653260E-06  0.2101621E+04  0.7818609E-02  0.8560530E-01
       -1   -1    0    0    0  501  0.00000000000E+00  0.00000000000E+00  0.12964201230E+04  0.12964201230E+04  0.50400001928E-02 0. -1.
        1   -1    0    0  501    0  0.00000000000E+00  0.00000000000E+00 -0.85173201496E+03  0.85173201498E+03  0.50400001928E-02 0.  1.
    10030    2    1    2    0    0  0.00000000000E+00  0.00000000000E+00  0.44468810805E+03  0.21481521380E+04  0.21016208256E+04 0.  0.
        3    1    3    3  502    0 -0.74490002525E+03  0.67398587602E+02  0.97678074816E+03  0.12302517049E+04  0.10100000352E+00 0. -1.
       -3    1    3    3    0  502  0.74490002525E+03 -0.67398587602E+02 -0.53209264011E+03  0.91790043310E+03  0.10100000352E+00 0.  1.
</event>
<event>
 5   0  0.1590067E-06  0.2099591E+04  0.7818609E-02  0.8561424E-01
        1   -1    0    0  501    0  0.00000000000E+00  0.00000000000E+00  0.17356614235E+04  0.17356614235E+04  0.50400001928E-02 0.  1.
       -1   -1    0    0    0  501  0.00000000000E+00  0.00000000000E+00 -0.63495690532E+03  0.63495690534E+03  0.50400001928E-02 0. -1.
    10030    2    1    2    0    0  0.00000000000E+00  0.00000000000E+00  0.11007045182E+04  0.23706183289E+04  0.20995906327E+04 0.  0.
        5    1    3    3  502    0  0.41684503734E+03 -0.95436180095E+03  0.40106555584E+03  0.11159936838E+04  0.46999998093E+01 0. -1.
       -5    1    3    3    0  502 -0.41684503734E+03  0.95436180095E+03  0.69963896235E+03  0.12546246450E+04  0.46999998093E+01 0.  1.
</event>
<event>
 5   0  0.1615098E-06  0.2100196E+04  0.7818609E-02  0.8561157E-01
        1   -1    0    0  501    0  0.00000000000E+00  0.00000000000E+00  0.85012395818E+03  0.85012395819E+03  0.50400001928E-02 0. -1.
       -1   -1    0    0    0  501  0.00000000000E+00  0.00000000000E+00 -0.12971119140E+04  0.12971119140E+04  0.50400001928E-02 0.  1.
    10030    2    1    2    0    0  0.00000000000E+00  0.00000000000E+00 -0.44698795581E+03  0.21472358722E+04  0.21001960999E+04 0.  0.
        1    1    3    3  502    0  0.78519360328E+03  0.69653379854E+03 -0.25610810518E+03  0.10804071865E+04  0.50400001928E-02 0.  1.
       -1    1    3    3    0  502 -0.78519360328E+03 -0.69653379854E+03 -0.19087985063E+03  0.10668286857E+04  0.50400001928E-02 0. -1.
</event>
<event>
 5   0  0.1257125E-06  0.2100074E+04  0.7818609E-02  0.8561211E-01
        3   -1    0    0  501    0  0.00000000000E+00  0.00000000000E+00  0.75840244158E+03  0.75840244831E+03  0.10100000352E+00 0.  1.
       -3   -1    0    0    0  501  0.00000000000E+00  0.00000000000E+00 -0.14538164779E+04  0.14538164814E+04  0.10100000352E+00 0. -1.
    10030    2    1    2    0    0  0.00000000000E+00  0.00000000000E+00 -0.69541403627E+03  0.22122189297E+04  0.21000742632E+04 0.  0.
        3    1    3    3  502    0 -0.68218129516E+03 -0.65421995136E+03 -0.82951867750E+03  0.12575676168E+04  0.10100000352E+00 0. -1.
       -3    1    3    3    0  502  0.68218129516E+03  0.65421995136E+03  0.13410464123E+03  0.95465131290E+03  0.10100000352E+00 0.  1.
</event>
<event>
 5   0  0.3480134E-06  0.2104473E+04  0.7818609E-02  0.8559275E-01
       -2   -1    0    0    0  501  0.00000000000E+00  0.00000000000E+00  0.11401438919E+04  0.11401438919E+04  0.25500000920E-02 0. -1.
        2   -1    0    0  501    0  0.00000000000E+00  0.00000000000E+00 -0.97110705946E+03  0.97110705946E+03  0.25500000920E-02 0.  1.
    10030    2    1    2    0    0  0.00000000000E+00  0.00000000000E+00  0.16903683247E+03  0.21112509514E+04  0.21044731239E+04 0.  0.
        1    1    3    3  502    0 -0.86042523856E+03 -0.70523517617E+02  0.68803435013E+03  0.11039458432E+04  0.50400001928E-02 0. -1.
       -1    1    3    3    0  502  0.86042523856E+03  0.70523517617E+02 -0.51899751766E+03  0.10073051082E+04  0.50400001928E-02 0.  1.
</event>
<event>
 5   0  0.1615098E-06  0.2099936E+04  0.7818609E-02  0.8561272E-01
        1   -1    0    0  501    0  0.00000000000E+00  0.00000000000E+00  0.17467753345E+04  0.17467753345E+04  0.50400001928E-02 0.  1.
       -1   -1    0    0    0  501  0.00000000000E+00  0.00000000000E+00 -0.63112431142E+03  0.63112431144E+03  0.50400001928E-02 0. -1.
    10030    2    1    2    0    0  0.00000000000E+00  0.00000000000E+00  0.11156510231E+04  0.23778996459E+04  0.20999355992E+04 0.  0.
        1    1    3    3  502    0  0.26989695588E+03  0.59342769808E+03 -0.37418383060E+03  0.75167435685E+03  0.50400001928E-02 0. -1.
       -1    1    3    3    0  502 -0.26989695588E+03 -0.59342769808E+03  0.14898348537E+04  0.16262252891E+04  0.50400001928E-02 0.  1.
</event>
<event>
 5   0  0.3636435E-06  0.2096056E+04  0.7818609E-02  0.8562983E-01
       -2   -1    0    0    0  501  0.00000000000E+00  0.00000000000E+00  0.95817986977E+03  0.95817986978E+03  0.25500000920E-02 0. -1.
        2   -1    0    0  501    0  0.00000000000E+00  0.00000000000E+00 -0.11463006125E+04  0.11463006125E+04  0.25500000920E-02 0.  1.
    10030    2    1    2    0    0  0.00000000000E+00  0.00000000000E+00 -0.18812074277E+03  0.21044804823E+04  0.20960555066E+04 0.  0.
        4    1    3    3  502    0 -0.64062292327E+03 -0.16053142669E+03  0.72296256484E+03  0.97920608242E+03  0.12699999809E+01 0. -1.
       -4    1    3    3    0  502  0.64062292327E+03  0.16053142669E+03 -0.91108330761E+03  0.11252743999E+04  0.12699999809E+01 0.  1.
</event>
<event>
 5   0  0.3705828E-06  0.2100077E+04  0.7818609E-02  0.8561209E-01
        2   -1    0    0  501    0  0.00000000000E+00  0.00000000000E+00  0.19555269632E+04  0.19555269632E+04  0.25500000920E-02 0. -1.
       -2   -1    0    0    0  501  0.00000000000E+00  0.00000000000E+00 -0.56382798826E+03  0.56382798827E+03  0.25500000920E-02 0.  1.
    10030    2    1    2    0    0  0.00000000000E+00  0.00000000000E+00  0.13916989749E+04  0.25193549514E+04  0.21000769830E+04 0.  0.
        5    1    3    3  502    0  0.59291710459E+02 -0.80586514447E+03 -0.10856369558E+03  0.81531730265E+03  0.46999998093E+01 0.  1.
       -5    1    3    3    0  502 -0.59291710459E+02  0.80586514447E+03  0.15002626705E+04  0.17040376488E+04  0.46999998093E+01 0. -1.
</event>
<event>
 5   0  0.1579820E-06  0.2098337E+04  0.7818609E-02  0.8561976E-01
       -1   -1    0    0    0  501  0.00000000000E+00  0.00000000000E+00  0.14922335396E+04  0.14922335396E+04  0.50400001928E-02 0.  1.
        1   -1    0    0  501    0  0.00000000000E+00  0.00000000000E+00 -0.73765569127E+03  0.73765569129E+03  0.50400001928E-02 0. -1.
    10030    2    1    2    0    0  0.00000000000E+00  0.00000000000E+00  0.75457784830E+03  0.22298892309E+04  0.20983370208E+04 0.  0.
        2    1    3    3  502    0 -0.53717388582E+03 -0.49898194756E+03 -0.42023819608E+03  0.84506739911E+03  0.25500000920E-02 0. -1.
       -2    1    3    3    0  502  0.53717388582E+03  0.49898194756E+03  0.11748160444E+04  0.13848218318E+04  0.25500000920E-02 0.  1.
</event>
<event>
 5   0  0.1615098E-06  0.2098987E+04  0.7818609E-02  0.8561690E-01
        1   -1    0    0  501    0  0.00000000000E+00  0.00000000000E+00  0.23146725031E+04  0.23146725031E+04  0.50400001928E-02 0.  1.
       -1   -1    0    0    0  501  0.00000000000E+00  0.00000000000E+00 -0.47585000262E+03  0.47585000265E+03  0.50400001928E-02 0. -1.
    10030    2    1    2    0    0  0.00000000000E+00  0.00000000000E+00  0.18388225005E+04  0.27905225057E+04  0.20989872955E+04 0.  0.
        1    1    3    3  502    0  0.61241316514E+03  0.70044770550E+03  0.15649329131E+04  0.18206295327E+04  0.50400001928E-02 0.  1.
       -1    1    3    3    0  502 -0.61241316514E+03 -0.70044770550E+03  0.27388958739E+03  0.96989297301E+03  0.50400001928E-02 0. -1.
</event>
<event>
 5   0  0.3547583E-06  0.2098466E+04  0.7818609E-02  0.8561919E-01
       -2   -1    0    0    0  501  0.00000000000E+00  0.00000000000E+00  0.64414045812E+03  0.64414045813E+03  0.25500000920E-02 0. -1.
        2   -1    0    0  501    0  0.00000000000E+00  0.00000000000E+00 -0.17090839694E+04  0.17090839694E+04  0.25500000920E-02 0.  1.
    10030    2    1    2    0    0  0.00000000000E+00  0.00000000000E+00 -0.10649435113E+04  0.23532244275E+04  0.20984662313E+04 0.  0.
        2    1    3    3  502    0  0.79275326132E+01  0.42004486055E+03 -0.16106458395E+04  0.16645361369E+04  0.25500000920E-02 0.  1.
       -2    1    3    3    0  502 -0.79275326132E+01 -0.42004486055E+03  0.54570232822E+03  0.68868829066E+03  0.25500000920E-02 0. -1.
</event>
<event>
 5   0  0.1653260E-06  0.2098797E+04  0.7818609E-02  0.8561773E-01
       -1   -1    0    0    0  501  0.00000000000E+00  0.00000000000E+00  0.50722493536E+03  0.50722493538E+03  0.50400001928E-02 0. -1.
        1   -1    0    0  501    0  0.00000000000E+00  0.00000000000E+00 -0.21711025843E+04  0.21711025843E+04  0.50400001928E-02 0.  1.
    10030    2    1    2    0    0  0.00000000000E+00  0.00000000000E+00 -0.16638776490E+04  0.26783275197E+04  0.20987971489E+04 0.  0.
        3    1    3    3  502    0  0.98248870229E+03  0.23114155648E+03 -0.11985375526E+04  0.15669086587E+04  0.10100000352E+00 0. -1.
       -3    1    3    3    0  502 -0.98248870229E+03 -0.23114155648E+03 -0.46534009631E+03  0.11114188611E+04  0.10100000352E+00 0.  1.
</event>
<event>
 5   0  0.1653260E-06  0.2100016E+04  0.7818609E-02  0.8561236E-01
       -1   -1    0    0    0  501  0.00000000000E+00  0.00000000000E+00  0.74587741418E+03  0.74587741419E+03  0.50400001928E-02 0. -1.
        1   -1    0    0  501    0  0.00000000000E+00  0.00000000000E+00 -0.14781472998E+04  0.14781472998E+04  0.50400001928E-02 0.  1.
    10030    2    1    2    0    0  0.00000000000E+00  0.00000000000E+00 -0.73226988559E+03  0.22240247140E+04  0.21000158911E+04 0.  0.
        3    1    3    3  502    0 -0.89206700665E+03 -0.44389696706E+03 -0.71688504149E+03  0.12274983644E+04  0.10100000352E+00 0.  1.
       -3    1    3    3    0  502  0.89206700665E+03  0.44389696706E+03 -0.15384844096E+02  0.99652634955E+03  0.10100000352E+00 0. -1.
</event>
<event>
 5   0  0.3547583E-06  0.2100128E+04  0.7818609E-02  0.8561187E-01
        2   -1    0    0  501    0  0.00000000000E+00  0.00000000000E+00  0.99221657982E+03  0.99221657982E+03  0.25500000920E-02 0.  1.
       -2   -1    0    0    0  501  0.00000000000E+00  0.00000000000E+00 -0.11112835924E+04  0.11112835924E+04  0.25500000920E-02 0. -1.
    10030    2    1    2    0    0  0.00000000000E+00  0.00000000000E+00 -0.11906701256E+03  0.21035001722E+04  0.21001276202E+04 0.  0.
        2    1    3    3  502    0  0.27644739701E+03  0.40585648875E+03 -0.98918961304E+03  0.11043725564E+04  0.25500000920E-02 0. -1.
       -2    1    3    3    0  502 -0.27644739701E+03 -0.40585648875E+03  0.87012260048E+03  0.99912761580E+03  0.25500000920E-02 0.  1.
</event>
<event>
 5   0  0.1590067E-06  0.2100110E+04  0.7818609E-02  0.8561195E-01
        1   -1    0    0  501    0  0.00000000000E+00  0.00000000000E+00  0.15612690948E+04  0.15612690948E+04  0.50400001928E-02 0.  1.
       -1   -1    0    0    0  501  0.00000000000E+00  0.00000000000E+00 -0.70623002783E+03  0.70623002785E+03  0.50400001928E-02 0. -1.
    10030    2    1    2    0    0  0.00000000000E+00  0.00000000000E+00  0.85503906699E+03  0.22674991227E+04  0.21001096317E+04 0.  0.
        5    1    3    3  502    0  0.48594607018E+02  0.64183887905E+03  0.13232678137E+04  0.14715224699E+04  0.46999998093E+01 0.  1.
       -5    1    3    3    0  502 -0.48594607018E+02 -0.64183887905E+03 -0.46822874676E+03  0.79597665279E+03  0.46999998093E+01 0. -1.
</event>
<event>
 5   0  0.3574927E-06  0.2099758E+04  0.7818609E-02  0.8561350E-01
        2   -1    0    0  501    0  0.00000000000E+00  0.00000000000E+00  0.16273950265E+04  0.16273950265E+04  0.25500000920E-02 0.  1.
       -2   -1    0    0    0  501  0.00000000000E+00  0.00000000000E+00 -0.67730677636E+03  0.67730677636E+03  0.25500000920E-02 0. -1.
    10030    2    1    2    0    0  0.00000000000E+00  0.00000000000E+00  0.95008825011E+03  0.23047018028E+04  0.20997577758E+04 0.  0.
        3    1    3    3  502    0 -0.50421013244E+03  0.36881032966E+03 -0.45111273864E+03  0.77055280811E+03  0.10100000352E+00 0. -1.
       -3    1    3    3    0  502  0.50421013244E+03 -0.36881032966E+03  0.14012009888E+04  0.15341489947E+04  0.10100000352E+00 0.  1.
</event>
<event>
 5   0  0.3574927E-06  0.2100210E+04  0.7818609E-02  0.8561151E-01
       -2   -1    0    0    0  501  0.00000000000E+00  0.00000000000E+00  0.14707390202E+04  0.14707390202E+04  0.25500000920E-02 0.  1.
        2   -1    0    0  501    0  0.00000000000E+00  0.00000000000E+00 -0.74977338614E+03  0.74977338614E+03  0.25500000920E-02 0. -1.
    10030    2    1    2    0    0  0.00000000000E+00  0.00000000000E+00  0.72096563404E+03  0.22205124063E+04  0.21002104421E+04 0.  0.
        3    1    3    3  502    0 -0.88873720460E+03  0.31256033309E+03 -0.12995557984E+03  0.95101852957E+03  0.10100000352E+00 0. -1.
       -3    1    3    3    0  502  0.88873720460E+03 -0.31256033309E+03  0.85092121388E+03  0.12694938767E+04  0.10100000352E+00 0.  1.
</event>
<event>
 5   0  0.3547583E-06  0.2100241E+04  0.7818609E-02  0.8561137E-01
        2   -1    0    0  501    0  0.00000000000E+00  0.00000000000E+00  0.12623258781E+04  0.12623258781E+04  0.25500000920E-02 0.  1.
       -2   -1    0    0    0  501  0.00000000000E+00  0.00000000000E+00 -0.87358797686E+03  0.87358797686E+03  0.25500000920E-02 0. -1.
    10030    2    1    2    0    0  0.00000000000E+00  0.00000000000E+00  0.38873790124E+03  0.21359138550E+04  0.21002406624E+04 0.  0.
        2    1    3    3  502    0 -0.28046279986E+03 -0.17956270132E+03  0.12072018332E+04  0.12522932612E+04  0.25500000920E-02 0.  1.
       -2    1    3    3    0  502  0.28046279986E+03  0.17956270132E+03 -0.81846393199E+03  0.88362059380E+03  0.25500000920E-02 0. -1.
</event>
<event>
 5   0  0.1646510E-06  0.2102217E+04  0.7818609E-02  0.8560267E-01
       -1   -1    0    0    0  501  0.00000000000E+00  0.00000000000E+00  0.47139721871E+03  0.47139721874E+03  0.50400001928E-02 0. -1.
        1   -1    0    0  501    0  0.00000000000E+00  0.00000000000E+00 -0.23437329705E+04  0.23437329705E+04  0.50400001928E-02 0.  1.
    10030    2    1    2    0    0  0.00000000000E+00  0.00000000000E+00 -0.18723357518E+04  0.28151301893E+04  0.21022171189E+04 0.  0.
        4    1    3    3  502    0 -0.61495124967E+03 -0.80005903005E+03 -0.54216457687E+03  0.11455145273E+04  0.12699999809E+01 0. -1.
       -4    1    3    3    0  502  0.61495124967E+03  0.80005903005E+03 -0.13301711750E+04  0.16696156619E+04  0.12699999809E+01 0.  1.
</event>
<event>
 5   0  0.3480134E-06  0.2098988E+04  0.7818609E-02  0.8561689E-01
       -2   -1    0    0    0  501  0.00000000000E+00  0.00000000000E+00  0.99825890627E+03  0.99825890627E+03  0.25500000920E-02 0. -1.
        2   -1    0    0  501    0  0.00000000000E+00  0.00000000000E+00 -0.11033588408E+04  0.11033588408E+04  0.25500000920E-02 0.  1.
    10030    2    1    2    0    0  0.00000000000E+00  0.00000000000E+00 -0.10509993452E+03  0.21016177471E+04  0.20989881273E+04 0.  0.
        1    1    3    3  502    0 -0.94233853631E+03 -0.17956410996E+03  0.37365055465E+03  0.10294949847E+04  0.50400001928E-02 0. -1.
       -1    1    3    3    0  502  0.94233853631E+03  0.17956410996E+03 -0.47875048917E+03  0.10721227623E+04  0.50400001928E-02 0.  1.
</event>
<event>
 5   0  0.3547583E-06  0.2101147E+04  0.7818609E-02  0.8560738E-01
       -2   -1    0    0    0  501  0.00000000000E+00  0.00000000000E+00  0.13138908618E+04  0.13138908618E+04  0.25500000920E-02 0. -1.
        2   -1    0    0  501    0  0.00000000000E+00  0.00000000000E+00 -0.84002762392E+03  0.84002762393E+03  0.25500000920E-02 0.  1.
    10030    2    1    2    0    0  0.00000000000E+00  0.00000000000E+00  0.47386323784E+03  0.21539184857E+04  0.21011469427E+04 0.  0.
        2    1    3    3  502    0 -0.15827076544E+03 -0.84355278779E+03 -0.38415111983E+03  0.94032070266E+03  0.25500000920E-02 0.  1.
       -2    1    3    3    0  502  0.15827076544E+03  0.84355278779E+03  0.85801435767E+03  0.12135977830E+04  0.25500000920E-02 0. -1.
</event>
<event>
 5   0  0.3480134E-06  0.2099770E+04  0.7818609E-02  0.8561345E-01
        2   -1    0    0  501    0  0.00000000000E+00  0.00000000000E+00  0.22728413138E+04  0.22728413138E+04  0.25500000920E-02 0.  1.
       -2   -1    0    0    0  501  0.00000000000E+00  0.00000000000E+00 -0.48496928359E+03  0.48496928360E+03  0.25500000920E-02 0. -1.
    10030    2    1    2    0    0  0.00000000000E+00  0.00000000000E+00  0.17878720302E+04  0.27578105974E+04  0.20997697242E+04 0.  0.
        1    1    3    3  502    0  0.77332199530E+03  0.69373269418E+03  0.10929749072E+04  0.15079410158E+04  0.50400001928E-02 0.  1.
       -1    1    3    3    0  502 -0.77332199530E+03 -0.69373269418E+03  0.69489712301E+03  0.12498695816E+04  0.50400001928E-02 0. -1.
</event>
<event>
 5   0  0.3574927E-06  0.2099068E+04  0.7818609E-02  0.8561654E-01
       -2   -1    0    0    0  501  0.00000000000E+00  0.00000000000E+00  0.52925882581E+03  0.52925882581E+03  0.25500000920E-02 0. -1.
        2   -1    0    0  501    0  0.00000000000E+00  0.00000000000E+00 -0.20812528509E+04  0.20812528509E+04  0.25500000920E-02 0.  1.
    10030    2    1    2    0    0  0.00000000000E+00  0.00000000000E+00 -0.15519940251E+04  0.26105116767E+04  0.20990678313E+04 0.  0.
        3    1    3    3  502    0 -0.23253332734E+03 -0.92448865194E+03 -0.13220305993E+04  0.16298821833E+04  0.10100000352E+00 0.  1.
       -3    1    3    3    0  502  0.23253332734E+03  0.92448865194E+03 -0.22996342581E+03  0.98062949339E+03  0.10100000352E+00 0. -1.
</event>
<event>
 5   0  0.1579820E-06  0.2100166E+04  0.7818609E-02  0.8561170E-01
       -1   -1    0    0    0  501  0.00000000000E+00  0.00000000000E+00  0.11442412079E+04  0.11442412079E+04  0.50400001928E-02 0. -1.
        1   -1    0    0  501    0  0.00000000000E+00  0.00000000000E+00 -0.96367279848E+03  0.96367279850E+03  0.50400001928E-02 0.  1.
    10030    2    1    2    0    0  0.00000000000E+00  0.00000000000E+00  0.18056840940E+03  0.21079140064E+04  0.21001658287E+04 0.  0.
        2    1    3    3  502    0 -0.38482810897E+03 -0.71802774606E+03 -0.57474431743E+03  0.99698924166E+03  0.25500000920E-02 0.  1.
       -2    1    3    3    0  502  0.38482810897E+03  0.71802774606E+03  0.75531272683E+03  0.11109247647E+04  0.25500000920E-02 0. -1.
</event>
<event>
 5   0  0.3480134E-06  0.2099915E+04  0.7818609E-02  0.8561281E-01
       -2   -1    0    0    0  501  0.00000000000E+00  0.00000000000E+00  0.94842468879E+03  0.94842468880E+03  0.25500000920E-02 0.  1.
        2   -1    0    0  501    0  0.00000000000E+00  0.00000000000E+00 -0.11623601854E+04  0.11623601854E+04  0.25500000920E-02 0. -1.
    10030    2    1    2    0    0  0.00000000000E+00  0.00000000000E+00 -0.21393549659E+03  0.21107848742E+04  0.20999153289E+04 0.  0.
        1    1    3    3  502    0  0.75092986934E+03  0.49997716095E+02  0.62895279639E+03  0.98080429260E+03  0.50400001928E-02 0.  1.
       -1    1    3    3    0  502 -0.75092986934E+03 -0.49997716095E+02 -0.84288829299E+03  0.11299805816E+04  0.50400001928E-02 0. -1.
</event>
<event>
 5   0  0.3636435E-06  0.2099557E+04  0.7818609E-02  0.8561439E-01
       -2   -1    0    0    0  501  0.00000000000E+00  0.00000000000E+00  0.84166476517E+03  0.84166476518E+03  0.25500000920E-02 0. -1.
        2   -1    0    0  501    0  0.00000000000E+00  0.00000000000E+00 -0.13093509337E+04  0.13093509337E+04  0.25500000920E-02 0.  1.
    10030    2    1    2    0    0  0.00000000000E+00  0.00000000000E+00 -0.46768616853E+03  0.21510156989E+04  0.20995566638E+04 0.  0.
        4    1    3    3  502    0 -0.71324688303E+03 -0.14702817275E+03 -0.10084796612E+04  0.12439337763E+04  0.12699999809E+01 0.  1.
       -4    1    3    3    0  502  0.71324688303E+03  0.14702817275E+03  0.54079349268E+03  0.90708192263E+03  0.12699999809E+01 0. -1.
</event>
<event>
 5   0  0.1615098E-06  0.2099523E+04  0.7818609E-02  0.8561454E-01
       -1   -1    0    0    0  501  0.00000000000E+00  0.00000000000E+00  0.83402646050E+03  0.83402646051E+03  0.50400001928E-02 0. -1.
        1   -1    0    0  501    0  0.00000000000E+00  0.00000000000E+00 -0.13212994335E+04  0.13212994335E+04  0.50400001928E-02 0.  1.
    10030    2    1    2    0    0  0.00000000000E+00  0.00000000000E+00 -0.48727297296E+03  0.21553258940E+04  0.20995225074E+04 0.  0.
        1    1    3    3  502    0  0.29344480072E+03 -0.98573989728E+02  0.78610575175E+03  0.84486030531E+03  0.50400001928E-02 0. -1.
       -1    1    3    3    0  502 -0.29344480072E+03  0.98573989728E+02 -0.12733787247E+04  0.13104655887E+04  0.50400001928E-02 0.  1.
</event>
<event>
 5   0  0.1579820E-06  0.2100562E+04  0.7818609E-02  0.8560996E-01
        1   -1    0    0  501    0  0.00000000000E+00  0.00000000000E+00  0.20749960713E+04  0.20749960713E+04  0.50400001928E-02 0.  1.
       -1   -1    0    0    0  501  0.00000000000E+00  0.00000000000E+00 -0.53161070158E+03  0.53161070161E+03  0.50400001928E-02 0. -1.
    10030    2    1    2    0    0  0.00000000000E+00  0.00000000000E+00  0.15433853697E+04  0.26066067729E+04  0.21005619413E+04 0.  0.
        2    1    3    3  502    0  0.82685092547E+02  0.89548703415E+03  0.14449431595E+04  0.17019384792E+04  0.25500000920E-02 0.  1.
       -2    1    3    3    0  502 -0.82685092547E+02 -0.89548703415E+03  0.98442210214E+02  0.90466829369E+03  0.25500000920E-02 0. -1.
</event>
<event>
 5   0  0.1590067E-06  0.2101812E+04  0.7818609E-02  0.8560446E-01
       -1   -1    0    0    0  501  0.00000000000E+00  0.00000000000E+00  0.87144497387E+03  0.87144497388E+03  0.50400001928E-02 0. -1.
        1   -1    0    0  501    0  0.00000000000E+00  0.00000000000E+00 -0.12673241631E+04  0.12673241631E+04  0.50400001928E-02 0.  1.
    10030    2    1    2    0    0  0.00000000000E+00  0.00000000000E+00 -0.39587918923E+03  0.21387691370E+04  0.21018118586E+04 0.  0.
        5    1    3    3  502    0 -0.39825702217E+03 -0.18278367989E+03 -0.11699117421E+04  0.12492934418E+04  0.46999998093E+01 0.  1.
       -5    1    3    3    0  502  0.39825702217E+03  0.18278367989E+03  0.77403255292E+03  0.88947569518E+03  0.46999998093E+01 0. -1.
</event>
<event>
 5   0  0.1257125E-06  0.2100359E+04  0.7818609E-02  0.8561085E-01
        3   -1    0    0  501    0  0.00000000000E+00  0.00000000000E+00  0.25078368913E+04  0.25078368934E+04  0.10100000352E+00 0. -1.
       -3   -1    0    0    0  501  0.00000000000E+00  0.00000000000E+00 -0.43977201774E+03  0.43977202933E+03  0.10100000352E+00 0.  1.
    10030    2    1    2    0    0  0.00000000000E+00  0.00000000000E+00  0.20680648736E+04  0.29476089227E+04  0.21003585503E+04 0.  0.
        1    1    3    3  502    0 -0.49620191986E+03 -0.87206993913E+02 -0.25910403912E+03  0.56653005937E+03  0.50400001928E-02 0.  1.
       -1    1    3    3    0  502  0.49620191986E+03  0.87206993913E+02  0.23271689127E+04  0.23810788633E+04  0.50400001928E-02 0. -1.
</event>
<event>
 5   0  0.1653260E-06  0.2100461E+04  0.7818609E-02  0.8561040E-01
        1   -1    0    0  501    0  0.00000000000E+00  0.00000000000E+00  0.10650447241E+04  0.10650447242E+04  0.50400001928E-02 0.  1.
       -1   -1    0    0    0  501  0.00000000000E+00  0.00000000000E+00 -0.10356220909E+04  0.10356220909E+04  0.50400001928E-02 0. -1.
    10030    2    1    2    0    0  0.00000000000E+00  0.00000000000E+00  0.29422633265E+02  0.21006668150E+04  0.21004607534E+04 0.  0.
        3    1    3    3  502    0 -0.30515474318E+03  0.27476139734E+03 -0.95201197853E+03  0.10367931617E+04  0.10100000352E+00 0. -1.
       -3    1    3    3    0  502  0.30515474318E+03 -0.27476139734E+03  0.98143461180E+03  0.10638736533E+04  0.10100000352E+00 0.  1.
</event>
<event>
 5   0  0.3636435E-06  0.2099940E+04  0.7818609E-02  0.8561270E-01
        2   -1    0    0  501    0  0.00000000000E+00  0.00000000000E+00  0.12571885580E+04  0.12571885580E+04  0.25500000920E-02 0. -1.
       -2   -1    0    0    0  501  0.00000000000E+00  0.00000000000E+00 -0.87690663112E+03  0.87690663112E+03  0.25500000920E-02 0.  1.
    10030    2    1    2    0    0  0.00000000000E+00  0.00000000000E+00  0.38028192687E+03  0.21340951891E+04  0.20999399830E+04 0.  0.
        4    1    3    3  502    0  0.43330216332E+03 -0.90689543541E+03 -0.11848459077E+03  0.10120525217E+04  0.12699999809E+01 0.  1.
       -4    1    3    3    0  502 -0.43330216332E+03  0.90689543541E+03  0.49876651764E+03  0.11220426674E+04  0.12699999809E+01 0. -1.
</event>
<event>
 5   0  0.1615098E-06  0.2100380E+04  0.7818609E-02  0.8561076E-01
        1   -1    0    0  501    0  0.00000000000E+00  0.00000000000E+00  0.19674243996E+04  0.19674243997E+04  0.50400001928E-02 0.  1.
       -1   -1    0    0    0  501  0.00000000000E+00  0.00000000000E+00 -0.56058035469E+03  0.56058035471E+03  0.50400001928E-02 0. -1.
    10030    2    1    2    0    0  0.00000000000E+00  0.00000000000E+00  0.14068440450E+04  0.25280047544E+04  0.21003804111E+04 0.  0.
        1    1    3    3  502    0  0.85769064149E+02 -0.10289474413E+04  0.93434364311E+03  0.13925111176E+04  0.50400001928E-02 0. -1.
       -1    1    3    3    0  502 -0.85769064149E+02  0.10289474413E+04  0.47250040185E+03  0.11354936367E+04  0.50400001928E-02 0.  1.
</event>
<event>
 5   0  0.3705828E-06  0.2104070E+04  0.7818609E-02  0.8559452E-01
        2   -1    0    0  501    0  0.00000000000E+00  0.00000000000E+00  0.80925481589E+03  0.80925481590E+03  0.25500000920E-02 0.  1.
       -2   -1    0    0    0  501  0.00000000000E+00  0.00000000000E+00 -0.13676509100E+04  0.13676509100E+04  0.25500000920E-02 0. -1.
    10030    2    1    2    0    0  0.00000000000E+00  0.00000000000E+00 -0.55839609412E+03  0.21769057259E+04  0.21040704222E+04 0.  0.
        5    1    3    3  502    0 -0.65429255171E+01  0.53123223280E+03 -0.12186533645E+04  0.13294316861E+04  0.46999998093E+01 0. -1.
       -5    1    3    3    0  502  0.65429255171E+01 -0.53123223280E+03  0.66025727043E+03  0.84747403983E+03  0.46999998093E+01 0.  1.
</event>
<event>
 5   0  0.3705828E-06  0.2099768E+04  0.7818609E-02  0.8561345E-01
       -2   -1    0    0    0  501  0.00000000000E+00  0.00000000000E+00  0.99032832305E+03  0.99032832306E+03  0.25500000920E-02 0.  1.
        2   -1    0    0  501    0  0.00000000000E+00  0.00000000000E+00 -0.11130216936E+04  0.11130216936E+04  0.25500000920E-02 0. -1.
    10030    2    1    2    0    0  0.00000000000E+00  0.00000000000E+00 -0.12269337050E+03  0.21033500166E+04  0.20997684704E+04 0.  0.
        5    1    3    3  502    0 -0.71548500458E+03 -0.37361109191E+03 -0.73385668477E+03  0.10909041037E+04  0.46999998093E+01 0.  1.
       -5    1    3    3    0  502  0.71548500458E+03  0.37361109191E+03  0.61116331427E+03  0.10124459129E+04  0.46999998093E+01 0. -1.
</event>
<event>
 5   0  0.3705828E-06  0.2100328E+04  0.7818609E-02  0.8561099E-01
        2   -1    0    0  501    0  0.00000000000E+00  0.00000000000E+00  0.82852780829E+03  0.82852780830E+03  0.25500000920E-02 0. -1.
       -2   -1    0    0    0  501  0.00000000000E+00  0.00000000000E+00 -0.13310889332E+04  0.13310889332E+04  0.25500000920E-02 0.  1.
    10030    2    1    2    0    0  0.00000000000E+00  0.00000000000E+00 -0.50256112489E+03  0.21596167415E+04  0.21003277806E+04 0.  0.
        5    1    3    3  502    0 -0.14050028734E+02  0.10274696013E+04 -0.28529825073E+02  0.10279723857E+04  0.46999998093E+01 0.  1.
       -5    1    3    3    0  502  0.14050028734E+02 -0.10274696013E+04 -0.47403129982E+03  0.11316443558E+04  0.46999998093E+01 0. -1.
</event>
<event>
 5   0  0.3547583E-06  0.2100546E+04  0.7818609E-02  0.8561003E-01
        2   -1    0    0  501    0  0.00000000000E+00  0.00000000000E+00  0.17167880273E+04  0.17167880273E+04  0.25500000920E-02 0.  1.
       -2   -1    0    0    0  501  0.00000000000E+00  0.00000000000E+00 -0.64252150433E+03  0.64252150434E+03  0.25500000920E-02 0. -1.
    10030    2    1    2    0    0  0.00000000000E+00  0.00000000000E+00  0.10742665229E+04  0.23593095316E+04  0.21005458585E+04 0.  0.
        2    1    3    3  502    0  0.57308364675E+03  0.59378890735E+03 -0.19256186158E+03  0.84740203163E+03  0.25500000920E-02 0. -1.
       -2    1    3    3    0  502 -0.57308364675E+03 -0.59378890735E+03  0.12668283845E+04  0.15119075000E+04  0.25500000920E-02 0.  1.
</event>
<event>
 5   0  0.1646510E-06  0.2099771E+04  0.7818609E-02  0.8561344E-01
        1   -1    0    0  501    0  0.00000000000E+00  0.00000000000E+00  0.11437183898E+04  0.11437183898E+04  0.50400001928E-02 0. -1.
       -1   -1    0    0    0  501  0.00000000000E+00  0.00000000000E+00 -0.96375040890E+03  0.96375040891E+03  0.50400001928E-02 0.  1.
    10030    2    1    2    0    0  0.00000000000E+00  0.00000000000E+00  0.17996798089E+03  0.21074687987E+04  0.20997705264E+04 0.  0.
        4    1    3    3  502    0  0.62233830022E+03 -0.73399143831E+03  0.51129561031E+03  0.10897124416E+04  0.12699999809E+01 0. -1.
       -4    1    3    3    0  502 -0.62233830022E+03  0.73399143831E+03 -0.33132762943E+03  0.10177563571E+04  0.12699999809E+01 0.  1.
</event>
<event>
 5   0  0.3480134E-06  0.2099795E+04  0.7818609E-02  0.8561334E-01
        2   -1    0    0  501    0  0.00000000000E+00  0.00000000000E+00  0.18571932189E+04  0.18571932189E+04  0.25500000920E-02 0. -1.
       -2   -1    0    0    0  501  0.00000000000E+00  0.00000000000E+00 -0.59352196976E+03  0.59352196976E+03  0.25500000920E-02 0.  1.
    10030    2    1    2    0    0  0.00000000000E+00  0.00000000000E+00  0.12636712492E+04  0.24507151887E+04  0.20997952067E+04 0.  0.
        1    1    3    3  502    0  0.89903658030E+03  0.49322308775E+03  0.89475976458E+03  0.13609301317E+04  0.50400001928E-02 0. -1.
       -1    1    3    3    0  502 -0.89903658030E+03 -0.49322308775E+03  0.36891148461E+03  0.10897850570E+04  0.50400001928E-02 0.  1.
</event>
<event>
 5   0  0.3705828E-06  0.2099806E+04  0.7818609E-02  0.8561329E-01
       -2   -1    0    0    0  501  0.00000000000E+00  0.00000000000E+00  0.42438312288E+03  0.42438312289E+03  0.25500000920E-02 0. -1.
        2   -1    0    0  501    0  0.00000000000E+00  0.00000000000E+00 -0.25974081306E+04  0.25974081306E+04  0.25500000920E-02 0.  1.
    10030    2    1    2    0    0  0.00000000000E+00  0.00000000000E+00 -0.21730250077E+04  0.30217912534E+04  0.20998058709E+04 0.  0.
        5    1    3    3  502    0  0.67771379119E+02  0.88545534147E+03 -0.28056281120E+03  0.93132255561E+03  0.46999998093E+01 0. -1.
       -5    1    3    3    0  502 -0.67771379119E+02 -0.88545534147E+03 -0.18924621965E+04  0.20904686978E+04  0.46999998093E+01 0.  1.
</event>
<event>
 5   0  0.3636435E-06  0.2100486E+04  0.7818609E-02  0.8561029E-01
        2   -1    0    0  501    0  0.00000000000E+00  0.00000000000E+00  0.91966773369E+03  0.91966773369E+03  0.25500000920E-02 0.  1.
       -2   -1    0    0    0  501  0.00000000000E+00  0.00000000000E+00 -0.11993576053E+04  0.11993576053E+04  0.25500000920E-02 0. -1.
    10030    2    1    2    0    0  0.00000000000E+00  0.00000000000E+00 -0.27968987159E+03  0.21190253390E+04  0.21004861254E+04 0.  0.
        4    1    3    3  502    0 -0.80050210308E+03  0.60806991626E+02  0.54326355411E+03  0.96934927111E+03  0.12699999809E+01 0.  1.
       -4    1    3    3    0  502  0.80050210308E+03 -0.60806991626E+02 -0.82295342571E+03  0.11496760679E+04  0.12699999809E+01 0. -1.
</event>
<event>
 5   0  0.3574927E-06  0.2100353E+04  0.7818609E-02  0.8561088E-01
        2   -1    0    0  501    0  0.00000000000E+00  0.00000000000E+00  0.21537285375E+04  0.21537285375E+04  0.25500000920E-02 0. -1.
       -2   -1    0    0    0  501  0.00000000000E+00  0.00000000000E+00 -0.51207521007E+03  0.51207521007E+03  0.25500000920E-02 0.  1.
    10030    2    1    2    0    0  0.00000000000E+00  0.00000000000E+00  0.16416533274E+04  0.26658037476E+04  0.21003532972E+04 0.  0.
        3    1    3    3  502    0 -0.40911663781E+03  0.51918852679E+03  0.18565712350E+04  0.19707333433E+04  0.10100000352E+00 0. -1.
       -3    1    3    3    0  502  0.40911663781E+03 -0.51918852679E+03 -0.21491790756E+03  0.69507040426E+03  0.10100000352E+00 0.  1.
</event>
<event>
 5   0  0.3705828E-06  0.2099828E+04  0.7818609E-02  0.8561319E-01
        2   -1    0    0  501    0  0.00000000000E+00  0.00000000000E+00  0.88159331912E+03  0.88159331912E+03  0.25500000920E-02 0.  1.
       -2   -1    0    0    0  501  0.00000000000E+00  0.00000000000E+00 -0.12503714191E+04  0.12503714191E+04  0.25500000920E-02 0. -1.
    10030    2    1    2    0    0  0.00000000000E+00  0.00000000000E+00 -0.36877810001E+03  0.21319647382E+04  0.20998276972E+04 0.  0.
        5    1    3    3  502    0 -0.87728497391E+03  0.44280308408E+03 -0.55963099519E+03  0.11308901085E+04  0.46999998093E+01 0. -1.
       -5    1    3    3    0  502  0.87728497391E+03 -0.44280308408E+03  0.19085289519E+03  0.10010746297E+04  0.46999998093E+01 0.  1.
</event>
<event>
 5   0  0.1646510E-06  0.2090182E+04  0.7818609E-02  0.8565581E-01
        1   -1    0    0  501    0  0.00000000000E+00  0.00000000000E+00  0.19666772395E+04  0.19666772395E+04  0.50400001928E-02 0.  1.
       -1   -1    0    0    0  501  0.00000000000E+00  0.00000000000E+00 -0.55536058562E+03  0.55536058564E+03  0.50400001928E-02 0. -1.
    10030    2    1    2    0    0  0.00000000000E+00  0.00000000000E+00  0.14113166538E+04  0.25220378251E+04  0.20901818327E+04 0.  0.
        4    1    3    3  502    0  0.20996467943E+03 -0.30815411079E+03 -0.47236135722E+03  0.60180643674E+03  0.12699999809E+01 0. -1.
       -4    1    3    3    0  502 -0.20996467943E+03  0.30815411079E+03  0.18836780111E+04  0.19202313884E+04  0.12699999809E+01 0.  1.
</event>
<event>
 5   0  0.1653260E-06  0.2099149E+04  0.7818609E-02  0.8561618E-01
       -1   -1    0    0    0  501  0.00000000000E+00  0.00000000000E+00  0.73499452129E+03  0.73499452131E+03  0.50400001928E-02 0.  1.
        1   -1    0    0  501    0  0.00000000000E+00  0.00000000000E+00 -0.14987963476E+04  0.14987963476E+04  0.50400001928E-02 0. -1.
    10030    2    1    2    0    0  0.00000000000E+00  0.00000000000E+00 -0.76380182627E+03  0.22337908689E+04  0.20991494506E+04 0.  0.
        3    1    3    3  502    0 -0.95178470834E+03  0.31682598101E+03 -0.53334132205E+02  0.10045483429E+04  0.10100000352E+00 0.  1.
       -3    1    3    3    0  502  0.95178470834E+03 -0.31682598101E+03 -0.71046769406E+03  0.12292425260E+04  0.10100000352E+00 0. -1.
</event>
<event>
 5   0  0.1590067E-06  0.2099785E+04  0.7818609E-02  0.8561338E-01
       -1   -1    0    0    0  501  0.00000000000E+00  0.00000000000E+00  0.83433439482E+03  0.83433439484E+03  0.50400001928E-02 0. -1.
        1   -1    0    0  501    0  0.00000000000E+00  0.00000000000E+00 -0.13211425795E+04  0.13211425795E+04  0.50400001928E-02 0.  1.
    10030    2    1    2    0    0  0.00000000000E+00  0.00000000000E+00 -0.48680818471E+03  0.21554769744E+04  0.20997854125E+04 0.  0.
        5    1    3    3  502    0 -0.99828820546E+03 -0.23299726312E+03 -0.10708085319E+02  0.10251847730E+04  0.46999998093E+01 0. -1.
       -5    1    3    3    0  502  0.99828820546E+03  0.23299726312E+03 -0.47610009939E+03  0.11302922013E+04  0.46999998093E+01 0.  1.
</event>
<event>
 5   0  0.3480134E-06  0.2100899E+04  0.7818609E-02  0.8560848E-01
        2   -1    0    0  501    0  0.00000000000E+00  0.00000000000E+00  0.74205651292E+03  0.74205651292E+03  0.25500000920E-02 0.  1.
       -2   -1    0    0    0  501  0.00000000000E+00  0.00000000000E+00 -0.14870076666E+04  0.14870076666E+04  0.25500000920E-02 0. -1.
    10030    2    1    2    0    0  0.00000000000E+00  0.00000000000E+00 -0.74495115368E+03  0.22290641795E+04  0.21008985923E+04 0.  0.
        1    1    3    3  502    0 -0.21615740937E+03 -0.97822286616E+03 -0.70765870451E+03  0.12265499760E+04  0.50400001928E-02 0.  1.
       -1    1    3    3    0  502  0.21615740937E+03  0.97822286616E+03 -0.37292449170E+02  0.10025142035E+04  0.50400001928E-02 0. -1.
</event>
<event>
 5   0  0.3705828E-06  0.2101202E+04  0.7818609E-02  0.8560714E-01
       -2   -1    0    0    0  501  0.00000000000E+00  0.00000000000E+00  0.51955578546E+03  0.51955578546E+03  0.25500000920E-02 0. -1.
        2   -1    0    0  501    0  0.00000000000E+00  0.00000000000E+00 -0.21244343472E+04  0.21244343472E+04  0.25500000920E-02 0.  1.
    10030    2    1    2    0    0  0.00000000000E+00  0.00000000000E+00 -0.16048785617E+04  0.26439901326E+04  0.21012017094E+04 0.  0.
        5    1    3    3  502    0  0.44979347848E+03 -0.75811391155E+03 -0.83223071988E+02  0.88543720606E+03  0.46999998093E+01 0. -1.
       -5    1    3    3    0  502 -0.44979347848E+03  0.75811391155E+03 -0.15216554897E+04  0.17585529266E+04  0.46999998093E+01 0.  1.
</event>
<event>
 5   0  0.1590067E-06  0.2100018E+04  0.7818609E-02  0.8561236E-01
       -1   -1    0    0    0  501  0.00000000000E+00  0.00000000000E+00  0.63473150072E+03  0.63473150074E+03  0.50400001928E-02 0.  1.
        1   -1    0    0  501    0  0.00000000000E+00  0.00000000000E+00 -0.17369843171E+04  0.17369843171E+04  0.50400001928E-02 0. -1.
    10030    2    1    2    0    0  0.00000000000E+00  0.00000000000E+00 -0.11022528164E+04  0.23717158179E+04  0.21000177736E+04 0.  0.
        5    1    3    3  502    0 -0.71872041394E+03 -0.66232675116E+03 -0.11773202603E+03  0.98443825539E+03  0.46999998093E+01 0.  1.
       -5    1    3    3    0  502  0.71872041394E+03  0.66232675116E+03 -0.98452079037E+03  0.13872775625E+04  0.46999998093E+01 0. -1.
</event>
<event>
 5   0  0.1615098E-06  0.2098942E+04  0.7818609E-02  0.8561709E-01
       -1   -1    0    0    0  501  0.00000000000E+00  0.00000000000E+00  0.89154143059E+03  0.89154143060E+03  0.50400001928E-02 0. -1.
        1   -1    0    0  501    0  0.00000000000E+00  0.00000000000E+00 -0.12353770177E+04  0.12353770178E+04  0.50400001928E-02 0.  1.
    10030    2    1    2    0    0  0.00000000000E+00  0.00000000000E+00 -0.34383558715E+03  0.21269184484E+04  0.20989423944E+04 0.  0.
        1    1    3    3  502    0 -0.11262710575E+03  0.10603852265E+03  0.87992551894E+03  0.89341924769E+03  0.50400001928E-02 0. -1.
       -1    1    3    3    0  502  0.11262710575E+03 -0.10603852265E+03 -0.12237611061E+04  0.12334992007E+04  0.50400001928E-02 0.  1.
</event>
<event>
 5   0  0.3636435E-06  0.2101151E+04  0.7818609E-02  0.8560737E-01
        2   -1    0    0  501    0  0.00000000000E+00  0.00000000000E+00  0.15975136944E+04  0.15975136944E+04  0.25500000920E-02 0. -1.
       -2   -1    0    0    0  501  0.00000000000E+00  0.00000000000E+00 -0.69089138209E+03  0.69089138210E+03  0.25500000920E-02 0.  1.
    10030    2    1    2    0    0  0.00000000000E+00  0.00000000000E+00  0.90662231231E+03  0.22884050765E+04  0.21011505841E+04 0.  0.
        4    1    3    3  502    0  0.11602061410E+03 -0.76464835268E+03 -0.32108220968E+03  0.83740270147E+03  0.12699999809E+01 0.  1.
       -4    1    3    3    0  502 -0.11602061410E+03  0.76464835268E+03  0.12277045220E+04  0.14510023750E+04  0.12699999809E+01 0. -1.
</event>
<event>
 5   0  0.1615098E-06  0.2102551E+04  0.7818609E-02  0.8560120E-01
        1   -1    0    0  501    0  0.00000000000E+00  0.00000000000E+00  0.13448318917E+04  0.13448318917E+04  0.50400001928E-02 0. -1.
       -1   -1    0    0    0  501  0.00000000000E+00  0.00000000000E+00 -0.82179801129E+03  0.82179801131E+03  0.50400001928E-02 0.  1.
    10030    2    1    2    0    0  0.00000000000E+00  0.00000000000E+00  0.52303388037E+03  0.21666299030E+04  0.21025509974E+04 0.  0.
        1    1    3    3  502    0 -0.37771430413E+03 -0.57008758360E+03 -0.56126064780E+03  0.88469286383E+03  0.50400001928E-02 0.  1.
       -1    1    3    3    0  502  0.37771430413E+03  0.57008758360E+03  0.10842945282E+04  0.12819370392E+04  0.50400001928E-02 0. -1.
</event>
<event>
 5   0  0.3636435E-06  0.2100820E+04  0.7818609E-02  0.8560882E-01
        2   -1    0    0  501    0  0.00000000000E+00  0.00000000000E+00  0.14137364992E+04  0.14137364992E+04  0.25500000920E-02 0.  1.
       -2   -1    0    0    0  501  0.00000000000E+00  0.00000000000E+00 -0.78045716882E+03  0.78045716882E+03  0.25500000920E-02 0. -1.
    10030    2    1    2    0    0  0.00000000000E+00  0.00000000000E+00  0.63327933043E+03  0.21941936681E+04  0.21008196359E+04 0.  0.
        4    1    3    3  502    0  0.89938641501E+03 -0.54923413203E+02  0.88049245905E+03  0.12598337542E+04  0.12699999809E+01 0.  1.
       -4    1    3    3    0  502 -0.89938641501E+03  0.54923413203E+02 -0.24721312862E+03  0.93435991389E+03  0.12699999809E+01 0. -1.
</event>
<event>
 5   0  0.3480134E-06  0.2099847E+04  0.7818609E-02  0.8561311E-01
        2   -1    0    0  501    0  0.00000000000E+00  0.00000000000E+00  0.12326392592E+04  0.12326392592E+04  0.25500000920E-02 0. -1.
       -2   -1    0    0    0  501  0.00000000000E+00  0.00000000000E+00 -0.89429196567E+03  0.89429196567E+03  0.25500000920E-02 0.  1.
    10030    2    1    2    0    0  0.00000000000E+00  0.00000000000E+00  0.33834729354E+03  0.21269312249E+04  0.20998470288E+04 0.  0.
        1    1    3    3  502    0 -0.20678705709E+03  0.30016797085E+03 -0.82814674347E+03  0.90481419443E+03  0.50400001928E-02 0.  1.
       -1    1    3    3    0  502  0.20678705709E+03 -0.30016797085E+03  0.11664940370E+04  0.12221170305E+04  0.50400001928E-02 0. -1.
</event>
<event>
 5   0  0.1579820E-06  0.2101467E+04  0.7818609E-02  0.8560597E-01
        1   -1    0    0  501    0  0.00000000000E+00  0.00000000000E+00  0.76612867283E+03  0.76612867284E+03  0.50400001928E-02 0. -1.
       -1   -1    0    0    0  501  0.00000000000E+00  0.00000000000E+00 -0.14410650032E+04  0.14410650032E+04  0.50400001928E-02 0.  1.
    10030    2    1    2    0    0  0.00000000000E+00  0.00000000000E+00 -0.67493633040E+03  0.22071936761E+04  0.21014673144E+04 0.  0.
        2    1    3    3  502    0  0.12131147733E+03  0.10280549632E+04 -0.52660500222E+03  0.11614328694E+04  0.25500000920E-02 0.  1.
       -2    1    3    3    0  502 -0.12131147733E+03 -0.10280549632E+04 -0.14833132818E+03  0.10457608067E+04  0.25500000920E-02 0. -1.
</event>
<event>
 5   0  0.1615098E-06  0.2100367E+04  0.7818609E-02  0.8561082E-01
        1   -1    0    0  501    0  0.00000000000E+00  0.00000000000E+00  0.15651524571E+04  0.15651524571E+04  0.50400001928E-02 0. -1.
       -1   -1    0    0    0  501  0.00000000000E+00  0.00000000000E+00 -0.70465068176E+03  0.70465068178E+03  0.50400001928E-02 0.  1.
    10030    2    1    2    0    0  0.00000000000E+00  0.00000000000E+00  0.86050177537E+03  0.22698031389E+04  0.21003673450E+04 0.  0.
        1    1    3    3  502    0  0.99509257766E+03  0.17157467646E+02  0.79252855494E+03  0.12722441304E+04  0.50400001928E-02 0. -1.
       -1    1    3    3    0  502 -0.99509257766E+03 -0.17157467646E+02  0.67973220424E+02  0.99755900855E+03  0.50400001928E-02 0.  1.
</event>
<event>
 5   0  0.1257125E-06  0.2101261E+04  0.7818609E-02  0.8560688E-01
       -3   -1    0    0    0  501  0.00000000000E+00  0.00000000000E+00  0.97837945087E+03  0.97837945609E+03  0.10100000352E+00 0.  1.
        3   -1    0    0  501    0  0.00000000000E+00  0.00000000000E+00 -0.11282175893E+04  0.11282175938E+04  0.10100000352E+00 0. -1.
    10030    2    1    2    0    0  0.00000000000E+00  0.00000000000E+00 -0.14983813839E+03  0.21065970499E+04  0.21012614456E+04 0.  0.
        2    1    3    3  502    0  0.52864270344E+03 -0.80667007931E+03  0.34284661121E+03  0.10235836671E+04  0.25500000920E-02 0.  1.
       -2    1    3    3    0  502 -0.52864270344E+03  0.80667007931E+03 -0.49268474961E+03  0.10830133828E+04  0.25500000920E-02 0. -1.
</event>
<event>
 5   0  0.3636435E-06  0.2090699E+04  0.7818609E-02  0.8565351E-01
        2   -1    0    0  501    0  0.00000000000E+00  0.00000000000E+00  0.10833500082E+04  0.10833500082E+04  0.25500000920E-02 0. -1.
       -2   -1    0    0    0  501  0.00000000000E+00  0.00000000000E+00 -0.10086824069E+04  0.10086824070E+04  0.25500000920E-02 0.  1.
    10030    2    1    2    0    0  0.00000000000E+00  0.00000000000E+00  0.74667601265E+02  0.20920324152E+04  0.20906994943E+04 0.  0.
        4    1    3    3  502    0 -0.62884021446E+03 -0.53916322572E+03  0.67540599334E+03  0.10687899083E+04  0.12699999809E+01 0. -1.
       -4    1    3    3    0  502  0.62884021446E+03  0.53916322572E+03 -0.60073839207E+03  0.10232425069E+04  0.12699999809E+01 0.  1.
</event>
<event>
 5   0  0.1646510E-06  0.2100690E+04  0.7818609E-02  0.8560939E-01
        1   -1    0    0  501    0  0.00000000000E+00  0.00000000000E+00  0.17488215185E+04  0.17488215185E+04  0.50400001928E-02 0.  1.
       -1   -1    0    0    0  501  0.00000000000E+00  0.00000000000E+00 -0.63083895262E+03  0.63083895264E+03  0.50400001928E-02 0. -1.
    10030    2    1    2    0    0  0.00000000000E+00  0.00000000000E+00  0.11179825658E+04  0.23796604711E+04  0.21006901105E+04 0.  0.
        4    1    3    3  502    0 -0.29000339513E+03 -0.45042654719E+03 -0.46444583826E+03  0.70901170172E+03  0.12699999809E+01 0. -1.
       -4    1    3    3    0  502  0.29000339513E+03  0.45042654719E+03  0.15824284041E+04  0.16706487694E+04  0.12699999809E+01 0.  1.
</event>
<event>
 5   0  0.3636435E-06  0.2100345E+04  0.7818609E-02  0.8561091E-01
        2   -1    0    0  501    0  0.00000000000E+00  0.00000000000E+00  0.81228042042E+03  0.81228042042E+03  0.25500000920E-02 0. -1.
       -2   -1    0    0    0  501  0.00000000000E+00  0.00000000000E+00 -0.13577359094E+04  0.13577359094E+04  0.25500000920E-02 0.  1.
    10030    2    1    2    0    0  0.00000000000E+00  0.00000000000E+00 -0.54545548902E+03  0.21700163299E+04  0.21003450148E+04 0.  0.
        4    1    3    3  502    0  0.74488386649E+03 -0.12468248504E+03 -0.10266335251E+04  0.12745099860E+04  0.12699999809E+01 0.  1.
       -4    1    3    3    0  502 -0.74488386649E+03  0.12468248504E+03  0.48117803607E+03  0.89550634388E+03  0.12699999809E+01 0. -1.
</event>
<event>
 5   0  0.1579820E-06  0.2100250E+04  0.7818609E-02  0.8561133E-01
       -1   -1    0    0    0  501  0.00000000000E+00  0.00000000000E+00  0.33153616644E+03  0.33153616648E+03  0.50400001928E-02 0.  1.
        1   -1    0    0  501    0  0.00000000000E+00  0.00000000000E+00 -0.33262198487E+04  0.33262198487E+04  0.50400001928E-02 0. -1.
    10030    2    1    2    0    0  0.00000000000E+00  0.00000000000E+00 -0.29946836823E+04  0.36577560152E+04  0.21002496780E+04 0.  0.
        2    1    3    3  502    0  0.60789703348E+03  0.80351884634E+03 -0.98193716571E+03  0.14069050917E+04  0.25500000920E-02 0. -1.
       -2    1    3    3    0  502 -0.60789703348E+03 -0.80351884634E+03 -0.20127465166E+04  0.22508509235E+04  0.25500000920E-02 0.  1.
</event>
<event>
 5   0  0.3480134E-06  0.2095966E+04  0.7818609E-02  0.8563022E-01
       -2   -1    0    0    0  501  0.00000000000E+00  0.00000000000E+00  0.11838453647E+04  0.11838453647E+04  0.25500000920E-02 0. -1.
        2   -1    0    0  501    0  0.00000000000E+00  0.00000000000E+00 -0.92771278710E+03  0.92771278711E+03  0.25500000920E-02 0.  1.
    10030    2    1    2    0    0  0.00000000000E+00  0.00000000000E+00  0.25613257762E+03  0.21115581518E+04  0.20959661093E+04 0.  0.
        1    1    3    3  502    0 -0.63382626460E+03 -0.69218274158E+03 -0.34168106524E+03  0.99879859422E+03  0.50400001928E-02 0. -1.
       -1    1    3    3    0  502  0.63382626460E+03  0.69218274158E+03  0.59781364286E+03  0.11127595576E+04  0.50400001928E-02 0.  1.
</event>
<event>
 5   0  0.1653260E-06  0.2099601E+04  0.7818609E-02  0.8561419E-01
        1   -1    0    0  501    0  0.00000000000E+00  0.00000000000E+00  0.18994365911E+04  0.18994365911E+04  0.50400001928E-02 0.  1.
       -1   -1    0    0    0  501  0.00000000000E+00  0.00000000000E+00 -0.58021493968E+03  0.58021493970E+03  0.50400001928E-02 0. -1.
    10030    2    1    2    0    0  0.00000000000E+00  0.00000000000E+00  0.13192216514E+04  0.24796515308E+04  0.20996013785E+04 0.  0.
        3    1    3    3  502    0 -0.34711426210E+03 -0.86178168838E+03  0.12368888754E+04  0.15469486383E+04  0.10100000352E+00 0. -1.
       -3    1    3    3    0  502  0.34711426210E+03  0.86178168838E+03  0.82332776022E+02  0.93270289245E+03  0.10100000352E+00 0.  1.
</event>
<event>
 5   0  0.1615098E-06  0.2100133E+04  0.7818609E-02  0.8561185E-01
       -1   -1    0    0    0  501  0.00000000000E+00  0.00000000000E+00  0.78647670719E+03  0.78647670721E+03  0.50400001928E-02 0.  1.
        1   -1    0    0  501    0  0.00000000000E+00  0.00000000000E+00 -0.14019986539E+04  0.14019986539E+04  0.50400001928E-02 0. -1.
    10030    2    1    2    0    0  0.00000000000E+00  0.00000000000E+00 -0.61552194673E+03  0.21884753611E+04  0.21001326480E+04 0.  0.
        1    1    3    3  502    0 -0.98684553534E+03  0.14270096481E+03 -0.65087054199E+03  0.11907393243E+04  0.50400001928E-02 0. -1.
       -1    1    3    3    0  502  0.98684553534E+03 -0.14270096481E+03  0.35348595266E+02  0.99773603683E+03  0.50400001928E-02 0.  1.
</event>
<event>
 5   0  0.1653260E-06  0.2099234E+04  0.7818609E-02  0.8561581E-01
        1   -1    0    0  501    0  0.00000000000E+00  0.00000000000E+00  0.69687104191E+03  0.69687104193E+03  0.50400001928E-02 0. -1.
       -1   -1    0    0    0  501  0.00000000000E+00  0.00000000000E+00 -0.15809173982E+04  0.15809173983E+04  0.50400001928E-02 0.  1.
    10030    2    1    2    0    0  0.00000000000E+00  0.00000000000E+00 -0.88404635633E+03  0.22777884402E+04  0.20992337216E+04 0.  0.
        3    1    3    3  502    0 -0.31224786986E+03  0.76719723667E+03  0.25748546192E+03  0.86740365776E+03  0.10100000352E+00 0. -1.
       -3    1    3    3    0  502  0.31224786986E+03 -0.76719723667E+03 -0.11415318183E+04  0.14103847824E+04  0.10100000352E+00 0.  1.
</event>
<event>
 5   0  0.3574927E-06  0.2098406E+04  0.7818609E-02  0.8561946E-01
        2   -1    0    0  501    0  0.00000000000E+00  0.00000000000E+00  0.10695861347E+04  0.10695861347E+04  0.25500000920E-02 0. -1.
       -2   -1    0    0    0  501  0.00000000000E+00  0.00000000000E+00 -0.10292082615E+04  0.10292082615E+04  0.25500000920E-02 0.  1.
    10030    2    1    2    0    0  0.00000000000E+00  0.00000000000E+00  0.40377873188E+02  0.20987943963E+04  0.20984059534E+04 0.  0.
        3    1    3    3  502    0 -0.77850087934E+03  0.66287375403E+03  0.25552304258E+03  0.10539246977E+04  0.10100000352E+00 0.  1.
       -3    1    3    3    0  502  0.77850087934E+03 -0.66287375403E+03 -0.21514516939E+03  0.10448696986E+04  0.10100000352E+00 0. -1.
</event>
<event>
 5   0  0.3547583E-06  0.2099195E+04  0.7818609E-02  0.8561598E-01
       -2   -1    0    0    0  501  0.00000000000E+00  0.00000000000E+00  0.79040641830E+03  0.79040641830E+03  0.25500000920E-02 0. -1.
        2   -1    0    0  501    0  0.00000000000E+00  0.00000000000E+00 -0.13937825387E+04  0.13937825387E+04  0.25500000920E-02 0.  1.
    10030    2    1    2    0    0  0.00000000000E+00  0.00000000000E+00 -0.60337612040E+03  0.21841889570E+04  0.20991947640E+04 0.  0.
        2    1    3    3  502    0 -0.47059786289E+03 -0.46330216706E+03 -0.11505277322E+04  0.13265840754E+04  0.25500000920E-02 0. -1.
       -2    1    3    3    0  502  0.47059786289E+03  0.46330216706E+03  0.54715161182E+03  0.85760488157E+03  0.25500000920E-02 0.  1.
</event>
<event>
 5   0  0.1646510E-06  0.2099410E+04  0.7818609E-02  0.8561503E-01
        1   -1    0    0  501    0  0.00000000000E+00  0.00000000000E+00  0.49726417171E+03  0.49726417174E+03  0.50400001928E-02 0. -1.
       -1   -1    0    0    0  501  0.00000000000E+00  0.00000000000E+00 -0.22158867191E+04  0.22158867191E+04  0.50400001928E-02 0.  1.
    10030    2    1    2    0    0  0.00000000000E+00  0.00000000000E+00 -0.17186225474E+04  0.27131508909E+04  0.20994104640E+04 0.  0.
        4    1    3    3  502    0 -0.72693373689E+03 -0.56090032516E+02  0.11664092493E+03  0.73836675700E+03  0.12699999809E+01 0. -1.
       -4    1    3    3    0  502  0.72693373689E+03  0.56090032516E+02 -0.18352634723E+04  0.19747841339E+04  0.12699999809E+01 0.  1.
</event>
<event>
 5   0  0.3480134E-06  0.2099180E+04  0.7818609E-02  0.8561605E-01
       -2   -1    0    0    0  501  0.00000000000E+00  0.00000000000E+00  0.12271593685E+04  0.12271593685E+04  0.25500000920E-02 0. -1.
        2   -1    0    0  501    0  0.00000000000E+00  0.00000000000E+00 -0.89771450789E+03  0.89771450789E+03  0.25500000920E-02 0.  1.
    10030    2    1    2    0    0  0.00000000000E+00  0.00000000000E+00  0.32944486059E+03  0.21248738764E+04  0.20991796194E+04 0.  0.
        1    1    3    3  502    0 -0.85789209727E+03 -0.54979810604E+03 -0.90116862147E+02  0.10229261248E+04  0.50400001928E-02 0.  1.
       -1    1    3    3    0  502  0.85789209727E+03  0.54979810604E+03  0.41956172274E+03  0.11019477516E+04  0.50400001928E-02 0. -1.
</event>
<event>
 5   0  0.3705828E-06  0.2100056E+04  0.7818609E-02  0.8561219E-01
       -2   -1    0    0    0  501  0.00000000000E+00  0.00000000000E+00  0.14310178664E+04  0.14310178664E+04  0.25500000920E-02 0.  1.
        2   -1    0    0  501    0  0.00000000000E+00  0.00000000000E+00 -0.77047171246E+03  0.77047171247E+03  0.25500000920E-02 0. -1.
    10030    2    1    2    0    0  0.00000000000E+00  0.00000000000E+00  0.66054615389E+03  0.22014895788E+04  0.21000559860E+04 0.  0.
        5    1    3    3  502    0 -0.72904108870E+03  0.15733352850E+03 -0.44453508281E+03  0.86826740008E+03  0.46999998093E+01 0. -1.
       -5    1    3    3    0  502  0.72904108870E+03 -0.15733352850E+03  0.11050812367E+04  0.13332221787E+04  0.46999998093E+01 0.  1.
</event>
<event>
 5   0  0.1646510E-06  0.2098847E+04  0.7818609E-02  0.8561751E-01
       -1   -1    0    0    0  501  0.00000000000E+00  0.00000000000E+00  0.15633653853E+04  0.15633653853E+04  0.50400001928E-02 0. -1.
        1   -1    0    0  501    0  0.00000000000E+00  0.00000000000E+00 -0.70443522172E+03  0.70443522174E+03  0.50400001928E-02 0.  1.
    10030    2    1    2    0    0  0.00000000000E+00  0.00000000000E+00  0.85893016354E+03  0.22678006070E+04  0.20988469614E+04 0.  0.
        4    1    3    3  502    0  0.33587169532E+03 -0.28035255026E+03 -0.60119704192E+03  0.74353671346E+03  0.12699999809E+01 0.  1.
       -4    1    3    3    0  502 -0.33587169532E+03  0.28035255026E+03  0.14601272055E+04  0.15242638935E+04  0.12699999809E+01 0. -1.
</event>
<event>
 5   0  0.3480134E-06  0.2099119E+04  0.7818609E-02  0.8561632E-01
        2   -1    0    0  501    0  0.00000000000E+00  0.00000000000E+00  0.11585487514E+04  0.11585487514E+04  0.25500000920E-02 0.  1.
       -2   -1    0    0    0  501  0.00000000000E+00  0.00000000000E+00 -0.95082311523E+03  0.95082311523E+03  0.25500000920E-02 0. -1.
    10030    2    1    2    0    0  0.00000000000E+00  0.00000000000E+00  0.20772563620E+03  0.21093718667E+04  0.20991187989E+04 0.  0.
        1    1    3    3  502    0 -0.38223276274E+03  0.22906514900E+03 -0.85104299442E+03  0.96064921057E+03  0.50400001928E-02 0. -1.
       -1    1    3    3    0  502  0.38223276274E+03 -0.22906514900E+03  0.10587686306E+04  0.11487226561E+04  0.50400001928E-02 0.  1.
</event>
<event>
 5   0  0.1615098E-06  0.2097967E+04  0.7818609E-02  0.8562139E-01
        1   -1    0    0  501    0  0.00000000000E+00  0.00000000000E+00  0.13465396934E+04  0.13465396934E+04  0.50400001928E-02 0.  1.
       -1   -1    0    0    0  501  0.00000000000E+00  0.00000000000E+00 -0.81718081551E+03  0.81718081553E+03  0.50400001928E-02 0. -1.
    10030    2    1    2    0    0  0.00000000000E+00  0.00000000000E+00  0.52935887789E+03  0.21637205089E+04  0.20979670205E+04 0.  0.
        1    1    3    3  502    0 -0.58124931736E+03 -0.16684421458E+03  0.11486772966E+04  0.12981322323E+04  0.50400001928E-02 0.  1.
       -1    1    3    3    0  502  0.58124931736E+03  0.16684421458E+03 -0.61931841869E+03  0.86558827662E+03  0.50400001928E-02 0. -1.
</event>
<event>
 5   0  0.3480134E-06  0.2100957E+04  0.7818609E-02  0.8560822E-01
       -2   -1    0    0    0  501  0.00000000000E+00  0.00000000000E+00  0.98476285595E+03  0.98476285595E+03  0.25500000920E-02 0.  1.
        2   -1    0    0  501    0  0.00000000000E+00  0.00000000000E+00 -0.11205798485E+04  0.11205798485E+04  0.25500000920E-02 0. -1.
    10030    2    1    2    0    0  0.00000000000E+00  0.00000000000E+00 -0.13581699251E+03  0.21053427044E+04  0.21009573169E+04 0.  0.
        1    1    3    3  502    0  0.55888940209E+02 -0.87090237618E+03 -0.65386049050E+03  0.10904714868E+04  0.50400001928E-02 0. -1.
       -1    1    3    3    0  502 -0.55888940209E+02  0.87090237618E+03  0.51804349800E+03  0.10148712176E+04  0.50400001928E-02 0.  1.
</event>
<event>
 5   0  0.1646510E-06  0.2100433E+04  0.7818609E-02  0.8561053E-01
       -1   -1    0    0    0  501  0.00000000000E+00  0.00000000000E+00  0.54032107232E+03  0.54032107234E+03  0.50400001928E-02 0. -1.
        1   -1    0    0  501    0  0.00000000000E+00  0.00000000000E+00 -0.20412947101E+04  0.20412947101E+04  0.50400001928E-02 0.  1.
    10030    2    1    2    0    0  0.00000000000E+00  0.00000000000E+00 -0.15009736378E+04  0.25816157824E+04  0.21004328570E+04 0.  0.
        4    1    3    3  502    0 -0.84445705733E+03  0.46331756124E+03 -0.23605525735E+03  0.99171295325E+03  0.12699999809E+01 0. -1.
       -4    1    3    3    0  502  0.84445705733E+03 -0.46331756124E+03 -0.12649183804E+04  0.15899028292E+04  0.12699999809E+01 0.  1.
</event>
<event>
 5   0  0.3547583E-06  0.2099640E+04  0.7818609E-02  0.8561402E-01
       -2   -1    0    0    0  501  0.00000000000E+00  0.00000000000E+00  0.11752844208E+04  0.11752844208E+04  0.25500000920E-02 0.  1.
        2   -1    0    0  501    0  0.00000000000E+00  0.00000000000E+00 -0.93774894982E+03  0.93774894982E+03  0.25500000920E-02 0. -1.
    10030    2    1    2    0    0  0.00000000000E+00  0.00000000000E+00  0.23753547102E+03  0.21130333707E+04  0.20996397133E+04 0.  0.
        2    1    3    3  502    0 -0.41077757197E+03  0.83530332535E+03  0.60730424451E+03  0.11114352452E+04  0.25500000920E-02 0.  1.
       -2    1    3    3    0  502  0.41077757197E+03 -0.83530332535E+03 -0.36976877348E+03  0.10015981254E+04  0.25500000920E-02 0. -1.
</event>
<event>
 5   0  0.3547583E-06  0.2100635E+04  0.7818609E-02  0.8560963E-01
       -2   -1    0    0    0  501  0.00000000000E+00  0.00000000000E+00  0.58184931599E+03  0.58184931599E+03  0.25500000920E-02 0.  1.
        2   -1    0    0  501    0  0.00000000000E+00  0.00000000000E+00 -0.18959674455E+04  0.18959674455E+04  0.25500000920E-02 0. -1.
    10030    2    1    2    0    0  0.00000000000E+00  0.00000000000E+00 -0.13141181295E+04  0.24778167614E+04  0.21006354860E+04 0.  0.
        2    1    3    3  502    0  0.31023959142E+03  0.55947006747E+03 -0.16396453271E+04  0.17600261814E+04  0.25500000920E-02 0. -1.
       -2    1    3    3    0  502 -0.31023959142E+03 -0.55947006747E+03  0.32552719761E+03  0.71779058009E+03  0.25500000920E-02 0.  1.
</event>
<event>
 5   0  0.1646510E-06  0.2099910E+04  0.7818609E-02  0.8561283E-01
       -1   -1    0    0    0  501  0.00000000000E+00  0.00000000000E+00  0.81841746631E+03  0.81841746633E+03  0.50400001928E-02 0. -1.
        1   -1    0    0  501    0  0.00000000000E+00  0.00000000000E+00 -0.13469965245E+04  0.13469965245E+04  0.50400001928E-02 0.  1.
    10030    2    1    2    0    0  0.00000000000E+00  0.00000000000E+00 -0.52857905822E+03  0.21654139909E+04  0.20999099817E+04 0.  0.
        4    1    3    3  502    0 -0.92976891606E+03 -0.48638442095E+03 -0.22620750667E+03  0.10734111473E+04  0.12699999809E+01 0.  1.
       -4    1    3    3    0  502  0.92976891606E+03  0.48638442095E+03 -0.30237155155E+03  0.10920028435E+04  0.12699999809E+01 0. -1.
</event>
<event>
 5   0  0.1590067E-06  0.2099967E+04  0.7818609E-02  0.8561258E-01
        1   -1    0    0  501    0  0.00000000000E+00  0.00000000000E+00  0.24634799948E+04  0.24634799948E+04  0.50400001928E-02 0.  1.
       -1   -1    0    0    0  501  0.00000000000E+00  0.00000000000E+00 -0.44752349454E+03  0.44752349457E+03  0.50400001928E-02 0. -1.
    10030    2    1    2    0    0  0.00000000000E+00  0.00000000000E+00  0.20159565003E+04  0.29110034894E+04  0.20999668341E+04 0.  0.
        5    1    3    3  502    0 -0.62362157020E+03  0.76724784934E+03  0.51813257478E+03  0.11162690447E+04  0.46999998093E+01 0. -1.
       -5    1    3    3    0  502  0.62362157020E+03 -0.76724784934E+03  0.14978239255E+04  0.17947344447E+04  0.46999998093E+01 0.  1.
</event>
<event>
 5   0  0.1579820E-06  0.2100162E+04  0.7818609E-02  0.8561172E-01
       -1   -1    0    0    0  501  0.00000000000E+00  0.00000000000E+00  0.16697753639E+04  0.16697753640E+04  0.50400001928E-02 0.  1.
        1   -1    0    0  501    0  0.00000000000E+00  0.00000000000E+00 -0.66037023846E+03  0.66037023848E+03  0.50400001928E-02 0. -1.
    10030    2    1    2    0    0  0.00000000000E+00  0.00000000000E+00  0.10094051255E+04  0.23301456024E+04  0.21001618559E+04 0.  0.
        2    1    3    3  502    0 -0.23667675341E+03  0.45518220028E+02  0.16386726420E+04  0.16563018510E+04  0.25500000920E-02 0.  1.
       -2    1    3    3    0  502  0.23667675341E+03 -0.45518220028E+02 -0.62926751653E+03  0.67384375142E+03  0.25500000920E-02 0. -1.
</event>
<event>
 5   0  0.3574927E-06  0.2099255E+04  0.7818609E-02  0.8561572E-01
       -2   -1    0    0    0  501  0.00000000000E+00  0.00000000000E+00  0.80169451648E+03  0.80169451648E+03  0.25500000920E-02 0. -1.
        2   -1    0    0  501    0  0.00000000000E+00  0.00000000000E+00 -0.13742367214E+04  0.13742367214E+04  0.25500000920E-02 0.  1.
    10030    2    1    2    0    0  0.00000000000E+00  0.00000000000E+00 -0.57254220494E+03  0.21759312379E+04  0.20992551478E+04 0.  0.
        3    1    3    3  502    0 -0.63718042878E+03  0.24794865298E+03  0.53920966629E+03  0.87076087863E+03  0.10100000352E+00 0. -1.
       -3    1    3    3    0  502  0.63718042878E+03 -0.24794865298E+03 -0.11117518712E+04  0.13051703593E+04  0.10100000352E+00 0.  1.
</event>
<event>
 5   0  0.1579820E-06  0.2099407E+04  0.7818609E-02  0.8561505E-01
       -1   -1    0    0    0  501  0.00000000000E+00  0.00000000000E+00  0.77883850711E+03  0.77883850713E+03  0.50400001928E-02 0. -1.
        1   -1    0    0  501    0  0.00000000000E+00  0.00000000000E+00 -0.14147700890E+04  0.14147700890E+04  0.50400001928E-02 0.  1.
    10030    2    1    2    0    0  0.00000000000E+00  0.00000000000E+00 -0.63593158187E+03  0.21936085961E+04  0.20994069868E+04 0.  0.
        2    1    3    3  502    0 -0.78456735045E+03  0.69648344902E+03 -0.35479361619E+03  0.11074807593E+04  0.25500000920E-02 0.  1.
       -2    1    3    3    0  502  0.78456735045E+03 -0.69648344902E+03 -0.28113796568E+03  0.10861278368E+04  0.25500000920E-02 0. -1.
</event>
<event>
 5   0  0.1615098E-06  0.2099688E+04  0.7818609E-02  0.8561381E-01
       -1   -1    0    0    0  501  0.00000000000E+00  0.00000000000E+00  0.13095089624E+04  0.13095089624E+04  0.50400001928E-02 0.  1.
        1   -1    0    0  501    0  0.00000000000E+00  0.00000000000E+00 -0.84166815303E+03  0.84166815305E+03  0.50400001928E-02 0. -1.
    10030    2    1    2    0    0  0.00000000000E+00  0.00000000000E+00  0.46784080939E+03  0.21511771155E+04  0.20996875861E+04 0.  0.
        1    1    3    3  502    0 -0.24034780457E+03  0.87981655912E+03 -0.29876009606E+03  0.95974050654E+03  0.50400001928E-02 0. -1.
       -1    1    3    3    0  502  0.24034780457E+03 -0.87981655912E+03  0.76660090546E+03  0.11914366089E+04  0.50400001928E-02 0.  1.
</event>
<event>
 5   0  0.3480134E-06  0.2100349E+04  0.7818609E-02  0.8561089E-01
        2   -1    0    0  501    0  0.00000000000E+00  0.00000000000E+00  0.10333433152E+04  0.10333433152E+04  0.25500000920E-02 0.  1.
       -2   -1    0    0    0  501  0.00000000000E+00  0.00000000000E+00 -0.10672803340E+04  0.10672803340E+04  0.25500000920E-02 0. -1.
    10030    2    1    2    0    0  0.00000000000E+00  0.00000000000E+00 -0.33937018808E+02  0.21006236492E+04  0.21003494934E+04 0.  0.
        1    1    3    3  502    0  0.85011412372E+03  0.41724949790E+03 -0.47098352330E+03  0.10576467492E+04  0.50400001928E-02 0. -1.
       -1    1    3    3    0  502 -0.85011412372E+03 -0.41724949790E+03  0.43704650449E+03  0.10429769000E+04  0.50400001928E-02 0.  1.
</event>
<event>
 5   0  0.1590067E-06  0.2095906E+04  0.7818609E-02  0.8563049E-01
       -1   -1    0    0    0  501  0.00000000000E+00  0.00000000000E+00  0.12119174340E+04  0.12119174340E+04  0.50400001928E-02 0. -1.
        1   -1    0    0  501    0  0.00000000000E+00  0.00000000000E+00 -0.90617146737E+03  0.90617146739E+03  0.50400001928E-02 0.  1.
    10030    2    1    2    0    0  0.00000000000E+00  0.00000000000E+00  0.30574596662E+03  0.21180889014E+04  0.20959055318E+04 0.  0.
        5    1    3    3  502    0  0.82199268822E+02  0.57983545085E+03  0.10311031904E+04  0.11858169121E+04  0.46999998093E+01 0. -1.
       -5    1    3    3    0  502 -0.82199268822E+02 -0.57983545085E+03 -0.72535722379E+03  0.93227198925E+03  0.46999998093E+01 0.  1.
</event>
<event>
 5   0  0.1590067E-06  0.2099694E+04  0.7818609E-02  0.8561378E-01
       -1   -1    0    0    0  501  0.00000000000E+00  0.00000000000E+00  0.12047927062E+04  0.12047927062E+04  0.50400001928E-02 0. -1.
        1   -1    0    0  501    0  0.00000000000E+00  0.00000000000E+00 -0.91482865221E+03  0.91482865222E+03  0.50400001928E-02 0.  1.
    10030    2    1    2    0    0  0.00000000000E+00  0.00000000000E+00  0.28996405396E+03  0.21196213584E+04  0.20996941564E+04 0.  0.
        5    1    3    3  502    0  0.97460970472E+03 -0.30171218242E+03 -0.10487958330E+03  0.10256296283E+04  0.46999998093E+01 0.  1.
       -5    1    3    3    0  502 -0.97460970472E+03  0.30171218242E+03  0.39484363726E+03  0.10939917301E+04  0.46999998093E+01 0. -1.
</event>
<event>
 5   0  0.3547583E-06  0.2100344E+04  0.7818609E-02  0.8561092E-01
       -2   -1    0    0    0  501  0.00000000000E+00  0.00000000000E+00  0.95645436771E+03  0.95645436771E+03  0.25500000920E-02 0.  1.
        2   -1    0    0  501    0  0.00000000000E+00  0.00000000000E+00 -0.11530721196E+04  0.11530721196E+04  0.25500000920E-02 0. -1.
    10030    2    1    2    0    0  0.00000000000E+00  0.00000000000E+00 -0.19661775185E+03  0.21095264873E+04  0.21003436529E+04 0.  0.
        2    1    3    3  502    0  0.50760761607E+03  0.51057131684E+03  0.66956775837E+03  0.98319354378E+03  0.25500000920E-02 0.  1.
       -2    1    3    3    0  502 -0.50760761607E+03 -0.51057131684E+03 -0.86618551023E+03  0.11263329435E+04  0.25500000920E-02 0. -1.
</event>
<event>
 5   0  0.3547583E-06  0.2100832E+04  0.7818609E-02  0.8560877E-01
       -2   -1    0    0    0  501  0.00000000000E+00  0.00000000000E+00  0.91487776996E+03  0.91487776996E+03  0.25500000920E-02 0. -1.
        2   -1    0    0  501    0  0.00000000000E+00  0.00000000000E+00 -0.12060336934E+04  0.12060336934E+04  0.25500000920E-02 0.  1.
    10030    2    1    2    0    0  0.00000000000E+00  0.00000000000E+00 -0.29115592342E+03  0.21209114634E+04  0.21008316600E+04 0.  0.
        2    1    3    3  502    0  0.40398139781E+03  0.17576859505E+03 -0.11082527341E+04  0.11926104525E+04  0.25500000920E-02 0.  1.
       -2    1    3    3    0  502 -0.40398139781E+03 -0.17576859505E+03  0.81709681065E+03  0.92830101086E+03  0.25500000920E-02 0. -1.
</event>
<event>
 5   0  0.1653260E-06  0.2095337E+04  0.7818609E-02  0.8563300E-01
        1   -1    0    0  501    0  0.00000000000E+00  0.00000000000E+00  0.82753003705E+03  0.82753003707E+03  0.50400001928E-02 0. -1.
       -1   -1    0    0    0  501  0.00000000000E+00  0.00000000000E+00 -0.13263680557E+04  0.13263680557E+04  0.50400001928E-02 0.  1.
    10030    2    1    2    0    0  0.00000000000E+00  0.00000000000E+00 -0.49883801861E+03  0.21538980927E+04  0.20953371149E+04 0.  0.
        3    1    3    3  502    0  0.84934843020E+03 -0.40148103220E+03  0.22725381243E+03  0.96655267863E+03  0.10100000352E+00 0. -1.
       -3    1    3    3    0  502 -0.84934843020E+03  0.40148103220E+03 -0.72609183105E+03  0.11873454141E+04  0.10100000352E+00 0.  1.
</event>
<event>
 5   0  0.3705828E-06  0.2099898E+04  0.7818609E-02  0.8561288E-01
       -2   -1    0    0    0  501  0.00000000000E+00  0.00000000000E+00  0.56487906310E+03  0.56487906311E+03  0.25500000920E-02 0.  1.
        2   -1    0    0  501    0  0.00000000000E+00  0.00000000000E+00 -0.19515553680E+04  0.19515553680E+04  0.25500000920E-02 0. -1.
    10030    2    1    2    0    0  0.00000000000E+00  0.00000000000E+00 -0.13866763049E+04  0.25164344311E+04  0.20998978717E+04 0.  0.
        5    1    3    3  502    0 -0.14886344864E+03  0.56627721144E+03  0.35105232964E+03  0.68270786921E+03  0.46999998093E+01 0.  1.
       -5    1    3    3    0  502  0.14886344864E+03 -0.56627721144E+03 -0.17377286346E+04  0.18337265619E+04  0.46999998093E+01 0. -1.
</event>
<event>
 5   0  0.1646510E-06  0.2099899E+04  0.7818609E-02  0.8561288E-01
       -1   -1    0    0    0  501  0.00000000000E+00  0.00000000000E+00  0.99320939983E+03  0.99320939985E+03  0.50400001928E-02 0. -1.
        1   -1    0    0  501    0  0.00000000000E+00  0.00000000000E+00 -0.11099307316E+04  0.11099307316E+04  0.50400001928E-02 0.  1.
    10030    2    1    2    0    0  0.00000000000E+00  0.00000000000E+00 -0.11672133177E+03  0.21031401315E+04  0.20998986983E+04 0.  0.
        4    1    3    3  502    0 -0.44621885733E+02  0.92552159202E+03  0.43617343111E+03  0.10241241160E+04  0.12699999809E+01 0. -1.
       -4    1    3    3    0  502  0.44621885733E+02 -0.92552159202E+03 -0.55289476288E+03  0.10790160155E+04  0.12699999809E+01 0.  1.
</event>
<event>
 5   0  0.3547583E-06  0.2099769E+04  0.7818609E-02  0.8561345E-01
        2   -1    0    0  501    0  0.00000000000E+00  0.00000000000E+00  0.25723980381E+04  0.25723980381E+04  0.25500000920E-02 0.  1.
       -2   -1    0    0    0  501  0.00000000000E+00  0.00000000000E+00 -0.42849399432E+03  0.42849399432E+03  0.25500000920E-02 0. -1.
    10030    2    1    2    0    0  0.00000000000E+00  0.00000000000E+00  0.21439040438E+04  0.30008920324E+04  0.20997686638E+04 0.  0.
        2    1    3    3  502    0  0.51358110986E+03 -0.33963924932E+03  0.22872677883E+04  0.23686946429E+04  0.25500000920E-02 0.  1.
       -2    1    3    3    0  502 -0.51358110986E+03  0.33963924932E+03 -0.14336374448E+03  0.63219738953E+03  0.25500000920E-02 0. -1.
</event>
<event>
 5   0  0.1590067E-06  0.2099821E+04  0.7818609E-02  0.8561322E-01
       -1   -1    0    0    0  501  0.00000000000E+00  0.00000000000E+00  0.45754736091E+03  0.45754736093E+03  0.50400001928E-02 0.  1.
        1   -1    0    0  501    0  0.00000000000E+00  0.00000000000E+00 -0.24091756010E+04  0.24091756010E+04  0.50400001928E-02 0. -1.
    10030    2    1    2    0    0  0.00000000000E+00  0.00000000000E+00 -0.19516282401E+04  0.28667229620E+04  0.20998208859E+04 0.  0.
        5    1    3    3  502    0  0.19184211475E+03  0.53074066191E+03  0.23285193544E+03  0.61051712591E+03  0.46999998093E+01 0.  1.
       -5    1    3    3    0  502 -0.19184211475E+03 -0.53074066191E+03 -0.21844801756E+04  0.22562058361E+04  0.46999998093E+01 0. -1.
</event>
<event>
 5   0  0.1590067E-06  0.2099998E+04  0.7818609E-02  0.8561244E-01
       -1   -1    0    0    0  501  0.00000000000E+00  0.00000000000E+00  0.53350018741E+03  0.53350018743E+03  0.50400001928E-02 0. -1.
        1   -1    0    0  501    0  0.00000000000E+00  0.00000000000E+00 -0.20665376081E+04  0.20665376081E+04  0.50400001928E-02 0.  1.
    10030    2    1    2    0    0  0.00000000000E+00  0.00000000000E+00 -0.15330374206E+04  0.26000377955E+04  0.20999982869E+04 0.  0.
        5    1    3    3  502    0  0.29343746786E+03 -0.81360378217E+03 -0.29430450472E+02  0.86541602904E+03  0.46999998093E+01 0. -1.
       -5    1    3    3    0  502 -0.29343746786E+03  0.81360378217E+03 -0.15036069702E+04  0.17346217665E+04  0.46999998093E+01 0.  1.
</event>
<event>
 5   0  0.1579820E-06  0.2099691E+04  0.7818609E-02  0.8561379E-01
        1   -1    0    0  501    0  0.00000000000E+00  0.00000000000E+00  0.94395754232E+03  0.94395754234E+03  0.50400001928E-02 0.  1.
       -1   -1    0    0    0  501  0.00000000000E+00  0.00000000000E+00 -0.11676114241E+04  0.11676114241E+04  0.50400001928E-02 0. -1.
    10030    2    1    2    0    0  0.00000000000E+00  0.00000000000E+00 -0.22365388174E+03  0.21115689664E+04  0.20996910347E+04 0.  0.
        2    1    3    3  502    0 -0.28221869653E+03 -0.91968780872E+03  0.31091105845E+03  0.10110087757E+04  0.25500000920E-02 0.  1.
       -2    1    3    3    0  502  0.28221869653E+03  0.91968780872E+03 -0.53456494019E+03  0.11005601908E+04  0.25500000920E-02 0. -1.
</event>
<event>
 5   0  0.1590067E-06  0.2099555E+04  0.7818609E-02  0.8561440E-01
       -1   -1    0    0    0  501  0.00000000000E+00  0.00000000000E+00  0.74132923658E+03  0.74132923659E+03  0.50400001928E-02 0.  1.
        1   -1    0    0  501    0  0.00000000000E+00  0.00000000000E+00 -0.14865626312E+04  0.14865626312E+04  0.50400001928E-02 0. -1.
    10030    2    1    2    0    0  0.00000000000E+00  0.00000000000E+00 -0.74523339461E+03  0.22278918678E+04  0.20995545628E+04 0.  0.
        5    1    3    3  502    0  0.31678157758E+03  0.25211730635E+03  0.65514093673E+03  0.77015936080E+03  0.46999998093E+01 0.  1.
       -5    1    3    3    0  502 -0.31678157758E+03 -0.25211730635E+03 -0.14003743313E+04  0.14577325070E+04  0.46999998093E+01 0. -1.
</event>
<event>
 5   0  0.3547583E-06  0.2099821E+04  0.7818609E-02  0.8561322E-01
       -2   -1    0    0    0  501  0.00000000000E+00  0.00000000000E+00  0.44991765487E+03  0.44991765487E+03  0.25500000920E-02 0.  1.
        2   -1    0    0  501    0  0.00000000000E+00  0.00000000000E+00 -0.24500308888E+04  0.24500308888E+04  0.25500000920E-02 0. -1.
    10030    2    1    2    0    0  0.00000000000E+00  0.00000000000E+00 -0.20001132340E+04  0.28999485437E+04  0.20998210894E+04 0.  0.
        2    1    3    3  502    0 -0.72305417602E+03  0.36926277803E+03 -0.80701531005E+02  0.81588913328E+03  0.25500000920E-02 0.  1.
       -2    1    3    3    0  502  0.72305417602E+03 -0.36926277803E+03 -0.19194117030E+04  0.20840594104E+04  0.25500000920E-02 0. -1.
</event>
<event>
 5   0  0.3547583E-06  0.2099913E+04  0.7818609E-02  0.8561282E-01
        2   -1    0    0  501    0  0.00000000000E+00  0.00000000000E+00  0.16817876691E+04  0.16817876691E+04  0.25500000920E-02 0.  1.
       -2   -1    0    0    0  501  0.00000000000E+00  0.00000000000E+00 -0.65549806642E+03  0.65549806642E+03  0.25500000920E-02 0. -1.
    10030    2    1    2    0    0  0.00000000000E+00  0.00000000000E+00  0.10262896027E+04  0.23372857355E+04  0.20999129174E+04 0.  0.
        2    1    3    3  502    0 -0.17192691757E+03 -0.13116525948E+03 -0.63044308963E+03  0.66649957205E+03  0.25500000920E-02 0. -1.
       -2    1    3    3    0  502  0.17192691757E+03  0.13116525948E+03  0.16567326923E+04  0.16707861634E+04  0.25500000920E-02 0.  1.
</event>
<event>
 5   0  0.1646510E-06  0.2100081E+04  0.7818609E-02  0.8561208E-01
        1   -1    0    0  501    0  0.00000000000E+00  0.00000000000E+00  0.18653412508E+04  0.18653412508E+04  0.50400001928E-02 0. -1.
       -1   -1    0    0    0  501  0.00000000000E+00  0.00000000000E+00 -0.59109043302E+03  0.59109043305E+03  0.50400001928E-02 0.  1.
    10030    2    1    2    0    0  0.00000000000E+00  0.00000000000E+00  0.12742508177E+04  0.24564316838E+04  0.21000813010E+04 0.  0.
        4    1    3    3  502    0  0.44236906651E+03 -0.95091974298E+03  0.57696899641E+03  0.11970102691E+04  0.12699999809E+01 0.  1.
       -4    1    3    3    0  502 -0.44236906651E+03  0.95091974298E+03  0.69728182132E+03  0.12594214147E+04  0.12699999809E+01 0. -1.
</event>
<event>
 5   0  0.3636435E-06  0.2086028E+04  0.7818609E-02  0.8567423E-01
       -2   -1    0    0    0  501  0.00000000000E+00  0.00000000000E+00  0.10267809428E+04  0.10267809428E+04  0.25500000920E-02 0.  1.
        2   -1    0    0  501    0  0.00000000000E+00  0.00000000000E+00 -0.10595036069E+04  0.10595036069E+04  0.25500000920E-02 0. -1.
    10030    2    1    2    0    0  0.00000000000E+00  0.00000000000E+00 -0.32722664058E+02  0.20862845497E+04  0.20860279120E+04 0.  0.
        4    1    3    3  502    0  0.90179497710E+03  0.43801910336E+03 -0.30411461852E+03  0.10476555874E+04  0.12699999809E+01 0.  1.
       -4    1    3    3    0  502 -0.90179497710E+03 -0.43801910336E+03  0.27139195446E+03  0.10386289624E+04  0.12699999809E+01 0. -1.
</event>
<event>
 5   0  0.1257125E-06  0.2100251E+04  0.7818609E-02  0.8561133E-01
        3   -1    0    0  501    0  0.00000000000E+00  0.00000000000E+00  0.12196910592E+04  0.12196910633E+04  0.10100000352E+00 0.  1.
       -3   -1    0    0    0  501  0.00000000000E+00  0.00000000000E+00 -0.90413315863E+03  0.90413316427E+03  0.10100000352E+00 0. -1.
    10030    2    1    2    0    0  0.00000000000E+00  0.00000000000E+00  0.31555790052E+03  0.21238242276E+04  0.21002505949E+04 0.  0.
        4    1    3    3  502    0 -0.31157825776E+03 -0.56418768327E+03 -0.68060627790E+03  0.93734479840E+03  0.12699999809E+01 0. -1.
       -4    1    3    3    0  502  0.31157825776E+03  0.56418768327E+03  0.99616417842E+03  0.11864794292E+04  0.12699999809E+01 0.  1.
</event>
<event>
 5   0  0.1590067E-06  0.2099700E+04  0.7818609E-02  0.8561375E-01
       -1   -1    0    0    0  501  0.00000000000E+00  0.00000000000E+00  0.10254074199E+04  0.10254074199E+04  0.50400001928E-02 0.  1.
        1   -1    0    0  501    0  0.00000000000E+00  0.00000000000E+00 -0.10748754886E+04  0.10748754886E+04  0.50400001928E-02 0. -1.
    10030    2    1    2    0    0  0.00000000000E+00  0.00000000000E+00 -0.49468068718E+02  0.21002829085E+04  0.20997002658E+04 0.  0.
        5    1    3    3  502    0  0.36617797049E+03  0.83245813852E+02  0.95591907888E+03  0.10270440823E+04  0.46999998093E+01 0.  1.
       -5    1    3    3    0  502 -0.36617797049E+03 -0.83245813852E+02 -0.10053871476E+04  0.10732388262E+04  0.46999998093E+01 0. -1.
</event>
<event>
 5   0  0.1653260E-06  0.2092101E+04  0.7818609E-02  0.8564731E-01
        1   -1    0    0  501    0  0.00000000000E+00  0.00000000000E+00  0.10609161415E+04  0.10609161415E+04  0.50400001928E-02 0. -1.
       -1   -1    0    0    0  501  0.00000000000E+00  0.00000000000E+00 -0.10313935933E+04  0.10313935933E+04  0.50400001928E-02 0.  1.
    10030    2    1    2    0    0  0.00000000000E+00  0.00000000000E+00  0.29522548174E+02  0.20923097348E+04  0.20921014425E+04 0.  0.
        3    1    3    3  502    0  0.34445964263E+03 -0.12011985426E+03  0.99523680708E+03  0.10599894043E+04  0.10100000352E+00 0. -1.
       -3    1    3    3    0  502 -0.34445964263E+03  0.12011985426E+03 -0.96571425891E+03  0.10323203305E+04  0.10100000352E+00 0.  1.
</event>
<event>
 5   0  0.3547583E-06  0.2099900E+04  0.7818609E-02  0.8561288E-01
        2   -1    0    0  501    0  0.00000000000E+00  0.00000000000E+00  0.92274679232E+03  0.92274679232E+03  0.25500000920E-02 0. -1.
       -2   -1    0    0    0  501  0.00000000000E+00  0.00000000000E+00 -0.11946879783E+04  0.11946879783E+04  0.25500000920E-02 0.  1.
    10030    2    1    2    0    0  0.00000000000E+00  0.00000000000E+00 -0.27194118599E+03  0.21174347706E+04  0.20998995212E+04 0.  0.
        2    1    3    3  502    0  0.22015646395E+03  0.67336294935E+03  0.64542492102E+03  0.95836311431E+03  0.25500000920E-02 0. -1.
       -2    1    3    3    0  502 -0.22015646395E+03 -0.67336294935E+03 -0.91736610701E+03  0.11590716563E+04  0.25500000920E-02 0.  1.
</event>
<event>
 5   0  0.1615098E-06  0.2102728E+04  0.7818609E-02  0.8560042E-01
       -1   -1    0    0    0  501  0.00000000000E+00  0.00000000000E+00  0.82946927235E+03  0.82946927236E+03  0.50400001928E-02 0. -1.
        1   -1    0    0  501    0  0.00000000000E+00  0.00000000000E+00 -0.13326192208E+04  0.13326192208E+04  0.50400001928E-02 0.  1.
    10030    2    1    2    0    0  0.00000000000E+00  0.00000000000E+00 -0.50314994848E+03  0.21620884932E+04  0.21027284137E+04 0.  0.
        1    1    3    3  502    0  0.48234628857E+03 -0.46761742716E+02  0.70778187584E+03  0.85778772810E+03  0.50400001928E-02 0. -1.
       -1    1    3    3    0  502 -0.48234628857E+03  0.46761742716E+02 -0.12109318243E+04  0.13043007651E+04  0.50400001928E-02 0.  1.
</event>
<event>
 5   0  0.3547583E-06  0.2099801E+04  0.7818609E-02  0.8561331E-01
        2   -1    0    0  501    0  0.00000000000E+00  0.00000000000E+00  0.76452262114E+03  0.76452262115E+03  0.25500000920E-02 0. -1.
       -2   -1    0    0    0  501  0.00000000000E+00  0.00000000000E+00 -0.14418036749E+04  0.14418036749E+04  0.25500000920E-02 0.  1.
    10030    2    1    2    0    0  0.00000000000E+00  0.00000000000E+00 -0.67728105371E+03  0.22063262960E+04  0.20998014427E+04 0.  0.
        2    1    3    3  502    0 -0.34533645676E+03  0.86473290506E+03 -0.84829512854E+03  0.12596129924E+04  0.25500000920E-02 0.  1.
       -2    1    3    3    0  502  0.34533645676E+03 -0.86473290506E+03  0.17101407483E+03  0.94671330362E+03  0.25500000920E-02 0. -1.
</event>
<event>
 5   0  0.3547583E-06  0.2105313E+04  0.7818609E-02  0.8558906E-01
        2   -1    0    0  501    0  0.00000000000E+00  0.00000000000E+00  0.16074460924E+04  0.16074460924E+04  0.25500000920E-02 0.  1.
       -2   -1    0    0    0  501  0.00000000000E+00  0.00000000000E+00 -0.68934579867E+03  0.68934579868E+03  0.25500000920E-02 0. -1.
    10030    2    1    2    0    0  0.00000000000E+00  0.00000000000E+00  0.91810029377E+03  0.22967918911E+04  0.21053134782E+04 0.  0.
        2    1    3    3  502    0 -0.69046694840E+03 -0.19258168444E+03 -0.38193997580E+03  0.81222561960E+03  0.25500000920E-02 0. -1.
       -2    1    3    3    0  502  0.69046694840E+03  0.19258168444E+03  0.13000402696E+04  0.14845662715E+04  0.25500000920E-02 0.  1.
</event>
<event>
 5   0  0.1653260E-06  0.2100495E+04  0.7818609E-02  0.8561025E-01
        1   -1    0    0  501    0  0.00000000000E+00  0.00000000000E+00  0.96923349862E+03  0.96923349863E+03  0.50400001928E-02 0. -1.
       -1   -1    0    0    0  501  0.00000000000E+00  0.00000000000E+00 -0.11380335610E+04  0.11380335610E+04  0.50400001928E-02 0.  1.
    10030    2    1    2    0    0  0.00000000000E+00  0.00000000000E+00 -0.16880006235E+03  0.21072670596E+04  0.21004954176E+04 0.  0.
        3    1    3    3  502    0 -0.43653697905E+03 -0.73151087853E+03  0.53186652746E+03  0.10042682474E+04  0.10100000352E+00 0.  1.
       -3    1    3    3    0  502  0.43653697905E+03  0.73151087853E+03 -0.70066658981E+03  0.11029988122E+04  0.10100000352E+00 0. -1.
</event>
<event>
 5   0  0.1615098E-06  0.2099125E+04  0.7818609E-02  0.8561629E-01
        1   -1    0    0  501    0  0.00000000000E+00  0.00000000000E+00  0.16940519822E+04  0.16940519822E+04  0.50400001928E-02 0.  1.
       -1   -1    0    0    0  501  0.00000000000E+00  0.00000000000E+00 -0.65026453078E+03  0.65026453080E+03  0.50400001928E-02 0. -1.
    10030    2    1    2    0    0  0.00000000000E+00  0.00000000000E+00  0.10437874515E+04  0.23443165130E+04  0.20991254535E+04 0.  0.
        1    1    3    3  502    0  0.66152043318E+02 -0.10434115391E+04  0.62484718218E+03  0.12179974277E+04  0.50400001928E-02 0.  1.
       -1    1    3    3    0  502 -0.66152043318E+02  0.10434115391E+04  0.41894026927E+03  0.11263190853E+04  0.50400001928E-02 0. -1.
</event>
<event>
 5   0  0.1653260E-06  0.2099726E+04  0.7818609E-02  0.8561364E-01
        1   -1    0    0  501    0  0.00000000000E+00  0.00000000000E+00  0.56383592307E+03  0.56383592309E+03  0.50400001928E-02 0. -1.
       -1   -1    0    0    0  501  0.00000000000E+00  0.00000000000E+00 -0.19548455114E+04  0.19548455114E+04  0.50400001928E-02 0.  1.
    10030    2    1    2    0    0  0.00000000000E+00  0.00000000000E+00 -0.13910095883E+04  0.25186814345E+04  0.20997258139E+04 0.  0.
        3    1    3    3  502    0 -0.17365594182E+03 -0.35764562587E+03 -0.18610525672E+04  0.19030458344E+04  0.10100000352E+00 0.  1.
       -3    1    3    3    0  502  0.17365594182E+03  0.35764562587E+03  0.47004297890E+03  0.61563560005E+03  0.10100000352E+00 0. -1.
</event>
<event>
 5   0  0.1257125E-06  0.2098813E+04  0.7818609E-02  0.8561766E-01
        3   -1    0    0  501    0  0.00000000000E+00  0.00000000000E+00  0.60163547776E+03  0.60163548624E+03  0.10100000352E+00 0. -1.
       -3   -1    0    0    0  501  0.00000000000E+00  0.00000000000E+00 -0.18304340453E+04  0.18304340480E+04  0.10100000352E+00 0.  1.
    10030    2    1    2    0    0  0.00000000000E+00  0.00000000000E+00 -0.12287985675E+04  0.24320695343E+04  0.20988130694E+04 0.  0.
        2    1    3    3  502    0 -0.68337083526E+03  0.20246553845E+03  0.27813927569E+03  0.76508133517E+03  0.25500000920E-02 0. -1.
       -2    1    3    3    0  502  0.68337083526E+03 -0.20246553845E+03 -0.15069378432E+04  0.16669881991E+04  0.25500000920E-02 0.  1.
</event>
<event>
 5   0  0.1646510E-06  0.2098904E+04  0.7818609E-02  0.8561726E-01
        1   -1    0    0  501    0  0.00000000000E+00  0.00000000000E+00  0.82072334082E+03  0.82072334084E+03  0.50400001928E-02 0.  1.
       -1   -1    0    0    0  501  0.00000000000E+00  0.00000000000E+00 -0.13419255763E+04  0.13419255763E+04  0.50400001928E-02 0. -1.
    10030    2    1    2    0    0  0.00000000000E+00  0.00000000000E+00 -0.52120223545E+03  0.21626489171E+04  0.20989041351E+04 0.  0.
        4    1    3    3  502    0 -0.40014807751E+02 -0.99125431892E+03 -0.61328554798E+03  0.11663220335E+04  0.12699999809E+01 0. -1.
       -4    1    3    3    0  502  0.40014807751E+02  0.99125431892E+03  0.92083312529E+02  0.99632688359E+03  0.12699999809E+01 0.  1.
</event>
<event>
 5   0  0.1646510E-06  0.2099851E+04  0.7818609E-02  0.8561309E-01
       -1   -1    0    0    0  501  0.00000000000E+00  0.00000000000E+00  0.10784792463E+04  0.10784792464E+04  0.50400001928E-02 0. -1.
        1   -1    0    0  501    0  0.00000000000E+00  0.00000000000E+00 -0.10221281014E+04  0.10221281014E+04  0.50400001928E-02 0.  1.
    10030    2    1    2    0    0  0.00000000000E+00  0.00000000000E+00  0.56351144905E+02  0.21006073478E+04  0.20998513705E+04 0.  0.
        4    1    3    3  502    0  0.74580044606E+03 -0.73860099300E+03  0.38234436805E+01  0.10496504008E+04  0.12699999809E+01 0. -1.
       -4    1    3    3    0  502 -0.74580044606E+03  0.73860099300E+03  0.52527701224E+02  0.10509569470E+04  0.12699999809E+01 0.  1.
</event>
<event>
 5   0  0.3480134E-06  0.2099744E+04  0.7818609E-02  0.8561356E-01
        2   -1    0    0  501    0  0.00000000000E+00  0.00000000000E+00  0.91953214096E+03  0.91953214096E+03  0.25500000920E-02 0.  1.
       -2   -1    0    0    0  501  0.00000000000E+00  0.00000000000E+00 -0.11986864417E+04  0.11986864417E+04  0.25500000920E-02 0. -1.
    10030    2    1    2    0    0  0.00000000000E+00  0.00000000000E+00 -0.27915430076E+03  0.21182185827E+04  0.20997435178E+04 0.  0.
        1    1    3    3  502    0 -0.84991377020E+03 -0.60882520268E+03 -0.42768387042E+02  0.10463511261E+04  0.50400001928E-02 0.  1.
       -1    1    3    3    0  502  0.84991377020E+03  0.60882520268E+03 -0.23638591372E+03  0.10718674566E+04  0.50400001928E-02 0. -1.
</event>
<event>
 5   0  0.3574927E-06  0.2109779E+04  0.7818609E-02  0.8556948E-01
       -2   -1    0    0    0  501  0.00000000000E+00  0.00000000000E+00  0.73193177525E+03  0.73193177526E+03  0.25500000920E-02 0. -1.
        2   -1    0    0  501    0  0.00000000000E+00  0.00000000000E+00 -0.15203487801E+04  0.15203487801E+04  0.25500000920E-02 0.  1.
    10030    2    1    2    0    0  0.00000000000E+00  0.00000000000E+00 -0.78841700482E+03  0.22522805553E+04  0.21097787387E+04 0.  0.
        3    1    3    3  502    0  0.96813823423E+03  0.24574525817E+03 -0.75640195211E+03  0.12529270912E+04  0.10100000352E+00 0.  1.
       -3    1    3    3    0  502 -0.96813823423E+03 -0.24574525817E+03 -0.32015052707E+02  0.99935346414E+03  0.10100000352E+00 0. -1.
</event>
<event>
 5   0  0.1590067E-06  0.2099425E+04  0.7818609E-02  0.8561497E-01
        1   -1    0    0  501    0  0.00000000000E+00  0.00000000000E+00  0.11636203574E+04  0.11636203575E+04  0.50400001928E-02 0. -1.
       -1   -1    0    0    0  501  0.00000000000E+00  0.00000000000E+00 -0.94695519423E+03  0.94695519425E+03  0.50400001928E-02 0.  1.
    10030    2    1    2    0    0  0.00000000000E+00  0.00000000000E+00  0.21666516322E+03  0.21105755517E+04  0.20994250085E+04 0.  0.
        5    1    3    3  502    0  0.59778385326E+03  0.73594640358E+02 -0.75595012589E+03  0.96656318425E+03  0.46999998093E+01 0.  1.
       -5    1    3    3    0  502 -0.59778385326E+03 -0.73594640358E+02  0.97261528910E+03  0.11440123675E+04  0.46999998093E+01 0. -1.
</event>
<event>
 5   0  0.3547583E-06  0.2100490E+04  0.7818609E-02  0.8561028E-01
        2   -1    0    0  501    0  0.00000000000E+00  0.00000000000E+00  0.11256068334E+04  0.11256068334E+04  0.25500000920E-02 0.  1.
       -2   -1    0    0    0  501  0.00000000000E+00  0.00000000000E+00 -0.97992840069E+03  0.97992840069E+03  0.25500000920E-02 0. -1.
    10030    2    1    2    0    0  0.00000000000E+00  0.00000000000E+00  0.14567843275E+03  0.21055352341E+04  0.21004895659E+04 0.  0.
        2    1    3    3  502    0  0.29967275755E+03  0.94560378686E+03  0.41869529529E+03  0.10766968160E+04  0.25500000920E-02 0. -1.
       -2    1    3    3    0  502 -0.29967275755E+03 -0.94560378686E+03 -0.27301686253E+03  0.10288384181E+04  0.25500000920E-02 0.  1.
</event>
<event>
 5   0  0.3636435E-06  0.2100047E+04  0.7818609E-02  0.8561223E-01
        2   -1    0    0  501    0  0.00000000000E+00  0.00000000000E+00  0.24060168002E+04  0.24060168002E+04  0.25500000920E-02 0. -1.
       -2   -1    0    0    0  501  0.00000000000E+00  0.00000000000E+00 -0.45824652156E+03  0.45824652157E+03  0.25500000920E-02 0.  1.
    10030    2    1    2    0    0  0.00000000000E+00  0.00000000000E+00  0.19477702786E+04  0.28642633217E+04  0.21000465038E+04 0.  0.
        4    1    3    3  502    0 -0.61887635716E+02  0.46583574596E+03 -0.30681644298E+03  0.56122274031E+03  0.12699999809E+01 0.  1.
       -4    1    3    3    0  502  0.61887635716E+02 -0.46583574596E+03  0.22545867216E+04  0.23030405814E+04  0.12699999809E+01 0. -1.
</event>
<event>
 5   0  0.1646510E-06  0.2099951E+04  0.7818609E-02  0.8561265E-01
       -1   -1    0    0    0  501  0.00000000000E+00  0.00000000000E+00  0.72319193123E+03  0.72319193124E+03  0.50400001928E-02 0. -1.
        1   -1    0    0  501    0  0.00000000000E+00  0.00000000000E+00 -0.15244207603E+04  0.15244207603E+04  0.50400001928E-02 0.  1.
    10030    2    1    2    0    0  0.00000000000E+00  0.00000000000E+00 -0.80122882904E+03  0.22476126915E+04  0.20999512315E+04 0.  0.
        4    1    3    3  502    0  0.15238826071E+03 -0.35288483062E+03  0.64517709799E+03  0.75100265403E+03  0.12699999809E+01 0. -1.
       -4    1    3    3    0  502 -0.15238826071E+03  0.35288483062E+03 -0.14464059270E+04  0.14966100375E+04  0.12699999809E+01 0.  1.
</event>
<event>
 5   0  0.3705828E-06  0.2101754E+04  0.7818609E-02  0.8560471E-01
        2   -1    0    0  501    0  0.00000000000E+00  0.00000000000E+00  0.26415212587E+04  0.26415212587E+04  0.25500000920E-02 0. -1.
       -2   -1    0    0    0  501  0.00000000000E+00  0.00000000000E+00 -0.41807059771E+03  0.41807059772E+03  0.25500000920E-02 0.  1.
    10030    2    1    2    0    0  0.00000000000E+00  0.00000000000E+00  0.22234506610E+04  0.30595918565E+04  0.21017539071E+04 0.  0.
        5    1    3    3  502    0 -0.17411921810E+03  0.65769134209E+02  0.26173197711E+04  0.26239336797E+04  0.46999998093E+01 0. -1.
       -5    1    3    3    0  502  0.17411921810E+03 -0.65769134209E+02 -0.39386911008E+03  0.43565817678E+03  0.46999998093E+01 0.  1.
</event>
<event>
 5   0  0.3574927E-06  0.2100329E+04  0.7818609E-02  0.8561098E-01
        2   -1    0    0  501    0  0.00000000000E+00  0.00000000000E+00  0.12084876558E+04  0.12084876558E+04  0.25500000920E-02 0. -1.
       -2   -1    0    0    0  501  0.00000000000E+00  0.00000000000E+00 -0.91258330831E+03  0.91258330832E+03  0.25500000920E-02 0.  1.
    10030    2    1    2    0    0  0.00000000000E+00  0.00000000000E+00  0.29590434749E+03  0.21210709641E+04  0.21003291771E+04 0.  0.
        3    1    3    3  502    0 -0.13383559759E+03 -0.94460917540E+03  0.59120261256E+03  0.11223720420E+04  0.10100000352E+00 0. -1.
       -3    1    3    3    0  502  0.13383559759E+03  0.94460917540E+03 -0.29529826507E+03  0.99869892209E+03  0.10100000352E+00 0.  1.
</event>
<event>
 5   0  0.1646510E-06  0.2100583E+04  0.7818609E-02  0.8560987E-01
        1   -1    0    0  501    0  0.00000000000E+00  0.00000000000E+00  0.14119661018E+04  0.14119661018E+04  0.50400001928E-02 0. -1.
       -1   -1    0    0    0  501  0.00000000000E+00  0.00000000000E+00 -0.78125973668E+03  0.78125973669E+03  0.50400001928E-02 0.  1.
    10030    2    1    2    0    0  0.00000000000E+00  0.00000000000E+00  0.63070636514E+03  0.21932258385E+04  0.21005830285E+04 0.  0.
        4    1    3    3  502    0 -0.48753510852E+03  0.89124251023E+03  0.36933745513E+02  0.10165477896E+04  0.12699999809E+01 0.  1.
       -4    1    3    3    0  502  0.48753510852E+03 -0.89124251023E+03  0.59377261963E+03  0.11766780489E+04  0.12699999809E+01 0. -1.
</event>
<event>
 5   0  0.1653260E-06  0.2099419E+04  0.7818609E-02  0.8561500E-01
        1   -1    0    0  501    0  0.00000000000E+00  0.00000000000E+00  0.12206214365E+04  0.12206214365E+04  0.50400001928E-02 0.  1.
       -1   -1    0    0    0  501  0.00000000000E+00  0.00000000000E+00 -0.90272833439E+03  0.90272833440E+03  0.50400001928E-02 0. -1.
    10030    2    1    2    0    0  0.00000000000E+00  0.00000000000E+00  0.31789310207E+03  0.21233497709E+04  0.20994185445E+04 0.  0.
        3    1    3    3  502    0 -0.43296677824E+03 -0.51529734404E+03 -0.65577783514E+03  0.93970003890E+03  0.10100000352E+00 0. -1.
       -3    1    3    3    0  502  0.43296677824E+03  0.51529734404E+03  0.97367093722E+03  0.11836497320E+04  0.10100000352E+00 0.  1.
</event>
<event>
 5   0  0.3636435E-06  0.2100038E+04  0.7818609E-02  0.8561227E-01
       -2   -1    0    0    0  501  0.00000000000E+00  0.00000000000E+00  0.74378616788E+03  0.74378616788E+03  0.25500000920E-02 0.  1.
        2   -1    0    0  501    0  0.00000000000E+00  0.00000000000E+00 -0.14823347584E+04  0.14823347584E+04  0.25500000920E-02 0. -1.
    10030    2    1    2    0    0  0.00000000000E+00  0.00000000000E+00 -0.73854859055E+03  0.22261209263E+04  0.21000381801E+04 0.  0.
        4    1    3    3  502    0 -0.31055895470E+03 -0.56308967523E+03  0.51063516984E+03  0.82113746491E+03  0.12699999809E+01 0.  1.
       -4    1    3    3    0  502  0.31055895470E+03  0.56308967523E+03 -0.12491837604E+04  0.14049834614E+04  0.12699999809E+01 0. -1.
</event>
<event>
 5   0  0.3574927E-06  0.2100049E+04  0.7818609E-02  0.8561222E-01
       -2   -1    0    0    0  501  0.00000000000E+00  0.00000000000E+00  0.12780381236E+04  0.12780381236E+04  0.25500000920E-02 0. -1.
        2   -1    0    0  501    0  0.00000000000E+00  0.00000000000E+00 -0.86269058619E+03  0.86269058620E+03  0.25500000920E-02 0.  1.
    10030    2    1    2    0    0  0.00000000000E+00  0.00000000000E+00  0.41534753741E+03  0.21407287098E+04  0.21000490071E+04 0.  0.
        3    1    3    3  502    0 -0.75014575873E+03  0.57115374913E+03 -0.26346547403E+03  0.97895318105E+03  0.10100000352E+00 0.  1.
       -3    1    3    3    0  502  0.75014575873E+03 -0.57115374913E+03  0.67881301144E+03  0.11617755287E+04  0.10100000352E+00 0. -1.
</event>
<event>
 5   0  0.3547583E-06  0.2100591E+04  0.7818609E-02  0.8560983E-01
       -2   -1    0    0    0  501  0.00000000000E+00  0.00000000000E+00  0.11365510152E+04  0.11365510152E+04  0.25500000920E-02 0. -1.
        2   -1    0    0  501    0  0.00000000000E+00  0.00000000000E+00 -0.97058646012E+03  0.97058646012E+03  0.25500000920E-02 0.  1.
    10030    2    1    2    0    0  0.00000000000E+00  0.00000000000E+00  0.16596455505E+03  0.21071374753E+04  0.21005913706E+04 0.  0.
        2    1    3    3  502    0  0.39941131578E+02 -0.62351265735E+03 -0.76389845540E+03  0.98686583588E+03  0.25500000920E-02 0.  1.
       -2    1    3    3    0  502 -0.39941131578E+02  0.62351265735E+03  0.92986301044E+03  0.11202716394E+04  0.25500000920E-02 0. -1.
</event>
<event>
 5   0  0.3547583E-06  0.2099764E+04  0.7818609E-02  0.8561347E-01
       -2   -1    0    0    0  501  0.00000000000E+00  0.00000000000E+00  0.14064604304E+04  0.14064604304E+04  0.25500000920E-02 0.  1.
        2   -1    0    0  501    0  0.00000000000E+00  0.00000000000E+00 -0.78370628339E+03  0.78370628339E+03  0.25500000920E-02 0. -1.
    10030    2    1    2    0    0  0.00000000000E+00  0.00000000000E+00  0.62275414700E+03  0.21901667138E+04  0.20997636787E+04 0.  0.
        2    1    3    3  502    0  0.52104440199E+03  0.90204600504E+03  0.44768475589E+03  0.11338412167E+04  0.25500000920E-02 0.  1.
       -2    1    3    3    0  502 -0.52104440199E+03 -0.90204600504E+03  0.17506939112E+03  0.10563254971E+04  0.25500000920E-02 0. -1.
</event>
<event>
 5   0  0.3636435E-06  0.2100030E+04  0.7818609E-02  0.8561230E-01
        2   -1    0    0  501    0  0.00000000000E+00  0.00000000000E+00  0.18570015634E+04  0.18570015634E+04  0.25500000920E-02 0. -1.
       -2   -1    0    0    0  501  0.00000000000E+00  0.00000000000E+00 -0.59371599458E+03  0.59371599459E+03  0.25500000920E-02 0.  1.
    10030    2    1    2    0    0  0.00000000000E+00  0.00000000000E+00  0.12632855689E+04  0.24507175580E+04  0.21000300285E+04 0.  0.
        4    1    3    3  502    0 -0.76187234562E+03 -0.65200059819E+03  0.99505468371E+03  0.14126888148E+04  0.12699999809E+01 0. -1.
       -4    1    3    3    0  502  0.76187234562E+03  0.65200059819E+03  0.26823088515E+03  0.10380287432E+04  0.12699999809E+01 0.  1.
</event>
<event>
 5   0  0.3705828E-06  0.2099937E+04  0.7818609E-02  0.8561271E-01
       -2   -1    0    0    0  501  0.00000000000E+00  0.00000000000E+00  0.72455326929E+03  0.72455326930E+03  0.25500000920E-02 0.  1.
        2   -1    0    0  501    0  0.00000000000E+00  0.00000000000E+00 -0.15215358032E+04  0.15215358032E+04  0.25500000920E-02 0. -1.
    10030    2    1    2    0    0  0.00000000000E+00  0.00000000000E+00 -0.79698253394E+03  0.22460890725E+04  0.20999368948E+04 0.  0.
        5    1    3    3  502    0  0.56600605134E+03 -0.11159859660E+03  0.53983035458E+03  0.79009872715E+03  0.46999998093E+01 0.  1.
       -5    1    3    3    0  502 -0.56600605134E+03  0.11159859660E+03 -0.13368128885E+04  0.14559903454E+04  0.46999998093E+01 0. -1.
</event>
<event>
 5   0  0.3705828E-06  0.2100512E+04  0.7818609E-02  0.8561018E-01
        2   -1    0    0  501    0  0.00000000000E+00  0.00000000000E+00  0.15837368675E+04  0.15837368675E+04  0.25500000920E-02 0.  1.
       -2   -1    0    0    0  501  0.00000000000E+00  0.00000000000E+00 -0.69647810113E+03  0.69647810113E+03  0.25500000920E-02 0. -1.
    10030    2    1    2    0    0  0.00000000000E+00  0.00000000000E+00  0.88725876639E+03  0.22802149686E+04  0.21005123624E+04 0.  0.
        5    1    3    3  502    0  0.59128765778E+03 -0.82606088795E+03  0.73292083359E+03  0.12526742287E+04  0.46999998093E+01 0.  1.
       -5    1    3    3    0  502 -0.59128765778E+03  0.82606088795E+03  0.15433793279E+03  0.10275407400E+04  0.46999998093E+01 0. -1.
</event>
<event>
 5   0  0.3574927E-06  0.2096771E+04  0.7818609E-02  0.8562667E-01
       -2   -1    0    0    0  501  0.00000000000E+00  0.00000000000E+00  0.10105088026E+04  0.10105088026E+04  0.25500000920E-02 0.  1.
        2   -1    0    0  501    0  0.00000000000E+00  0.00000000000E+00 -0.10876820418E+04  0.10876820418E+04  0.25500000920E-02 0. -1.
    10030    2    1    2    0    0  0.00000000000E+00  0.00000000000E+00 -0.77173239211E+02  0.20981908443E+04  0.20967711154E+04 0.  0.
        3    1    3    3  502    0  0.33380983932E+03  0.64348753560E+03  0.71929469998E+03  0.10212199043E+04  0.10100000352E+00 0.  1.
       -3    1    3    3    0  502 -0.33380983932E+03 -0.64348753560E+03 -0.79646793919E+03  0.10769709400E+04  0.10100000352E+00 0. -1.
</event>
<event>
 5   0  0.1615098E-06  0.2100190E+04  0.7818609E-02  0.8561160E-01
        1   -1    0    0  501    0  0.00000000000E+00  0.00000000000E+00  0.11437928978E+04  0.11437928979E+04  0.50400001928E-02 0.  1.
       -1   -1    0    0    0  501  0.00000000000E+00  0.00000000000E+00 -0.96407252989E+03  0.96407252991E+03  0.50400001928E-02 0. -1.
    10030    2    1    2    0    0  0.00000000000E+00  0.00000000000E+00  0.17972036795E+03  0.21078654278E+04  0.21001898131E+04 0.  0.
        1    1    3    3  502    0 -0.92938089981E+03 -0.41826802386E+03 -0.16405120312E+03  0.10322837759E+04  0.50400001928E-02 0. -1.
       -1    1    3    3    0  502  0.92938089981E+03  0.41826802386E+03  0.34377157107E+03  0.10755816519E+04  0.50400001928E-02 0.  1.
</event>
<event>
 5   0  0.1615098E-06  0.2099991E+04  0.7818609E-02  0.8561247E-01
        1   -1    0    0  501    0  0.00000000000E+00  0.00000000000E+00  0.11019732355E+04  0.11019732355E+04  0.50400001928E-02 0.  1.
       -1   -1    0    0    0  501  0.00000000000E+00  0.00000000000E+00 -0.10004699103E+04  0.10004699103E+04  0.50400001928E-02 0. -1.
    10030    2    1    2    0    0  0.00000000000E+00  0.00000000000E+00  0.10150332524E+03  0.21024431458E+04  0.20999914896E+04 0.  0.
        1    1    3    3  502    0  0.28814193676E+03 -0.20918115838E+03 -0.93818112716E+03  0.10034771348E+04  0.50400001928E-02 0. -1.
       -1    1    3    3    0  502 -0.28814193676E+03  0.20918115838E+03  0.10396844524E+04  0.10989660110E+04  0.50400001928E-02 0.  1.
</event>
<event>
 5   0  0.3547583E-06  0.2100646E+04  0.7818609E-02  0.8560959E-01
        2   -1    0    0  501    0  0.00000000000E+00  0.00000000000E+00  0.11445478518E+04  0.11445478518E+04  0.25500000920E-02 0. -1.
       -2   -1    0    0    0  501  0.00000000000E+00  0.00000000000E+00 -0.96385546587E+03  0.96385546588E+03  0.25500000920E-02 0.  1.
    10030    2    1    2    0    0  0.00000000000E+00  0.00000000000E+00  0.18069238595E+03  0.21084033177E+04  0.21006462843E+04 0.  0.
        2    1    3    3  502    0  0.57667147920E+03  0.67358657849E+03 -0.47468004494E+03  0.10057783149E+04  0.25500000920E-02 0. -1.
       -2    1    3    3    0  502 -0.57667147920E+03 -0.67358657849E+03  0.65537243089E+03  0.11026250028E+04  0.25500000920E-02 0.  1.
</event>
<event>
 5   0  0.3636435E-06  0.2101016E+04  0.7818609E-02  0.8560796E-01
       -2   -1    0    0    0  501  0.00000000000E+00  0.00000000000E+00  0.81472719899E+03  0.81472719899E+03  0.25500000920E-02 0. -1.
        2   -1    0    0  501    0  0.00000000000E+00  0.00000000000E+00 -0.13545233959E+04  0.13545233959E+04  0.25500000920E-02 0.  1.
    10030    2    1    2    0    0  0.00000000000E+00  0.00000000000E+00 -0.53979619690E+03  0.21692505949E+04  0.21010159945E+04 0.  0.
        4    1    3    3  502    0  0.64678215592E+03 -0.92939296075E+02 -0.11191695904E+04  0.12959579681E+04  0.12699999809E+01 0.  1.
       -4    1    3    3    0  502 -0.64678215592E+03  0.92939296075E+02  0.57937339354E+03  0.87329262679E+03  0.12699999809E+01 0. -1.
</event>
<event>
 5   0  0.1590067E-06  0.2099067E+04  0.7818609E-02  0.8561654E-01
       -1   -1    0    0    0  501  0.00000000000E+00  0.00000000000E+00  0.85370831739E+03  0.85370831740E+03  0.50400001928E-02 0.  1.
        1   -1    0    0  501    0  0.00000000000E+00  0.00000000000E+00 -0.12902775737E+04  0.12902775737E+04  0.50400001928E-02 0. -1.
    10030    2    1    2    0    0  0.00000000000E+00  0.00000000000E+00 -0.43656925633E+03  0.21439858911E+04  0.20990671227E+04 0.  0.
        5    1    3    3  502    0 -0.23063687272E+03  0.85229814785E+03 -0.79778195210E+03  0.11899931231E+04  0.46999998093E+01 0. -1.
       -5    1    3    3    0  502  0.23063687272E+03 -0.85229814785E+03  0.36121269578E+03  0.95399276804E+03  0.46999998093E+01 0.  1.
</event>
<event>
 5   0  0.1257125E-06  0.2099260E+04  0.7818609E-02  0.8561570E-01
       -3   -1    0    0    0  501  0.00000000000E+00  0.00000000000E+00  0.48174797603E+03  0.48174798661E+03  0.10100000352E+00 0.  1.
        3   -1    0    0  501    0  0.00000000000E+00  0.00000000000E+00 -0.22869274702E+04  0.22869274724E+04  0.10100000352E+00 0. -1.
    10030    2    1    2    0    0  0.00000000000E+00  0.00000000000E+00 -0.18051794942E+04  0.27686754590E+04  0.20992595817E+04 0.  0.
        5    1    3    3  502    0  0.14519729478E+03  0.95369531052E+03 -0.35707046294E+03  0.10286585465E+04  0.46999998093E+01 0.  1.
       -5    1    3    3    0  502 -0.14519729478E+03 -0.95369531052E+03 -0.14481090312E+04  0.17400169126E+04  0.46999998093E+01 0. -1.
</event>
<event>
 5   0  0.3480134E-06  0.2100416E+04  0.7818609E-02  0.8561060E-01
        2   -1    0    0  501    0  0.00000000000E+00  0.00000000000E+00  0.18699548853E+04  0.18699548853E+04  0.25500000920E-02 0.  1.
       -2   -1    0    0    0  501  0.00000000000E+00  0.00000000000E+00 -0.58982025024E+03  0.58982025024E+03  0.25500000920E-02 0. -1.
    10030    2    1    2    0    0  0.00000000000E+00  0.00000000000E+00  0.12801346351E+04  0.24597751356E+04  0.21004163953E+04 0.  0.
        1    1    3    3  502    0  0.24786735956E+03  0.44832949885E+03  0.17137075727E+04  0.17886394863E+04  0.50400001928E-02 0.  1.
       -1    1    3    3    0  502 -0.24786735956E+03 -0.44832949885E+03 -0.43357293756E+03  0.67113564924E+03  0.50400001928E-02 0. -1.
</event>
<event>
 5   0  0.1590067E-06  0.2099939E+04  0.7818609E-02  0.8561270E-01
       -1   -1    0    0    0  501  0.00000000000E+00  0.00000000000E+00  0.11881962625E+04  0.11881962625E+04  0.50400001928E-02 0.  1.
        1   -1    0    0  501    0  0.00000000000E+00  0.00000000000E+00 -0.92782272005E+03  0.92782272006E+03  0.50400001928E-02 0. -1.
    10030    2    1    2    0    0  0.00000000000E+00  0.00000000000E+00  0.26037354244E+03  0.21160189826E+04  0.20999385593E+04 0.  0.
        5    1    3    3  502    0 -0.92860622131E+03 -0.47802623081E+03  0.21683026558E+02  0.10446582385E+04  0.46999998093E+01 0. -1.
       -5    1    3    3    0  502  0.92860622131E+03  0.47802623081E+03  0.23869051588E+03  0.10713607441E+04  0.46999998093E+01 0.  1.
</event>
<event>
 5   0  0.1646510E-06  0.2100826E+04  0.7818609E-02  0.8560880E-01
       -1   -1    0    0    0  501  0.00000000000E+00  0.00000000000E+00  0.12929349986E+04  0.12929349986E+04  0.50400001928E-02 0.  1.
        1   -1    0    0  501    0  0.00000000000E+00  0.00000000000E+00 -0.85338181774E+03  0.85338181776E+03  0.50400001928E-02 0. -1.
    10030    2    1    2    0    0  0.00000000000E+00  0.00000000000E+00  0.43955318087E+03  0.21463168164E+04  0.21008257609E+04 0.  0.
        4    1    3    3  502    0  0.19477657687E+03 -0.88846143911E+03 -0.31701864572E+03  0.96322587087E+03  0.12699999809E+01 0. -1.
       -4    1    3    3    0  502 -0.19477657687E+03  0.88846143911E+03  0.75657182658E+03  0.11830909455E+04  0.12699999809E+01 0.  1.
</event>
<event>
 5   0  0.1615098E-06  0.2112041E+04  0.7818609E-02  0.8555958E-01
       -1   -1    0    0    0  501  0.00000000000E+00  0.00000000000E+00  0.90886748719E+03  0.90886748720E+03  0.50400001928E-02 0.  1.
        1   -1    0    0  501    0  0.00000000000E+00  0.00000000000E+00 -0.12269985821E+04  0.12269985822E+04  0.50400001928E-02 0. -1.
    10030    2    1    2    0    0  0.00000000000E+00  0.00000000000E+00 -0.31813109496E+03  0.21358660694E+04  0.21120408312E+04 0.  0.
        1    1    3    3  502    0 -0.58512067262E+03 -0.85211719070E+02  0.72576278434E+03  0.93614040494E+03  0.50400001928E-02 0.  1.
       -1    1    3    3    0  502  0.58512067262E+03  0.85211719070E+02 -0.10438938793E+04  0.11997256644E+04  0.50400001928E-02 0. -1.
</event>
<event>
 5   0  0.1615098E-06  0.2101626E+04  0.7818609E-02  0.8560527E-01
        1   -1    0    0  501    0  0.00000000000E+00  0.00000000000E+00  0.10412306073E+04  0.10412306073E+04  0.50400001928E-02 0. -1.
       -1   -1    0    0    0  501  0.00000000000E+00  0.00000000000E+00 -0.10604836769E+04  0.10604836769E+04  0.50400001928E-02 0.  1.
    10030    2    1    2    0    0  0.00000000000E+00  0.00000000000E+00 -0.19253069559E+02  0.21017142842E+04  0.21016260970E+04 0.  0.
        1    1    3    3  502    0  0.34001416803E+02 -0.26981744184E+03 -0.10246816948E+04  0.10601557074E+04  0.50400001928E-02 0.  1.
       -1    1    3    3    0  502 -0.34001416803E+02  0.26981744184E+03  0.10054286253E+04  0.10415585768E+04  0.50400001928E-02 0. -1.
</event>
<event>
 5   0  0.1615098E-06  0.2101137E+04  0.7818609E-02  0.8560743E-01
        1   -1    0    0  501    0  0.00000000000E+00  0.00000000000E+00  0.21459415767E+04  0.21459415767E+04  0.50400001928E-02 0.  1.
       -1   -1    0    0    0  501  0.00000000000E+00  0.00000000000E+00 -0.51431703315E+03  0.51431703317E+03  0.50400001928E-02 0. -1.
    10030    2    1    2    0    0  0.00000000000E+00  0.00000000000E+00  0.16316245436E+04  0.26602586099E+04  0.21011371256E+04 0.  0.
        1    1    3    3  502    0 -0.90289904887E+02  0.79900052901E+03 -0.40227937498E+02  0.80509154713E+03  0.50400001928E-02 0. -1.
       -1    1    3    3    0  502  0.90289904887E+02 -0.79900052901E+03  0.16718524811E+04  0.18551670628E+04  0.50400001928E-02 0.  1.
</event>
<event>
 5   0  0.1579820E-06  0.2091427E+04  0.7818609E-02  0.8565029E-01
       -1   -1    0    0    0  501  0.00000000000E+00  0.00000000000E+00  0.16611149314E+04  0.16611149314E+04  0.50400001928E-02 0.  1.
        1   -1    0    0  501    0  0.00000000000E+00  0.00000000000E+00 -0.65830284892E+03  0.65830284894E+03  0.50400001928E-02 0. -1.
    10030    2    1    2    0    0  0.00000000000E+00  0.00000000000E+00  0.10028120825E+04  0.23194177803E+04  0.20914269691E+04 0.  0.
        2    1    3    3  502    0  0.60545683478E+03  0.82034089986E+03  0.24374379339E+03  0.10483073059E+04  0.25500000920E-02 0. -1.
       -2    1    3    3    0  502 -0.60545683478E+03 -0.82034089986E+03  0.75906828907E+03  0.12711104744E+04  0.25500000920E-02 0.  1.
</event>
<event>
 5   0  0.1590067E-06  0.2099150E+04  0.7818609E-02  0.8561618E-01
        1   -1    0    0  501    0  0.00000000000E+00  0.00000000000E+00  0.11858997429E+04  0.11858997429E+04  0.50400001928E-02 0. -1.
       -1   -1    0    0    0  501  0.00000000000E+00  0.00000000000E+00 -0.92892108342E+03  0.92892108344E+03  0.50400001928E-02 0.  1.
    10030    2    1    2    0    0  0.00000000000E+00  0.00000000000E+00  0.25697865948E+03  0.21148208264E+04  0.20991496126E+04 0.  0.
        5    1    3    3  502    0 -0.65608855477E+03 -0.77384942736E+03  0.39936466782E+03  0.10903253440E+04  0.46999998093E+01 0. -1.
       -5    1    3    3    0  502  0.65608855477E+03  0.77384942736E+03 -0.14238600834E+03  0.10244954823E+04  0.46999998093E+01 0.  1.
</event>
<event>
 5   0  0.3574927E-06  0.2103754E+04  0.7818609E-02  0.8559592E-01
        2   -1    0    0  501    0  0.00000000000E+00  0.00000000000E+00  0.16412466000E+04  0.16412466000E+04  0.25500000920E-02 0.  1.
       -2   -1    0    0    0  501  0.00000000000E+00  0.00000000000E+00 -0.67414921922E+03  0.67414921922E+03  0.25500000920E-02 0. -1.
    10030    2    1    2    0    0  0.00000000000E+00  0.00000000000E+00  0.96709738082E+03  0.23153958193E+04  0.21037538962E+04 0.  0.
        3    1    3    3  502    0 -0.95606362753E+03 -0.40788398707E+03  0.30602019375E+03  0.10835475882E+04  0.10100000352E+00 0. -1.
       -3    1    3    3    0  502  0.95606362753E+03  0.40788398707E+03  0.66107718706E+03  0.12318482310E+04  0.10100000352E+00 0.  1.
</event>
<event>
 5   0  0.1653260E-06  0.2100045E+04  0.7818609E-02  0.8561223E-01
       -1   -1    0    0    0  501  0.00000000000E+00  0.00000000000E+00  0.61829808064E+03  0.61829808066E+03  0.50400001928E-02 0. -1.
        1   -1    0    0  501    0  0.00000000000E+00  0.00000000000E+00 -0.17831976509E+04  0.17831976509E+04  0.50400001928E-02 0.  1.
    10030    2    1    2    0    0  0.00000000000E+00  0.00000000000E+00 -0.11648995703E+04  0.24014957316E+04  0.21000454138E+04 0.  0.
        3    1    3    3  502    0  0.45994776005E+03  0.58779074338E+03 -0.14270469597E+04  0.16104387400E+04  0.10100000352E+00 0.  1.
       -3    1    3    3    0  502 -0.45994776005E+03 -0.58779074338E+03  0.26214738940E+03  0.79105699159E+03  0.10100000352E+00 0. -1.
</event>
<event>
 5   0  0.1579820E-06  0.2099822E+04  0.7818609E-02  0.8561322E-01
        1   -1    0    0  501    0  0.00000000000E+00  0.00000000000E+00  0.84120652059E+03  0.84120652060E+03  0.50400001928E-02 0. -1.
       -1   -1    0    0    0  501  0.00000000000E+00  0.00000000000E+00 -0.13103951340E+04  0.13103951340E+04  0.50400001928E-02 0.  1.
    10030    2    1    2    0    0  0.00000000000E+00  0.00000000000E+00 -0.46918861344E+03  0.21516016546E+04  0.20998218318E+04 0.  0.
        2    1    3    3  502    0  0.60746561420E+03 -0.19816358174E+03  0.61903326926E+03  0.88965468921E+03  0.25500000920E-02 0. -1.
       -2    1    3    3    0  502 -0.60746561420E+03  0.19816358174E+03 -0.10882218827E+04  0.12619469654E+04  0.25500000920E-02 0.  1.
</event>
<event>
 5   0  0.3705828E-06  0.2100375E+04  0.7818609E-02  0.8561078E-01
       -2   -1    0    0    0  501  0.00000000000E+00  0.00000000000E+00  0.81578009337E+03  0.81578009338E+03  0.25500000920E-02 0.  1.
        2   -1    0    0  501    0  0.00000000000E+00  0.00000000000E+00 -0.13519501485E+04  0.13519501485E+04  0.25500000920E-02 0. -1.
    10030    2    1    2    0    0  0.00000000000E+00  0.00000000000E+00 -0.53617005516E+03  0.21677302419E+04  0.21003752221E+04 0.  0.
        5    1    3    3  502    0  0.37342188433E+03  0.65556510806E+03  0.48586343208E+03  0.89738223697E+03  0.46999998093E+01 0.  1.
       -5    1    3    3    0  502 -0.37342188433E+03 -0.65556510806E+03 -0.10220334872E+04  0.12703480049E+04  0.46999998093E+01 0. -1.
</event>
<event>
 5   0  0.3574927E-06  0.2100231E+04  0.7818609E-02  0.8561141E-01
        2   -1    0    0  501    0  0.00000000000E+00  0.00000000000E+00  0.99054426007E+03  0.99054426008E+03  0.25500000920E-02 0. -1.
       -2   -1    0    0    0  501  0.00000000000E+00  0.00000000000E+00 -0.11132697523E+04  0.11132697523E+04  0.25500000920E-02 0.  1.
    10030    2    1    2    0    0  0.00000000000E+00  0.00000000000E+00 -0.12272549227E+03  0.21038140124E+04  0.21002313807E+04 0.  0.
        3    1    3    3  502    0  0.86268373879E+03  0.15632159865E+03  0.51762259592E+03  0.10181320334E+04  0.10100000352E+00 0. -1.
       -3    1    3    3    0  502 -0.86268373879E+03 -0.15632159865E+03 -0.64034808820E+03  0.10856819790E+04  0.10100000352E+00 0.  1.
</event>
<event>
 5   0  0.1615098E-06  0.2111846E+04  0.7818609E-02  0.8556043E-01
        1   -1    0    0  501    0  0.00000000000E+00  0.00000000000E+00  0.14720171729E+04  0.14720171729E+04  0.50400001928E-02 0.  1.
       -1   -1    0    0    0  501  0.00000000000E+00  0.00000000000E+00 -0.75744575414E+03  0.75744575415E+03  0.50400001928E-02 0. -1.
    10030    2    1    2    0    0  0.00000000000E+00  0.00000000000E+00  0.71457141875E+03  0.22294629271E+04  0.21118457876E+04 0.  0.
        1    1    3    3  502    0  0.88778546207E+03 -0.37429234068E+03 -0.98885732785E+02  0.96852267455E+03  0.50400001928E-02 0. -1.
       -1    1    3    3    0  502 -0.88778546207E+03  0.37429234068E+03  0.81345715154E+03  0.12609402525E+04  0.50400001928E-02 0.  1.
</event>
<event>
 5   0  0.3636435E-06  0.2101660E+04  0.7818609E-02  0.8560512E-01
       -2   -1    0    0    0  501  0.00000000000E+00  0.00000000000E+00  0.97296097149E+03  0.97296097149E+03  0.25500000920E-02 0. -1.
        2   -1    0    0  501    0  0.00000000000E+00  0.00000000000E+00 -0.11349315593E+04  0.11349315593E+04  0.25500000920E-02 0.  1.
    10030    2    1    2    0    0  0.00000000000E+00  0.00000000000E+00 -0.16197058785E+03  0.21078925308E+04  0.21016604032E+04 0.  0.
        4    1    3    3  502    0  0.19654178430E+03 -0.67458659365E+03 -0.86467724528E+03  0.11141652017E+04  0.12699999809E+01 0.  1.
       -4    1    3    3    0  502 -0.19654178430E+03  0.67458659365E+03  0.70270665743E+03  0.99372732911E+03  0.12699999809E+01 0. -1.
</event>
<event>
 5   0  0.3480134E-06  0.2099966E+04  0.7818609E-02  0.8561258E-01
       -2   -1    0    0    0  501  0.00000000000E+00  0.00000000000E+00  0.75715444116E+03  0.75715444116E+03  0.25500000920E-02 0.  1.
        2   -1    0    0  501    0  0.00000000000E+00  0.00000000000E+00 -0.14560625087E+04  0.14560625087E+04  0.25500000920E-02 0. -1.
    10030    2    1    2    0    0  0.00000000000E+00  0.00000000000E+00 -0.69890806752E+03  0.22132169498E+04  0.20999658998E+04 0.  0.
        1    1    3    3  502    0  0.31808776952E+03  0.33832625452E+03  0.64304344887E+03  0.79318935997E+03  0.50400001928E-02 0.  1.
       -1    1    3    3    0  502 -0.31808776952E+03 -0.33832625452E+03 -0.13419515164E+04  0.14200275899E+04  0.50400001928E-02 0. -1.
</event>
<event>
 5   0  0.3574927E-06  0.2099558E+04  0.7818609E-02  0.8561438E-01
        2   -1    0    0  501    0  0.00000000000E+00  0.00000000000E+00  0.12916805611E+04  0.12916805611E+04  0.25500000920E-02 0.  1.
       -2   -1    0    0    0  501  0.00000000000E+00  0.00000000000E+00 -0.85318011661E+03  0.85318011661E+03  0.25500000920E-02 0. -1.
    10030    2    1    2    0    0  0.00000000000E+00  0.00000000000E+00  0.43850044450E+03  0.21448606777E+04  0.20995582123E+04 0.  0.
        3    1    3    3  502    0  0.68742530122E+03  0.11213235712E+03  0.10216331928E+04  0.12364714315E+04  0.10100000352E+00 0.  1.
       -3    1    3    3    0  502 -0.68742530122E+03 -0.11213235712E+03 -0.58313274826E+03  0.90838924618E+03  0.10100000352E+00 0. -1.
</event>
<event>
 5   0  0.1590067E-06  0.2100191E+04  0.7818609E-02  0.8561159E-01
        1   -1    0    0  501    0  0.00000000000E+00  0.00000000000E+00  0.81277707156E+03  0.81277707157E+03  0.50400001928E-02 0.  1.
       -1   -1    0    0    0  501  0.00000000000E+00  0.00000000000E+00 -0.13567067411E+04  0.13567067411E+04  0.50400001928E-02 0. -1.
    10030    2    1    2    0    0  0.00000000000E+00  0.00000000000E+00 -0.54392966956E+03  0.21694838127E+04  0.21001905933E+04 0.  0.
        5    1    3    3  502    0 -0.25371984225E+03  0.12302027521E+03  0.77292779716E+03  0.82276802082E+03  0.46999998093E+01 0.  1.
       -5    1    3    3    0  502  0.25371984225E+03 -0.12302027521E+03 -0.13168574667E+04  0.13467157919E+04  0.46999998093E+01 0. -1.
</event>
<event>
 5   0  0.1579820E-06  0.2102848E+04  0.7818609E-02  0.8559990E-01
        1   -1    0    0  501    0  0.00000000000E+00  0.00000000000E+00  0.10639600132E+04  0.10639600132E+04  0.50400001928E-02 0.  1.
       -1   -1    0    0    0  501  0.00000000000E+00  0.00000000000E+00 -0.10390353823E+04  0.10390353824E+04  0.50400001928E-02 0. -1.
    10030    2    1    2    0    0  0.00000000000E+00  0.00000000000E+00  0.24924630843E+02  0.21029953956E+04  0.21028476874E+04 0.  0.
        2    1    3    3  502    0 -0.81331488512E+03  0.66128346795E+03  0.94414223189E+02  0.10524689890E+04  0.25500000920E-02 0. -1.
       -2    1    3    3    0  502  0.81331488512E+03 -0.66128346795E+03 -0.69489592346E+02  0.10505264065E+04  0.25500000920E-02 0.  1.
</event>
<event>
 5   0  0.1615098E-06  0.2101434E+04  0.7818609E-02  0.8560612E-01
        1   -1    0    0  501    0  0.00000000000E+00  0.00000000000E+00  0.20431294375E+04  0.20431294375E+04  0.50400001928E-02 0. -1.
       -1   -1    0    0    0  501  0.00000000000E+00  0.00000000000E+00 -0.54035063379E+03  0.54035063382E+03  0.50400001928E-02 0.  1.
    10030    2    1    2    0    0  0.00000000000E+00  0.00000000000E+00  0.15027788037E+04  0.25834800713E+04  0.21014340689E+04 0.  0.
        1    1    3    3  502    0 -0.74895721135E+02  0.10019860999E+04  0.37362317975E+03  0.10719980382E+04  0.50400001928E-02 0.  1.
       -1    1    3    3    0  502  0.74895721135E+02 -0.10019860999E+04  0.11291556240E+04  0.15114820332E+04  0.50400001928E-02 0. -1.
</event>
<event>
 5   0  0.3547583E-06  0.2099962E+04  0.7818609E-02  0.8561260E-01
        2   -1    0    0  501    0  0.00000000000E+00  0.00000000000E+00  0.39251834862E+03  0.39251834863E+03  0.25500000920E-02 0. -1.
       -2   -1    0    0    0  501  0.00000000000E+00  0.00000000000E+00 -0.28086829673E+04  0.28086829673E+04  0.25500000920E-02 0.  1.
    10030    2    1    2    0    0  0.00000000000E+00  0.00000000000E+00 -0.24161646186E+04  0.32012013159E+04  0.20999615236E+04 0.  0.
        2    1    3    3  502    0  0.20789215025E+03  0.94336382294E+03 -0.18353266271E+04  0.20740246567E+04  0.25500000920E-02 0.  1.
       -2    1    3    3    0  502 -0.20789215025E+03 -0.94336382294E+03 -0.58083799158E+03  0.11271766592E+04  0.25500000920E-02 0. -1.
</event>
<event>
 5   0  0.3636435E-06  0.2100600E+04  0.7818609E-02  0.8560979E-01
        2   -1    0    0  501    0  0.00000000000E+00  0.00000000000E+00  0.87781050117E+03  0.87781050117E+03  0.25500000920E-02 0.  1.
       -2   -1    0    0    0  501  0.00000000000E+00  0.00000000000E+00 -0.12566838709E+04  0.12566838709E+04  0.25500000920E-02 0. -1.
    10030    2    1    2    0    0  0.00000000000E+00  0.00000000000E+00 -0.37887336974E+03  0.21344943721E+04  0.21006001986E+04 0.  0.
        4    1    3    3  502    0 -0.54410511368E+03  0.78752281542E+03  0.24984201239E+03  0.98927508995E+03  0.12699999809E+01 0. -1.
       -4    1    3    3    0  502  0.54410511368E+03 -0.78752281542E+03 -0.62871538213E+03  0.11452192821E+04  0.12699999809E+01 0.  1.
</event>
<event>
 5   0  0.1579820E-06  0.2100228E+04  0.7818609E-02  0.8561143E-01
       -1   -1    0    0    0  501  0.00000000000E+00  0.00000000000E+00  0.10411616105E+04  0.10411616105E+04  0.50400001928E-02 0.  1.
        1   -1    0    0  501    0  0.00000000000E+00  0.00000000000E+00 -0.10591429587E+04  0.10591429587E+04  0.50400001928E-02 0. -1.
    10030    2    1    2    0    0  0.00000000000E+00  0.00000000000E+00 -0.17981348223E+02  0.21003045693E+04  0.21002275960E+04 0.  0.
        2    1    3    3  502    0 -0.60573776856E+03  0.71838231923E+03  0.45979893291E+03  0.10461388338E+04  0.25500000920E-02 0.  1.
       -2    1    3    3    0  502  0.60573776856E+03 -0.71838231923E+03 -0.47778028113E+03  0.10541657355E+04  0.25500000920E-02 0. -1.
</event>
<event>
 5   0  0.1590067E-06  0.2100019E+04  0.7818609E-02  0.8561235E-01
       -1   -1    0    0    0  501  0.00000000000E+00  0.00000000000E+00  0.10853273398E+04  0.10853273398E+04  0.50400001928E-02 0.  1.
        1   -1    0    0  501    0  0.00000000000E+00  0.00000000000E+00 -0.10158405004E+04  0.10158405004E+04  0.50400001928E-02 0. -1.
    10030    2    1    2    0    0  0.00000000000E+00  0.00000000000E+00  0.69486839374E+02  0.21011678402E+04  0.21000185409E+04 0.  0.
        5    1    3    3  502    0 -0.10010012787E+04 -0.13965443259E+03 -0.25000055443E+03  0.10411672717E+04  0.46999998093E+01 0. -1.
       -5    1    3    3    0  502  0.10010012787E+04  0.13965443259E+03  0.31948739380E+03  0.10600005685E+04  0.46999998093E+01 0.  1.
</event>
<event>
 5   0  0.1579820E-06  0.2099269E+04  0.7818609E-02  0.8561565E-01
       -1   -1    0    0    0  501  0.00000000000E+00  0.00000000000E+00  0.37335186524E+03  0.37335186527E+03  0.50400001928E-02 0. -1.
        1   -1    0    0  501    0  0.00000000000E+00  0.00000000000E+00 -0.29509242665E+04  0.29509242665E+04  0.50400001928E-02 0.  1.
    10030    2    1    2    0    0  0.00000000000E+00  0.00000000000E+00 -0.25775724013E+04  0.33242761318E+04  0.20992694721E+04 0.  0.
        2    1    3    3  502    0  0.32017927191E+02  0.62587977499E+03 -0.26221437989E+04  0.26959949448E+04  0.25500000920E-02 0.  1.
       -2    1    3    3    0  502 -0.32017927191E+02 -0.62587977499E+03  0.44571397630E+02  0.62828118696E+03  0.25500000920E-02 0. -1.
</event>
<event>
 5   0  0.1257125E-06  0.2099796E+04  0.7818609E-02  0.8561333E-01
       -3   -1    0    0    0  501  0.00000000000E+00  0.00000000000E+00  0.21035444419E+04  0.21035444443E+04  0.10100000352E+00 0.  1.
        3   -1    0    0  501    0  0.00000000000E+00  0.00000000000E+00 -0.52401332980E+03  0.52401333954E+03  0.10100000352E+00 0. -1.
    10030    2    1    2    0    0  0.00000000000E+00  0.00000000000E+00  0.15795311121E+04  0.26275577838E+04  0.20997955551E+04 0.  0.
        5    1    3    3  502    0 -0.35737641272E+03  0.34736600322E+03 -0.36654435188E+03  0.61867430240E+03  0.46999998093E+01 0. -1.
       -5    1    3    3    0  502  0.35737641272E+03 -0.34736600322E+03  0.19460754639E+04  0.20088834814E+04  0.46999998093E+01 0.  1.
</event>
<event>
 5   0  0.3547583E-06  0.2099930E+04  0.7818609E-02  0.8561274E-01
       -2   -1    0    0    0  501  0.00000000000E+00  0.00000000000E+00  0.11270020109E+04  0.11270020109E+04  0.25500000920E-02 0.  1.
        2   -1    0    0  501    0  0.00000000000E+00  0.00000000000E+00 -0.97819354909E+03  0.97819354909E+03  0.25500000920E-02 0. -1.
    10030    2    1    2    0    0  0.00000000000E+00  0.00000000000E+00  0.14880846182E+03  0.21051955600E+04  0.20999296149E+04 0.  0.
        2    1    3    3  502    0 -0.84620740626E+03  0.46377844406E+03 -0.34047976173E+03  0.10232711702E+04  0.25500000920E-02 0. -1.
       -2    1    3    3    0  502  0.84620740626E+03 -0.46377844406E+03  0.48928822355E+03  0.10819243898E+04  0.25500000920E-02 0.  1.
</event>
<event>
 5   0  0.3574927E-06  0.2100769E+04  0.7818609E-02  0.8560905E-01
       -2   -1    0    0    0  501  0.00000000000E+00  0.00000000000E+00  0.11174545313E+04  0.11174545313E+04  0.25500000920E-02 0.  1.
        2   -1    0    0  501    0  0.00000000000E+00  0.00000000000E+00 -0.98733993118E+03  0.98733993119E+03  0.25500000920E-02 0. -1.
    10030    2    1    2    0    0  0.00000000000E+00  0.00000000000E+00  0.13011460008E+03  0.21047944625E+04  0.21007688878E+04 0.  0.
        3    1    3    3  502    0 -0.73048038749E+03 -0.17676611856E+03 -0.67014690569E+03  0.10069482323E+04  0.10100000352E+00 0. -1.
       -3    1    3    3    0  502  0.73048038749E+03  0.17676611856E+03  0.80026150577E+03  0.10978462301E+04  0.10100000352E+00 0.  1.
</event>
<event>
 5   0  0.3547583E-06  0.2107069E+04  0.7818609E-02  0.8558136E-01
       -2   -1    0    0    0  501  0.00000000000E+00  0.00000000000E+00  0.51543897305E+03  0.51543897306E+03  0.25500000920E-02 0. -1.
        2   -1    0    0  501    0  0.00000000000E+00  0.00000000000E+00 -0.21533776257E+04  0.21533776257E+04  0.25500000920E-02 0.  1.
    10030    2    1    2    0    0  0.00000000000E+00  0.00000000000E+00 -0.16379386526E+04  0.26688165988E+04  0.21070688190E+04 0.  0.
        2    1    3    3  502    0 -0.35532200466E+03 -0.77582752365E+03 -0.16015739911E+04  0.18147179733E+04  0.25500000920E-02 0.  1.
       -2    1    3    3    0  502  0.35532200466E+03  0.77582752365E+03 -0.36364661517E+02  0.85409862549E+03  0.25500000920E-02 0. -1.
</event>
<event>
 5   0  0.1653260E-06  0.2093167E+04  0.7818609E-02  0.8564259E-01
        1   -1    0    0  501    0  0.00000000000E+00  0.00000000000E+00  0.10139390151E+04  0.10139390151E+04  0.50400001928E-02 0.  1.
       -1   -1    0    0    0  501  0.00000000000E+00  0.00000000000E+00 -0.10802793144E+04  0.10802793144E+04  0.50400001928E-02 0. -1.
    10030    2    1    2    0    0  0.00000000000E+00  0.00000000000E+00 -0.66340299317E+02  0.20942183295E+04  0.20931673073E+04 0.  0.
        3    1    3    3  502    0  0.36104668111E+03 -0.39024197915E+03 -0.93511813654E+03  0.10756809228E+04  0.10100000352E+00 0. -1.
       -3    1    3    3    0  502 -0.36104668111E+03  0.39024197915E+03  0.86877783722E+03  0.10185374067E+04  0.10100000352E+00 0.  1.
</event>
<event>
 5   0  0.1590067E-06  0.2103581E+04  0.7818609E-02  0.8559668E-01
       -1   -1    0    0    0  501  0.00000000000E+00  0.00000000000E+00  0.10593415297E+04  0.10593415297E+04  0.50400001928E-02 0. -1.
        1   -1    0    0  501    0  0.00000000000E+00  0.00000000000E+00 -0.10442930890E+04  0.10442930890E+04  0.50400001928E-02 0.  1.
    10030    2    1    2    0    0  0.00000000000E+00  0.00000000000E+00  0.15048440713E+02  0.21036346187E+04  0.21035807931E+04 0.  0.
        5    1    3    3  502    0  0.20863620667E+03  0.96884215108E+03 -0.34470172500E+03  0.10492976459E+04  0.46999998093E+01 0.  1.
       -5    1    3    3    0  502 -0.20863620667E+03 -0.96884215108E+03  0.35975016571E+03  0.10543369728E+04  0.46999998093E+01 0. -1.
</event>
<event>
 5   0  0.3705828E-06  0.2098414E+04  0.7818609E-02  0.8561942E-01
        2   -1    0    0  501    0  0.00000000000E+00  0.00000000000E+00  0.15294300057E+04  0.15294300057E+04  0.25500000920E-02 0. -1.
       -2   -1    0    0    0  501  0.00000000000E+00  0.00000000000E+00 -0.71976830148E+03  0.71976830148E+03  0.25500000920E-02 0.  1.
    10030    2    1    2    0    0  0.00000000000E+00  0.00000000000E+00  0.80966170418E+03  0.22491983071E+04  0.20984139128E+04 0.  0.
        5    1    3    3  502    0  0.97971788009E+03  0.12574661209E+03  0.78402238619E+03  0.12610997292E+04  0.46999998093E+01 0. -1.
       -5    1    3    3    0  502 -0.97971788009E+03 -0.12574661209E+03  0.25639317990E+02  0.98809857790E+03  0.46999998093E+01 0.  1.
</event>
<event>
 5   0  0.1590067E-06  0.2100689E+04  0.7818609E-02  0.8560940E-01
        1   -1    0    0  501    0  0.00000000000E+00  0.00000000000E+00  0.68868642467E+03  0.68868642469E+03  0.50400001928E-02 0.  1.
       -1   -1    0    0    0  501  0.00000000000E+00  0.00000000000E+00 -0.16019243210E+04  0.16019243210E+04  0.50400001928E-02 0. -1.
    10030    2    1    2    0    0  0.00000000000E+00  0.00000000000E+00 -0.91323789635E+03  0.22906107457E+04  0.21006889663E+04 0.  0.
        5    1    3    3  502    0 -0.39073567379E+03 -0.27879945047E+03  0.56208126352E+03  0.73916232124E+03  0.46999998093E+01 0.  1.
       -5    1    3    3    0  502  0.39073567379E+03  0.27879945047E+03 -0.14753191599E+04  0.15514484245E+04  0.46999998093E+01 0. -1.
</event>
<event>
 5   0  0.1579820E-06  0.2100247E+04  0.7818609E-02  0.8561135E-01
       -1   -1    0    0    0  501  0.00000000000E+00  0.00000000000E+00  0.62354244567E+03  0.62354244569E+03  0.50400001928E-02 0. -1.
        1   -1    0    0  501    0  0.00000000000E+00  0.00000000000E+00 -0.17685390241E+04  0.17685390241E+04  0.50400001928E-02 0.  1.
    10030    2    1    2    0    0  0.00000000000E+00  0.00000000000E+00 -0.11449965784E+04  0.23920814698E+04  0.21002467935E+04 0.  0.
        2    1    3    3  502    0 -0.45062114915E+03  0.65079268408E+03  0.21343560397E+03  0.81984467722E+03  0.25500000920E-02 0. -1.
       -2    1    3    3    0  502  0.45062114915E+03 -0.65079268408E+03 -0.13584321824E+04  0.15722367925E+04  0.25500000920E-02 0.  1.
</event>
<event>
 5   0  0.3705828E-06  0.2092685E+04  0.7818609E-02  0.8564473E-01
        2   -1    0    0  501    0  0.00000000000E+00  0.00000000000E+00  0.92801077939E+03  0.92801077940E+03  0.25500000920E-02 0. -1.
       -2   -1    0    0    0  501  0.00000000000E+00  0.00000000000E+00 -0.11797626215E+04  0.11797626215E+04  0.25500000920E-02 0.  1.
    10030    2    1    2    0    0  0.00000000000E+00  0.00000000000E+00 -0.25175184211E+03  0.21077734009E+04  0.20926848113E+04 0.  0.
        5    1    3    3  502    0  0.73982114437E+02 -0.66022554635E+03  0.68830832430E+03  0.95664077093E+03  0.46999998093E+01 0. -1.
       -5    1    3    3    0  502 -0.73982114437E+02  0.66022554635E+03 -0.94006016641E+03  0.11511326300E+04  0.46999998093E+01 0.  1.
</event>
<event>
 5   0  0.1615098E-06  0.2100049E+04  0.7818609E-02  0.8561222E-01
        1   -1    0    0  501    0  0.00000000000E+00  0.00000000000E+00  0.68619796619E+03  0.68619796621E+03  0.50400001928E-02 0. -1.
       -1   -1    0    0    0  501  0.00000000000E+00  0.00000000000E+00 -0.16067534644E+04  0.16067534644E+04  0.50400001928E-02 0.  1.
    10030    2    1    2    0    0  0.00000000000E+00  0.00000000000E+00 -0.92055549817E+03  0.22929514306E+04  0.21000485322E+04 0.  0.
        1    1    3    3  502    0  0.23482966882E+03  0.63806146295E+03  0.41340085083E+03  0.79571833418E+03  0.50400001928E-02 0. -1.
       -1    1    3    3    0  502 -0.23482966882E+03 -0.63806146295E+03 -0.13339563490E+04  0.14972330964E+04  0.50400001928E-02 0.  1.
</event>
<event>
 5   0  0.3574927E-06  0.2093826E+04  0.7818609E-02  0.8563968E-01
        2   -1    0    0  501    0  0.00000000000E+00  0.00000000000E+00  0.10027079789E+04  0.10027079789E+04  0.25500000920E-02 0.  1.
       -2   -1    0    0    0  501  0.00000000000E+00  0.00000000000E+00 -0.10930669727E+04  0.10930669727E+04  0.25500000920E-02 0. -1.
    10030    2    1    2    0    0  0.00000000000E+00  0.00000000000E+00 -0.90358993819E+02  0.20957749517E+04  0.20938261390E+04 0.  0.
        3    1    3    3  502    0  0.71103668867E+03  0.52211105885E+03  0.51913051528E+03  0.10235573421E+04  0.10100000352E+00 0.  1.
       -3    1    3    3    0  502 -0.71103668867E+03 -0.52211105885E+03 -0.60948950910E+03  0.10722176096E+04  0.10100000352E+00 0. -1.
</event>
<event>
 5   0  0.3480134E-06  0.2099987E+04  0.7818609E-02  0.8561249E-01
       -2   -1    0    0    0  501  0.00000000000E+00  0.00000000000E+00  0.53697153112E+03  0.53697153112E+03  0.25500000920E-02 0.  1.
        2   -1    0    0  501    0  0.00000000000E+00  0.00000000000E+00 -0.20531564163E+04  0.20531564163E+04  0.25500000920E-02 0. -1.
    10030    2    1    2    0    0  0.00000000000E+00  0.00000000000E+00 -0.15161848852E+04  0.25901279474E+04  0.20999871852E+04 0.  0.
        1    1    3    3  502    0 -0.11370880470E+03  0.71137424655E+03  0.18407115111E+03  0.74354905664E+03  0.50400001928E-02 0.  1.
       -1    1    3    3    0  502  0.11370880470E+03 -0.71137424655E+03 -0.17002560363E+04  0.18465788908E+04  0.50400001928E-02 0. -1.
</event>
<event>
 5   0  0.3574927E-06  0.2099254E+04  0.7818609E-02  0.8561572E-01
        2   -1    0    0  501    0  0.00000000000E+00  0.00000000000E+00  0.12547140823E+04  0.12547140823E+04  0.25500000920E-02 0.  1.
       -2   -1    0    0    0  501  0.00000000000E+00  0.00000000000E+00 -0.87806204550E+03  0.87806204551E+03  0.25500000920E-02 0. -1.
    10030    2    1    2    0    0  0.00000000000E+00  0.00000000000E+00  0.37665203683E+03  0.21327761278E+04  0.20992539757E+04 0.  0.
        3    1    3    3  502    0 -0.76144166280E+03 -0.14499179417E+03  0.90737113229E+03  0.11933727029E+04  0.10100000352E+00 0.  1.
       -3    1    3    3    0  502  0.76144166280E+03  0.14499179417E+03 -0.53071909546E+03  0.93940342490E+03  0.10100000352E+00 0. -1.
</event>
<event>
 5   0  0.1579820E-06  0.2099977E+04  0.7818609E-02  0.8561254E-01
       -1   -1    0    0    0  501  0.00000000000E+00  0.00000000000E+00  0.52642177410E+03  0.52642177413E+03  0.50400001928E-02 0. -1.
        1   -1    0    0  501    0  0.00000000000E+00  0.00000000000E+00 -0.20942820232E+04  0.20942820232E+04  0.50400001928E-02 0.  1.
    10030    2    1    2    0    0  0.00000000000E+00  0.00000000000E+00 -0.15678602491E+04  0.26207037973E+04  0.20999768172E+04 0.  0.
        2    1    3    3  502    0  0.61348229025E+03  0.38897044476E+03 -0.17300981966E+04  0.18764056857E+04  0.25500000920E-02 0.  1.
       -2    1    3    3    0  502 -0.61348229025E+03 -0.38897044476E+03  0.16223794754E+03  0.74429811162E+03  0.25500000920E-02 0. -1.
</event>
<event>
 5   0  0.3636435E-06  0.2101667E+04  0.7818609E-02  0.8560509E-01
       -2   -1    0    0    0  501  0.00000000000E+00  0.00000000000E+00  0.75790394666E+03  0.75790394666E+03  0.25500000920E-02 0.  1.
        2   -1    0    0  501    0  0.00000000000E+00  0.00000000000E+00 -0.14569799137E+04  0.14569799137E+04  0.25500000920E-02 0. -1.
    10030    2    1    2    0    0  0.00000000000E+00  0.00000000000E+00 -0.69907596706E+03  0.22148838604E+04  0.21016667926E+04 0.  0.
        4    1    3    3  502    0 -0.34244205535E+03 -0.13616774695E+03 -0.13866452554E+04  0.14347804340E+04  0.12699999809E+01 0. -1.
       -4    1    3    3    0  502  0.34244205535E+03  0.13616774695E+03  0.68756928837E+03  0.78010342634E+03  0.12699999809E+01 0.  1.
</event>
<event>
 5   0  0.1590067E-06  0.2100150E+04  0.7818609E-02  0.8561177E-01
        1   -1    0    0  501    0  0.00000000000E+00  0.00000000000E+00  0.19286005425E+04  0.19286005425E+04  0.50400001928E-02 0. -1.
       -1   -1    0    0    0  501  0.00000000000E+00  0.00000000000E+00 -0.57173989748E+03  0.57173989751E+03  0.50400001928E-02 0.  1.
    10030    2    1    2    0    0  0.00000000000E+00  0.00000000000E+00  0.13568606450E+04  0.25003404400E+04  0.21001503532E+04 0.  0.
        5    1    3    3  502    0  0.84850080417E+03  0.49192989476E+03  0.11249863689E+04  0.14925029502E+04  0.46999998093E+01 0. -1.
       -5    1    3    3    0  502 -0.84850080417E+03 -0.49192989476E+03  0.23187427610E+03  0.10078374898E+04  0.46999998093E+01 0.  1.
</event>
<event>
 5   0  0.1579820E-06  0.2102998E+04  0.7818609E-02  0.8559924E-01
        1   -1    0    0  501    0  0.00000000000E+00  0.00000000000E+00  0.10837813416E+04  0.10837813416E+04  0.50400001928E-02 0.  1.
       -1   -1    0    0    0  501  0.00000000000E+00  0.00000000000E+00 -0.10201780838E+04  0.10201780838E+04  0.50400001928E-02 0. -1.
    10030    2    1    2    0    0  0.00000000000E+00  0.00000000000E+00  0.63603257814E+02  0.21039594255E+04  0.21029978340E+04 0.  0.
        2    1    3    3  502    0  0.82280442489E+03 -0.64685685495E+03 -0.69333960348E+02  0.10489223567E+04  0.25500000920E-02 0.  1.
       -2    1    3    3    0  502 -0.82280442489E+03  0.64685685495E+03  0.13293721816E+03  0.10550370687E+04  0.25500000920E-02 0. -1.
</event>
<event>
 5   0  0.1257125E-06  0.2100671E+04  0.7818609E-02  0.8560948E-01
       -3   -1    0    0    0  501  0.00000000000E+00  0.00000000000E+00  0.97283656426E+03  0.97283656950E+03  0.10100000352E+00 0. -1.
        3   -1    0    0  501    0  0.00000000000E+00  0.00000000000E+00 -0.11340084928E+04  0.11340084973E+04  0.10100000352E+00 0.  1.
    10030    2    1    2    0    0  0.00000000000E+00  0.00000000000E+00 -0.16117192850E+03  0.21068450668E+04  0.21006712605E+04 0.  0.
        1    1    3    3  502    0 -0.68394425228E+03 -0.75618341597E+03  0.17236915660E+03  0.10340716730E+04  0.50400001928E-02 0.  1.
       -1    1    3    3    0  502  0.68394425228E+03  0.75618341597E+03 -0.33354108510E+03  0.10727733937E+04  0.50400001928E-02 0. -1.
</event>
<event>
 5   0  0.1579820E-06  0.2103286E+04  0.7818609E-02  0.8559797E-01
        1   -1    0    0  501    0  0.00000000000E+00  0.00000000000E+00  0.14630153080E+04  0.14630153080E+04  0.50400001928E-02 0.  1.
       -1   -1    0    0    0  501  0.00000000000E+00  0.00000000000E+00 -0.75594063138E+03  0.75594063140E+03  0.50400001928E-02 0. -1.
    10030    2    1    2    0    0  0.00000000000E+00  0.00000000000E+00  0.70707467658E+03  0.22189559394E+04  0.21032857301E+04 0.  0.
        2    1    3    3  502    0 -0.13549787162E+03 -0.36616322495E+03 -0.67664653122E+03  0.78120785245E+03  0.25500000920E-02 0. -1.
       -2    1    3    3    0  502  0.13549787162E+03  0.36616322495E+03  0.13837212078E+04  0.14377480869E+04  0.25500000920E-02 0.  1.
</event>
<event>
 5   0  0.1653260E-06  0.2099483E+04  0.7818609E-02  0.8561471E-01
        1   -1    0    0  501    0  0.00000000000E+00  0.00000000000E+00  0.12839214549E+04  0.12839214549E+04  0.50400001928E-02 0. -1.
       -1   -1    0    0    0  501  0.00000000000E+00  0.00000000000E+00 -0.85827503694E+03  0.85827503696E+03  0.50400001928E-02 0.  1.
    10030    2    1    2    0    0  0.00000000000E+00  0.00000000000E+00  0.42564641793E+03  0.21421964918E+04  0.20994834928E+04 0.  0.
        3    1    3    3  502    0  0.58949117061E+03 -0.71229666485E+03  0.72001895933E+03  0.11718761415E+04  0.10100000352E+00 0.  1.
       -3    1    3    3    0  502 -0.58949117061E+03  0.71229666485E+03 -0.29437254140E+03  0.97032035036E+03  0.10100000352E+00 0. -1.
</event>
<event>
 5   0  0.1590067E-06  0.2099818E+04  0.7818609E-02  0.8561323E-01
        1   -1    0    0  501    0  0.00000000000E+00  0.00000000000E+00  0.19678009184E+04  0.19678009184E+04  0.50400001928E-02 0.  1.
       -1   -1    0    0    0  501  0.00000000000E+00  0.00000000000E+00 -0.56017323456E+03  0.56017323458E+03  0.50400001928E-02 0. -1.
    10030    2    1    2    0    0  0.00000000000E+00  0.00000000000E+00  0.14076276839E+04  0.25279741530E+04  0.20998184736E+04 0.  0.
        5    1    3    3  502    0 -0.16948425448E+03 -0.85037954307E+03 -0.88479619053E+01  0.86716241629E+03  0.46999998093E+01 0. -1.
       -5    1    3    3    0  502  0.16948425448E+03  0.85037954307E+03  0.14164756458E+04  0.16608117367E+04  0.46999998093E+01 0.  1.
</event>
<event>
 5   0  0.3705828E-06  0.2100257E+04  0.7818609E-02  0.8561130E-01
        2   -1    0    0  501    0  0.00000000000E+00  0.00000000000E+00  0.15259002959E+04  0.15259002959E+04  0.25500000920E-02 0.  1.
       -2   -1    0    0    0  501  0.00000000000E+00  0.00000000000E+00 -0.72270111515E+03  0.72270111516E+03  0.25500000920E-02 0. -1.
    10030    2    1    2    0    0  0.00000000000E+00  0.00000000000E+00  0.80319918076E+03  0.22486014111E+04  0.21002569800E+04 0.  0.
        5    1    3    3  502    0 -0.53924702405E+03 -0.21416208300E+03  0.13386897070E+04  0.14590287771E+04  0.46999998093E+01 0.  1.
       -5    1    3    3    0  502  0.53924702405E+03  0.21416208300E+03 -0.53549052621E+03  0.78957263402E+03  0.46999998093E+01 0. -1.
</event>
<event>
 5   0  0.1615098E-06  0.2099927E+04  0.7818609E-02  0.8561275E-01
       -1   -1    0    0    0  501  0.00000000000E+00  0.00000000000E+00  0.53356978243E+03  0.53356978245E+03  0.50400001928E-02 0.  1.
        1   -1    0    0  501    0  0.00000000000E+00  0.00000000000E+00 -0.20661283423E+04  0.20661283423E+04  0.50400001928E-02 0. -1.
    10030    2    1    2    0    0  0.00000000000E+00  0.00000000000E+00 -0.15325585599E+04  0.25996981248E+04  0.20999272846E+04 0.  0.
        1    1    3    3  502    0 -0.14574795987E+03  0.50528604657E+03 -0.18913343258E+04  0.19630848144E+04  0.50400001928E-02 0. -1.
       -1    1    3    3    0  502  0.14574795987E+03 -0.50528604657E+03  0.35877576592E+03  0.63661331034E+03  0.50400001928E-02 0.  1.
</event>
<event>
 5   0  0.1590067E-06  0.2100148E+04  0.7818609E-02  0.8561178E-01
       -1   -1    0    0    0  501  0.00000000000E+00  0.00000000000E+00  0.93932009440E+03  0.93932009441E+03  0.50400001928E-02 0.  1.
        1   -1    0    0  501    0  0.00000000000E+00  0.00000000000E+00 -0.11738861986E+04  0.11738861986E+04  0.50400001928E-02 0. -1.
    10030    2    1    2    0    0  0.00000000000E+00  0.00000000000E+00 -0.23456610420E+03  0.21132062930E+04  0.21001475138E+04 0.  0.
        5    1    3    3  502    0  0.60122126016E+03  0.12590092492E+03  0.73966668913E+03  0.96148164183E+03  0.46999998093E+01 0. -1.
       -5    1    3    3    0  502 -0.60122126016E+03 -0.12590092492E+03 -0.97423279333E+03  0.11517246512E+04  0.46999998093E+01 0.  1.
</event>
<event>
 5   0  0.1646510E-06  0.2096404E+04  0.7818609E-02  0.8562829E-01
       -1   -1    0    0    0  501  0.00000000000E+00  0.00000000000E+00  0.98512979688E+03  0.98512979689E+03  0.50400001928E-02 0.  1.
        1   -1    0    0  501    0  0.00000000000E+00  0.00000000000E+00 -0.11153120945E+04  0.11153120945E+04  0.50400001928E-02 0. -1.
    10030    2    1    2    0    0  0.00000000000E+00  0.00000000000E+00 -0.13018229761E+03  0.21004418914E+04  0.20964037561E+04 0.  0.
        4    1    3    3  502    0  0.49797197070E+03 -0.64646088847E+03  0.59408021595E+03  0.10093664745E+04  0.12699999809E+01 0.  1.
       -4    1    3    3    0  502 -0.49797197070E+03  0.64646088847E+03 -0.72426251356E+03  0.10910754169E+04  0.12699999809E+01 0. -1.
</event>
<event>
 5   0  0.1579820E-06  0.2098834E+04  0.7818609E-02  0.8561757E-01
       -1   -1    0    0    0  501  0.00000000000E+00  0.00000000000E+00  0.13798322435E+04  0.13798322435E+04  0.50400001928E-02 0. -1.
        1   -1    0    0  501    0  0.00000000000E+00  0.00000000000E+00 -0.79812318849E+03  0.79812318851E+03  0.50400001928E-02 0.  1.
    10030    2    1    2    0    0  0.00000000000E+00  0.00000000000E+00  0.58170905500E+03  0.21779554320E+04  0.20988340666E+04 0.  0.
        2    1    3    3  502    0 -0.53900171406E+03  0.88502241910E+03  0.46290149982E+03  0.11349296580E+04  0.25500000920E-02 0. -1.
       -2    1    3    3    0  502  0.53900171406E+03 -0.88502241910E+03  0.11880755518E+03  0.10430257740E+04  0.25500000920E-02 0.  1.
</event>
<event>
 5   0  0.3547583E-06  0.2099926E+04  0.7818609E-02  0.8561276E-01
       -2   -1    0    0    0  501  0.00000000000E+00  0.00000000000E+00  0.91755237823E+03  0.91755237823E+03  0.25500000920E-02 0.  1.
        2   -1    0    0  501    0  0.00000000000E+00  0.00000000000E+00 -0.12014820522E+04  0.12014820522E+04  0.25500000920E-02 0. -1.
    10030    2    1    2    0    0  0.00000000000E+00  0.00000000000E+00 -0.28392967396E+03  0.21190344304E+04  0.20999263934E+04 0.  0.
        2    1    3    3  502    0  0.66156133662E+03 -0.20522538759E+03  0.65429185620E+03  0.95282668671E+03  0.25500000920E-02 0.  1.
       -2    1    3    3    0  502 -0.66156133662E+03  0.20522538759E+03 -0.93822153016E+03  0.11662077437E+04  0.25500000920E-02 0. -1.
</event>
<event>
 5   0  0.3574927E-06  0.2100349E+04  0.7818609E-02  0.8561090E-01
       -2   -1    0    0    0  501  0.00000000000E+00  0.00000000000E+00  0.52652437172E+03  0.52652437172E+03  0.25500000920E-02 0.  1.
        2   -1    0    0  501    0  0.00000000000E+00  0.00000000000E+00 -0.20946159884E+04  0.20946159884E+04  0.25500000920E-02 0. -1.
    10030    2    1    2    0    0  0.00000000000E+00  0.00000000000E+00 -0.15680916167E+04  0.26211403601E+04  0.21003488922E+04 0.  0.
        3    1    3    3  502    0  0.83192541781E+03 -0.60321658713E+03 -0.10542970431E+04  0.14722474035E+04  0.10100000352E+00 0. -1.
       -3    1    3    3    0  502 -0.83192541781E+03  0.60321658713E+03 -0.51379457361E+03  0.11488929567E+04  0.10100000352E+00 0.  1.
</event>
<event>
 5   0  0.3636435E-06  0.2100208E+04  0.7818609E-02  0.8561152E-01
       -2   -1    0    0    0  501  0.00000000000E+00  0.00000000000E+00  0.14783254564E+04  0.14783254564E+04  0.25500000920E-02 0.  1.
        2   -1    0    0  501    0  0.00000000000E+00  0.00000000000E+00 -0.74592372476E+03  0.74592372477E+03  0.25500000920E-02 0. -1.
    10030    2    1    2    0    0  0.00000000000E+00  0.00000000000E+00  0.73240173164E+03  0.22242491812E+04  0.21002076382E+04 0.  0.
        4    1    3    3  502    0 -0.90330869634E+03 -0.41092973358E+03  0.25761676896E+01  0.99239009284E+03  0.12699999809E+01 0.  1.
       -4    1    3    3    0  502  0.90330869634E+03  0.41092973358E+03  0.72982556395E+03  0.12318590883E+04  0.12699999809E+01 0. -1.
</event>
<event>
 5   0  0.1590067E-06  0.2099985E+04  0.7818609E-02  0.8561250E-01
       -1   -1    0    0    0  501  0.00000000000E+00  0.00000000000E+00  0.63085318026E+03  0.63085318028E+03  0.50400001928E-02 0. -1.
        1   -1    0    0  501    0  0.00000000000E+00  0.00000000000E+00 -0.17476080416E+04  0.17476080416E+04  0.50400001928E-02 0.  1.
    10030    2    1    2    0    0  0.00000000000E+00  0.00000000000E+00 -0.11167548613E+04  0.23784612219E+04  0.20999848485E+04 0.  0.
        5    1    3    3  502    0 -0.51900897593E+03 -0.78401982707E+03 -0.10876882839E+04  0.14377570377E+04  0.46999998093E+01 0.  1.
       -5    1    3    3    0  502  0.51900897593E+03  0.78401982707E+03 -0.29066577415E+02  0.94070418424E+03  0.46999998093E+01 0. -1.
</event>
<event>
 5   0  0.3480134E-06  0.2099947E+04  0.7818609E-02  0.8561267E-01
       -2   -1    0    0    0  501  0.00000000000E+00  0.00000000000E+00  0.45083429091E+03  0.45083429092E+03  0.25500000920E-02 0.  1.
        2   -1    0    0  501    0  0.00000000000E+00  0.00000000000E+00 -0.24453420251E+04  0.24453420251E+04  0.25500000920E-02 0. -1.
    10030    2    1    2    0    0  0.00000000000E+00  0.00000000000E+00 -0.19945077342E+04  0.28961763160E+04  0.20999467021E+04 0.  0.
        1    1    3    3  502    0 -0.34232066223E+03  0.22781042423E+02 -0.23658580837E+04  0.23906038743E+04  0.50400001928E-02 0. -1.
       -1    1    3    3    0  502  0.34232066223E+03 -0.22781042423E+02  0.37135034952E+03  0.50557244169E+03  0.50400001928E-02 0.  1.
</event>
<event>
 5   0  0.3705828E-06  0.2099270E+04  0.7818609E-02  0.8561565E-01
       -2   -1    0    0    0  501  0.00000000000E+00  0.00000000000E+00  0.71088833642E+03  0.71088833642E+03  0.25500000920E-02 0.  1.
        2   -1    0    0  501    0  0.00000000000E+00  0.00000000000E+00 -0.15497980586E+04  0.15497980586E+04  0.25500000920E-02 0. -1.
    10030    2    1    2    0    0  0.00000000000E+00  0.00000000000E+00 -0.83890972223E+03  0.22606863951E+04  0.20992697432E+04 0.  0.
        5    1    3    3  502    0  0.45336032578E+03  0.76926087763E+03 -0.10136155997E+04  0.13508281004E+04  0.46999998093E+01 0. -1.
       -5    1    3    3    0  502 -0.45336032578E+03 -0.76926087763E+03  0.17470587744E+03  0.90985829471E+03  0.46999998093E+01 0.  1.
</event>
<event>
 5   0  0.1646510E-06  0.2098445E+04  0.7818609E-02  0.8561929E-01
        1   -1    0    0  501    0  0.00000000000E+00  0.00000000000E+00  0.13663249747E+04  0.13663249747E+04  0.50400001928E-02 0. -1.
       -1   -1    0    0    0  501  0.00000000000E+00  0.00000000000E+00 -0.80571431677E+03  0.80571431679E+03  0.50400001928E-02 0.  1.
    10030    2    1    2    0    0  0.00000000000E+00  0.00000000000E+00  0.56061065796E+03  0.21720392915E+04  0.20984447513E+04 0.  0.
        4    1    3    3  502    0  0.14673323207E+03  0.60792440819E+03  0.11523262275E+04  0.13110911772E+04  0.12699999809E+01 0. -1.
       -4    1    3    3    0  502 -0.14673323207E+03 -0.60792440819E+03 -0.59171556952E+03  0.86094811434E+03  0.12699999809E+01 0.  1.
</event>
<event>
 5   0  0.1579820E-06  0.2099572E+04  0.7818609E-02  0.8561432E-01
        1   -1    0    0  501    0  0.00000000000E+00  0.00000000000E+00  0.96274669735E+03  0.96274669737E+03  0.50400001928E-02 0. -1.
       -1   -1    0    0    0  501  0.00000000000E+00  0.00000000000E+00 -0.11446947720E+04  0.11446947720E+04  0.50400001928E-02 0.  1.
    10030    2    1    2    0    0  0.00000000000E+00  0.00000000000E+00 -0.18194807461E+03  0.21074414693E+04  0.20995724433E+04 0.  0.
        2    1    3    3  502    0 -0.44726398527E+03 -0.74205297646E+03  0.50400673310E+03  0.10023524726E+04  0.25500000920E-02 0. -1.
       -2    1    3    3    0  502  0.44726398527E+03  0.74205297646E+03 -0.68595480770E+03  0.11050889967E+04  0.25500000920E-02 0.  1.
</event>
<event>
 5   0  0.1579820E-06  0.2099932E+04  0.7818609E-02  0.8561273E-01
       -1   -1    0    0    0  501  0.00000000000E+00  0.00000000000E+00  0.78225157452E+03  0.78225157454E+03  0.50400001928E-02 0.  1.
        1   -1    0    0  501    0  0.00000000000E+00  0.00000000000E+00 -0.14093023794E+04  0.14093023794E+04  0.50400001928E-02 0. -1.
    10030    2    1    2    0    0  0.00000000000E+00  0.00000000000E+00 -0.62705080488E+03  0.21915539539E+04  0.20999323849E+04 0.  0.
        2    1    3    3  502    0 -0.10605232728E+03 -0.20901546538E+03 -0.13816519762E+04  0.14013910033E+04  0.25500000920E-02 0. -1.
       -2    1    3    3    0  502  0.10605232728E+03  0.20901546538E+03  0.75460117127E+03  0.79016295065E+03  0.25500000920E-02 0.  1.
</event>
<event>
 5   0  0.1653260E-06  0.2100755E+04  0.7818609E-02  0.8560911E-01
        1   -1    0    0  501    0  0.00000000000E+00  0.00000000000E+00  0.12585607950E+04  0.12585607950E+04  0.50400001928E-02 0. -1.
       -1   -1    0    0    0  501  0.00000000000E+00  0.00000000000E+00 -0.87663088909E+03  0.87663088911E+03  0.50400001928E-02 0.  1.
    10030    2    1    2    0    0  0.00000000000E+00  0.00000000000E+00  0.38192990589E+03  0.21351916841E+04  0.21007553582E+04 0.  0.
        3    1    3    3  502    0 -0.73731850680E+03  0.30990648645E+03 -0.50108752352E+03  0.94380576775E+03  0.10100000352E+00 0.  1.
       -3    1    3    3    0  502  0.73731850680E+03 -0.30990648645E+03  0.88301742942E+03  0.11913859163E+04  0.10100000352E+00 0. -1.
</event>
<event>
 5   0  0.1579820E-06  0.2100025E+04  0.7818609E-02  0.8561232E-01
       -1   -1    0    0    0  501  0.00000000000E+00  0.00000000000E+00  0.12926077367E+04  0.12926077367E+04  0.50400001928E-02 0. -1.
        1   -1    0    0  501    0  0.00000000000E+00  0.00000000000E+00 -0.85294758199E+03  0.85294758200E+03  0.50400001928E-02 0.  1.
    10030    2    1    2    0    0  0.00000000000E+00  0.00000000000E+00  0.43966015469E+03  0.21455553187E+04  0.21000253746E+04 0.  0.
        2    1    3    3  502    0 -0.83401534275E+03  0.73670880784E+02  0.86722232722E+03  0.12054391546E+04  0.25500000920E-02 0. -1.
       -2    1    3    3    0  502  0.83401534275E+03 -0.73670880784E+02 -0.42756217253E+03  0.94011616410E+03  0.25500000920E-02 0.  1.
</event>
<event>
 5   0  0.3547583E-06  0.2104301E+04  0.7818609E-02  0.8559351E-01
        2   -1    0    0  501    0  0.00000000000E+00  0.00000000000E+00  0.30092111721E+04  0.30092111721E+04  0.25500000920E-02 0. -1.
       -2   -1    0    0    0  501  0.00000000000E+00  0.00000000000E+00 -0.36787738352E+03  0.36787738353E+03  0.25500000920E-02 0.  1.
    10030    2    1    2    0    0  0.00000000000E+00  0.00000000000E+00  0.26413337886E+04  0.33770885556E+04  0.21043010550E+04 0.  0.
        2    1    3    3  502    0 -0.74978616389E+03 -0.67051347902E+03  0.18159735575E+04  0.20759401674E+04  0.25500000920E-02 0. -1.
       -2    1    3    3    0  502  0.74978616389E+03  0.67051347902E+03  0.82536023107E+03  0.13011483882E+04  0.25500000920E-02 0.  1.
</event>
<event>
 5   0  0.3547583E-06  0.2100334E+04  0.7818609E-02  0.8561096E-01
       -2   -1    0    0    0  501  0.00000000000E+00  0.00000000000E+00  0.77489930858E+03  0.77489930858E+03  0.25500000920E-02 0.  1.
        2   -1    0    0  501    0  0.00000000000E+00  0.00000000000E+00 -0.14232183307E+04  0.14232183307E+04  0.25500000920E-02 0. -1.
    10030    2    1    2    0    0  0.00000000000E+00  0.00000000000E+00 -0.64831902212E+03  0.21981176393E+04  0.21003341643E+04 0.  0.
        2    1    3    3  502    0 -0.29909815314E+03 -0.24661743842E+03 -0.13455956523E+04  0.14003240788E+04  0.25500000920E-02 0. -1.
       -2    1    3    3    0  502  0.29909815314E+03  0.24661743842E+03  0.69727663019E+03  0.79779356049E+03  0.25500000920E-02 0.  1.
</event>
<event>
 5   0  0.3574927E-06  0.2100620E+04  0.7818609E-02  0.8560970E-01
        2   -1    0    0  501    0  0.00000000000E+00  0.00000000000E+00  0.82460215558E+03  0.82460215559E+03  0.25500000920E-02 0. -1.
       -2   -1    0    0    0  501  0.00000000000E+00  0.00000000000E+00 -0.13377977531E+04  0.13377977531E+04  0.25500000920E-02 0.  1.
    10030    2    1    2    0    0  0.00000000000E+00  0.00000000000E+00 -0.51319559754E+03  0.21623999087E+04  0.21006198237E+04 0.  0.
        3    1    3    3  502    0 -0.82542597346E+03 -0.64614664484E+03 -0.32423700689E+03  0.10972525558E+04  0.10100000352E+00 0.  1.
       -3    1    3    3    0  502  0.82542597346E+03  0.64614664484E+03 -0.18895859065E+03  0.10651473529E+04  0.10100000352E+00 0. -1.
</event>
<event>
 5   0  0.1615098E-06  0.2099770E+04  0.7818609E-02  0.8561345E-01
        1   -1    0    0  501    0  0.00000000000E+00  0.00000000000E+00  0.11408489198E+04  0.11408489198E+04  0.50400001928E-02 0. -1.
       -1   -1    0    0    0  501  0.00000000000E+00  0.00000000000E+00 -0.96617397231E+03  0.96617397233E+03  0.50400001928E-02 0.  1.
    10030    2    1    2    0    0  0.00000000000E+00  0.00000000000E+00  0.17467494751E+03  0.21070228922E+04  0.20997700185E+04 0.  0.
        1    1    3    3  502    0 -0.88479695187E+03 -0.25009681261E+03  0.59588627429E+03  0.10956708053E+04  0.50400001928E-02 0. -1.
       -1    1    3    3    0  502  0.88479695187E+03  0.25009681261E+03 -0.42121132678E+03  0.10113520868E+04  0.50400001928E-02 0.  1.
</event>
<event>
 5   0  0.1579820E-06  0.2100247E+04  0.7818609E-02  0.8561135E-01
       -1   -1    0    0    0  501  0.00000000000E+00  0.00000000000E+00  0.13689217310E+04  0.13689217310E+04  0.50400001928E-02 0. -1.
        1   -1    0    0  501    0  0.00000000000E+00  0.00000000000E+00 -0.80556749027E+03  0.80556749028E+03  0.50400001928E-02 0.  1.
    10030    2    1    2    0    0  0.00000000000E+00  0.00000000000E+00  0.56335424069E+03  0.21744892212E+04  0.21002465029E+04 0.  0.
        2    1    3    3  502    0 -0.74379388675E+03  0.48643842427E+02  0.10475301923E+04  0.12856574478E+04  0.25500000920E-02 0. -1.
       -2    1    3    3    0  502  0.74379388675E+03 -0.48643842427E+02 -0.48417595159E+03  0.88883177344E+03  0.25500000920E-02 0.  1.
</event>
<event>
 5   0  0.1579820E-06  0.2101012E+04  0.7818609E-02  0.8560798E-01
        1   -1    0    0  501    0  0.00000000000E+00  0.00000000000E+00  0.19070514466E+04  0.19070514466E+04  0.50400001928E-02 0. -1.
       -1   -1    0    0    0  501  0.00000000000E+00  0.00000000000E+00 -0.57867498195E+03  0.57867498197E+03  0.50400001928E-02 0.  1.
    10030    2    1    2    0    0  0.00000000000E+00  0.00000000000E+00  0.13283764646E+04  0.24857264285E+04  0.21010121003E+04 0.  0.
        2    1    3    3  502    0  0.73971278555E+03 -0.49613505552E+03  0.13231682509E+04  0.15950232659E+04  0.25500000920E-02 0. -1.
       -2    1    3    3    0  502 -0.73971278555E+03  0.49613505552E+03  0.52082136644E+01  0.89070316264E+03  0.25500000920E-02 0.  1.
</event>
<event>
 5   0  0.3574927E-06  0.2096902E+04  0.7818609E-02  0.8562609E-01
        2   -1    0    0  501    0  0.00000000000E+00  0.00000000000E+00  0.12006587011E+04  0.12006587011E+04  0.25500000920E-02 0. -1.
       -2   -1    0    0    0  501  0.00000000000E+00  0.00000000000E+00 -0.91553874914E+03  0.91553874914E+03  0.25500000920E-02 0.  1.
    10030    2    1    2    0    0  0.00000000000E+00  0.00000000000E+00  0.28511995199E+03  0.21161974503E+04  0.20969020629E+04 0.  0.
        3    1    3    3  502    0  0.47593910832E+03  0.82187600464E+03  0.59077667792E+03  0.11184879504E+04  0.10100000352E+00 0. -1.
       -3    1    3    3    0  502 -0.47593910832E+03 -0.82187600464E+03 -0.30565672593E+03  0.99770949987E+03  0.10100000352E+00 0.  1.
</event>
<event>
 5   0  0.3547583E-06  0.2098316E+04  0.7818609E-02  0.8561985E-01
       -2   -1    0    0    0  501  0.00000000000E+00  0.00000000000E+00  0.73863427731E+03  0.73863427731E+03  0.25500000920E-02 0. -1.
        2   -1    0    0  501    0  0.00000000000E+00  0.00000000000E+00 -0.14902273277E+04  0.14902273277E+04  0.25500000920E-02 0.  1.
    10030    2    1    2    0    0  0.00000000000E+00  0.00000000000E+00 -0.75159305034E+03  0.22288616050E+04  0.20983164539E+04 0.  0.
        2    1    3    3  502    0  0.53876073746E+03  0.86525396550E+02  0.57604653695E+03  0.79346038920E+03  0.25500000920E-02 0. -1.
       -2    1    3    3    0  502 -0.53876073746E+03 -0.86525396550E+02 -0.13276395873E+04  0.14354012158E+04  0.25500000920E-02 0.  1.
</event>
<event>
 5   0  0.3547583E-06  0.2099511E+04  0.7818609E-02  0.8561459E-01
        2   -1    0    0  501    0  0.00000000000E+00  0.00000000000E+00  0.88988944855E+03  0.88988944856E+03  0.25500000920E-02 0. -1.
       -2   -1    0    0    0  501  0.00000000000E+00  0.00000000000E+00 -0.12383405518E+04  0.12383405518E+04  0.25500000920E-02 0.  1.
    10030    2    1    2    0    0  0.00000000000E+00  0.00000000000E+00 -0.34845110327E+03  0.21282300004E+04  0.20995106009E+04 0.  0.
        2    1    3    3  502    0  0.40167825112E+03  0.65428393979E+02 -0.11551191316E+04  0.12247148649E+04  0.25500000920E-02 0.  1.
       -2    1    3    3    0  502 -0.40167825112E+03 -0.65428393979E+02  0.80666802831E+03  0.90351513549E+03  0.25500000920E-02 0. -1.
</event>
<event>
 5   0  0.1646510E-06  0.2094704E+04  0.7818609E-02  0.8563580E-01
       -1   -1    0    0    0  501  0.00000000000E+00  0.00000000000E+00  0.61089793350E+03  0.61089793352E+03  0.50400001928E-02 0. -1.
        1   -1    0    0  501    0  0.00000000000E+00  0.00000000000E+00 -0.17956297865E+04  0.17956297865E+04  0.50400001928E-02 0.  1.
    10030    2    1    2    0    0  0.00000000000E+00  0.00000000000E+00 -0.11847318530E+04  0.24065277200E+04  0.20947042998E+04 0.  0.
        4    1    3    3  502    0 -0.34270313166E+03  0.97836443980E+03 -0.76393733376E+03  0.12877283395E+04  0.12699999809E+01 0. -1.
       -4    1    3    3    0  502  0.34270313166E+03 -0.97836443980E+03 -0.42079451920E+03  0.11187993805E+04  0.12699999809E+01 0.  1.
</event>
<event>
 5   0  0.1257125E-06  0.2098916E+04  0.7818609E-02  0.8561721E-01
        3   -1    0    0  501    0  0.00000000000E+00  0.00000000000E+00  0.12154429683E+04  0.12154429725E+04  0.10100000352E+00 0.  1.
       -3   -1    0    0    0  501  0.00000000000E+00  0.00000000000E+00 -0.90614060100E+03  0.90614060663E+03  0.10100000352E+00 0. -1.
    10030    2    1    2    0    0  0.00000000000E+00  0.00000000000E+00  0.30930236727E+03  0.21215835791E+04  0.20989161319E+04 0.  0.
        2    1    3    3  502    0 -0.58096125797E+03  0.18069726062E+03 -0.70968280593E+03  0.93478188274E+03  0.25500000920E-02 0. -1.
       -2    1    3    3    0  502  0.58096125797E+03 -0.18069726062E+03  0.10189851732E+04  0.11868016964E+04  0.25500000920E-02 0.  1.
</event>
<event>
 5   0  0.3480134E-06  0.2099502E+04  0.7818609E-02  0.8561463E-01
       -2   -1    0    0    0  501  0.00000000000E+00  0.00000000000E+00  0.15134226951E+04  0.15134226951E+04  0.25500000920E-02 0. -1.
        2   -1    0    0  501    0  0.00000000000E+00  0.00000000000E+00 -0.72813546296E+03  0.72813546297E+03  0.25500000920E-02 0.  1.
    10030    2    1    2    0    0  0.00000000000E+00  0.00000000000E+00  0.78528723209E+03  0.22415581580E+04  0.20995015930E+04 0.  0.
        1    1    3    3  502    0  0.10161729046E+04  0.17581781385E+03  0.18326896749E+03  0.10474286564E+04  0.50400001928E-02 0.  1.
       -1    1    3    3    0  502 -0.10161729046E+04 -0.17581781385E+03  0.60201826461E+03  0.11941295016E+04  0.50400001928E-02 0. -1.
</event>
<event>
 5   0  0.3574927E-06  0.2097041E+04  0.7818609E-02  0.8562548E-01
        2   -1    0    0  501    0  0.00000000000E+00  0.00000000000E+00  0.15397041485E+04  0.15397041485E+04  0.25500000920E-02 0.  1.
       -2   -1    0    0    0  501  0.00000000000E+00  0.00000000000E+00 -0.71402996413E+03  0.71402996414E+03  0.25500000920E-02 0. -1.
    10030    2    1    2    0    0  0.00000000000E+00  0.00000000000E+00  0.82567418438E+03  0.22537341127E+04  0.20970406748E+04 0.  0.
        3    1    3    3  502    0  0.92379975916E+03 -0.15274729848E+03 -0.94286893772E+02  0.94107797804E+03  0.10100000352E+00 0.  1.
       -3    1    3    3    0  502 -0.92379975916E+03  0.15274729848E+03  0.91996107816E+03  0.13126561346E+04  0.10100000352E+00 0. -1.
</event>
<event>
 5   0  0.1579820E-06  0.2099726E+04  0.7818609E-02  0.8561364E-01
        1   -1    0    0  501    0  0.00000000000E+00  0.00000000000E+00  0.11488989206E+04  0.11488989206E+04  0.50400001928E-02 0.  1.
       -1   -1    0    0    0  501  0.00000000000E+00  0.00000000000E+00 -0.95936445847E+03  0.95936445848E+03  0.50400001928E-02 0. -1.
    10030    2    1    2    0    0  0.00000000000E+00  0.00000000000E+00  0.18953446211E+03  0.21082633791E+04  0.20997264496E+04 0.  0.
        2    1    3    3  502    0  0.19104116525E+03  0.30993258434E+03  0.10834828766E+04  0.11430179691E+04  0.25500000920E-02 0.  1.
       -2    1    3    3    0  502 -0.19104116525E+03 -0.30993258434E+03 -0.89394841454E+03  0.96524540999E+03  0.25500000920E-02 0. -1.
</event>
<event>
 5   0  0.3574927E-06  0.2103818E+04  0.7818609E-02  0.8559563E-01
       -2   -1    0    0    0  501  0.00000000000E+00  0.00000000000E+00  0.10742068156E+04  0.10742068156E+04  0.25500000920E-02 0.  1.
        2   -1    0    0  501    0  0.00000000000E+00  0.00000000000E+00 -0.10300741676E+04  0.10300741676E+04  0.25500000920E-02 0. -1.
    10030    2    1    2    0    0  0.00000000000E+00  0.00000000000E+00  0.44132648017E+02  0.21042809832E+04  0.21038181399E+04 0.  0.
        3    1    3    3  502    0  0.43827394945E+03 -0.59562669083E+03 -0.72620084069E+03  0.10364472398E+04  0.10100000352E+00 0. -1.
       -3    1    3    3    0  502 -0.43827394945E+03  0.59562669083E+03  0.77033348871E+03  0.10678337434E+04  0.10100000352E+00 0.  1.
</event>
<event>
 5   0  0.3547583E-06  0.2099761E+04  0.7818609E-02  0.8561349E-01
       -2   -1    0    0    0  501  0.00000000000E+00  0.00000000000E+00  0.76699771721E+03  0.76699771722E+03  0.25500000920E-02 0.  1.
        2   -1    0    0  501    0  0.00000000000E+00  0.00000000000E+00 -0.14370955066E+04  0.14370955066E+04  0.25500000920E-02 0. -1.
    10030    2    1    2    0    0  0.00000000000E+00  0.00000000000E+00 -0.67009778934E+03  0.22040932238E+04  0.20997609130E+04 0.  0.
        2    1    3    3  502    0  0.23187293707E-01  0.33967988022E+03 -0.13778208125E+04  0.14190745622E+04  0.25500000920E-02 0. -1.
       -2    1    3    3    0  502 -0.23187293707E-01 -0.33967988022E+03  0.70772302317E+03  0.78501866162E+03  0.25500000920E-02 0.  1.
</event>
<event>
 5   0  0.3705828E-06  0.2100117E+04  0.7818609E-02  0.8561192E-01
       -2   -1    0    0    0  501  0.00000000000E+00  0.00000000000E+00  0.66469817691E+03  0.66469817692E+03  0.25500000920E-02 0.  1.
        2   -1    0    0  501    0  0.00000000000E+00  0.00000000000E+00 -0.16588317163E+04  0.16588317163E+04  0.25500000920E-02 0. -1.
    10030    2    1    2    0    0  0.00000000000E+00  0.00000000000E+00 -0.99413353936E+03  0.23235298932E+04  0.21001165850E+04 0.  0.
        5    1    3    3  502    0 -0.95047565354E+03 -0.41282065259E+03 -0.68474593387E+03  0.12420643877E+04  0.46999998093E+01 0.  1.
       -5    1    3    3    0  502  0.95047565354E+03  0.41282065259E+03 -0.30938760549E+03  0.10814655055E+04  0.46999998093E+01 0. -1.
</event>
<event>
 5   0  0.1590067E-06  0.2098432E+04  0.7818609E-02  0.8561935E-01
        1   -1    0    0  501    0  0.00000000000E+00  0.00000000000E+00  0.12348627576E+04  0.12348627576E+04  0.50400001928E-02 0.  1.
       -1   -1    0    0    0  501  0.00000000000E+00  0.00000000000E+00 -0.89147867458E+03  0.89147867459E+03  0.50400001928E-02 0. -1.
    10030    2    1    2    0    0  0.00000000000E+00  0.00000000000E+00  0.34338408302E+03  0.21263414322E+04  0.20984316186E+04 0.  0.
        5    1    3    3  502    0  0.51760658045E+03 -0.12596182187E+03 -0.74423771998E+03  0.91525669980E+03  0.46999998093E+01 0. -1.
       -5    1    3    3    0  502 -0.51760658045E+03  0.12596182187E+03  0.10876218030E+04  0.12110847324E+04  0.46999998093E+01 0.  1.
</event>
<event>
 5   0  0.1590067E-06  0.2099584E+04  0.7818609E-02  0.8561427E-01
       -1   -1    0    0    0  501  0.00000000000E+00  0.00000000000E+00  0.90103642908E+03  0.90103642909E+03  0.50400001928E-02 0. -1.
        1   -1    0    0  501    0  0.00000000000E+00  0.00000000000E+00 -0.12231064700E+04  0.12231064700E+04  0.50400001928E-02 0.  1.
    10030    2    1    2    0    0  0.00000000000E+00  0.00000000000E+00 -0.32207004095E+03  0.21241428991E+04  0.20995842314E+04 0.  0.
        5    1    3    3  502    0  0.69120295283E+03  0.42580857125E+02 -0.95922910476E+03  0.11830964529E+04  0.46999998093E+01 0.  1.
       -5    1    3    3    0  502 -0.69120295283E+03 -0.42580857125E+02  0.63715906382E+03  0.94104644625E+03  0.46999998093E+01 0. -1.
</event>
<event>
 5   0  0.3480134E-06  0.2099935E+04  0.7818609E-02  0.8561272E-01
        2   -1    0    0  501    0  0.00000000000E+00  0.00000000000E+00  0.58695766708E+03  0.58695766709E+03  0.25500000920E-02 0. -1.
       -2   -1    0    0    0  501  0.00000000000E+00  0.00000000000E+00 -0.18782132599E+04  0.18782132599E+04  0.25500000920E-02 0.  1.
    10030    2    1    2    0    0  0.00000000000E+00  0.00000000000E+00 -0.12912555928E+04  0.24651709270E+04  0.20999349260E+04 0.  0.
        1    1    3    3  502    0 -0.93673450881E+03 -0.41525002732E+03 -0.37657670064E+03  0.10916566020E+04  0.50400001928E-02 0.  1.
       -1    1    3    3    0  502  0.93673450881E+03  0.41525002732E+03 -0.91467889220E+03  0.13735143250E+04  0.50400001928E-02 0. -1.
</event>
<event>
 5   0  0.1646510E-06  0.2099964E+04  0.7818609E-02  0.8561259E-01
       -1   -1    0    0    0  501  0.00000000000E+00  0.00000000000E+00  0.10164185674E+04  0.10164185674E+04  0.50400001928E-02 0.  1.
        1   -1    0    0  501    0  0.00000000000E+00  0.00000000000E+00 -0.10846540887E+04  0.10846540887E+04  0.50400001928E-02 0. -1.
    10030    2    1    2    0    0  0.00000000000E+00  0.00000000000E+00 -0.68235521310E+02  0.21010726561E+04  0.20999643378E+04 0.  0.
        4    1    3    3  502    0 -0.28048072787E+03  0.50010533608E+03 -0.91417630601E+03  0.10791175641E+04  0.12699999809E+01 0. -1.
       -4    1    3    3    0  502  0.28048072787E+03 -0.50010533608E+03  0.84594078470E+03  0.10219550920E+04  0.12699999809E+01 0.  1.
</event>
<event>
 5   0  0.3547583E-06  0.2100674E+04  0.7818609E-02  0.8560946E-01
        2   -1    0    0  501    0  0.00000000000E+00  0.00000000000E+00  0.14024072626E+04  0.14024072626E+04  0.25500000920E-02 0.  1.
       -2   -1    0    0    0  501  0.00000000000E+00  0.00000000000E+00 -0.78665309696E+03  0.78665309696E+03  0.25500000920E-02 0. -1.
    10030    2    1    2    0    0  0.00000000000E+00  0.00000000000E+00  0.61575416560E+03  0.21890603595E+04  0.21006741930E+04 0.  0.
        2    1    3    3  502    0  0.17570515080E+03  0.78145500714E+03  0.10159238462E+04  0.12936945117E+04  0.25500000920E-02 0.  1.
       -2    1    3    3    0  502 -0.17570515080E+03 -0.78145500714E+03 -0.40016968062E+03  0.89536584785E+03  0.25500000920E-02 0. -1.
</event>
<event>
 5   0  0.1615098E-06  0.2097702E+04  0.7818609E-02  0.8562256E-01
       -1   -1    0    0    0  501  0.00000000000E+00  0.00000000000E+00  0.63307261930E+03  0.63307261932E+03  0.50400001928E-02 0. -1.
        1   -1    0    0  501    0  0.00000000000E+00  0.00000000000E+00 -0.17376968237E+04  0.17376968237E+04  0.50400001928E-02 0.  1.
    10030    2    1    2    0    0  0.00000000000E+00  0.00000000000E+00 -0.11046242044E+04  0.23707694431E+04  0.20977018661E+04 0.  0.
        1    1    3    3  502    0 -0.65148123449E+02 -0.19794145737E+03 -0.17140652126E+04  0.17266860316E+04  0.50400001928E-02 0.  1.
       -1    1    3    3    0  502  0.65148123449E+02  0.19794145737E+03  0.60944100815E+03  0.64408341151E+03  0.50400001928E-02 0. -1.
</event>
<event>
 5   0  0.3636435E-06  0.2100208E+04  0.7818609E-02  0.8561152E-01
        2   -1    0    0  501    0  0.00000000000E+00  0.00000000000E+00  0.94623430972E+03  0.94623430972E+03  0.25500000920E-02 0.  1.
       -2   -1    0    0    0  501  0.00000000000E+00  0.00000000000E+00 -0.11653759155E+04  0.11653759155E+04  0.25500000920E-02 0. -1.
    10030    2    1    2    0    0  0.00000000000E+00  0.00000000000E+00 -0.21914160579E+03  0.21116102252E+04  0.21002082516E+04 0.  0.
        4    1    3    3  502    0 -0.85799994615E+03 -0.26209616103E+03 -0.65829812142E+03  0.11127516950E+04  0.12699999809E+01 0. -1.
       -4    1    3    3    0  502  0.85799994615E+03  0.26209616103E+03  0.43915651563E+03  0.99885853020E+03  0.12699999809E+01 0.  1.
</event>
<event>
 5   0  0.1646510E-06  0.2098718E+04  0.7818609E-02  0.8561808E-01
       -1   -1    0    0    0  501  0.00000000000E+00  0.00000000000E+00  0.62985099797E+03  0.62985099799E+03  0.50400001928E-02 0.  1.
        1   -1    0    0  501    0  0.00000000000E+00  0.00000000000E+00 -0.17482768018E+04  0.17482768018E+04  0.50400001928E-02 0. -1.
    10030    2    1    2    0    0  0.00000000000E+00  0.00000000000E+00 -0.11184258038E+04  0.23781277998E+04  0.20987175973E+04 0.  0.
        4    1    3    3  502    0  0.27177876322E+03 -0.29698040575E+03  0.53886986364E+03  0.67263913087E+03  0.12699999809E+01 0.  1.
       -4    1    3    3    0  502 -0.27177876322E+03  0.29698040575E+03 -0.16572956674E+04  0.17054886689E+04  0.12699999809E+01 0. -1.
</event>
<event>
 5   0  0.1257125E-06  0.2099359E+04  0.7818609E-02  0.8561526E-01
       -4   -1    0    0    0  501  0.00000000000E+00  0.00000000000E+00  0.10395323435E+04  0.10395331193E+04  0.12699999809E+01 0.  1.
        4   -1    0    0  501    0  0.00000000000E+00  0.00000000000E+00 -0.10599240405E+04  0.10599248014E+04  0.12699999809E+01 0. -1.
    10030    2    1    2    0    0  0.00000000000E+00  0.00000000000E+00 -0.20391697010E+02  0.20994579207E+04  0.20993588878E+04 0.  0.
        2    1    3    3  502    0  0.89844423227E+03 -0.67402792490E+02 -0.54881364308E+03  0.10549604683E+04  0.25500000920E-02 0. -1.
       -2    1    3    3    0  502 -0.89844423227E+03  0.67402792490E+02  0.52842194607E+03  0.10444974524E+04  0.25500000920E-02 0.  1.
</event>
<event>
 5   0  0.1646510E-06  0.2100558E+04  0.7818609E-02  0.8560997E-01
        1   -1    0    0  501    0  0.00000000000E+00  0.00000000000E+00  0.92541535570E+03  0.92541535571E+03  0.50400001928E-02 0. -1.
       -1   -1    0    0    0  501  0.00000000000E+00  0.00000000000E+00 -0.11919905025E+04  0.11919905025E+04  0.50400001928E-02 0.  1.
    10030    2    1    2    0    0  0.00000000000E+00  0.00000000000E+00 -0.26657514680E+03  0.21174058582E+04  0.21005583209E+04 0.  0.
        4    1    3    3  502    0  0.11661785312E+03 -0.52253581014E+03  0.77753094204E+03  0.94403356682E+03  0.12699999809E+01 0. -1.
       -4    1    3    3    0  502 -0.11661785312E+03  0.52253581014E+03 -0.10441060888E+04  0.11733722914E+04  0.12699999809E+01 0.  1.
</event>
<event>
 5   0  0.1590067E-06  0.2100299E+04  0.7818609E-02  0.8561112E-01
       -1   -1    0    0    0  501  0.00000000000E+00  0.00000000000E+00  0.10162433850E+04  0.10162433850E+04  0.50400001928E-02 0. -1.
        1   -1    0    0  501    0  0.00000000000E+00  0.00000000000E+00 -0.10851871528E+04  0.10851871528E+04  0.50400001928E-02 0.  1.
    10030    2    1    2    0    0  0.00000000000E+00  0.00000000000E+00 -0.68943767837E+02  0.21014305378E+04  0.21002992791E+04 0.  0.
        5    1    3    3  502    0  0.47696893213E+03 -0.74871609883E+02 -0.96754431707E+03  0.10813275247E+04  0.46999998093E+01 0.  1.
       -5    1    3    3    0  502 -0.47696893213E+03  0.74871609883E+02  0.89860054924E+03  0.10201030131E+04  0.46999998093E+01 0. -1.
</event>
<event>
 5   0  0.3480134E-06  0.2101279E+04  0.7818609E-02  0.8560680E-01
       -2   -1    0    0    0  501  0.00000000000E+00  0.00000000000E+00  0.11327920924E+04  0.11327920924E+04  0.25500000920E-02 0.  1.
        2   -1    0    0  501    0  0.00000000000E+00  0.00000000000E+00 -0.97444507869E+03  0.97444507870E+03  0.25500000920E-02 0. -1.
    10030    2    1    2    0    0  0.00000000000E+00  0.00000000000E+00  0.15834701369E+03  0.21072371711E+04  0.21012793052E+04 0.  0.
        1    1    3    3  502    0 -0.45811654671E+03  0.78170817380E+03 -0.45422295573E+03  0.10135368434E+04  0.50400001928E-02 0. -1.
       -1    1    3    3    0  502  0.45811654671E+03 -0.78170817380E+03  0.61256996941E+03  0.10937003277E+04  0.50400001928E-02 0.  1.
</event>
<event>
 5   0  0.1653260E-06  0.2099560E+04  0.7818609E-02  0.8561437E-01
        1   -1    0    0  501    0  0.00000000000E+00  0.00000000000E+00  0.17286661082E+04  0.17286661082E+04  0.50400001928E-02 0.  1.
       -1   -1    0    0    0  501  0.00000000000E+00  0.00000000000E+00 -0.63750765002E+03  0.63750765004E+03  0.50400001928E-02 0. -1.
    10030    2    1    2    0    0  0.00000000000E+00  0.00000000000E+00  0.10911584582E+04  0.23661737582E+04  0.20995598285E+04 0.  0.
        3    1    3    3  502    0  0.50441338367E+03 -0.78778937325E+03  0.10825176923E+04  0.14306954681E+04  0.10100000352E+00 0.  1.
       -3    1    3    3    0  502 -0.50441338367E+03  0.78778937325E+03  0.86407658978E+01  0.93547829011E+03  0.10100000352E+00 0. -1.
</event>
<event>
 5   0  0.3480134E-06  0.2099111E+04  0.7818609E-02  0.8561635E-01
       -2   -1    0    0    0  501  0.00000000000E+00  0.00000000000E+00  0.86058530579E+03  0.86058530580E+03  0.25500000920E-02 0.  1.
        2   -1    0    0  501    0  0.00000000000E+00  0.00000000000E+00 -0.12800208651E+04  0.12800208651E+04  0.25500000920E-02 0. -1.
    10030    2    1    2    0    0  0.00000000000E+00  0.00000000000E+00 -0.41943555931E+03  0.21406061709E+04  0.20991113812E+04 0.  0.
        1    1    3    3  502    0 -0.25892870615E+03 -0.34557171083E+02 -0.12463401396E+04  0.12734213821E+04  0.50400001928E-02 0. -1.
       -1    1    3    3    0  502  0.25892870615E+03  0.34557171083E+02  0.82690458028E+03  0.86718478875E+03  0.50400001928E-02 0.  1.
</event>
<event>
 5   0  0.1653260E-06  0.2096768E+04  0.7818609E-02  0.8562668E-01
        1   -1    0    0  501    0  0.00000000000E+00  0.00000000000E+00  0.11902498164E+04  0.11902498164E+04  0.50400001928E-02 0. -1.
       -1   -1    0    0    0  501  0.00000000000E+00  0.00000000000E+00 -0.92342704984E+03  0.92342704986E+03  0.50400001928E-02 0.  1.
    10030    2    1    2    0    0  0.00000000000E+00  0.00000000000E+00  0.26682276656E+03  0.21136768663E+04  0.20967678713E+04 0.  0.
        3    1    3    3  502    0 -0.53675564711E+03  0.10161297505E+03  0.10354329673E+04  0.11707063088E+04  0.10100000352E+00 0. -1.
       -3    1    3    3    0  502  0.53675564711E+03 -0.10161297505E+03 -0.76861020076E+03  0.94297055750E+03  0.10100000352E+00 0.  1.
</event>
<event>
 5   0  0.1590067E-06  0.2100324E+04  0.7818609E-02  0.8561101E-01
        1   -1    0    0  501    0  0.00000000000E+00  0.00000000000E+00  0.14716803643E+04  0.14716803643E+04  0.50400001928E-02 0.  1.
       -1   -1    0    0    0  501  0.00000000000E+00  0.00000000000E+00 -0.74937492952E+03  0.74937492954E+03  0.50400001928E-02 0. -1.
    10030    2    1    2    0    0  0.00000000000E+00  0.00000000000E+00  0.72230543482E+03  0.22210552939E+04  0.21003241363E+04 0.  0.
        5    1    3    3  502    0 -0.44283860916E+03  0.50852923006E+03  0.12124818560E+04  0.13873868793E+04  0.46999998093E+01 0.  1.
       -5    1    3    3    0  502  0.44283860916E+03 -0.50852923006E+03 -0.49017642122E+03  0.83366841460E+03  0.46999998093E+01 0. -1.
</event>
<event>
 5   0  0.3636435E-06  0.2100643E+04  0.7818609E-02  0.8560960E-01
       -2   -1    0    0    0  501  0.00000000000E+00  0.00000000000E+00  0.75979631023E+03  0.75979631023E+03  0.25500000920E-02 0.  1.
        2   -1    0    0  501    0  0.00000000000E+00  0.00000000000E+00 -0.14519349525E+04  0.14519349525E+04  0.25500000920E-02 0. -1.
    10030    2    1    2    0    0  0.00000000000E+00  0.00000000000E+00 -0.69213864227E+03  0.22117312627E+04  0.21006425870E+04 0.  0.
        4    1    3    3  502    0  0.22164408083E+03  0.80314560339E+03  0.32728569569E+03  0.89514607653E+03  0.12699999809E+01 0.  1.
       -4    1    3    3    0  502 -0.22164408083E+03 -0.80314560339E+03 -0.10194243380E+04  0.13165851862E+04  0.12699999809E+01 0. -1.
</event>
<event>
 5   0  0.3547583E-06  0.2100165E+04  0.7818609E-02  0.8561171E-01
        2   -1    0    0  501    0  0.00000000000E+00  0.00000000000E+00  0.12117871684E+04  0.12117871684E+04  0.25500000920E-02 0.  1.
       -2   -1    0    0    0  501  0.00000000000E+00  0.00000000000E+00 -0.90995597415E+03  0.90995597416E+03  0.25500000920E-02 0. -1.
    10030    2    1    2    0    0  0.00000000000E+00  0.00000000000E+00  0.30183119427E+03  0.21217431426E+04  0.21001647300E+04 0.  0.
        2    1    3    3  502    0  0.95989656998E+03 -0.70135622994E+02 -0.27334266568E+03  0.10005181875E+04  0.25500000920E-02 0. -1.
       -2    1    3    3    0  502 -0.95989656998E+03  0.70135622994E+02  0.57517385995E+03  0.11212249551E+04  0.25500000920E-02 0.  1.
</event>
<event>
 5   0  0.1646510E-06  0.2100571E+04  0.7818609E-02  0.8560992E-01
       -1   -1    0    0    0  501  0.00000000000E+00  0.00000000000E+00  0.11710601099E+04  0.11710601099E+04  0.50400001928E-02 0.  1.
        1   -1    0    0  501    0  0.00000000000E+00  0.00000000000E+00 -0.94196661156E+03  0.94196661157E+03  0.50400001928E-02 0. -1.
    10030    2    1    2    0    0  0.00000000000E+00  0.00000000000E+00  0.22909349832E+03  0.21130267215E+04  0.21005708973E+04 0.  0.
        4    1    3    3  502    0  0.46367246814E+03  0.84555835823E+03 -0.30401771872E+03  0.10111327712E+04  0.12699999809E+01 0. -1.
       -4    1    3    3    0  502 -0.46367246814E+03 -0.84555835823E+03  0.53311121704E+03  0.11018939502E+04  0.12699999809E+01 0.  1.
</event>
<event>
 5   0  0.3705828E-06  0.2098512E+04  0.7818609E-02  0.8561899E-01
        2   -1    0    0  501    0  0.00000000000E+00  0.00000000000E+00  0.29340180104E+04  0.29340180104E+04  0.25500000920E-02 0. -1.
       -2   -1    0    0    0  501  0.00000000000E+00  0.00000000000E+00 -0.37523223146E+03  0.37523223147E+03  0.25500000920E-02 0.  1.
    10030    2    1    2    0    0  0.00000000000E+00  0.00000000000E+00  0.25587857790E+04  0.33092502419E+04  0.20985119730E+04 0.  0.
        5    1    3    3  502    0  0.75682229287E+03  0.58623500033E+03  0.19566828648E+04  0.21783207711E+04  0.46999998093E+01 0. -1.
       -5    1    3    3    0  502 -0.75682229287E+03 -0.58623500033E+03  0.60210291418E+03  0.11309294708E+04  0.46999998093E+01 0.  1.
</event>
<event>
 5   0  0.1615098E-06  0.2099926E+04  0.7818609E-02  0.8561276E-01
        1   -1    0    0  501    0  0.00000000000E+00  0.00000000000E+00  0.10386559227E+04  0.10386559227E+04  0.50400001928E-02 0. -1.
       -1   -1    0    0    0  501  0.00000000000E+00  0.00000000000E+00 -0.10613931437E+04  0.10613931437E+04  0.50400001928E-02 0.  1.
    10030    2    1    2    0    0  0.00000000000E+00  0.00000000000E+00 -0.22737220964E+02  0.21000490664E+04  0.20999259749E+04 0.  0.
        1    1    3    3  502    0  0.72558730362E+03  0.74046926521E+03  0.15492585358E+03  0.10482240639E+04  0.50400001928E-02 0.  1.
       -1    1    3    3    0  502 -0.72558730362E+03 -0.74046926521E+03 -0.17766307455E+03  0.10518250025E+04  0.50400001928E-02 0. -1.
</event>
<event>
 5   0  0.3636435E-06  0.2099711E+04  0.7818609E-02  0.8561371E-01
        2   -1    0    0  501    0  0.00000000000E+00  0.00000000000E+00  0.10317910377E+04  0.10317910377E+04  0.25500000920E-02 0.  1.
       -2   -1    0    0    0  501  0.00000000000E+00  0.00000000000E+00 -0.10682365093E+04  0.10682365093E+04  0.25500000920E-02 0. -1.
    10030    2    1    2    0    0  0.00000000000E+00  0.00000000000E+00 -0.36445471624E+02  0.21000275470E+04  0.20997112720E+04 0.  0.
        4    1    3    3  502    0  0.91211860699E+03  0.49860463147E+03 -0.16531055983E+03  0.10525664472E+04  0.12699999809E+01 0. -1.
       -4    1    3    3    0  502 -0.91211860699E+03 -0.49860463147E+03  0.12886508820E+03  0.10474610998E+04  0.12699999809E+01 0.  1.
</event>
<event>
 5   0  0.1579820E-06  0.2100068E+04  0.7818609E-02  0.8561213E-01
        1   -1    0    0  501    0  0.00000000000E+00  0.00000000000E+00  0.91709453517E+03  0.91709453518E+03  0.50400001928E-02 0.  1.
       -1   -1    0    0    0  501  0.00000000000E+00  0.00000000000E+00 -0.12022439001E+04  0.12022439001E+04  0.50400001928E-02 0. -1.
    10030    2    1    2    0    0  0.00000000000E+00  0.00000000000E+00 -0.28514936492E+03  0.21193384353E+04  0.21000679139E+04 0.  0.
        2    1    3    3  502    0 -0.18821370081E+03 -0.77894437749E+03 -0.82732324312E+03  0.11517996740E+04  0.25500000920E-02 0. -1.
       -2    1    3    3    0  502  0.18821370081E+03  0.77894437749E+03  0.54217387820E+03  0.96753876129E+03  0.25500000920E-02 0.  1.
</event>
<event>
 5   0  0.1579820E-06  0.2100144E+04  0.7818609E-02  0.8561180E-01
        1   -1    0    0  501    0  0.00000000000E+00  0.00000000000E+00  0.86059136860E+03  0.86059136861E+03  0.50400001928E-02 0. -1.
       -1   -1    0    0    0  501  0.00000000000E+00  0.00000000000E+00 -0.12812714266E+04  0.12812714266E+04  0.50400001928E-02 0.  1.
    10030    2    1    2    0    0  0.00000000000E+00  0.00000000000E+00 -0.42068005797E+03  0.21418627952E+04  0.21001439289E+04 0.  0.
        2    1    3    3  502    0 -0.84144534235E+03 -0.36497243316E+03  0.31110515611E+03  0.96851513116E+03  0.25500000920E-02 0.  1.
       -2    1    3    3    0  502  0.84144534235E+03  0.36497243316E+03 -0.73178521408E+03  0.11733476640E+04  0.25500000920E-02 0. -1.
</event>
<event>
 5   0  0.3547583E-06  0.2098980E+04  0.7818609E-02  0.8561693E-01
        2   -1    0    0  501    0  0.00000000000E+00  0.00000000000E+00  0.22765865069E+04  0.22765865069E+04  0.25500000920E-02 0.  1.
       -2   -1    0    0    0  501  0.00000000000E+00  0.00000000000E+00 -0.48380725000E+03  0.48380725001E+03  0.25500000920E-02 0. -1.
    10030    2    1    2    0    0  0.00000000000E+00  0.00000000000E+00  0.17927792569E+04  0.27603937569E+04  0.20989798068E+04 0.  0.
        2    1    3    3  502    0  0.10661633599E+03 -0.83828271757E+03  0.77903641435E+02  0.84861883966E+03  0.25500000920E-02 0. -1.
       -2    1    3    3    0  502 -0.10661633599E+03  0.83828271757E+03  0.17148756155E+04  0.19117749172E+04  0.25500000920E-02 0.  1.
</event>
<event>
 5   0  0.1590067E-06  0.2100604E+04  0.7818609E-02  0.8560977E-01
        1   -1    0    0  501    0  0.00000000000E+00  0.00000000000E+00  0.10965782827E+04  0.10965782828E+04  0.50400001928E-02 0. -1.
       -1   -1    0    0    0  501  0.00000000000E+00  0.00000000000E+00 -0.10059789889E+04  0.10059789889E+04  0.50400001928E-02 0.  1.
    10030    2    1    2    0    0  0.00000000000E+00  0.00000000000E+00  0.90599293857E+02  0.21025572716E+04  0.21006044008E+04 0.  0.
        5    1    3    3  502    0 -0.34671378467E+03 -0.60853795428E+02 -0.94516514358E+03  0.10085994604E+04  0.46999998093E+01 0.  1.
       -5    1    3    3    0  502  0.34671378467E+03  0.60853795428E+02  0.10357644374E+04  0.10939578112E+04  0.46999998093E+01 0. -1.
</event>
<event>
 5   0  0.1646510E-06  0.2100349E+04  0.7818609E-02  0.8561090E-01
       -1   -1    0    0    0  501  0.00000000000E+00  0.00000000000E+00  0.15849151170E+04  0.15849151170E+04  0.50400001928E-02 0.  1.
        1   -1    0    0  501    0  0.00000000000E+00  0.00000000000E+00 -0.69585225741E+03  0.69585225743E+03  0.50400001928E-02 0. -1.
    10030    2    1    2    0    0  0.00000000000E+00  0.00000000000E+00  0.88906285962E+03  0.22807673745E+04  0.21003492681E+04 0.  0.
        4    1    3    3  502    0  0.87135392036E+02  0.70668788138E+03  0.12827617028E+04  0.14671331014E+04  0.12699999809E+01 0.  1.
       -4    1    3    3    0  502 -0.87135392036E+02 -0.70668788138E+03 -0.39369884318E+03  0.81363427304E+03  0.12699999809E+01 0. -1.
</event>
<event>
 5   0  0.1590067E-06  0.2100716E+04  0.7818609E-02  0.8560928E-01
       -1   -1    0    0    0  501  0.00000000000E+00  0.00000000000E+00  0.85126537408E+03  0.85126537410E+03  0.50400001928E-02 0. -1.
        1   -1    0    0  501    0  0.00000000000E+00  0.00000000000E+00 -0.12960139970E+04  0.12960139970E+04  0.50400001928E-02 0.  1.
    10030    2    1    2    0    0  0.00000000000E+00  0.00000000000E+00 -0.44474862288E+03  0.21472793711E+04  0.21007159160E+04 0.  0.
        5    1    3    3  502    0 -0.85860740640E+03 -0.48861982869E+03 -0.58703640418E+03  0.11491691978E+04  0.46999998093E+01 0.  1.
       -5    1    3    3    0  502  0.85860740640E+03  0.48861982869E+03  0.14228778130E+03  0.99811017329E+03  0.46999998093E+01 0. -1.
</event>
<event>
 5   0  0.3547583E-06  0.2100533E+04  0.7818609E-02  0.8561009E-01
       -2   -1    0    0    0  501  0.00000000000E+00  0.00000000000E+00  0.84262437169E+03  0.84262437170E+03  0.25500000920E-02 0.  1.
        2   -1    0    0  501    0  0.00000000000E+00  0.00000000000E+00 -0.13090760122E+04  0.13090760122E+04  0.25500000920E-02 0. -1.
    10030    2    1    2    0    0  0.00000000000E+00  0.00000000000E+00 -0.46645164047E+03  0.21517003839E+04  0.21005326489E+04 0.  0.
        2    1    3    3  502    0 -0.76278864947E+02  0.44424572569E+00 -0.13062346934E+04  0.13084600631E+04  0.25500000920E-02 0. -1.
       -2    1    3    3    0  502  0.76278864947E+02 -0.44424572569E+00  0.83978305290E+03  0.84324032075E+03  0.25500000920E-02 0.  1.
</event>
<event>
 5   0  0.3547583E-06  0.2099736E+04  0.7818609E-02  0.8561359E-01
        2   -1    0    0  501    0  0.00000000000E+00  0.00000000000E+00  0.12006971328E+04  0.12006971328E+04  0.25500000920E-02 0.  1.
       -2   -1    0    0    0  501  0.00000000000E+00  0.00000000000E+00 -0.91798614209E+03  0.91798614209E+03  0.25500000920E-02 0. -1.
    10030    2    1    2    0    0  0.00000000000E+00  0.00000000000E+00  0.28271099069E+03  0.21186832749E+04  0.20997364870E+04 0.  0.
        2    1    3    3  502    0 -0.63629086343E+03 -0.65333656975E+02 -0.69867620839E+03  0.94725022765E+03  0.25500000920E-02 0. -1.
       -2    1    3    3    0  502  0.63629086343E+03  0.65333656975E+02  0.98138719907E+03  0.11714330472E+04  0.25500000920E-02 0.  1.
</event>
<event>
 5   0  0.1615098E-06  0.2100378E+04  0.7818609E-02  0.8561077E-01
       -1   -1    0    0    0  501  0.00000000000E+00  0.00000000000E+00  0.80608287631E+03  0.80608287633E+03  0.50400001928E-02 0. -1.
        1   -1    0    0  501    0  0.00000000000E+00  0.00000000000E+00 -0.13682175523E+04  0.13682175523E+04  0.50400001928E-02 0.  1.
    10030    2    1    2    0    0  0.00000000000E+00  0.00000000000E+00 -0.56213467595E+03  0.21743004286E+04  0.21003778136E+04 0.  0.
        1    1    3    3  502    0 -0.63349898931E+02 -0.11318962520E+03  0.79775856577E+03  0.80823500928E+03  0.50400001928E-02 0. -1.
       -1    1    3    3    0  502  0.63349898931E+02  0.11318962520E+03 -0.13598932417E+04  0.13660654193E+04  0.50400001928E-02 0.  1.
</event>
<event>
 5   0  0.3574927E-06  0.2099639E+04  0.7818609E-02  0.8561402E-01
       -2   -1    0    0    0  501  0.00000000000E+00  0.00000000000E+00  0.65385561068E+03  0.65385561069E+03  0.25500000920E-02 0.  1.
        2   -1    0    0  501    0  0.00000000000E+00  0.00000000000E+00 -0.16855727880E+04  0.16855727880E+04  0.25500000920E-02 0. -1.
    10030    2    1    2    0    0  0.00000000000E+00  0.00000000000E+00 -0.10317171773E+04  0.23394283986E+04  0.20996392306E+04 0.  0.
        3    1    3    3  502    0 -0.73487147738E+03  0.45852980389E+03 -0.11767573461E+04  0.14611788156E+04  0.10100000352E+00 0.  1.
       -3    1    3    3    0  502  0.73487147738E+03 -0.45852980389E+03  0.14504016885E+03  0.87824958303E+03  0.10100000352E+00 0. -1.
</event>
<event>
 5   0  0.3574927E-06  0.2095257E+04  0.7818609E-02  0.8563336E-01
       -2   -1    0    0    0  501  0.00000000000E+00  0.00000000000E+00  0.61510539950E+03  0.61510539951E+03  0.25500000920E-02 0. -1.
        2   -1    0    0  501    0  0.00000000000E+00  0.00000000000E+00 -0.17842876228E+04  0.17842876228E+04  0.25500000920E-02 0.  1.
    10030    2    1    2    0    0  0.00000000000E+00  0.00000000000E+00 -0.11691822233E+04  0.23993930223E+04  0.20952565008E+04 0.  0.
        3    1    3    3  502    0  0.84325138852E+03  0.54159727529E+03 -0.23513229344E+03  0.10294113456E+04  0.10100000352E+00 0.  1.
       -3    1    3    3    0  502 -0.84325138852E+03 -0.54159727529E+03 -0.93404992988E+03  0.13699816767E+04  0.10100000352E+00 0. -1.
</event>
<event>
 5   0  0.3636435E-06  0.2099236E+04  0.7818609E-02  0.8561580E-01
       -2   -1    0    0    0  501  0.00000000000E+00  0.00000000000E+00  0.48761956183E+03  0.48761956183E+03  0.25500000920E-02 0. -1.
        2   -1    0    0  501    0  0.00000000000E+00  0.00000000000E+00 -0.22593383638E+04  0.22593383638E+04  0.25500000920E-02 0.  1.
    10030    2    1    2    0    0  0.00000000000E+00  0.00000000000E+00 -0.17717188020E+04  0.27469579257E+04  0.20992356542E+04 0.  0.
        4    1    3    3  502    0 -0.10190086975E+04  0.17310774153E+03 -0.11248302607E+04  0.15276091595E+04  0.12699999809E+01 0.  1.
       -4    1    3    3    0  502  0.10190086975E+04 -0.17310774153E+03 -0.64688854127E+03  0.12193487662E+04  0.12699999809E+01 0. -1.
</event>
<event>
 5   0  0.1646510E-06  0.2100784E+04  0.7818609E-02  0.8560898E-01
       -1   -1    0    0    0  501  0.00000000000E+00  0.00000000000E+00  0.93512875649E+03  0.93512875651E+03  0.50400001928E-02 0.  1.
        1   -1    0    0  501    0  0.00000000000E+00  0.00000000000E+00 -0.11798619425E+04  0.11798619426E+04  0.50400001928E-02 0. -1.
    10030    2    1    2    0    0  0.00000000000E+00  0.00000000000E+00 -0.24473318605E+03  0.21149906991E+04  0.21007835026E+04 0.  0.
        4    1    3    3  502    0  0.10438554667E+04 -0.60969407090E+02 -0.21842880367E+02  0.10458633889E+04  0.12699999809E+01 0.  1.
       -4    1    3    3    0  502 -0.10438554667E+04  0.60969407090E+02 -0.22289030568E+03  0.10691273101E+04  0.12699999809E+01 0. -1.
</event>
<event>
 5   0  0.1646510E-06  0.2100075E+04  0.7818609E-02  0.8561210E-01
       -1   -1    0    0    0  501  0.00000000000E+00  0.00000000000E+00  0.51345215799E+03  0.51345215802E+03  0.50400001928E-02 0. -1.
        1   -1    0    0  501    0  0.00000000000E+00  0.00000000000E+00 -0.21473842921E+04  0.21473842921E+04  0.50400001928E-02 0.  1.
    10030    2    1    2    0    0  0.00000000000E+00  0.00000000000E+00 -0.16339321341E+04  0.26608364501E+04  0.21000753309E+04 0.  0.
        4    1    3    3  502    0 -0.21787612316E+03  0.63468037763E+03  0.20633423397E+03  0.70204317231E+03  0.12699999809E+01 0. -1.
       -4    1    3    3    0  502  0.21787612316E+03 -0.63468037763E+03 -0.18402663681E+04  0.19587932778E+04  0.12699999809E+01 0.  1.
</event>
<event>
 5   0  0.3705828E-06  0.2099464E+04  0.7818609E-02  0.8561480E-01
       -2   -1    0    0    0  501  0.00000000000E+00  0.00000000000E+00  0.46475183721E+03  0.46475183721E+03  0.25500000920E-02 0. -1.
        2   -1    0    0  501    0  0.00000000000E+00  0.00000000000E+00 -0.23710219777E+04  0.23710219777E+04  0.25500000920E-02 0.  1.
    10030    2    1    2    0    0  0.00000000000E+00  0.00000000000E+00 -0.19062701405E+04  0.28357738149E+04  0.20994635698E+04 0.  0.
        5    1    3    3  502    0  0.76738146795E+03 -0.44954887598E+03 -0.19994274440E+03  0.91157429773E+03  0.46999998093E+01 0. -1.
       -5    1    3    3    0  502 -0.76738146795E+03  0.44954887598E+03 -0.17063273961E+04  0.19241995171E+04  0.46999998093E+01 0.  1.
</event>
<event>
 5   0  0.1646510E-06  0.2101019E+04  0.7818609E-02  0.8560795E-01
       -1   -1    0    0    0  501  0.00000000000E+00  0.00000000000E+00  0.82536267723E+03  0.82536267725E+03  0.50400001928E-02 0. -1.
        1   -1    0    0  501    0  0.00000000000E+00  0.00000000000E+00 -0.13370730461E+04  0.13370730461E+04  0.50400001928E-02 0.  1.
    10030    2    1    2    0    0  0.00000000000E+00  0.00000000000E+00 -0.51171036890E+03  0.21624357234E+04  0.21010189804E+04 0.  0.
        4    1    3    3  502    0 -0.13718040332E+03  0.41710619696E+03  0.72638612266E+03  0.84878410370E+03  0.12699999809E+01 0. -1.
       -4    1    3    3    0  502  0.13718040332E+03 -0.41710619696E+03 -0.12380964916E+04  0.13136516197E+04  0.12699999809E+01 0.  1.
</event>
<event>
 5   0  0.3574927E-06  0.2096637E+04  0.7818609E-02  0.8562726E-01
       -2   -1    0    0    0  501  0.00000000000E+00  0.00000000000E+00  0.69920683400E+03  0.69920683400E+03  0.25500000920E-02 0.  1.
        2   -1    0    0  501    0  0.00000000000E+00  0.00000000000E+00 -0.15717403266E+04  0.15717403266E+04  0.25500000920E-02 0. -1.
    10030    2    1    2    0    0  0.00000000000E+00  0.00000000000E+00 -0.87253349264E+03  0.22709471606E+04  0.20966369048E+04 0.  0.
        3    1    3    3  502    0 -0.74823116682E+03 -0.42453831750E+03 -0.10851458969E+04  0.13847831201E+04  0.10100000352E+00 0.  1.
       -3    1    3    3    0  502  0.74823116682E+03  0.42453831750E+03  0.21261240429E+03  0.88616404050E+03  0.10100000352E+00 0. -1.
</event>
<event>
 5   0  0.3574927E-06  0.2100619E+04  0.7818609E-02  0.8560971E-01
       -2   -1    0    0    0  501  0.00000000000E+00  0.00000000000E+00  0.80109901889E+03  0.80109901889E+03  0.25500000920E-02 0.  1.
        2   -1    0    0  501    0  0.00000000000E+00  0.00000000000E+00 -0.13770451734E+04  0.13770451734E+04  0.25500000920E-02 0. -1.
    10030    2    1    2    0    0  0.00000000000E+00  0.00000000000E+00 -0.57594615452E+03  0.21781441923E+04  0.21006185160E+04 0.  0.
        3    1    3    3  502    0 -0.19744844755E+03 -0.61064024431E+03 -0.11500918506E+04  0.13170340438E+04  0.10100000352E+00 0. -1.
       -3    1    3    3    0  502  0.19744844755E+03  0.61064024431E+03  0.57414569607E+03  0.86111014855E+03  0.10100000352E+00 0.  1.
</event>
<event>
 5   0  0.1646510E-06  0.2100527E+04  0.7818609E-02  0.8561011E-01
        1   -1    0    0  501    0  0.00000000000E+00  0.00000000000E+00  0.21066351071E+04  0.21066351071E+04  0.50400001928E-02 0. -1.
       -1   -1    0    0    0  501  0.00000000000E+00  0.00000000000E+00 -0.52360936228E+03  0.52360936231E+03  0.50400001928E-02 0.  1.
    10030    2    1    2    0    0  0.00000000000E+00  0.00000000000E+00  0.15830257448E+04  0.26302444694E+04  0.21005274243E+04 0.  0.
        4    1    3    3  502    0  0.39074244872E+03  0.70172357143E+03  0.16388962311E+04  0.18251241331E+04  0.12699999809E+01 0. -1.
       -4    1    3    3    0  502 -0.39074244872E+03 -0.70172357143E+03 -0.55870486230E+02  0.80512033639E+03  0.12699999809E+01 0.  1.
</event>
<event>
 5   0  0.1653260E-06  0.2099863E+04  0.7818609E-02  0.8561304E-01
       -1   -1    0    0    0  501  0.00000000000E+00  0.00000000000E+00  0.81752659878E+03  0.81752659880E+03  0.50400001928E-02 0. -1.
        1   -1    0    0  501    0  0.00000000000E+00  0.00000000000E+00 -0.13484042107E+04  0.13484042107E+04  0.50400001928E-02 0.  1.
    10030    2    1    2    0    0  0.00000000000E+00  0.00000000000E+00 -0.53087761188E+03  0.21659308095E+04  0.20998631462E+04 0.  0.
        3    1    3    3  502    0 -0.29470163209E+03 -0.59441599426E+03  0.57390635592E+03  0.87723881683E+03  0.10100000352E+00 0. -1.
       -3    1    3    3    0  502  0.29470163209E+03  0.59441599426E+03 -0.11047839678E+04  0.12886919926E+04  0.10100000352E+00 0.  1.
</event>
<event>
 5   0  0.1646510E-06  0.2100550E+04  0.7818609E-02  0.8561001E-01
        1   -1    0    0  501    0  0.00000000000E+00  0.00000000000E+00  0.13108717525E+04  0.13108717525E+04  0.50400001928E-02 0. -1.
       -1   -1    0    0    0  501  0.00000000000E+00  0.00000000000E+00 -0.84148394871E+03  0.84148394873E+03  0.50400001928E-02 0.  1.
    10030    2    1    2    0    0  0.00000000000E+00  0.00000000000E+00  0.46938780383E+03  0.21523557013E+04  0.21005499648E+04 0.  0.
        4    1    3    3  502    0  0.39900449570E+03 -0.83880574122E+03  0.73696300828E+03  0.11857131810E+04  0.12699999809E+01 0. -1.
       -4    1    3    3    0  502 -0.39900449570E+03  0.83880574122E+03 -0.26757520446E+03  0.96664252029E+03  0.12699999809E+01 0.  1.
</event>
<event>
 5   0  0.3705828E-06  0.2100691E+04  0.7818609E-02  0.8560939E-01
       -2   -1    0    0    0  501  0.00000000000E+00  0.00000000000E+00  0.64687006647E+03  0.64687006648E+03  0.25500000920E-02 0.  1.
        2   -1    0    0  501    0  0.00000000000E+00  0.00000000000E+00 -0.17054823752E+04  0.17054823752E+04  0.25500000920E-02 0. -1.
    10030    2    1    2    0    0  0.00000000000E+00  0.00000000000E+00 -0.10586123088E+04  0.23523524417E+04  0.21006908363E+04 0.  0.
        5    1    3    3  502    0 -0.36653806355E+03  0.23942943947E+03  0.53981019329E+03  0.69504945385E+03  0.46999998093E+01 0.  1.
       -5    1    3    3    0  502  0.36653806355E+03 -0.23942943947E+03 -0.15984225020E+04  0.16573029879E+04  0.46999998093E+01 0. -1.
</event>
<event>
 5   0  0.1646510E-06  0.2098329E+04  0.7818609E-02  0.8561980E-01
       -1   -1    0    0    0  501  0.00000000000E+00  0.00000000000E+00  0.10584925995E+04  0.10584925995E+04  0.50400001928E-02 0. -1.
        1   -1    0    0  501    0  0.00000000000E+00  0.00000000000E+00 -0.10399184178E+04  0.10399184178E+04  0.50400001928E-02 0.  1.
    10030    2    1    2    0    0  0.00000000000E+00  0.00000000000E+00  0.18574181648E+02  0.20984110173E+04  0.20983288106E+04 0.  0.
        4    1    3    3  502    0 -0.74236593228E+03 -0.24132857325E+03  0.71031218505E+03  0.10554106645E+04  0.12699999809E+01 0. -1.
       -4    1    3    3    0  502  0.74236593228E+03  0.24132857325E+03 -0.69173800341E+03  0.10430003528E+04  0.12699999809E+01 0.  1.
</event>
<event>
 5   0  0.1257125E-06  0.2100133E+04  0.7818609E-02  0.8561185E-01
        3   -1    0    0  501    0  0.00000000000E+00  0.00000000000E+00  0.16456579851E+04  0.16456579882E+04  0.10100000352E+00 0. -1.
       -3   -1    0    0    0  501  0.00000000000E+00  0.00000000000E+00 -0.67002986746E+03  0.67002987508E+03  0.10100000352E+00 0.  1.
    10030    2    1    2    0    0  0.00000000000E+00  0.00000000000E+00  0.97562811768E+03  0.23156878633E+04  0.21001333425E+04 0.  0.
        5    1    3    3  502    0 -0.39849851075E+03  0.90244614368E+03  0.88446949255E+03  0.13249598026E+04  0.46999998093E+01 0. -1.
       -5    1    3    3    0  502  0.39849851075E+03 -0.90244614368E+03  0.91158625132E+02  0.99072806070E+03  0.46999998093E+01 0.  1.
</event>
<event>
 5   0  0.1579820E-06  0.2100277E+04  0.7818609E-02  0.8561122E-01
       -1   -1    0    0    0  501  0.00000000000E+00  0.00000000000E+00  0.51047852697E+03  0.51047852700E+03  0.50400001928E-02 0. -1.
        1   -1    0    0  501    0  0.00000000000E+00  0.00000000000E+00 -0.21603071624E+04  0.21603071624E+04  0.50400001928E-02 0.  1.
    10030    2    1    2    0    0  0.00000000000E+00  0.00000000000E+00 -0.16498286354E+04  0.26707856894E+04  0.21002765705E+04 0.  0.
        2    1    3    3  502    0 -0.16298777308E+03 -0.62534101288E+03 -0.18775134242E+04  0.19856165427E+04  0.25500000920E-02 0.  1.
       -2    1    3    3    0  502  0.16298777308E+03  0.62534101288E+03  0.22768478877E+03  0.68516914671E+03  0.25500000920E-02 0. -1.
</event>
<event>
 5   0  0.1590067E-06  0.2099377E+04  0.7818609E-02  0.8561518E-01
        1   -1    0    0  501    0  0.00000000000E+00  0.00000000000E+00  0.18179274059E+04  0.18179274059E+04  0.50400001928E-02 0. -1.
       -1   -1    0    0    0  501  0.00000000000E+00  0.00000000000E+00 -0.60609984513E+03  0.60609984516E+03  0.50400001928E-02 0.  1.
    10030    2    1    2    0    0  0.00000000000E+00  0.00000000000E+00  0.12118275607E+04  0.24240272510E+04  0.20993765924E+04 0.  0.
        5    1    3    3  502    0 -0.18403448948E+03  0.22998298248E+03  0.17692186679E+04  0.17935767757E+04  0.46999998093E+01 0. -1.
       -5    1    3    3    0  502  0.18403448948E+03 -0.22998298248E+03 -0.55739110714E+03  0.63045047534E+03  0.46999998093E+01 0.  1.
</event>
<event>
 5   0  0.3547583E-06  0.2100784E+04  0.7818609E-02  0.8560898E-01
        2   -1    0    0  501    0  0.00000000000E+00  0.00000000000E+00  0.14851869198E+04  0.14851869198E+04  0.25500000920E-02 0.  1.
       -2   -1    0    0    0  501  0.00000000000E+00  0.00000000000E+00 -0.74288485223E+03  0.74288485223E+03  0.25500000920E-02 0. -1.
    10030    2    1    2    0    0  0.00000000000E+00  0.00000000000E+00  0.74230206757E+03  0.22280717720E+04  0.21007835352E+04 0.  0.
        2    1    3    3  502    0 -0.51176261594E+03  0.28178314867E+02  0.13435618132E+04  0.14380032470E+04  0.25500000920E-02 0.  1.
       -2    1    3    3    0  502  0.51176261594E+03 -0.28178314867E+02 -0.60125974564E+03  0.79006852502E+03  0.25500000920E-02 0. -1.
</event>
<event>
 5   0  0.3636435E-06  0.2100430E+04  0.7818609E-02  0.8561054E-01
       -2   -1    0    0    0  501  0.00000000000E+00  0.00000000000E+00  0.94966400109E+03  0.94966400110E+03  0.25500000920E-02 0. -1.
        2   -1    0    0  501    0  0.00000000000E+00  0.00000000000E+00 -0.11614128727E+04  0.11614128727E+04  0.25500000920E-02 0.  1.
    10030    2    1    2    0    0  0.00000000000E+00  0.00000000000E+00 -0.21174887157E+03  0.21110768738E+04  0.21004304279E+04 0.  0.
        4    1    3    3  502    0  0.44595467377E+02  0.63386970416E+03 -0.94627705265E+03  0.11398339488E+04  0.12699999809E+01 0.  1.
       -4    1    3    3    0  502 -0.44595467377E+02 -0.63386970416E+03  0.73452818108E+03  0.97124292496E+03  0.12699999809E+01 0. -1.
</event>
<event>
 5   0  0.3574927E-06  0.2100106E+04  0.7818609E-02  0.8561197E-01
       -2   -1    0    0    0  501  0.00000000000E+00  0.00000000000E+00  0.79782726070E+03  0.79782726071E+03  0.25500000920E-02 0. -1.
        2   -1    0    0  501    0  0.00000000000E+00  0.00000000000E+00 -0.13820175861E+04  0.13820175861E+04  0.25500000920E-02 0.  1.
    10030    2    1    2    0    0  0.00000000000E+00  0.00000000000E+00 -0.58419032544E+03  0.21798448469E+04  0.21001060021E+04 0.  0.
        3    1    3    3  502    0  0.65449066016E+03 -0.40219221916E+03 -0.10351640061E+04  0.12890621145E+04  0.10100000352E+00 0.  1.
       -3    1    3    3    0  502 -0.65449066016E+03  0.40219221916E+03  0.45097368065E+03  0.89078273234E+03  0.10100000352E+00 0. -1.
</event>
<event>
 5   0  0.1615098E-06  0.2097099E+04  0.7818609E-02  0.8562523E-01
       -1   -1    0    0    0  501  0.00000000000E+00  0.00000000000E+00  0.76312247069E+03  0.76312247070E+03  0.50400001928E-02 0. -1.
        1   -1    0    0  501    0  0.00000000000E+00  0.00000000000E+00 -0.14407327692E+04  0.14407327692E+04  0.50400001928E-02 0.  1.
    10030    2    1    2    0    0  0.00000000000E+00  0.00000000000E+00 -0.67761029849E+03  0.22038552399E+04  0.20970985198E+04 0.  0.
        1    1    3    3  502    0  0.15802184070E+03 -0.95240360639E+03 -0.76879434924E+03  0.12341346292E+04  0.50400001928E-02 0.  1.
       -1    1    3    3    0  502 -0.15802184070E+03  0.95240360639E+03  0.91184050744E+02  0.96972061066E+03  0.50400001928E-02 0. -1.
</event>
<event>
 5   0  0.1653260E-06  0.2099037E+04  0.7818609E-02  0.8561668E-01
        1   -1    0    0  501    0  0.00000000000E+00  0.00000000000E+00  0.63903397204E+03  0.63903397206E+03  0.50400001928E-02 0. -1.
       -1   -1    0    0    0  501  0.00000000000E+00  0.00000000000E+00 -0.17236785838E+04  0.17236785838E+04  0.50400001928E-02 0.  1.
    10030    2    1    2    0    0  0.00000000000E+00  0.00000000000E+00 -0.10846446118E+04  0.23627125559E+04  0.20990370859E+04 0.  0.
        3    1    3    3  502    0 -0.42894188218E+03 -0.72197552729E+03 -0.12508797501E+04  0.15066319921E+04  0.10100000352E+00 0.  1.
       -3    1    3    3    0  502  0.42894188218E+03  0.72197552729E+03  0.16623513829E+03  0.85608056379E+03  0.10100000352E+00 0. -1.
</event>
<event>
 5   0  0.1590067E-06  0.2100041E+04  0.7818609E-02  0.8561225E-01
        1   -1    0    0  501    0  0.00000000000E+00  0.00000000000E+00  0.10920401328E+04  0.10920401328E+04  0.50400001928E-02 0.  1.
       -1   -1    0    0    0  501  0.00000000000E+00  0.00000000000E+00 -0.10096178529E+04  0.10096178529E+04  0.50400001928E-02 0. -1.
    10030    2    1    2    0    0  0.00000000000E+00  0.00000000000E+00  0.82422279937E+02  0.21016579857E+04  0.21000411559E+04 0.  0.
        5    1    3    3  502    0 -0.14564287506E+03  0.10133789002E+04 -0.19214746195E+03  0.10416771955E+04  0.46999998093E+01 0. -1.
       -5    1    3    3    0  502  0.14564287506E+03 -0.10133789002E+04  0.27456974188E+03  0.10599807902E+04  0.46999998093E+01 0.  1.
</event>
<event>
 5   0  0.1590067E-06  0.2100599E+04  0.7818609E-02  0.8560980E-01
        1   -1    0    0  501    0  0.00000000000E+00  0.00000000000E+00  0.90671076796E+03  0.90671076797E+03  0.50400001928E-02 0.  1.
       -1   -1    0    0    0  501  0.00000000000E+00  0.00000000000E+00 -0.12166267670E+04  0.12166267670E+04  0.50400001928E-02 0. -1.
    10030    2    1    2    0    0  0.00000000000E+00  0.00000000000E+00 -0.30991599901E+03  0.21233375349E+04  0.21005985720E+04 0.  0.
        5    1    3    3  502    0 -0.60797603507E+02  0.10476325551E+04 -0.11117420853E+03  0.10552782162E+04  0.46999998093E+01 0.  1.
       -5    1    3    3    0  502  0.60797603507E+02 -0.10476325551E+04 -0.19874179048E+03  0.10680593187E+04  0.46999998093E+01 0. -1.
</event>
<event>
 5   0  0.3547583E-06  0.2113989E+04  0.7818609E-02  0.8555106E-01
       -2   -1    0    0    0  501  0.00000000000E+00  0.00000000000E+00  0.20422690303E+04  0.20422690303E+04  0.25500000920E-02 0. -1.
        2   -1    0    0  501    0  0.00000000000E+00  0.00000000000E+00 -0.54705715023E+03  0.54705715023E+03  0.25500000920E-02 0.  1.
    10030    2    1    2    0    0  0.00000000000E+00  0.00000000000E+00  0.14952118801E+04  0.25893261806E+04  0.21139894756E+04 0.  0.
        2    1    3    3  502    0 -0.46774058035E+03  0.56514336313E+03  0.16796776493E+04  0.18328898704E+04  0.25500000920E-02 0. -1.
       -2    1    3    3    0  502  0.46774058035E+03 -0.56514336313E+03 -0.18446576917E+03  0.75643631020E+03  0.25500000920E-02 0.  1.
</event>
<event>
 5   0  0.3547583E-06  0.2101501E+04  0.7818609E-02  0.8560583E-01
       -2   -1    0    0    0  501  0.00000000000E+00  0.00000000000E+00  0.78483166454E+03  0.78483166455E+03  0.25500000920E-02 0.  1.
        2   -1    0    0  501    0  0.00000000000E+00  0.00000000000E+00 -0.14067681833E+04  0.14067681833E+04  0.25500000920E-02 0. -1.
    10030    2    1    2    0    0  0.00000000000E+00  0.00000000000E+00 -0.62193651872E+03  0.21915998478E+04  0.21015006209E+04 0.  0.
        2    1    3    3  502    0  0.26648903726E+03 -0.77310019531E+03  0.37715134273E+03  0.90052398874E+03  0.25500000920E-02 0.  1.
       -2    1    3    3    0  502 -0.26648903726E+03  0.77310019531E+03 -0.99908786145E+03  0.12910758591E+04  0.25500000920E-02 0. -1.
</event>
<event>
 5   0  0.1653260E-06  0.2095521E+04  0.7818609E-02  0.8563219E-01
        1   -1    0    0  501    0  0.00000000000E+00  0.00000000000E+00  0.79337109849E+03  0.79337109851E+03  0.50400001928E-02 0.  1.
       -1   -1    0    0    0  501  0.00000000000E+00  0.00000000000E+00 -0.13837176290E+04  0.13837176290E+04  0.50400001928E-02 0. -1.
    10030    2    1    2    0    0  0.00000000000E+00  0.00000000000E+00 -0.59034653050E+03  0.21770887275E+04  0.20955205323E+04 0.  0.
        3    1    3    3  502    0  0.45283513183E+02  0.10106136257E+04 -0.11771221259E+02  0.10116961346E+04  0.10100000352E+00 0. -1.
       -3    1    3    3    0  502 -0.45283513183E+02 -0.10106136257E+04 -0.57857530924E+03  0.11653925929E+04  0.10100000352E+00 0.  1.
</event>
<event>
 5   0  0.1615098E-06  0.2100054E+04  0.7818609E-02  0.8561219E-01
        1   -1    0    0  501    0  0.00000000000E+00  0.00000000000E+00  0.12261410220E+04  0.12261410220E+04  0.50400001928E-02 0.  1.
       -1   -1    0    0    0  501  0.00000000000E+00  0.00000000000E+00 -0.89920913634E+03  0.89920913635E+03  0.50400001928E-02 0. -1.
    10030    2    1    2    0    0  0.00000000000E+00  0.00000000000E+00  0.32693188570E+03  0.21253501584E+04  0.21000544845E+04 0.  0.
        1    1    3    3  502    0  0.32905780370E+03 -0.19220837273E+03 -0.82675406356E+03  0.91035453443E+03  0.50400001928E-02 0. -1.
       -1    1    3    3    0  502 -0.32905780370E+03  0.19220837273E+03  0.11536859493E+04  0.12149956240E+04  0.50400001928E-02 0.  1.
</event>
<event>
 5   0  0.3480134E-06  0.2101107E+04  0.7818609E-02  0.8560756E-01
       -2   -1    0    0    0  501  0.00000000000E+00  0.00000000000E+00  0.13834603018E+04  0.13834603018E+04  0.25500000920E-02 0.  1.
        2   -1    0    0  501    0  0.00000000000E+00  0.00000000000E+00 -0.79775518921E+03  0.79775518921E+03  0.25500000920E-02 0. -1.
    10030    2    1    2    0    0  0.00000000000E+00  0.00000000000E+00  0.58570511259E+03  0.21812154910E+04  0.21011069795E+04 0.  0.
        1    1    3    3  502    0  0.36881459831E+03  0.65344430691E+03 -0.47046999958E+03  0.88563857791E+03  0.50400001928E-02 0. -1.
       -1    1    3    3    0  502 -0.36881459831E+03 -0.65344430691E+03  0.10561751122E+04  0.12955769131E+04  0.50400001928E-02 0.  1.
</event>
<event>
 5   0  0.3705828E-06  0.2099806E+04  0.7818609E-02  0.8561329E-01
       -2   -1    0    0    0  501  0.00000000000E+00  0.00000000000E+00  0.12019779692E+04  0.12019779692E+04  0.25500000920E-02 0. -1.
        2   -1    0    0  501    0  0.00000000000E+00  0.00000000000E+00 -0.91706900276E+03  0.91706900277E+03  0.25500000920E-02 0.  1.
    10030    2    1    2    0    0  0.00000000000E+00  0.00000000000E+00  0.28490896643E+03  0.21190469720E+04  0.20998064078E+04 0.  0.
        5    1    3    3  502    0  0.10217266982E+04  0.13786347918E+03 -0.57713358474E+02  0.10326106267E+04  0.46999998093E+01 0.  1.
       -5    1    3    3    0  502 -0.10217266982E+04 -0.13786347918E+03  0.34262232490E+03  0.10864363452E+04  0.46999998093E+01 0. -1.
</event>
<event>
 5   0  0.1579820E-06  0.2107166E+04  0.7818609E-02  0.8558093E-01
       -1   -1    0    0    0  501  0.00000000000E+00  0.00000000000E+00  0.17048689948E+04  0.17048689948E+04  0.50400001928E-02 0.  1.
        1   -1    0    0  501    0  0.00000000000E+00  0.00000000000E+00 -0.65109794937E+03  0.65109794939E+03  0.50400001928E-02 0. -1.
    10030    2    1    2    0    0  0.00000000000E+00  0.00000000000E+00  0.10537710454E+04  0.23559669442E+04  0.21071655906E+04 0.  0.
        2    1    3    3  502    0 -0.75528976280E+03  0.45127192518E+02 -0.29285226974E+03  0.81133318753E+03  0.25500000920E-02 0. -1.
       -2    1    3    3    0  502  0.75528976280E+03 -0.45127192518E+02  0.13466233152E+04  0.15446337567E+04  0.25500000920E-02 0.  1.
</event>
<event>
 5   0  0.1579820E-06  0.2099072E+04  0.7818609E-02  0.8561652E-01
        1   -1    0    0  501    0  0.00000000000E+00  0.00000000000E+00  0.16360868748E+04  0.16360868748E+04  0.50400001928E-02 0.  1.
       -1   -1    0    0    0  501  0.00000000000E+00  0.00000000000E+00 -0.67326864238E+03  0.67326864240E+03  0.50400001928E-02 0. -1.
    10030    2    1    2    0    0  0.00000000000E+00  0.00000000000E+00  0.96281823242E+03  0.23093555172E+04  0.20990721655E+04 0.  0.
        2    1    3    3  502    0  0.75590542311E+03  0.50450674695E+03 -0.96164969700E+02  0.91387513798E+03  0.25500000920E-02 0. -1.
       -2    1    3    3    0  502 -0.75590542311E+03 -0.50450674695E+03  0.10589832021E+04  0.13954803792E+04  0.25500000920E-02 0.  1.
</event>
<event>
 5   0  0.1653260E-06  0.2099720E+04  0.7818609E-02  0.8561367E-01
        1   -1    0    0  501    0  0.00000000000E+00  0.00000000000E+00  0.19145852128E+04  0.19145852128E+04  0.50400001928E-02 0.  1.
       -1   -1    0    0    0  501  0.00000000000E+00  0.00000000000E+00 -0.57568907507E+03  0.57568907509E+03  0.50400001928E-02 0. -1.
    10030    2    1    2    0    0  0.00000000000E+00  0.00000000000E+00  0.13388961377E+04  0.24902742879E+04  0.20997197816E+04 0.  0.
        3    1    3    3  502    0  0.70980470095E+02 -0.70305441172E+03 -0.25142976740E+03  0.75002711358E+03  0.10100000352E+00 0.  1.
       -3    1    3    3    0  502 -0.70980470095E+02  0.70305441172E+03  0.15903259051E+04  0.17402471743E+04  0.10100000352E+00 0. -1.
</event>
<event>
 5   0  0.3574927E-06  0.2100905E+04  0.7818609E-02  0.8560845E-01
       -2   -1    0    0    0  501  0.00000000000E+00  0.00000000000E+00  0.10685883029E+04  0.10685883029E+04  0.25500000920E-02 0.  1.
        2   -1    0    0  501    0  0.00000000000E+00  0.00000000000E+00 -0.10326249070E+04  0.10326249070E+04  0.25500000920E-02 0. -1.
    10030    2    1    2    0    0  0.00000000000E+00  0.00000000000E+00  0.35963395912E+02  0.21012132098E+04  0.21009054208E+04 0.  0.
        3    1    3    3  502    0  0.78837914476E+02 -0.22623598040E+03 -0.10049353433E+04  0.10330988288E+04  0.10100000352E+00 0. -1.
       -3    1    3    3    0  502 -0.78837914476E+02  0.22623598040E+03  0.10408987392E+04  0.10681143811E+04  0.10100000352E+00 0.  1.
</event>
<event>
 5   0  0.1590067E-06  0.2100860E+04  0.7818609E-02  0.8560865E-01
        1   -1    0    0  501    0  0.00000000000E+00  0.00000000000E+00  0.15391052826E+04  0.15391052826E+04  0.50400001928E-02 0.  1.
       -1   -1    0    0    0  501  0.00000000000E+00  0.00000000000E+00 -0.71691194091E+03  0.71691194093E+03  0.50400001928E-02 0. -1.
    10030    2    1    2    0    0  0.00000000000E+00  0.00000000000E+00  0.82219334166E+03  0.22560172235E+04  0.21008597815E+04 0.  0.
        5    1    3    3  502    0  0.14191114537E+03  0.66153417774E+03  0.12739401541E+04  0.14424672779E+04  0.46999998093E+01 0.  1.
       -5    1    3    3    0  502 -0.14191114537E+03 -0.66153417774E+03 -0.45174681245E+03  0.81354994564E+03  0.46999998093E+01 0. -1.
</event>
<event>
 5   0  0.1579820E-06  0.2085600E+04  0.7818609E-02  0.8567613E-01
       -1   -1    0    0    0  501  0.00000000000E+00  0.00000000000E+00  0.92461908845E+03  0.92461908847E+03  0.50400001928E-02 0.  1.
        1   -1    0    0  501    0  0.00000000000E+00  0.00000000000E+00 -0.11760861427E+04  0.11760861427E+04  0.50400001928E-02 0. -1.
    10030    2    1    2    0    0  0.00000000000E+00  0.00000000000E+00 -0.25146705420E+03  0.21007052311E+04  0.20855998630E+04 0.  0.
        2    1    3    3  502    0  0.96669613080E+03 -0.17162057466E+03 -0.47967102382E+03  0.10927210632E+04  0.25500000920E-02 0. -1.
       -2    1    3    3    0  502 -0.96669613080E+03  0.17162057466E+03  0.22820396962E+03  0.10079841679E+04  0.25500000920E-02 0.  1.
</event>
<event>
 5   0  0.3574927E-06  0.2102049E+04  0.7818609E-02  0.8560341E-01
       -2   -1    0    0    0  501  0.00000000000E+00  0.00000000000E+00  0.16852708375E+04  0.16852708375E+04  0.25500000920E-02 0.  1.
        2   -1    0    0  501    0  0.00000000000E+00  0.00000000000E+00 -0.65547467334E+03  0.65547467334E+03  0.25500000920E-02 0. -1.
    10030    2    1    2    0    0  0.00000000000E+00  0.00000000000E+00  0.10297961642E+04  0.23407455109E+04  0.21020488593E+04 0.  0.
        3    1    3    3  502    0  0.10204555555E+04 -0.25105445643E+03  0.49578965139E+03  0.11619661224E+04  0.10100000352E+00 0.  1.
       -3    1    3    3    0  502 -0.10204555555E+04  0.25105445643E+03  0.53400651279E+03  0.11787793885E+04  0.10100000352E+00 0. -1.
</event>
<event>
 5   0  0.3705828E-06  0.2100292E+04  0.7818609E-02  0.8561115E-01
        2   -1    0    0  501    0  0.00000000000E+00  0.00000000000E+00  0.89757133988E+03  0.89757133988E+03  0.25500000920E-02 0.  1.
       -2   -1    0    0    0  501  0.00000000000E+00  0.00000000000E+00 -0.12286562219E+04  0.12286562219E+04  0.25500000920E-02 0. -1.
    10030    2    1    2    0    0  0.00000000000E+00  0.00000000000E+00 -0.33108488199E+03  0.21262275618E+04  0.21002919905E+04 0.  0.
        5    1    3    3  502    0  0.43303874165E+03 -0.89440605606E+03  0.17820881995E+03  0.10095866572E+04  0.46999998093E+01 0.  1.
       -5    1    3    3    0  502 -0.43303874165E+03  0.89440605606E+03 -0.50929370193E+03  0.11166409046E+04  0.46999998093E+01 0. -1.
</event>
<event>
 5   0  0.3705828E-06  0.2101636E+04  0.7818609E-02  0.8560523E-01
        2   -1    0    0  501    0  0.00000000000E+00  0.00000000000E+00  0.18192209013E+04  0.18192209013E+04  0.25500000920E-02 0. -1.
       -2   -1    0    0    0  501  0.00000000000E+00  0.00000000000E+00 -0.60697339546E+03  0.60697339546E+03  0.25500000920E-02 0.  1.
    10030    2    1    2    0    0  0.00000000000E+00  0.00000000000E+00  0.12122475059E+04  0.24261942968E+04  0.21016362079E+04 0.  0.
        5    1    3    3  502    0  0.39950403642E+03  0.81501771515E+03 -0.51137407462E+01  0.90769245423E+03  0.46999998093E+01 0.  1.
       -5    1    3    3    0  502 -0.39950403642E+03 -0.81501771515E+03  0.12173612466E+04  0.15185018426E+04  0.46999998093E+01 0. -1.
</event>
<event>
 5   0  0.3705828E-06  0.2100439E+04  0.7818609E-02  0.8561050E-01
        2   -1    0    0  501    0  0.00000000000E+00  0.00000000000E+00  0.73360492844E+03  0.73360492845E+03  0.25500000920E-02 0. -1.
       -2   -1    0    0    0  501  0.00000000000E+00  0.00000000000E+00 -0.15034804664E+04  0.15034804664E+04  0.25500000920E-02 0.  1.
    10030    2    1    2    0    0  0.00000000000E+00  0.00000000000E+00 -0.76987553791E+03  0.22370853948E+04  0.21004386970E+04 0.  0.
        5    1    3    3  502    0  0.14838310210E+02  0.48707818043E+03  0.60589275900E+03  0.77755607818E+03  0.46999998093E+01 0. -1.
       -5    1    3    3    0  502 -0.14838310210E+02 -0.48707818043E+03 -0.13757682969E+04  0.14595293166E+04  0.46999998093E+01 0.  1.
</event>
<event>
 5   0  0.3547583E-06  0.2096456E+04  0.7818609E-02  0.8562806E-01
        2   -1    0    0  501    0  0.00000000000E+00  0.00000000000E+00  0.10571128955E+04  0.10571128955E+04  0.25500000920E-02 0.  1.
       -2   -1    0    0    0  501  0.00000000000E+00  0.00000000000E+00 -0.10394180451E+04  0.10394180451E+04  0.25500000920E-02 0. -1.
    10030    2    1    2    0    0  0.00000000000E+00  0.00000000000E+00  0.17694850428E+02  0.20965309405E+04  0.20964562664E+04 0.  0.
        2    1    3    3  502    0 -0.32509733237E+03  0.81155681152E+03 -0.56950654331E+03  0.10433841271E+04  0.25500000920E-02 0. -1.
       -2    1    3    3    0  502  0.32509733237E+03 -0.81155681152E+03  0.58720139373E+03  0.10531468134E+04  0.25500000920E-02 0.  1.
</event>
<event>
 5   0  0.3636435E-06  0.2107560E+04  0.7818609E-02  0.8557920E-01
       -2   -1    0    0    0  501  0.00000000000E+00  0.00000000000E+00  0.89031343093E+03  0.89031343093E+03  0.25500000920E-02 0. -1.
        2   -1    0    0  501    0  0.00000000000E+00  0.00000000000E+00 -0.12472598187E+04  0.12472598187E+04  0.25500000920E-02 0.  1.
    10030    2    1    2    0    0  0.00000000000E+00  0.00000000000E+00 -0.35694638778E+03  0.21375732496E+04  0.21075598862E+04 0.  0.
        4    1    3    3  502    0  0.87753371178E+03  0.52303758146E+03 -0.44064380795E+03  0.11125656409E+04  0.12699999809E+01 0.  1.
       -4    1    3    3    0  502 -0.87753371178E+03 -0.52303758146E+03  0.83697420163E+02  0.10250076087E+04  0.12699999809E+01 0. -1.
</event>
<event>
 5   0  0.3574927E-06  0.2098653E+04  0.7818609E-02  0.8561837E-01
       -2   -1    0    0    0  501  0.00000000000E+00  0.00000000000E+00  0.65284372810E+03  0.65284372811E+03  0.25500000920E-02 0.  1.
        2   -1    0    0  501    0  0.00000000000E+00  0.00000000000E+00 -0.16865990418E+04  0.16865990418E+04  0.25500000920E-02 0. -1.
    10030    2    1    2    0    0  0.00000000000E+00  0.00000000000E+00 -0.10337553137E+04  0.23394427699E+04  0.20986525260E+04 0.  0.
        3    1    3    3  502    0  0.44604564815E+03  0.64353690365E+03 -0.12955898248E+04  0.15138194974E+04  0.10100000352E+00 0. -1.
       -3    1    3    3    0  502 -0.44604564815E+03 -0.64353690365E+03  0.26183451109E+03  0.82562327244E+03  0.10100000352E+00 0.  1.
</event>
<event>
 5   0  0.3705828E-06  0.2100306E+04  0.7818609E-02  0.8561108E-01
       -2   -1    0    0    0  501  0.00000000000E+00  0.00000000000E+00  0.70016733140E+03  0.70016733140E+03  0.25500000920E-02 0. -1.
        2   -1    0    0  501    0  0.00000000000E+00  0.00000000000E+00 -0.15750830954E+04  0.15750830954E+04  0.25500000920E-02 0.  1.
    10030    2    1    2    0    0  0.00000000000E+00  0.00000000000E+00 -0.87491576397E+03  0.22752504268E+04  0.21003063849E+04 0.  0.
        5    1    3    3  502    0 -0.20896939015E+03  0.16054382515E+03  0.66375623009E+03  0.71416871171E+03  0.46999998093E+01 0. -1.
       -5    1    3    3    0  502  0.20896939015E+03 -0.16054382515E+03 -0.15386719941E+04  0.15610817151E+04  0.46999998093E+01 0.  1.
</event>
<event>
 5   0  0.3480134E-06  0.2100657E+04  0.7818609E-02  0.8560954E-01
       -2   -1    0    0    0  501  0.00000000000E+00  0.00000000000E+00  0.75257046240E+03  0.75257046240E+03  0.25500000920E-02 0.  1.
        2   -1    0    0  501    0  0.00000000000E+00  0.00000000000E+00 -0.14658963900E+04  0.14658963900E+04  0.25500000920E-02 0. -1.
    10030    2    1    2    0    0  0.00000000000E+00  0.00000000000E+00 -0.71332592757E+03  0.22184668524E+04  0.21006573486E+04 0.  0.
        1    1    3    3  502    0  0.34898207174E+01  0.53480355272E+03 -0.13113305000E+04  0.14161972670E+04  0.50400001928E-02 0. -1.
       -1    1    3    3    0  502 -0.34898207174E+01 -0.53480355272E+03  0.59800457245E+03  0.80226958534E+03  0.50400001928E-02 0.  1.
</event>
<event>
 5   0  0.1257125E-06  0.2101522E+04  0.7818609E-02  0.8560573E-01
       -3   -1    0    0    0  501  0.00000000000E+00  0.00000000000E+00  0.22267063370E+04  0.22267063393E+04  0.10100000352E+00 0.  1.
        3   -1    0    0  501    0  0.00000000000E+00  0.00000000000E+00 -0.49584373193E+03  0.49584374222E+03  0.10100000352E+00 0. -1.
    10030    2    1    2    0    0  0.00000000000E+00  0.00000000000E+00  0.17308626051E+04  0.27225500815E+04  0.21015217317E+04 0.  0.
        1    1    3    3  502    0  0.19760394171E+03 -0.73661296303E+03 -0.70977236751E+02  0.76595283357E+03  0.50400001928E-02 0. -1.
       -1    1    3    3    0  502 -0.19760394171E+03  0.73661296303E+03  0.18018398418E+04  0.19565972479E+04  0.50400001928E-02 0.  1.
</event>
<event>
 5   0  0.3480134E-06  0.2099764E+04  0.7818609E-02  0.8561347E-01
        2   -1    0    0  501    0  0.00000000000E+00  0.00000000000E+00  0.11048582621E+04  0.11048582621E+04  0.25500000920E-02 0. -1.
       -2   -1    0    0    0  501  0.00000000000E+00  0.00000000000E+00 -0.99764138653E+03  0.99764138653E+03  0.25500000920E-02 0.  1.
    10030    2    1    2    0    0  0.00000000000E+00  0.00000000000E+00  0.10721687559E+03  0.21024996486E+04  0.20997641092E+04 0.  0.
        1    1    3    3  502    0  0.33447569906E+03  0.95893555701E+03 -0.21286028783E+03  0.10376612636E+04  0.50400001928E-02 0.  1.
       -1    1    3    3    0  502 -0.33447569906E+03 -0.95893555701E+03  0.32007716342E+03  0.10648383851E+04  0.50400001928E-02 0. -1.
</event>
<event>
 5   0  0.1579820E-06  0.2100373E+04  0.7818609E-02  0.8561079E-01
       -1   -1    0    0    0  501  0.00000000000E+00  0.00000000000E+00  0.10229399841E+04  0.10229399841E+04  0.50400001928E-02 0. -1.
        1   -1    0    0  501    0  0.00000000000E+00  0.00000000000E+00 -0.10781587404E+04  0.10781587405E+04  0.50400001928E-02 0.  1.
    10030    2    1    2    0    0  0.00000000000E+00  0.00000000000E+00 -0.55218756381E+02  0.21010987245E+04  0.21003730000E+04 0.  0.
        2    1    3    3  502    0 -0.71942991305E+03 -0.42936249745E+03 -0.66104229455E+03  0.10671965467E+04  0.25500000920E-02 0.  1.
       -2    1    3    3    0  502  0.71942991305E+03  0.42936249745E+03  0.60582353817E+03  0.10339021779E+04  0.25500000920E-02 0. -1.
</event>
<event>
 5   0  0.3574927E-06  0.2100369E+04  0.7818609E-02  0.8561081E-01
       -2   -1    0    0    0  501  0.00000000000E+00  0.00000000000E+00  0.12458473929E+04  0.12458473929E+04  0.25500000920E-02 0. -1.
        2   -1    0    0  501    0  0.00000000000E+00  0.00000000000E+00 -0.88525098891E+03  0.88525098891E+03  0.25500000920E-02 0.  1.
    10030    2    1    2    0    0  0.00000000000E+00  0.00000000000E+00  0.36059640394E+03  0.21310983818E+04  0.21003691452E+04 0.  0.
        3    1    3    3  502    0 -0.10140969345E+03 -0.17255318779E+03 -0.86572083239E+03  0.88855562481E+03  0.10100000352E+00 0.  1.
       -3    1    3    3    0  502  0.10140969345E+03  0.17255318779E+03  0.12263172363E+04  0.12425427570E+04  0.10100000352E+00 0. -1.
</event>
<event>
 5   0  0.1646510E-06  0.2098921E+04  0.7818609E-02  0.8561719E-01
       -1   -1    0    0    0  501  0.00000000000E+00  0.00000000000E+00  0.55165364428E+03  0.55165364431E+03  0.50400001928E-02 0.  1.
        1   -1    0    0  501    0  0.00000000000E+00  0.00000000000E+00 -0.19964842038E+04  0.19964842038E+04  0.50400001928E-02 0. -1.
    10030    2    1    2    0    0  0.00000000000E+00  0.00000000000E+00 -0.14448305595E+04  0.25481378481E+04  0.20989214248E+04 0.  0.
        4    1    3    3  502    0 -0.85071100067E+03  0.44687689902E+03 -0.21027904828E+03  0.98368036505E+03  0.12699999809E+01 0.  1.
       -4    1    3    3    0  502  0.85071100067E+03 -0.44687689902E+03 -0.12345515113E+04  0.15644574831E+04  0.12699999809E+01 0. -1.
</event>
<event>
 5   0  0.1615098E-06  0.2099678E+04  0.7818609E-02  0.8561385E-01
        1   -1    0    0  501    0  0.00000000000E+00  0.00000000000E+00  0.16127859717E+04  0.16127859717E+04  0.50400001928E-02 0.  1.
       -1   -1    0    0    0  501  0.00000000000E+00  0.00000000000E+00 -0.68339032056E+03  0.68339032058E+03  0.50400001928E-02 0. -1.
    10030    2    1    2    0    0  0.00000000000E+00  0.00000000000E+00  0.92939565117E+03  0.22961762923E+04  0.20996783775E+04 0.  0.
        1    1    3    3  502    0  0.69623862802E+03  0.19103207118E+03 -0.36881239992E+03  0.81071824065E+03  0.50400001928E-02 0. -1.
       -1    1    3    3    0  502 -0.69623862802E+03 -0.19103207118E+03  0.12982080511E+04  0.14854580517E+04  0.50400001928E-02 0.  1.
</event>
<event>
 5   0  0.1590067E-06  0.2100199E+04  0.7818609E-02  0.8561156E-01
       -1   -1    0    0    0  501  0.00000000000E+00  0.00000000000E+00  0.14626713608E+04  0.14626713608E+04  0.50400001928E-02 0.  1.
        1   -1    0    0  501    0  0.00000000000E+00  0.00000000000E+00 -0.75390069640E+03  0.75390069642E+03  0.50400001928E-02 0. -1.
    10030    2    1    2    0    0  0.00000000000E+00  0.00000000000E+00  0.70877066437E+03  0.22165720572E+04  0.21001989977E+04 0.  0.
        5    1    3    3  502    0 -0.47867332763E+03  0.72417084160E+02  0.13378526418E+04  0.14227593507E+04  0.46999998093E+01 0.  1.
       -5    1    3    3    0  502  0.47867332763E+03 -0.72417084160E+02 -0.62908197747E+03  0.79381270652E+03  0.46999998093E+01 0. -1.
</event>
<event>
 5   0  0.3636435E-06  0.2103077E+04  0.7818609E-02  0.8559889E-01
       -2   -1    0    0    0  501  0.00000000000E+00  0.00000000000E+00  0.56703130521E+03  0.56703130521E+03  0.25500000920E-02 0.  1.
        2   -1    0    0  501    0  0.00000000000E+00  0.00000000000E+00 -0.19500382178E+04  0.19500382178E+04  0.25500000920E-02 0. -1.
    10030    2    1    2    0    0  0.00000000000E+00  0.00000000000E+00 -0.13830069126E+04  0.25170695230E+04  0.21030765234E+04 0.  0.
        4    1    3    3  502    0 -0.88525638521E+03  0.52358156309E+03 -0.95348698561E+03  0.14024819305E+04  0.12699999809E+01 0. -1.
       -4    1    3    3    0  502  0.88525638521E+03 -0.52358156309E+03 -0.42951992697E+03  0.11145875925E+04  0.12699999809E+01 0.  1.
</event>
<event>
 5   0  0.1579820E-06  0.2100256E+04  0.7818609E-02  0.8561131E-01
        1   -1    0    0  501    0  0.00000000000E+00  0.00000000000E+00  0.17616315261E+04  0.17616315261E+04  0.50400001928E-02 0. -1.
       -1   -1    0    0    0  501  0.00000000000E+00  0.00000000000E+00 -0.62599274622E+03  0.62599274624E+03  0.50400001928E-02 0.  1.
    10030    2    1    2    0    0  0.00000000000E+00  0.00000000000E+00  0.11356387799E+04  0.23876242723E+04  0.21002557529E+04 0.  0.
        2    1    3    3  502    0 -0.82549586471E+03 -0.59596761620E+03  0.86020183261E+03  0.13328795951E+04  0.25500000920E-02 0. -1.
       -2    1    3    3    0  502  0.82549586471E+03  0.59596761620E+03  0.27543694725E+03  0.10547446772E+04  0.25500000920E-02 0.  1.
</event>
<event>
 5   0  0.3547583E-06  0.2099107E+04  0.7818609E-02  0.8561637E-01
        2   -1    0    0  501    0  0.00000000000E+00  0.00000000000E+00  0.11062829770E+04  0.11062829770E+04  0.25500000920E-02 0. -1.
       -2   -1    0    0    0  501  0.00000000000E+00  0.00000000000E+00 -0.99573330187E+03  0.99573330188E+03  0.25500000920E-02 0.  1.
    10030    2    1    2    0    0  0.00000000000E+00  0.00000000000E+00  0.11054967515E+03  0.21020162789E+04  0.20991072403E+04 0.  0.
        2    1    3    3  502    0 -0.51904517898E+03  0.68360124577E+03 -0.54958562302E+03  0.10191971929E+04  0.25500000920E-02 0. -1.
       -2    1    3    3    0  502  0.51904517898E+03 -0.68360124577E+03  0.66013529817E+03  0.10828190860E+04  0.25500000920E-02 0.  1.
</event>
<event>
 5   0  0.3480134E-06  0.2099960E+04  0.7818609E-02  0.8561261E-01
        2   -1    0    0  501    0  0.00000000000E+00  0.00000000000E+00  0.14996042911E+04  0.14996042911E+04  0.25500000920E-02 0.  1.
       -2   -1    0    0    0  501  0.00000000000E+00  0.00000000000E+00 -0.73516583099E+03  0.73516583099E+03  0.25500000920E-02 0. -1.
    10030    2    1    2    0    0  0.00000000000E+00  0.00000000000E+00  0.76443846013E+03  0.22347701221E+04  0.20999598423E+04 0.  0.
        1    1    3    3  502    0 -0.34400323650E+03 -0.98580381625E+03  0.26414402069E+03  0.10769955685E+04  0.50400001928E-02 0. -1.
       -1    1    3    3    0  502  0.34400323650E+03  0.98580381625E+03  0.50029443943E+03  0.11577745536E+04  0.50400001928E-02 0.  1.
</event>
<event>
 5   0  0.3705828E-06  0.2098882E+04  0.7818609E-02  0.8561736E-01
       -2   -1    0    0    0  501  0.00000000000E+00  0.00000000000E+00  0.83982581121E+03  0.83982581121E+03  0.25500000920E-02 0. -1.
        2   -1    0    0  501    0  0.00000000000E+00  0.00000000000E+00 -0.13113744672E+04  0.13113744673E+04  0.25500000920E-02 0.  1.
    10030    2    1    2    0    0  0.00000000000E+00  0.00000000000E+00 -0.47154865604E+03  0.21512002785E+04  0.20988817268E+04 0.  0.
        5    1    3    3  502    0 -0.83419910551E+03  0.63669702884E+03 -0.22990608614E+03  0.10743138055E+04  0.46999998093E+01 0. -1.
       -5    1    3    3    0  502  0.83419910551E+03 -0.63669702884E+03 -0.24164256990E+03  0.10768864730E+04  0.46999998093E+01 0.  1.
</event>
<event>
 5   0  0.1579820E-06  0.2099941E+04  0.7818609E-02  0.8561270E-01
       -1   -1    0    0    0  501  0.00000000000E+00  0.00000000000E+00  0.53652220816E+03  0.53652220818E+03  0.50400001928E-02 0. -1.
        1   -1    0    0  501    0  0.00000000000E+00  0.00000000000E+00 -0.20547845808E+04  0.20547845808E+04  0.50400001928E-02 0.  1.
    10030    2    1    2    0    0  0.00000000000E+00  0.00000000000E+00 -0.15182623726E+04  0.25913067889E+04  0.20999405331E+04 0.  0.
        2    1    3    3  502    0 -0.30592900767E+03  0.15223191377E+02  0.48016231579E+03  0.56954381113E+03  0.25500000920E-02 0. -1.
       -2    1    3    3    0  502  0.30592900767E+03 -0.15223191377E+02 -0.19984246884E+04  0.20217629778E+04  0.25500000920E-02 0.  1.
</event>
<event>
 5   0  0.1646510E-06  0.2100303E+04  0.7818609E-02  0.8561110E-01
       -1   -1    0    0    0  501  0.00000000000E+00  0.00000000000E+00  0.90654397238E+03  0.90654397240E+03  0.50400001928E-02 0.  1.
        1   -1    0    0  501    0  0.00000000000E+00  0.00000000000E+00 -0.12165079148E+04  0.12165079148E+04  0.50400001928E-02 0. -1.
    10030    2    1    2    0    0  0.00000000000E+00  0.00000000000E+00 -0.30996394244E+03  0.21230518872E+04  0.21003027568E+04 0.  0.
        4    1    3    3  502    0 -0.10107597712E+03  0.57859477623E+03 -0.10349442185E+04  0.11899997548E+04  0.12699999809E+01 0. -1.
       -4    1    3    3    0  502  0.10107597712E+03 -0.57859477623E+03  0.72498027604E+03  0.93305213240E+03  0.12699999809E+01 0.  1.
</event>
<event>
 5   0  0.3636435E-06  0.2101628E+04  0.7818609E-02  0.8560527E-01
        2   -1    0    0  501    0  0.00000000000E+00  0.00000000000E+00  0.16063519316E+04  0.16063519316E+04  0.25500000920E-02 0.  1.
       -2   -1    0    0    0  501  0.00000000000E+00  0.00000000000E+00 -0.68740233050E+03  0.68740233051E+03  0.25500000920E-02 0. -1.
    10030    2    1    2    0    0  0.00000000000E+00  0.00000000000E+00  0.91894960107E+03  0.22937542621E+04  0.21016279988E+04 0.  0.
        4    1    3    3  502    0 -0.39995403921E+03  0.52851468547E+03 -0.43049425359E+03  0.79032773045E+03  0.12699999809E+01 0. -1.
       -4    1    3    3    0  502  0.39995403921E+03 -0.52851468547E+03  0.13494438547E+04  0.15034265316E+04  0.12699999809E+01 0.  1.
</event>
<event>
 5   0  0.3574927E-06  0.2099874E+04  0.7818609E-02  0.8561299E-01
        2   -1    0    0  501    0  0.00000000000E+00  0.00000000000E+00  0.15418620625E+04  0.15418620625E+04  0.25500000920E-02 0.  1.
       -2   -1    0    0    0  501  0.00000000000E+00  0.00000000000E+00 -0.71495849061E+03  0.71495849062E+03  0.25500000920E-02 0. -1.
    10030    2    1    2    0    0  0.00000000000E+00  0.00000000000E+00  0.82690357184E+03  0.22568205531E+04  0.20998736847E+04 0.  0.
        3    1    3    3  502    0 -0.14164845417E+03  0.17041523874E+03 -0.68953931467E+03  0.72427212761E+03  0.10100000352E+00 0. -1.
       -3    1    3    3    0  502  0.14164845417E+03 -0.17041523874E+03  0.15164428865E+04  0.15325484255E+04  0.10100000352E+00 0.  1.
</event>
<event>
 5   0  0.1615098E-06  0.2100065E+04  0.7818609E-02  0.8561215E-01
       -1   -1    0    0    0  501  0.00000000000E+00  0.00000000000E+00  0.11700473622E+04  0.11700473622E+04  0.50400001928E-02 0. -1.
        1   -1    0    0  501    0  0.00000000000E+00  0.00000000000E+00 -0.94232763997E+03  0.94232763998E+03  0.50400001928E-02 0.  1.
    10030    2    1    2    0    0  0.00000000000E+00  0.00000000000E+00  0.22771972227E+03  0.21123750022E+04  0.21000647319E+04 0.  0.
        1    1    3    3  502    0 -0.23637711305E+03 -0.54177581230E+03  0.98680238806E+03  0.11502930598E+04  0.50400001928E-02 0. -1.
       -1    1    3    3    0  502  0.23637711305E+03  0.54177581230E+03 -0.75908266580E+03  0.96208194241E+03  0.50400001928E-02 0.  1.
</event>
<event>
 5   0  0.1653260E-06  0.2100520E+04  0.7818609E-02  0.8561015E-01
        1   -1    0    0  501    0  0.00000000000E+00  0.00000000000E+00  0.12349850078E+04  0.12349850078E+04  0.50400001928E-02 0.  1.
       -1   -1    0    0    0  501  0.00000000000E+00  0.00000000000E+00 -0.89316516857E+03  0.89316516859E+03  0.50400001928E-02 0. -1.
    10030    2    1    2    0    0  0.00000000000E+00  0.00000000000E+00  0.34181983921E+03  0.21281501764E+04  0.21005195478E+04 0.  0.
        3    1    3    3  502    0 -0.28753306141E+03  0.87341803784E+03  0.68504075203E+03  0.11466539026E+04  0.10100000352E+00 0.  1.
       -3    1    3    3    0  502  0.28753306141E+03 -0.87341803784E+03 -0.34322091282E+03  0.98149627377E+03  0.10100000352E+00 0. -1.
</event>
<event>
 5   0  0.1579820E-06  0.2102427E+04  0.7818609E-02  0.8560175E-01
        1   -1    0    0  501    0  0.00000000000E+00  0.00000000000E+00  0.15878120401E+04  0.15878120401E+04  0.50400001928E-02 0. -1.
       -1   -1    0    0    0  501  0.00000000000E+00  0.00000000000E+00 -0.69595776637E+03  0.69595776639E+03  0.50400001928E-02 0.  1.
    10030    2    1    2    0    0  0.00000000000E+00  0.00000000000E+00  0.89185427375E+03  0.22837698065E+04  0.21024272838E+04 0.  0.
        2    1    3    3  502    0 -0.84584296538E+03 -0.51022093791E+03  0.55367285168E+02  0.98936407042E+03  0.25500000920E-02 0.  1.
       -2    1    3    3    0  502  0.84584296538E+03  0.51022093791E+03  0.83648698858E+03  0.12944057361E+04  0.25500000920E-02 0. -1.
</event>
<event>
 5   0  0.1579820E-06  0.2105262E+04  0.7818609E-02  0.8558929E-01
        1   -1    0    0  501    0  0.00000000000E+00  0.00000000000E+00  0.20087661231E+04  0.20087661231E+04  0.50400001928E-02 0. -1.
       -1   -1    0    0    0  501  0.00000000000E+00  0.00000000000E+00 -0.55159844686E+03  0.55159844688E+03  0.50400001928E-02 0.  1.
    10030    2    1    2    0    0  0.00000000000E+00  0.00000000000E+00  0.14571676762E+04  0.25603645699E+04  0.21052622389E+04 0.  0.
        2    1    3    3  502    0  0.93809814724E+03  0.40269330691E+03  0.41651679363E+03  0.11025771051E+04  0.25500000920E-02 0.  1.
       -2    1    3    3    0  502 -0.93809814724E+03 -0.40269330691E+03  0.10406508826E+04  0.14577874648E+04  0.25500000920E-02 0. -1.
</event>
<event>
 5   0  0.3705828E-06  0.2099242E+04  0.7818609E-02  0.8561578E-01
       -2   -1    0    0    0  501  0.00000000000E+00  0.00000000000E+00  0.11117189328E+04  0.11117189328E+04  0.25500000920E-02 0. -1.
        2   -1    0    0  501    0  0.00000000000E+00  0.00000000000E+00 -0.99099128575E+03  0.99099128575E+03  0.25500000920E-02 0.  1.
    10030    2    1    2    0    0  0.00000000000E+00  0.00000000000E+00  0.12072764704E+03  0.21027102185E+04  0.20992415531E+04 0.  0.
        5    1    3    3  502    0 -0.58921312018E+03 -0.17688182461E+03 -0.79146620653E+03  0.10024470694E+04  0.46999998093E+01 0.  1.
       -5    1    3    3    0  502  0.58921312018E+03  0.17688182461E+03  0.91219385357E+03  0.11002631491E+04  0.46999998093E+01 0. -1.
</event>
<event>
 5   0  0.1590067E-06  0.2099579E+04  0.7818609E-02  0.8561429E-01
       -1   -1    0    0    0  501  0.00000000000E+00  0.00000000000E+00  0.63128512323E+03  0.63128512325E+03  0.50400001928E-02 0.  1.
        1   -1    0    0  501    0  0.00000000000E+00  0.00000000000E+00 -0.17457368378E+04  0.17457368378E+04  0.50400001928E-02 0. -1.
    10030    2    1    2    0    0  0.00000000000E+00  0.00000000000E+00 -0.11144517146E+04  0.23770219611E+04  0.20995787147E+04 0.  0.
        5    1    3    3  502    0 -0.56738391008E+03  0.36465473966E+03  0.35352479758E+03  0.76151129543E+03  0.46999998093E+01 0.  1.
       -5    1    3    3    0  502  0.56738391008E+03 -0.36465473966E+03 -0.14679765122E+04  0.16155106656E+04  0.46999998093E+01 0. -1.
</event>
<event>
 5   0  0.1653260E-06  0.2100192E+04  0.7818609E-02  0.8561159E-01
        1   -1    0    0  501    0  0.00000000000E+00  0.00000000000E+00  0.95192767558E+03  0.95192767560E+03  0.50400001928E-02 0.  1.
       -1   -1    0    0    0  501  0.00000000000E+00  0.00000000000E+00 -0.11583877624E+04  0.11583877624E+04  0.50400001928E-02 0. -1.
    10030    2    1    2    0    0  0.00000000000E+00  0.00000000000E+00 -0.20646008677E+03  0.21103154380E+04  0.21001917723E+04 0.  0.
        3    1    3    3  502    0  0.23827667107E+03  0.96015662829E+03  0.25063914975E+03  0.10205373665E+04  0.10100000352E+00 0.  1.
       -3    1    3    3    0  502 -0.23827667107E+03 -0.96015662829E+03 -0.45709923652E+03  0.10897780715E+04  0.10100000352E+00 0. -1.
</event>
<event>
 5   0  0.1590067E-06  0.2100046E+04  0.7818609E-02  0.8561223E-01
        1   -1    0    0  501    0  0.00000000000E+00  0.00000000000E+00  0.16553470439E+04  0.16553470439E+04  0.50400001928E-02 0. -1.
       -1   -1    0    0    0  501  0.00000000000E+00  0.00000000000E+00 -0.66605288585E+03  0.66605288587E+03  0.50400001928E-02 0.  1.
    10030    2    1    2    0    0  0.00000000000E+00  0.00000000000E+00  0.98929415803E+03  0.23213999297E+04  0.21000463573E+04 0.  0.
        5    1    3    3  502    0  0.54231057145E+03  0.84797142400E+03  0.16418800748E+03  0.10198706210E+04  0.46999998093E+01 0.  1.
       -5    1    3    3    0  502 -0.54231057145E+03 -0.84797142400E+03  0.82510615055E+03  0.13015293087E+04  0.46999998093E+01 0. -1.
</event>
<event>
 5   0  0.1615098E-06  0.2097918E+04  0.7818609E-02  0.8562161E-01
       -1   -1    0    0    0  501  0.00000000000E+00  0.00000000000E+00  0.46556543101E+03  0.46556543103E+03  0.50400001928E-02 0. -1.
        1   -1    0    0  501    0  0.00000000000E+00  0.00000000000E+00 -0.23633954214E+04  0.23633954214E+04  0.50400001928E-02 0.  1.
    10030    2    1    2    0    0  0.00000000000E+00  0.00000000000E+00 -0.18978299904E+04  0.28289608524E+04  0.20979182139E+04 0.  0.
        1    1    3    3  502    0 -0.25289428592E+03  0.50597589685E+03  0.24227919692E+03  0.61535870623E+03  0.50400001928E-02 0. -1.
       -1    1    3    3    0  502  0.25289428592E+03 -0.50597589685E+03 -0.21401091873E+04  0.22136021462E+04  0.50400001928E-02 0.  1.
</event>
<event>
 5   0  0.3547583E-06  0.2100085E+04  0.7818609E-02  0.8561206E-01
        2   -1    0    0  501    0  0.00000000000E+00  0.00000000000E+00  0.17703546200E+04  0.17703546200E+04  0.25500000920E-02 0. -1.
       -2   -1    0    0    0  501  0.00000000000E+00  0.00000000000E+00 -0.62280727804E+03  0.62280727805E+03  0.25500000920E-02 0.  1.
    10030    2    1    2    0    0  0.00000000000E+00  0.00000000000E+00  0.11475473420E+04  0.23931618981E+04  0.21000854669E+04 0.  0.
        2    1    3    3  502    0  0.25244372342E+03  0.48487977465E+03 -0.44786318575E+03  0.70669488643E+03  0.25500000920E-02 0.  1.
       -2    1    3    3    0  502 -0.25244372342E+03 -0.48487977465E+03  0.15954105277E+04  0.16864670116E+04  0.25500000920E-02 0. -1.
</event>
<event>
 5   0  0.3480134E-06  0.2098898E+04  0.7818609E-02  0.8561729E-01
       -2   -1    0    0    0  501  0.00000000000E+00  0.00000000000E+00  0.15667155529E+04  0.15667155529E+04  0.25500000920E-02 0.  1.
        2   -1    0    0  501    0  0.00000000000E+00  0.00000000000E+00 -0.70296326483E+03  0.70296326484E+03  0.25500000920E-02 0. -1.
    10030    2    1    2    0    0  0.00000000000E+00  0.00000000000E+00  0.86375228803E+03  0.22696788177E+04  0.20988982635E+04 0.  0.
        1    1    3    3  502    0  0.88595564570E+03  0.49958794107E+03  0.15230997235E+03  0.10284472980E+04  0.50400001928E-02 0. -1.
       -1    1    3    3    0  502 -0.88595564570E+03 -0.49958794107E+03  0.71144231568E+03  0.12412315197E+04  0.50400001928E-02 0.  1.
</event>
<event>
 5   0  0.1590067E-06  0.2095292E+04  0.7818609E-02  0.8563320E-01
       -1   -1    0    0    0  501  0.00000000000E+00  0.00000000000E+00  0.10636218909E+04  0.10636218909E+04  0.50400001928E-02 0.  1.
        1   -1    0    0  501    0  0.00000000000E+00  0.00000000000E+00 -0.10319097284E+04  0.10319097284E+04  0.50400001928E-02 0. -1.
    10030    2    1    2    0    0  0.00000000000E+00  0.00000000000E+00  0.31712162511E+02  0.20955316193E+04  0.20952916519E+04 0.  0.
        5    1    3    3  502    0  0.48571743172E+03 -0.63327935989E+03 -0.66287878463E+03  0.10374943587E+04  0.46999998093E+01 0. -1.
       -5    1    3    3    0  502 -0.48571743172E+03  0.63327935989E+03  0.69459094715E+03  0.10580372607E+04  0.46999998093E+01 0.  1.
</event>
<event>
 5   0  0.1579820E-06  0.2097313E+04  0.7818609E-02  0.8562428E-01
        1   -1    0    0  501    0  0.00000000000E+00  0.00000000000E+00  0.91731720616E+03  0.91731720618E+03  0.50400001928E-02 0. -1.
       -1   -1    0    0    0  501  0.00000000000E+00  0.00000000000E+00 -0.11988005539E+04  0.11988005539E+04  0.50400001928E-02 0.  1.
    10030    2    1    2    0    0  0.00000000000E+00  0.00000000000E+00 -0.28148334775E+03  0.21161177601E+04  0.20973129236E+04 0.  0.
        2    1    3    3  502    0  0.32150397221E+03 -0.66498953492E+03 -0.89179787028E+03  0.11579634395E+04  0.25500000920E-02 0.  1.
       -2    1    3    3    0  502 -0.32150397221E+03  0.66498953492E+03  0.61031452253E+03  0.95815432062E+03  0.25500000920E-02 0. -1.
</event>
<event>
 5   0  0.1653260E-06  0.2098963E+04  0.7818609E-02  0.8561700E-01
       -1   -1    0    0    0  501  0.00000000000E+00  0.00000000000E+00  0.10048074556E+04  0.10048074556E+04  0.50400001928E-02 0.  1.
        1   -1    0    0  501    0  0.00000000000E+00  0.00000000000E+00 -0.10961417177E+04  0.10961417178E+04  0.50400001928E-02 0. -1.
    10030    2    1    2    0    0  0.00000000000E+00  0.00000000000E+00 -0.91334262195E+02  0.21009491733E+04  0.20989629538E+04 0.  0.
        3    1    3    3  502    0 -0.93349026496E+02  0.30799401751E+03  0.95419604791E+03  0.10070076780E+04  0.10100000352E+00 0.  1.
       -3    1    3    3    0  502  0.93349026496E+02 -0.30799401751E+03 -0.10455303101E+04  0.10939414953E+04  0.10100000352E+00 0. -1.
</event>
<event>
 5   0  0.3547583E-06  0.2100929E+04  0.7818609E-02  0.8560834E-01
        2   -1    0    0  501    0  0.00000000000E+00  0.00000000000E+00  0.67070259724E+03  0.67070259725E+03  0.25500000920E-02 0.  1.
       -2   -1    0    0    0  501  0.00000000000E+00  0.00000000000E+00 -0.16452538165E+04  0.16452538165E+04  0.25500000920E-02 0. -1.
    10030    2    1    2    0    0  0.00000000000E+00  0.00000000000E+00 -0.97455121924E+03  0.23159564137E+04  0.21009293257E+04 0.  0.
        2    1    3    3  502    0 -0.55808189597E+03  0.44305946780E+03  0.36354819615E+03  0.79995273957E+03  0.25500000920E-02 0.  1.
       -2    1    3    3    0  502  0.55808189597E+03 -0.44305946780E+03 -0.13380994154E+04  0.15160036742E+04  0.25500000920E-02 0. -1.
</event>
<event>
 5   0  0.3480134E-06  0.2100583E+04  0.7818609E-02  0.8560986E-01
        2   -1    0    0  501    0  0.00000000000E+00  0.00000000000E+00  0.75593601127E+03  0.75593601127E+03  0.25500000920E-02 0. -1.
       -2   -1    0    0    0  501  0.00000000000E+00  0.00000000000E+00 -0.14592670470E+04  0.14592670471E+04  0.25500000920E-02 0.  1.
    10030    2    1    2    0    0  0.00000000000E+00  0.00000000000E+00 -0.70333103578E+03  0.22152030583E+04  0.21005832627E+04 0.  0.
        1    1    3    3  502    0 -0.72463449327E+03  0.67008990038E+03 -0.73042477609E+03  0.12278582886E+04  0.50400001928E-02 0.  1.
       -1    1    3    3    0  502  0.72463449327E+03 -0.67008990038E+03  0.27093740314E+02  0.98734476968E+03  0.50400001928E-02 0. -1.
</event>
<event>
 5   0  0.1615098E-06  0.2100486E+04  0.7818609E-02  0.8561029E-01
       -1   -1    0    0    0  501  0.00000000000E+00  0.00000000000E+00  0.65487220225E+03  0.65487220227E+03  0.50400001928E-02 0. -1.
        1   -1    0    0  501    0  0.00000000000E+00  0.00000000000E+00 -0.16843142874E+04  0.16843142874E+04  0.50400001928E-02 0.  1.
    10030    2    1    2    0    0  0.00000000000E+00  0.00000000000E+00 -0.10294420851E+04  0.23391864896E+04  0.21004862358E+04 0.  0.
        1    1    3    3  502    0  0.40212264950E+03  0.96011028604E+03 -0.67021739852E+03  0.12380249383E+04  0.50400001928E-02 0.  1.
       -1    1    3    3    0  502 -0.40212264950E+03 -0.96011028604E+03 -0.35922468658E+03  0.11011615513E+04  0.50400001928E-02 0. -1.
</event>
<event>
 5   0  0.3547583E-06  0.2096996E+04  0.7818609E-02  0.8562568E-01
       -2   -1    0    0    0  501  0.00000000000E+00  0.00000000000E+00  0.67281613977E+03  0.67281613978E+03  0.25500000920E-02 0. -1.
        2   -1    0    0  501    0  0.00000000000E+00  0.00000000000E+00 -0.16339495370E+04  0.16339495370E+04  0.25500000920E-02 0.  1.
    10030    2    1    2    0    0  0.00000000000E+00  0.00000000000E+00 -0.96113339723E+03  0.23067656768E+04  0.20969955842E+04 0.  0.
        2    1    3    3  502    0  0.23861725279E+03  0.73259256587E+03 -0.12628426535E+04  0.14793247204E+04  0.25500000920E-02 0.  1.
       -2    1    3    3    0  502 -0.23861725279E+03 -0.73259256587E+03  0.30170925631E+03  0.82744095635E+03  0.25500000920E-02 0. -1.
</event>
<event>
 5   0  0.1646510E-06  0.2100413E+04  0.7818609E-02  0.8561062E-01
        1   -1    0    0  501    0  0.00000000000E+00  0.00000000000E+00  0.84400261475E+03  0.84400261477E+03  0.50400001928E-02 0.  1.
       -1   -1    0    0    0  501  0.00000000000E+00  0.00000000000E+00 -0.13067889423E+04  0.13067889423E+04  0.50400001928E-02 0. -1.
    10030    2    1    2    0    0  0.00000000000E+00  0.00000000000E+00 -0.46278632756E+03  0.21507915571E+04  0.21004126112E+04 0.  0.
        4    1    3    3  502    0  0.31325468578E+02  0.60115539922E+02  0.84175927192E+03  0.84448531538E+03  0.12699999809E+01 0.  1.
       -4    1    3    3    0  502 -0.31325468578E+02 -0.60115539922E+02 -0.13045455995E+04  0.13063062417E+04  0.12699999809E+01 0. -1.
</event>
<event>
 5   0  0.1653260E-06  0.2101301E+04  0.7818609E-02  0.8560670E-01
        1   -1    0    0  501    0  0.00000000000E+00  0.00000000000E+00  0.13431603648E+04  0.13431603648E+04  0.50400001928E-02 0. -1.
       -1   -1    0    0    0  501  0.00000000000E+00  0.00000000000E+00 -0.82184278097E+03  0.82184278099E+03  0.50400001928E-02 0.  1.
    10030    2    1    2    0    0  0.00000000000E+00  0.00000000000E+00  0.52131758386E+03  0.21650031458E+04  0.21013011679E+04 0.  0.
        3    1    3    3  502    0 -0.48247246098E+02 -0.10485511259E+04  0.30764139332E+03  0.10938146540E+04  0.10100000352E+00 0.  1.
       -3    1    3    3    0  502  0.48247246098E+02  0.10485511259E+04  0.21367619054E+03  0.10711884918E+04  0.10100000352E+00 0. -1.
</event>
<event>
 5   0  0.3705828E-06  0.2098675E+04  0.7818609E-02  0.8561827E-01
        2   -1    0    0  501    0  0.00000000000E+00  0.00000000000E+00  0.95979697537E+03  0.95979697538E+03  0.25500000920E-02 0.  1.
       -2   -1    0    0    0  501  0.00000000000E+00  0.00000000000E+00 -0.11472311533E+04  0.11472311533E+04  0.25500000920E-02 0. -1.
    10030    2    1    2    0    0  0.00000000000E+00  0.00000000000E+00 -0.18743417789E+03  0.21070281286E+04  0.20986748114E+04 0.  0.
        5    1    3    3  502    0  0.72630783077E+03  0.68952167372E+03 -0.40821092336E+03  0.10814903844E+04  0.46999998093E+01 0. -1.
       -5    1    3    3    0  502 -0.72630783077E+03 -0.68952167372E+03  0.22077674547E+03  0.10255377443E+04  0.46999998093E+01 0.  1.
</event>
<event>
 5   0  0.3547583E-06  0.2098830E+04  0.7818609E-02  0.8561759E-01
        2   -1    0    0  501    0  0.00000000000E+00  0.00000000000E+00  0.15108227248E+04  0.15108227248E+04  0.25500000920E-02 0.  1.
       -2   -1    0    0    0  501  0.00000000000E+00  0.00000000000E+00 -0.72892196758E+03  0.72892196758E+03  0.25500000920E-02 0. -1.
    10030    2    1    2    0    0  0.00000000000E+00  0.00000000000E+00  0.78190075724E+03  0.22397446924E+04  0.20988300296E+04 0.  0.
        2    1    3    3  502    0  0.29931078345E+03 -0.92329697246E+03  0.81674795370E+03  0.12685193985E+04  0.25500000920E-02 0.  1.
       -2    1    3    3    0  502 -0.29931078345E+03  0.92329697246E+03 -0.34847196453E+02  0.97122529392E+03  0.25500000920E-02 0. -1.
</event>
<event>
 5   0  0.1257125E-06  0.2099573E+04  0.7818609E-02  0.8561432E-01
       -3   -1    0    0    0  501  0.00000000000E+00  0.00000000000E+00  0.12092569341E+04  0.12092569383E+04  0.10100000352E+00 0. -1.
        3   -1    0    0  501    0  0.00000000000E+00  0.00000000000E+00 -0.91134606787E+03  0.91134607347E+03  0.10100000352E+00 0.  1.
    10030    2    1    2    0    0  0.00000000000E+00  0.00000000000E+00  0.29791086625E+03  0.21206030118E+04  0.20995728731E+04 0.  0.
        4    1    3    3  502    0  0.84605395691E+03  0.41556913719E+03  0.61569333248E+03  0.11258707290E+04  0.12699999809E+01 0. -1.
       -4    1    3    3    0  502 -0.84605395691E+03 -0.41556913719E+03 -0.31778246624E+03  0.99473228284E+03  0.12699999809E+01 0.  1.
</event>
<event>
 5   0  0.1590067E-06  0.2100599E+04  0.7818609E-02  0.8560980E-01
       -1   -1    0    0    0  501  0.00000000000E+00  0.00000000000E+00  0.96604914151E+03  0.96604914152E+03  0.50400001928E-02 0.  1.
        1   -1    0    0  501    0  0.00000000000E+00  0.00000000000E+00 -0.11418971900E+04  0.11418971900E+04  0.50400001928E-02 0. -1.
    10030    2    1    2    0    0  0.00000000000E+00  0.00000000000E+00 -0.17584804845E+03  0.21079463315E+04  0.21005987718E+04 0.  0.
        5    1    3    3  502    0 -0.49828056249E+03 -0.54302382079E+03  0.66299034639E+03  0.99133076131E+03  0.46999998093E+01 0.  1.
       -5    1    3    3    0  502  0.49828056249E+03  0.54302382079E+03 -0.83883839484E+03  0.11166155702E+04  0.46999998093E+01 0. -1.
</event>
<event>
 5   0  0.1579820E-06  0.2109538E+04  0.7818609E-02  0.8557053E-01
       -1   -1    0    0    0  501  0.00000000000E+00  0.00000000000E+00  0.97192529340E+03  0.97192529341E+03  0.50400001928E-02 0. -1.
        1   -1    0    0  501    0  0.00000000000E+00  0.00000000000E+00 -0.11446743081E+04  0.11446743081E+04  0.50400001928E-02 0.  1.
    10030    2    1    2    0    0  0.00000000000E+00  0.00000000000E+00 -0.17274901469E+03  0.21165996015E+04  0.21095382554E+04 0.  0.
        2    1    3    3  502    0  0.45445608599E+03 -0.38911047883E+03 -0.95795977668E+03  0.11294353601E+04  0.25500000920E-02 0.  1.
       -2    1    3    3    0  502 -0.45445608599E+03  0.38911047883E+03  0.78521076199E+03  0.98716424144E+03  0.25500000920E-02 0. -1.
</event>
<event>
 5   0  0.1615098E-06  0.2099427E+04  0.7818609E-02  0.8561496E-01
        1   -1    0    0  501    0  0.00000000000E+00  0.00000000000E+00  0.17037711656E+04  0.17037711656E+04  0.50400001928E-02 0. -1.
       -1   -1    0    0    0  501  0.00000000000E+00  0.00000000000E+00 -0.64674105670E+03  0.64674105672E+03  0.50400001928E-02 0.  1.
    10030    2    1    2    0    0  0.00000000000E+00  0.00000000000E+00  0.10570301089E+04  0.23505122223E+04  0.20994273162E+04 0.  0.
        1    1    3    3  502    0 -0.35570266569E+03 -0.68782665361E+02 -0.57452556539E+03  0.67921650948E+03  0.50400001928E-02 0.  1.
       -1    1    3    3    0  502  0.35570266569E+03  0.68782665361E+02  0.16315556743E+04  0.16712957128E+04  0.50400001928E-02 0. -1.
</event>
<event>
 5   0  0.3547583E-06  0.2099741E+04  0.7818609E-02  0.8561358E-01
       -2   -1    0    0    0  501  0.00000000000E+00  0.00000000000E+00  0.79860598553E+03  0.79860598554E+03  0.25500000920E-02 0. -1.
        2   -1    0    0  501    0  0.00000000000E+00  0.00000000000E+00 -0.13801894669E+04  0.13801894669E+04  0.25500000920E-02 0.  1.
    10030    2    1    2    0    0  0.00000000000E+00  0.00000000000E+00 -0.58158348136E+03  0.21787954524E+04  0.20997405263E+04 0.  0.
        2    1    3    3  502    0  0.43354867367E+03  0.46064960135E+02 -0.12818104438E+04  0.13539292621E+04  0.25500000920E-02 0.  1.
       -2    1    3    3    0  502 -0.43354867367E+03 -0.46064960135E+02  0.70022696243E+03  0.82486619031E+03  0.25500000920E-02 0. -1.
</event>
<event>
 5   0  0.1615098E-06  0.2099270E+04  0.7818609E-02  0.8561565E-01
        1   -1    0    0  501    0  0.00000000000E+00  0.00000000000E+00  0.13383941347E+04  0.13383941347E+04  0.50400001928E-02 0.  1.
       -1   -1    0    0    0  501  0.00000000000E+00  0.00000000000E+00 -0.82317538777E+03  0.82317538778E+03  0.50400001928E-02 0. -1.
    10030    2    1    2    0    0  0.00000000000E+00  0.00000000000E+00  0.51521874689E+03  0.21615695224E+04  0.20992695023E+04 0.  0.
        1    1    3    3  502    0  0.12846739204E+03  0.59596376142E+03 -0.62218104622E+03  0.87108319353E+03  0.50400001928E-02 0. -1.
       -1    1    3    3    0  502 -0.12846739204E+03 -0.59596376142E+03  0.11373997931E+04  0.12904863289E+04  0.50400001928E-02 0.  1.
</event>
<event>
 5   0  0.3705828E-06  0.2096898E+04  0.7818609E-02  0.8562611E-01
        2   -1    0    0  501    0  0.00000000000E+00  0.00000000000E+00  0.26228005802E+04  0.26228005802E+04  0.25500000920E-02 0. -1.
       -2   -1    0    0    0  501  0.00000000000E+00  0.00000000000E+00 -0.41911112344E+03  0.41911112345E+03  0.25500000920E-02 0.  1.
    10030    2    1    2    0    0  0.00000000000E+00  0.00000000000E+00  0.22036894567E+04  0.30419117036E+04  0.20968976110E+04 0.  0.
        5    1    3    3  502    0  0.57352643324E+03  0.86091261685E+03  0.85429476925E+03  0.13416201945E+04  0.46999998093E+01 0.  1.
       -5    1    3    3    0  502 -0.57352643324E+03 -0.86091261685E+03  0.13493946875E+04  0.17002915091E+04  0.46999998093E+01 0. -1.
</event>
<event>
 5   0  0.1653260E-06  0.2099227E+04  0.7818609E-02  0.8561584E-01
       -1   -1    0    0    0  501  0.00000000000E+00  0.00000000000E+00  0.70558462125E+03  0.70558462127E+03  0.50400001928E-02 0.  1.
        1   -1    0    0  501    0  0.00000000000E+00  0.00000000000E+00 -0.15613844566E+04  0.15613844566E+04  0.50400001928E-02 0. -1.
    10030    2    1    2    0    0  0.00000000000E+00  0.00000000000E+00 -0.85579983533E+03  0.22669690779E+04  0.20992273440E+04 0.  0.
        3    1    3    3  502    0  0.49877359636E+03 -0.81038376956E+03  0.50429017934E+02  0.95291135497E+03  0.10100000352E+00 0.  1.
       -3    1    3    3    0  502 -0.49877359636E+03  0.81038376956E+03 -0.90622885327E+03  0.13140577229E+04  0.10100000352E+00 0. -1.
</event>
<event>
 5   0  0.1257125E-06  0.2099627E+04  0.7818609E-02  0.8561408E-01
       -3   -1    0    0    0  501  0.00000000000E+00  0.00000000000E+00  0.16272568527E+04  0.16272568558E+04  0.10100000352E+00 0. -1.
        3   -1    0    0  501    0  0.00000000000E+00  0.00000000000E+00 -0.67727981985E+03  0.67727982738E+03  0.10100000352E+00 0.  1.
    10030    2    1    2    0    0  0.00000000000E+00  0.00000000000E+00  0.94997703280E+03  0.23045366832E+04  0.20996268624E+04 0.  0.
        2    1    3    3  502    0 -0.15973233864E+03  0.59935966443E+03  0.14046195907E+04  0.15354812347E+04  0.25500000920E-02 0. -1.
       -2    1    3    3    0  502  0.15973233864E+03 -0.59935966443E+03 -0.45464255793E+03  0.76905544849E+03  0.25500000920E-02 0.  1.
</event>
<event>
 5   0  0.1590067E-06  0.2100419E+04  0.7818609E-02  0.8561059E-01
       -1   -1    0    0    0  501  0.00000000000E+00  0.00000000000E+00  0.89736746359E+03  0.89736746361E+03  0.50400001928E-02 0.  1.
        1   -1    0    0  501    0  0.00000000000E+00  0.00000000000E+00 -0.12290836635E+04  0.12290836635E+04  0.50400001928E-02 0. -1.
    10030    2    1    2    0    0  0.00000000000E+00  0.00000000000E+00 -0.33171619987E+03  0.21264511271E+04  0.21004187103E+04 0.  0.
        5    1    3    3  502    0 -0.32192605536E+03 -0.60656570964E+03  0.63857105566E+03  0.93773846479E+03  0.46999998093E+01 0.  1.
       -5    1    3    3    0  502  0.32192605536E+03  0.60656570964E+03 -0.97028725553E+03  0.11887126623E+04  0.46999998093E+01 0. -1.
</event>
<event>
 5   0  0.3547583E-06  0.2100813E+04  0.7818609E-02  0.8560885E-01
       -2   -1    0    0    0  501  0.00000000000E+00  0.00000000000E+00  0.62907775751E+03  0.62907775752E+03  0.25500000920E-02 0. -1.
        2   -1    0    0  501    0  0.00000000000E+00  0.00000000000E+00 -0.17539222064E+04  0.17539222064E+04  0.25500000920E-02 0.  1.
    10030    2    1    2    0    0  0.00000000000E+00  0.00000000000E+00 -0.11248444489E+04  0.23829999639E+04  0.21008126508E+04 0.  0.
        2    1    3    3  502    0 -0.65721614217E+03 -0.33841455806E+02  0.36625173954E+03  0.75313918925E+03  0.25500000920E-02 0. -1.
       -2    1    3    3    0  502  0.65721614217E+03  0.33841455806E+02 -0.14910961884E+04  0.16298607746E+04  0.25500000920E-02 0.  1.
</event>
<event>
 5   0  0.1257125E-06  0.2099990E+04  0.7818609E-02  0.8561248E-01
        3   -1    0    0  501    0  0.00000000000E+00  0.00000000000E+00  0.10557492838E+04  0.10557492886E+04  0.10100000352E+00 0.  1.
       -3   -1    0    0    0  501  0.00000000000E+00  0.00000000000E+00 -0.10442725589E+04  0.10442725638E+04  0.10100000352E+00 0. -1.
    10030    2    1    2    0    0  0.00000000000E+00  0.00000000000E+00  0.11476724822E+02  0.21000218524E+04  0.20999904917E+04 0.  0.
        4    1    3    3  502    0  0.19119309266E+03 -0.33381744219E+00 -0.10267176077E+04  0.10443685025E+04  0.12699999809E+01 0. -1.
       -4    1    3    3    0  502 -0.19119309266E+03  0.33381744219E+00  0.10381943326E+04  0.10556533499E+04  0.12699999809E+01 0.  1.
</event>
<event>
 5   0  0.1615098E-06  0.2101663E+04  0.7818609E-02  0.8560511E-01
        1   -1    0    0  501    0  0.00000000000E+00  0.00000000000E+00  0.14307090185E+04  0.14307090185E+04  0.50400001928E-02 0. -1.
       -1   -1    0    0    0  501  0.00000000000E+00  0.00000000000E+00 -0.77181804827E+03  0.77181804829E+03  0.50400001928E-02 0.  1.
    10030    2    1    2    0    0  0.00000000000E+00  0.00000000000E+00  0.65889097021E+03  0.22025270668E+04  0.21016631912E+04 0.  0.
        1    1    3    3  502    0  0.93901040671E+03 -0.52534740276E+02 -0.16182335372E+03  0.95429934542E+03  0.50400001928E-02 0.  1.
       -1    1    3    3    0  502 -0.93901040671E+03  0.52534740276E+02  0.82071432393E+03  0.12482277214E+04  0.50400001928E-02 0. -1.
</event>
<event>
 5   0  0.3547583E-06  0.2099723E+04  0.7818609E-02  0.8561365E-01
        2   -1    0    0  501    0  0.00000000000E+00  0.00000000000E+00  0.11101881028E+04  0.11101881028E+04  0.25500000920E-02 0.  1.
       -2   -1    0    0    0  501  0.00000000000E+00  0.00000000000E+00 -0.99281314484E+03  0.99281314484E+03  0.25500000920E-02 0. -1.
    10030    2    1    2    0    0  0.00000000000E+00  0.00000000000E+00  0.11737495796E+03  0.21030012476E+04  0.20997231643E+04 0.  0.
        2    1    3    3  502    0 -0.26162879304E+03 -0.26035007598E+03  0.10430634604E+04  0.11064416704E+04  0.25500000920E-02 0.  1.
       -2    1    3    3    0  502  0.26162879304E+03  0.26035007598E+03 -0.92568850249E+03  0.99655957727E+03  0.25500000920E-02 0. -1.
</event>
<event>
 5   0  0.1579820E-06  0.2100323E+04  0.7818609E-02  0.8561101E-01
        1   -1    0    0  501    0  0.00000000000E+00  0.00000000000E+00  0.92569864344E+03  0.92569864345E+03  0.50400001928E-02 0.  1.
       -1   -1    0    0    0  501  0.00000000000E+00  0.00000000000E+00 -0.11913590478E+04  0.11913590479E+04  0.50400001928E-02 0. -1.
    10030    2    1    2    0    0  0.00000000000E+00  0.00000000000E+00 -0.26566040441E+03  0.21170576913E+04  0.21003232651E+04 0.  0.
        2    1    3    3  502    0 -0.87286368097E+03 -0.41205022349E+03 -0.54984510333E+03  0.11108582402E+04  0.25500000920E-02 0. -1.
       -2    1    3    3    0  502  0.87286368097E+03  0.41205022349E+03  0.28418469893E+03  0.10061994511E+04  0.25500000920E-02 0.  1.
</event>
<event>
 5   0  0.1579820E-06  0.2098782E+04  0.7818609E-02  0.8561780E-01
        1   -1    0    0  501    0  0.00000000000E+00  0.00000000000E+00  0.17117317806E+04  0.17117317806E+04  0.50400001928E-02 0.  1.
       -1   -1    0    0    0  501  0.00000000000E+00  0.00000000000E+00 -0.64333756580E+03  0.64333756582E+03  0.50400001928E-02 0. -1.
    10030    2    1    2    0    0  0.00000000000E+00  0.00000000000E+00  0.10683942148E+04  0.23550693464E+04  0.20987818916E+04 0.  0.
        2    1    3    3  502    0 -0.95679325355E+03  0.15024210450E+03  0.80892363440E+02  0.97188970284E+03  0.25500000920E-02 0. -1.
       -2    1    3    3    0  502  0.95679325355E+03 -0.15024210450E+03  0.98750185137E+03  0.13831796436E+04  0.25500000920E-02 0.  1.
</event>
<event>
 5   0  0.1646510E-06  0.2100223E+04  0.7818609E-02  0.8561145E-01
        1   -1    0    0  501    0  0.00000000000E+00  0.00000000000E+00  0.14526225725E+04  0.14526225725E+04  0.50400001928E-02 0.  1.
       -1   -1    0    0    0  501  0.00000000000E+00  0.00000000000E+00 -0.75913327716E+03  0.75913327717E+03  0.50400001928E-02 0. -1.
    10030    2    1    2    0    0  0.00000000000E+00  0.00000000000E+00  0.69348929530E+03  0.22117558496E+04  0.21002229729E+04 0.  0.
        4    1    3    3  502    0 -0.80383296303E+03 -0.37171091174E+03  0.94099477058E+03  0.12922032369E+04  0.12699999809E+01 0.  1.
       -4    1    3    3    0  502  0.80383296303E+03  0.37171091174E+03 -0.24750547528E+03  0.91955261271E+03  0.12699999809E+01 0. -1.
</event>
<event>
 5   0  0.1646510E-06  0.2099911E+04  0.7818609E-02  0.8561283E-01
       -1   -1    0    0    0  501  0.00000000000E+00  0.00000000000E+00  0.72840026685E+03  0.72840026687E+03  0.50400001928E-02 0.  1.
        1   -1    0    0  501    0  0.00000000000E+00  0.00000000000E+00 -0.15134622456E+04  0.15134622456E+04  0.50400001928E-02 0. -1.
    10030    2    1    2    0    0  0.00000000000E+00  0.00000000000E+00 -0.78506197870E+03  0.22418625124E+04  0.20999107634E+04 0.  0.
        4    1    3    3  502    0 -0.56476384386E+03 -0.58828169649E+03  0.31351533285E+03  0.87368588783E+03  0.12699999809E+01 0.  1.
       -4    1    3    3    0  502  0.56476384386E+03  0.58828169649E+03 -0.10985773116E+04  0.13681766246E+04  0.12699999809E+01 0. -1.
</event>
<event>
 5   0  0.1590067E-06  0.2100691E+04  0.7818609E-02  0.8560939E-01
       -1   -1    0    0    0  501  0.00000000000E+00  0.00000000000E+00  0.59963228265E+03  0.59963228267E+03  0.50400001928E-02 0.  1.
        1   -1    0    0  501    0  0.00000000000E+00  0.00000000000E+00 -0.18398377001E+04  0.18398377001E+04  0.50400001928E-02 0. -1.
    10030    2    1    2    0    0  0.00000000000E+00  0.00000000000E+00 -0.12402054174E+04  0.24394699828E+04  0.21006913908E+04 0.  0.
        5    1    3    3  502    0 -0.52886282877E+03 -0.90698931026E+03 -0.58568345484E+03  0.12022365407E+04  0.46999998093E+01 0.  1.
       -5    1    3    3    0  502  0.52886282877E+03  0.90698931026E+03 -0.65452196259E+03  0.12372334420E+04  0.46999998093E+01 0. -1.
</event>
<event>
 5   0  0.1653260E-06  0.2100675E+04  0.7818609E-02  0.8560946E-01
        1   -1    0    0  501    0  0.00000000000E+00  0.00000000000E+00  0.90681437440E+03  0.90681437442E+03  0.50400001928E-02 0.  1.
       -1   -1    0    0    0  501  0.00000000000E+00  0.00000000000E+00 -0.12165757274E+04  0.12165757274E+04  0.50400001928E-02 0. -1.
    10030    2    1    2    0    0  0.00000000000E+00  0.00000000000E+00 -0.30976135299E+03  0.21233901018E+04  0.21006745176E+04 0.  0.
        3    1    3    3  502    0  0.27890101136E+03 -0.38829639954E+03 -0.11002201529E+04  0.11996017102E+04  0.10100000352E+00 0. -1.
       -3    1    3    3    0  502 -0.27890101136E+03  0.38829639954E+03  0.79045879989E+03  0.92378839165E+03  0.10100000352E+00 0.  1.
</event>
<event>
 5   0  0.3705828E-06  0.2097998E+04  0.7818609E-02  0.8562126E-01
        2   -1    0    0  501    0  0.00000000000E+00  0.00000000000E+00  0.14047206064E+04  0.14047206064E+04  0.25500000920E-02 0.  1.
       -2   -1    0    0    0  501  0.00000000000E+00  0.00000000000E+00 -0.78335812092E+03  0.78335812092E+03  0.25500000920E-02 0. -1.
    10030    2    1    2    0    0  0.00000000000E+00  0.00000000000E+00  0.62136248552E+03  0.21880787274E+04  0.20979983743E+04 0.  0.
        5    1    3    3  502    0 -0.90839608049E+03  0.38656664759E+03  0.68053415962E+03  0.11990688239E+04  0.46999998093E+01 0.  1.
       -5    1    3    3    0  502  0.90839608049E+03 -0.38656664759E+03 -0.59171674105E+02  0.98900990344E+03  0.46999998093E+01 0. -1.
</event>
<event>
 5   0  0.1590067E-06  0.2099787E+04  0.7818609E-02  0.8561337E-01
       -1   -1    0    0    0  501  0.00000000000E+00  0.00000000000E+00  0.11292535308E+04  0.11292535308E+04  0.50400001928E-02 0. -1.
        1   -1    0    0  501    0  0.00000000000E+00  0.00000000000E+00 -0.97611089159E+03  0.97611089161E+03  0.50400001928E-02 0.  1.
    10030    2    1    2    0    0  0.00000000000E+00  0.00000000000E+00  0.15314263919E+03  0.21053644224E+04  0.20997872947E+04 0.  0.
        5    1    3    3  502    0 -0.75747365794E+03 -0.31859422666E+03  0.73174851419E+03  0.11003393121E+04  0.46999998093E+01 0. -1.
       -5    1    3    3    0  502  0.75747365794E+03  0.31859422666E+03 -0.57860587501E+03  0.10050251103E+04  0.46999998093E+01 0.  1.
</event>
<event>
 5   0  0.3480134E-06  0.2100070E+04  0.7818609E-02  0.8561213E-01
        2   -1    0    0  501    0  0.00000000000E+00  0.00000000000E+00  0.12620172864E+04  0.12620172864E+04  0.25500000920E-02 0.  1.
       -2   -1    0    0    0  501  0.00000000000E+00  0.00000000000E+00 -0.87365920979E+03  0.87365920979E+03  0.25500000920E-02 0. -1.
    10030    2    1    2    0    0  0.00000000000E+00  0.00000000000E+00  0.38835807656E+03  0.21356764961E+04  0.21000695466E+04 0.  0.
        1    1    3    3  502    0  0.87844964029E+03  0.77088603893E+02 -0.38553587538E+03  0.96242107968E+03  0.50400001928E-02 0.  1.
       -1    1    3    3    0  502 -0.87844964029E+03 -0.77088603893E+02  0.77389395195E+03  0.11732554165E+04  0.50400001928E-02 0. -1.
</event>
<event>
 5   0  0.1653260E-06  0.2100100E+04  0.7818609E-02  0.8561199E-01
        1   -1    0    0  501    0  0.00000000000E+00  0.00000000000E+00  0.16706969917E+04  0.16706969917E+04  0.50400001928E-02 0.  1.
       -1   -1    0    0    0  501  0.00000000000E+00  0.00000000000E+00 -0.65996701256E+03  0.65996701258E+03  0.50400001928E-02 0. -1.
    10030    2    1    2    0    0  0.00000000000E+00  0.00000000000E+00  0.10107299791E+04  0.23306640043E+04  0.21000999048E+04 0.  0.
        3    1    3    3  502    0  0.25060306260E+03 -0.91892292475E+03  0.14814369331E+02  0.95259682571E+03  0.10100000352E+00 0.  1.
       -3    1    3    3    0  502 -0.25060306260E+03  0.91892292475E+03  0.99591560979E+03  0.13780671786E+04  0.10100000352E+00 0. -1.
</event>
<event>
 5   0  0.1646510E-06  0.2100591E+04  0.7818609E-02  0.8560983E-01
       -1   -1    0    0    0  501  0.00000000000E+00  0.00000000000E+00  0.42852447163E+03  0.42852447166E+03  0.50400001928E-02 0. -1.
        1   -1    0    0  501    0  0.00000000000E+00  0.00000000000E+00 -0.25742313203E+04  0.25742313204E+04  0.50400001928E-02 0.  1.
    10030    2    1    2    0    0  0.00000000000E+00  0.00000000000E+00 -0.21457068487E+04  0.30027557920E+04  0.21005914562E+04 0.  0.
        4    1    3    3  502    0  0.10250005481E+04  0.14717930992E+03 -0.13238551266E+04  0.16807384930E+04  0.12699999809E+01 0.  1.
       -4    1    3    3    0  502 -0.10250005481E+04 -0.14717930992E+03 -0.82185172211E+03  0.13220172990E+04  0.12699999809E+01 0. -1.
</event>
<event>
 5   0  0.3480134E-06  0.2099327E+04  0.7818609E-02  0.8561540E-01
       -2   -1    0    0    0  501  0.00000000000E+00  0.00000000000E+00  0.93703883843E+03  0.93703883843E+03  0.25500000920E-02 0. -1.
        2   -1    0    0  501    0  0.00000000000E+00  0.00000000000E+00 -0.11758248527E+04  0.11758248528E+04  0.25500000920E-02 0.  1.
    10030    2    1    2    0    0  0.00000000000E+00  0.00000000000E+00 -0.23878601432E+03  0.21128636912E+04  0.20993270867E+04 0.  0.
        1    1    3    3  502    0  0.45381933355E+03  0.31528540455E+03  0.77879447358E+03  0.95492287957E+03  0.50400001928E-02 0. -1.
       -1    1    3    3    0  502 -0.45381933355E+03 -0.31528540455E+03 -0.10175804879E+04  0.11579408116E+04  0.50400001928E-02 0.  1.
</event>
<event>
 5   0  0.3574927E-06  0.2100429E+04  0.7818609E-02  0.8561055E-01
       -2   -1    0    0    0  501  0.00000000000E+00  0.00000000000E+00  0.86829420554E+03  0.86829420555E+03  0.25500000920E-02 0.  1.
        2   -1    0    0  501    0  0.00000000000E+00  0.00000000000E+00 -0.12702492575E+04  0.12702492575E+04  0.25500000920E-02 0. -1.
    10030    2    1    2    0    0  0.00000000000E+00  0.00000000000E+00 -0.40195505196E+03  0.21385434631E+04  0.21004285943E+04 0.  0.
        3    1    3    3  502    0 -0.77683747030E+02  0.75674093678E+02 -0.12645328709E+04  0.12691748204E+04  0.10100000352E+00 0. -1.
       -3    1    3    3    0  502  0.77683747030E+02 -0.75674093678E+02  0.86257781890E+03  0.86936864267E+03  0.10100000352E+00 0.  1.
</event>
<event>
 5   0  0.3480134E-06  0.2101498E+04  0.7818609E-02  0.8560584E-01
        2   -1    0    0  501    0  0.00000000000E+00  0.00000000000E+00  0.10616519320E+04  0.10616519320E+04  0.25500000920E-02 0. -1.
       -2   -1    0    0    0  501  0.00000000000E+00  0.00000000000E+00 -0.10399582254E+04  0.10399582254E+04  0.25500000920E-02 0.  1.
    10030    2    1    2    0    0  0.00000000000E+00  0.00000000000E+00  0.21693706619E+02  0.21016101573E+04  0.21014981886E+04 0.  0.
        1    1    3    3  502    0  0.50536263529E+03 -0.79167488016E+03  0.48196976734E+03  0.10556682081E+04  0.50400001928E-02 0. -1.
       -1    1    3    3    0  502 -0.50536263529E+03  0.79167488016E+03 -0.46027606072E+03  0.10459419492E+04  0.50400001928E-02 0.  1.
</event>
<event>
 5   0  0.3574927E-06  0.2100724E+04  0.7818609E-02  0.8560925E-01
        2   -1    0    0  501    0  0.00000000000E+00  0.00000000000E+00  0.17789271392E+04  0.17789271392E+04  0.25500000920E-02 0. -1.
       -2   -1    0    0    0  501  0.00000000000E+00  0.00000000000E+00 -0.62018275019E+03  0.62018275020E+03  0.25500000920E-02 0.  1.
    10030    2    1    2    0    0  0.00000000000E+00  0.00000000000E+00  0.11587443890E+04  0.23991098894E+04  0.21007236140E+04 0.  0.
        3    1    3    3  502    0  0.36356174437E+03 -0.90865120257E+02 -0.54123961962E+03  0.65831143701E+03  0.10100000352E+00 0.  1.
       -3    1    3    3    0  502 -0.36356174437E+03  0.90865120257E+02  0.16999840086E+04  0.17407984524E+04  0.10100000352E+00 0. -1.
</event>
<event>
 5   0  0.3547583E-06  0.2099838E+04  0.7818609E-02  0.8561315E-01
       -2   -1    0    0    0  501  0.00000000000E+00  0.00000000000E+00  0.82637543180E+03  0.82637543181E+03  0.25500000920E-02 0.  1.
        2   -1    0    0  501    0  0.00000000000E+00  0.00000000000E+00 -0.13339338025E+04  0.13339338025E+04  0.25500000920E-02 0. -1.
    10030    2    1    2    0    0  0.00000000000E+00  0.00000000000E+00 -0.50755837074E+03  0.21603092343E+04  0.20998382053E+04 0.  0.
        2    1    3    3  502    0 -0.37348800814E+03 -0.80075805165E+03 -0.83722951522E+03  0.12172345750E+04  0.25500000920E-02 0. -1.
       -2    1    3    3    0  502  0.37348800814E+03  0.80075805165E+03  0.32967114448E+03  0.94307465931E+03  0.25500000920E-02 0.  1.
</event>
<event>
 5   0  0.3480134E-06  0.2100023E+04  0.7818609E-02  0.8561233E-01
        2   -1    0    0  501    0  0.00000000000E+00  0.00000000000E+00  0.20747397403E+04  0.20747397403E+04  0.25500000920E-02 0.  1.
       -2   -1    0    0    0  501  0.00000000000E+00  0.00000000000E+00 -0.53140364561E+03  0.53140364561E+03  0.25500000920E-02 0. -1.
    10030    2    1    2    0    0  0.00000000000E+00  0.00000000000E+00  0.15433360947E+04  0.26061433859E+04  0.21000231062E+04 0.  0.
        1    1    3    3  502    0  0.49491485381E+03  0.91711061500E+03  0.93103803449E+03  0.13974492529E+04  0.50400001928E-02 0.  1.
       -1    1    3    3    0  502 -0.49491485381E+03 -0.91711061500E+03  0.61229806020E+03  0.12086941330E+04  0.50400001928E-02 0. -1.
</event>
<event>
 5   0  0.1590067E-06  0.2103776E+04  0.7818609E-02  0.8559582E-01
       -1   -1    0    0    0  501  0.00000000000E+00  0.00000000000E+00  0.66656267262E+03  0.66656267264E+03  0.50400001928E-02 0. -1.
        1   -1    0    0  501    0  0.00000000000E+00  0.00000000000E+00 -0.16599620439E+04  0.16599620439E+04  0.50400001928E-02 0.  1.
    10030    2    1    2    0    0  0.00000000000E+00  0.00000000000E+00 -0.99339937130E+03  0.23265247166E+04  0.21037763536E+04 0.  0.
        5    1    3    3  502    0 -0.48465022602E+03  0.29521393724E+03 -0.14761435136E+04  0.15814736397E+04  0.46999998093E+01 0.  1.
       -5    1    3    3    0  502  0.48465022602E+03 -0.29521393724E+03  0.48274414226E+03  0.74505107691E+03  0.46999998093E+01 0. -1.
</event>
<event>
 5   0  0.1590067E-06  0.2099682E+04  0.7818609E-02  0.8561383E-01
       -1   -1    0    0    0  501  0.00000000000E+00  0.00000000000E+00  0.57320732110E+03  0.57320732112E+03  0.50400001928E-02 0. -1.
        1   -1    0    0  501    0  0.00000000000E+00  0.00000000000E+00 -0.19228056555E+04  0.19228056555E+04  0.50400001928E-02 0.  1.
    10030    2    1    2    0    0  0.00000000000E+00  0.00000000000E+00 -0.13495983344E+04  0.24960129766E+04  0.20996821462E+04 0.  0.
        5    1    3    3  502    0 -0.82979483868E+03 -0.25399577684E+03  0.27545163851E+02  0.86824774978E+03  0.46999998093E+01 0. -1.
       -5    1    3    3    0  502  0.82979483868E+03  0.25399577684E+03 -0.13771434982E+04  0.16277652268E+04  0.46999998093E+01 0.  1.
</event>
<event>
 5   0  0.3547583E-06  0.2112310E+04  0.7818609E-02  0.8555840E-01
        2   -1    0    0  501    0  0.00000000000E+00  0.00000000000E+00  0.95519366410E+03  0.95519366410E+03  0.25500000920E-02 0. -1.
       -2   -1    0    0    0  501  0.00000000000E+00  0.00000000000E+00 -0.11677874834E+04  0.11677874834E+04  0.25500000920E-02 0.  1.
    10030    2    1    2    0    0  0.00000000000E+00  0.00000000000E+00 -0.21259381926E+03  0.21229811475E+04  0.21123098306E+04 0.  0.
        2    1    3    3  502    0 -0.11146720947E+03  0.90581659260E+03  0.42792821869E+03  0.10079936501E+04  0.25500000920E-02 0. -1.
       -2    1    3    3    0  502  0.11146720947E+03 -0.90581659260E+03 -0.64052203795E+03  0.11149874974E+04  0.25500000920E-02 0.  1.
</event>
<event>
 5   0  0.1653260E-06  0.2101055E+04  0.7818609E-02  0.8560779E-01
       -1   -1    0    0    0  501  0.00000000000E+00  0.00000000000E+00  0.63633863367E+03  0.63633863369E+03  0.50400001928E-02 0.  1.
        1   -1    0    0  501    0  0.00000000000E+00  0.00000000000E+00 -0.17343100362E+04  0.17343100362E+04  0.50400001928E-02 0. -1.
    10030    2    1    2    0    0  0.00000000000E+00  0.00000000000E+00 -0.10979714025E+04  0.23706486699E+04  0.21010554289E+04 0.  0.
        3    1    3    3  502    0  0.10454370171E+04 -0.48993524416E+02 -0.65159117535E+03  0.12328462971E+04  0.10100000352E+00 0.  1.
       -3    1    3    3    0  502 -0.10454370171E+04  0.48993524416E+02 -0.44638022715E+03  0.11378023728E+04  0.10100000352E+00 0. -1.
</event>
<event>
 5   0  0.1590067E-06  0.2099079E+04  0.7818609E-02  0.8561649E-01
        1   -1    0    0  501    0  0.00000000000E+00  0.00000000000E+00  0.82606753425E+03  0.82606753427E+03  0.50400001928E-02 0.  1.
       -1   -1    0    0    0  501  0.00000000000E+00  0.00000000000E+00 -0.13334658547E+04  0.13334658547E+04  0.50400001928E-02 0. -1.
    10030    2    1    2    0    0  0.00000000000E+00  0.00000000000E+00 -0.50739832046E+03  0.21595333890E+04  0.20990787033E+04 0.  0.
        5    1    3    3  502    0 -0.44608193358E+03  0.70877032032E+03 -0.90450502478E+03  0.12326783393E+04  0.46999998093E+01 0. -1.
       -5    1    3    3    0  502  0.44608193358E+03 -0.70877032032E+03  0.39710670432E+03  0.92685504964E+03  0.46999998093E+01 0.  1.
</event>
<event>
 5   0  0.1257125E-06  0.2106910E+04  0.7818609E-02  0.8558206E-01
        4   -1    0    0  501    0  0.00000000000E+00  0.00000000000E+00  0.83743571783E+03  0.83743668083E+03  0.12699999809E+01 0. -1.
       -4   -1    0    0    0  501  0.00000000000E+00  0.00000000000E+00 -0.13251951424E+04  0.13251957509E+04  0.12699999809E+01 0.  1.
    10030    2    1    2    0    0  0.00000000000E+00  0.00000000000E+00 -0.48775942456E+03  0.21626324318E+04  0.21069100073E+04 0.  0.
        1    1    3    3  502    0  0.37801356131E+03  0.14542536880E+03  0.75432377113E+03  0.85618172262E+03  0.50400001928E-02 0. -1.
       -1    1    3    3    0  502 -0.37801356131E+03 -0.14542536880E+03 -0.12420831957E+04  0.13064507092E+04  0.50400001928E-02 0.  1.
</event>
<event>
 5   0  0.3574927E-06  0.2099589E+04  0.7818609E-02  0.8561425E-01
       -2   -1    0    0    0  501  0.00000000000E+00  0.00000000000E+00  0.11012212756E+04  0.11012212757E+04  0.25500000920E-02 0.  1.
        2   -1    0    0  501    0  0.00000000000E+00  0.00000000000E+00 -0.10007688822E+04  0.10007688822E+04  0.25500000920E-02 0. -1.
    10030    2    1    2    0    0  0.00000000000E+00  0.00000000000E+00  0.10045239349E+03  0.21019901578E+04  0.20995885169E+04 0.  0.
        3    1    3    3  502    0  0.96796850110E+03  0.40633108752E+03  0.50170916854E+02  0.10509924371E+04  0.10100000352E+00 0.  1.
       -3    1    3    3    0  502 -0.96796850110E+03 -0.40633108752E+03  0.50281476635E+02  0.10509977207E+04  0.10100000352E+00 0. -1.
</event>
<event>
 5   0  0.1590067E-06  0.2089175E+04  0.7818609E-02  0.8566027E-01
        1   -1    0    0  501    0  0.00000000000E+00  0.00000000000E+00  0.14682548392E+04  0.14682548392E+04  0.50400001928E-02 0.  1.
       -1   -1    0    0    0  501  0.00000000000E+00  0.00000000000E+00 -0.74317036756E+03  0.74317036757E+03  0.50400001928E-02 0. -1.
    10030    2    1    2    0    0  0.00000000000E+00  0.00000000000E+00  0.72508447168E+03  0.22114252068E+04  0.20891754245E+04 0.  0.
        5    1    3    3  502    0  0.80737461363E+03 -0.40989173193E+02  0.10627706586E+04  0.13353042506E+04  0.46999998093E+01 0.  1.
       -5    1    3    3    0  502 -0.80737461363E+03  0.40989173193E+02 -0.33768618689E+03  0.87612095618E+03  0.46999998093E+01 0. -1.
</event>
<event>
 5   0  0.3547583E-06  0.2098227E+04  0.7818609E-02  0.8562025E-01
        2   -1    0    0  501    0  0.00000000000E+00  0.00000000000E+00  0.10230839767E+04  0.10230839767E+04  0.25500000920E-02 0. -1.
       -2   -1    0    0    0  501  0.00000000000E+00  0.00000000000E+00 -0.10758051353E+04  0.10758051353E+04  0.25500000920E-02 0.  1.
    10030    2    1    2    0    0  0.00000000000E+00  0.00000000000E+00 -0.52721158587E+02  0.20988891120E+04  0.20982268666E+04 0.  0.
        2    1    3    3  502    0 -0.19327034851E+03  0.64389775659E+03  0.77930112851E+03  0.10292074608E+04  0.25500000920E-02 0. -1.
       -2    1    3    3    0  502  0.19327034851E+03 -0.64389775659E+03 -0.83202228710E+03  0.10696816511E+04  0.25500000920E-02 0.  1.
</event>
<event>
 5   0  0.1615098E-06  0.2100215E+04  0.7818609E-02  0.8561149E-01
        1   -1    0    0  501    0  0.00000000000E+00  0.00000000000E+00  0.69141657676E+03  0.69141657677E+03  0.50400001928E-02 0.  1.
       -1   -1    0    0    0  501  0.00000000000E+00  0.00000000000E+00 -0.15948789483E+04  0.15948789483E+04  0.50400001928E-02 0. -1.
    10030    2    1    2    0    0  0.00000000000E+00  0.00000000000E+00 -0.90346237155E+03  0.22862955251E+04  0.21002149821E+04 0.  0.
        1    1    3    3  502    0 -0.74042622913E+03  0.31772864627E+03 -0.11848560814E+04  0.14328525490E+04  0.50400001928E-02 0. -1.
       -1    1    3    3    0  502  0.74042622913E+03 -0.31772864627E+03  0.28139370988E+03  0.85344297609E+03  0.50400001928E-02 0.  1.
</event>
<event>
 5   0  0.1257125E-06  0.2102295E+04  0.7818609E-02  0.8560233E-01
       -3   -1    0    0    0  501  0.00000000000E+00  0.00000000000E+00  0.75662609766E+03  0.75662610441E+03  0.10100000352E+00 0. -1.
        3   -1    0    0  501    0  0.00000000000E+00  0.00000000000E+00 -0.14603134766E+04  0.14603134801E+04  0.10100000352E+00 0.  1.
    10030    2    1    2    0    0  0.00000000000E+00  0.00000000000E+00 -0.70368737890E+03  0.22169395845E+04  0.21022952205E+04 0.  0.
        5    1    3    3  502    0  0.43746706635E+03 -0.86393547654E+03  0.79262055498E+02  0.97163084821E+03  0.46999998093E+01 0. -1.
       -5    1    3    3    0  502 -0.43746706635E+03  0.86393547654E+03 -0.78294943440E+03  0.12453087363E+04  0.46999998093E+01 0.  1.
</event>
<event>
 5   0  0.3574927E-06  0.2103054E+04  0.7818609E-02  0.8559899E-01
       -2   -1    0    0    0  501  0.00000000000E+00  0.00000000000E+00  0.13257668801E+04  0.13257668801E+04  0.25500000920E-02 0. -1.
        2   -1    0    0  501    0  0.00000000000E+00  0.00000000000E+00 -0.83401501080E+03  0.83401501081E+03  0.25500000920E-02 0.  1.
    10030    2    1    2    0    0  0.00000000000E+00  0.00000000000E+00  0.49175186927E+03  0.21597818909E+04  0.21030544252E+04 0.  0.
        3    1    3    3  502    0 -0.93320039110E+03  0.29029414337E+03  0.64438388123E+03  0.11706255833E+04  0.10100000352E+00 0. -1.
       -3    1    3    3    0  502  0.93320039110E+03 -0.29029414337E+03 -0.15263201196E+03  0.98915630761E+03  0.10100000352E+00 0.  1.
</event>
<event>
 5   0  0.1579820E-06  0.2098654E+04  0.7818609E-02  0.8561836E-01
       -1   -1    0    0    0  501  0.00000000000E+00  0.00000000000E+00  0.11106427245E+04  0.11106427245E+04  0.50400001928E-02 0. -1.
        1   -1    0    0  501    0  0.00000000000E+00  0.00000000000E+00 -0.99139656414E+03  0.99139656416E+03  0.50400001928E-02 0.  1.
    10030    2    1    2    0    0  0.00000000000E+00  0.00000000000E+00  0.11924616033E+03  0.21020392886E+04  0.20986542174E+04 0.  0.
        2    1    3    3  502    0 -0.23918157314E+03  0.18080418271E+03  0.10668241899E+04  0.11081569517E+04  0.25500000920E-02 0. -1.
       -2    1    3    3    0  502  0.23918157314E+03 -0.18080418271E+03 -0.94757802961E+03  0.99388233691E+03  0.25500000920E-02 0.  1.
</event>
<event>
 5   0  0.1653260E-06  0.2100617E+04  0.7818609E-02  0.8560972E-01
        1   -1    0    0  501    0  0.00000000000E+00  0.00000000000E+00  0.13100352620E+04  0.13100352620E+04  0.50400001928E-02 0.  1.
       -1   -1    0    0    0  501  0.00000000000E+00  0.00000000000E+00 -0.84207512711E+03  0.84207512713E+03  0.50400001928E-02 0. -1.
    10030    2    1    2    0    0  0.00000000000E+00  0.00000000000E+00  0.46796013485E+03  0.21521103891E+04  0.21006171567E+04 0.  0.
        3    1    3    3  502    0 -0.49246708411E+02  0.87374450958E+03 -0.36102621738E+03  0.94667557597E+03  0.10100000352E+00 0. -1.
       -3    1    3    3    0  502  0.49246708411E+02 -0.87374450958E+03  0.82898635223E+03  0.12054348131E+04  0.10100000352E+00 0.  1.
</event>
<event>
 5   0  0.1590067E-06  0.2100841E+04  0.7818609E-02  0.8560873E-01
       -1   -1    0    0    0  501  0.00000000000E+00  0.00000000000E+00  0.15589424110E+04  0.15589424110E+04  0.50400001928E-02 0. -1.
        1   -1    0    0  501    0  0.00000000000E+00  0.00000000000E+00 -0.70777695588E+03  0.70777695590E+03  0.50400001928E-02 0.  1.
    10030    2    1    2    0    0  0.00000000000E+00  0.00000000000E+00  0.85116545516E+03  0.22667193669E+04  0.21008412735E+04 0.  0.
        5    1    3    3  502    0 -0.30025753956E+02 -0.30781450992E+03  0.15086921180E+04  0.15400731526E+04  0.46999998093E+01 0. -1.
       -5    1    3    3    0  502  0.30025753956E+02  0.30781450992E+03 -0.65752666287E+03  0.72664621433E+03  0.46999998093E+01 0.  1.
</event>
<event>
 5   0  0.1579820E-06  0.2101236E+04  0.7818609E-02  0.8560699E-01
       -1   -1    0    0    0  501  0.00000000000E+00  0.00000000000E+00  0.51622895677E+03  0.51622895680E+03  0.50400001928E-02 0. -1.
        1   -1    0    0  501    0  0.00000000000E+00  0.00000000000E+00 -0.21381945317E+04  0.21381945317E+04  0.50400001928E-02 0.  1.
    10030    2    1    2    0    0  0.00000000000E+00  0.00000000000E+00 -0.16219655749E+04  0.26544234885E+04  0.21012357626E+04 0.  0.
        2    1    3    3  502    0 -0.16912942620E+03 -0.37331115484E+03 -0.20330479458E+04  0.20739454985E+04  0.25500000920E-02 0.  1.
       -2    1    3    3    0  502  0.16912942620E+03  0.37331115484E+03  0.41108237087E+03  0.58047798992E+03  0.25500000920E-02 0. -1.
</event>
<event>
 5   0  0.3636435E-06  0.2100142E+04  0.7818609E-02  0.8561181E-01
       -2   -1    0    0    0  501  0.00000000000E+00  0.00000000000E+00  0.48682484781E+03  0.48682484782E+03  0.25500000920E-02 0. -1.
        2   -1    0    0  501    0  0.00000000000E+00  0.00000000000E+00 -0.22649801661E+04  0.22649801661E+04  0.25500000920E-02 0.  1.
    10030    2    1    2    0    0  0.00000000000E+00  0.00000000000E+00 -0.17781553183E+04  0.27518050140E+04  0.21001415426E+04 0.  0.
        4    1    3    3  502    0 -0.56654616609E+03  0.85718378891E+03 -0.60528939778E+03  0.11925248317E+04  0.12699999809E+01 0.  1.
       -4    1    3    3    0  502  0.56654616609E+03 -0.85718378891E+03 -0.11728659206E+04  0.15592801823E+04  0.12699999809E+01 0. -1.
</event>
<event>
 5   0  0.1646510E-06  0.2097337E+04  0.7818609E-02  0.8562417E-01
       -1   -1    0    0    0  501  0.00000000000E+00  0.00000000000E+00  0.54522817719E+03  0.54522817721E+03  0.50400001928E-02 0.  1.
        1   -1    0    0  501    0  0.00000000000E+00  0.00000000000E+00 -0.20169643135E+04  0.20169643135E+04  0.50400001928E-02 0. -1.
    10030    2    1    2    0    0  0.00000000000E+00  0.00000000000E+00 -0.14717361363E+04  0.25621924907E+04  0.20973371462E+04 0.  0.
        4    1    3    3  502    0  0.34466173512E+03 -0.63522649992E+03 -0.16641540653E+04  0.18143083486E+04  0.12699999809E+01 0. -1.
       -4    1    3    3    0  502 -0.34466173512E+03  0.63522649992E+03  0.19241792892E+03  0.74788414218E+03  0.12699999809E+01 0.  1.
</event>
<event>
 5   0  0.1590067E-06  0.2100136E+04  0.7818609E-02  0.8561183E-01
        1   -1    0    0  501    0  0.00000000000E+00  0.00000000000E+00  0.83037020001E+03  0.83037020002E+03  0.50400001928E-02 0. -1.
       -1   -1    0    0    0  501  0.00000000000E+00  0.00000000000E+00 -0.13278936278E+04  0.13278936278E+04  0.50400001928E-02 0.  1.
    10030    2    1    2    0    0  0.00000000000E+00  0.00000000000E+00 -0.49752342779E+03  0.21582638278E+04  0.21001364692E+04 0.  0.
        5    1    3    3  502    0 -0.53161021779E+03 -0.46989375967E+02 -0.11781165706E+04  0.12933669894E+04  0.46999998093E+01 0.  1.
       -5    1    3    3    0  502  0.53161021779E+03  0.46989375967E+02  0.68059314286E+03  0.86489683848E+03  0.46999998093E+01 0. -1.
</event>
<event>
 5   0  0.1579820E-06  0.2100314E+04  0.7818609E-02  0.8561105E-01
        1   -1    0    0  501    0  0.00000000000E+00  0.00000000000E+00  0.71586197074E+03  0.71586197075E+03  0.50400001928E-02 0. -1.
       -1   -1    0    0    0  501  0.00000000000E+00  0.00000000000E+00 -0.15405622450E+04  0.15405622450E+04  0.50400001928E-02 0.  1.
    10030    2    1    2    0    0  0.00000000000E+00  0.00000000000E+00 -0.82470027421E+03  0.22564242157E+04  0.21003141905E+04 0.  0.
        2    1    3    3  502    0 -0.32895009944E+03  0.88043261410E+03  0.90935271903E+02  0.94426637109E+03  0.25500000920E-02 0. -1.
       -2    1    3    3    0  502  0.32895009944E+03 -0.88043261410E+03 -0.91563554612E+03  0.13121578446E+04  0.25500000920E-02 0.  1.
</event>
<event>
 5   0  0.3480134E-06  0.2100065E+04  0.7818609E-02  0.8561215E-01
        2   -1    0    0  501    0  0.00000000000E+00  0.00000000000E+00  0.16751700151E+04  0.16751700151E+04  0.25500000920E-02 0.  1.
       -2   -1    0    0    0  501  0.00000000000E+00  0.00000000000E+00 -0.65818258969E+03  0.65818258970E+03  0.25500000920E-02 0. -1.
    10030    2    1    2    0    0  0.00000000000E+00  0.00000000000E+00  0.10169874254E+04  0.23333526048E+04  0.21000645121E+04 0.  0.
        1    1    3    3  502    0 -0.38905179151E+01 -0.29212690189E+03 -0.61211501886E+03  0.67826105540E+03  0.50400001928E-02 0. -1.
       -1    1    3    3    0  502  0.38905179151E+01  0.29212690189E+03  0.16291024443E+04  0.16550915494E+04  0.50400001928E-02 0.  1.
</event>
<event>
 5   0  0.3574927E-06  0.2101657E+04  0.7818609E-02  0.8560514E-01
       -2   -1    0    0    0  501  0.00000000000E+00  0.00000000000E+00  0.10514131606E+04  0.10514131606E+04  0.25500000920E-02 0.  1.
        2   -1    0    0  501    0  0.00000000000E+00  0.00000000000E+00 -0.10502445239E+04  0.10502445239E+04  0.25500000920E-02 0. -1.
    10030    2    1    2    0    0  0.00000000000E+00  0.00000000000E+00  0.11686367484E+01  0.21016576845E+04  0.21016573596E+04 0.  0.
        3    1    3    3  502    0  0.60714907283E+02  0.87285732089E+03  0.58254205410E+03  0.10511524426E+04  0.10100000352E+00 0.  1.
       -3    1    3    3    0  502 -0.60714907283E+02 -0.87285732089E+03 -0.58137341735E+03  0.10505052419E+04  0.10100000352E+00 0. -1.
</event>
<event>
 5   0  0.3574927E-06  0.2095886E+04  0.7818609E-02  0.8563058E-01
       -2   -1    0    0    0  501  0.00000000000E+00  0.00000000000E+00  0.73850985189E+03  0.73850985190E+03  0.25500000920E-02 0.  1.
        2   -1    0    0  501    0  0.00000000000E+00  0.00000000000E+00 -0.14870273112E+04  0.14870273112E+04  0.25500000920E-02 0. -1.
    10030    2    1    2    0    0  0.00000000000E+00  0.00000000000E+00 -0.74851745927E+03  0.22255371631E+04  0.20958857978E+04 0.  0.
        3    1    3    3  502    0 -0.63197387461E+03  0.68479254487E+03 -0.88334554922E+03  0.12839903338E+04  0.10100000352E+00 0. -1.
       -3    1    3    3    0  502  0.63197387461E+03 -0.68479254487E+03  0.13482808995E+03  0.94154682928E+03  0.10100000352E+00 0.  1.
</event>
<event>
 5   0  0.1646510E-06  0.2098700E+04  0.7818609E-02  0.8561816E-01
        1   -1    0    0  501    0  0.00000000000E+00  0.00000000000E+00  0.16741204389E+04  0.16741204389E+04  0.50400001928E-02 0.  1.
       -1   -1    0    0    0  501  0.00000000000E+00  0.00000000000E+00 -0.65773973637E+03  0.65773973639E+03  0.50400001928E-02 0. -1.
    10030    2    1    2    0    0  0.00000000000E+00  0.00000000000E+00  0.10163807025E+04  0.23318601753E+04  0.20987001083E+04 0.  0.
        4    1    3    3  502    0  0.92850536520E+03  0.43187836387E+03  0.76275725707E+03  0.12768873797E+04  0.12699999809E+01 0. -1.
       -4    1    3    3    0  502 -0.92850536520E+03 -0.43187836387E+03  0.25362344545E+03  0.10549727956E+04  0.12699999809E+01 0.  1.
</event>
<event>
 5   0  0.3480134E-06  0.2099185E+04  0.7818609E-02  0.8561602E-01
        2   -1    0    0  501    0  0.00000000000E+00  0.00000000000E+00  0.19302777518E+04  0.19302777518E+04  0.25500000920E-02 0. -1.
       -2   -1    0    0    0  501  0.00000000000E+00  0.00000000000E+00 -0.57071821015E+03  0.57071821015E+03  0.25500000920E-02 0.  1.
    10030    2    1    2    0    0  0.00000000000E+00  0.00000000000E+00  0.13595595417E+04  0.25009959620E+04  0.20991852359E+04 0.  0.
        1    1    3    3  502    0  0.24825967570E+03  0.53639749372E+03  0.17131471192E+04  0.18122439653E+04  0.50400001928E-02 0. -1.
       -1    1    3    3    0  502 -0.24825967570E+03 -0.53639749372E+03 -0.35358757754E+03  0.68875199663E+03  0.50400001928E-02 0.  1.
</event>
<event>
 5   0  0.1579820E-06  0.2098822E+04  0.7818609E-02  0.8561763E-01
        1   -1    0    0  501    0  0.00000000000E+00  0.00000000000E+00  0.20009174423E+04  0.20009174423E+04  0.50400001928E-02 0. -1.
       -1   -1    0    0    0  501  0.00000000000E+00  0.00000000000E+00 -0.55037909207E+03  0.55037909210E+03  0.50400001928E-02 0.  1.
    10030    2    1    2    0    0  0.00000000000E+00  0.00000000000E+00  0.14505383503E+04  0.25512965344E+04  0.20988216935E+04 0.  0.
        2    1    3    3  502    0 -0.58805303215E+03 -0.10417553128E+03 -0.32366476965E+03  0.67927740508E+03  0.25500000920E-02 0.  1.
       -2    1    3    3    0  502  0.58805303215E+03  0.10417553128E+03  0.17742031199E+04  0.18720191293E+04  0.25500000920E-02 0. -1.
</event>
<event>
 5   0  0.1615098E-06  0.2100318E+04  0.7818609E-02  0.8561103E-01
        1   -1    0    0  501    0  0.00000000000E+00  0.00000000000E+00  0.66602978423E+03  0.66602978425E+03  0.50400001928E-02 0.  1.
       -1   -1    0    0    0  501  0.00000000000E+00  0.00000000000E+00 -0.16558323437E+04  0.16558323438E+04  0.50400001928E-02 0. -1.
    10030    2    1    2    0    0  0.00000000000E+00  0.00000000000E+00 -0.98980255952E+03  0.23218621280E+04  0.21003177461E+04 0.  0.
        1    1    3    3  502    0 -0.77888147386E+03 -0.29992764621E+03  0.20968220504E+03  0.86056932924E+03  0.50400001928E-02 0.  1.
       -1    1    3    3    0  502  0.77888147386E+03  0.29992764621E+03 -0.11994847646E+04  0.14612927988E+04  0.50400001928E-02 0. -1.
</event>
<event>
 5   0  0.1590067E-06  0.2099664E+04  0.7818609E-02  0.8561391E-01
        1   -1    0    0  501    0  0.00000000000E+00  0.00000000000E+00  0.24218619591E+04  0.24218619591E+04  0.50400001928E-02 0. -1.
       -1   -1    0    0    0  501  0.00000000000E+00  0.00000000000E+00 -0.45508253295E+03  0.45508253298E+03  0.50400001928E-02 0.  1.
    10030    2    1    2    0    0  0.00000000000E+00  0.00000000000E+00  0.19667794262E+04  0.28769444921E+04  0.20996638539E+04 0.  0.
        5    1    3    3  502    0  0.78606128509E+03 -0.15039935471E+02  0.19366407394E+04  0.20901478386E+04  0.46999998093E+01 0. -1.
       -5    1    3    3    0  502 -0.78606128509E+03  0.15039935471E+02  0.30138686763E+02  0.78679665353E+03  0.46999998093E+01 0.  1.
</event>
<event>
 5   0  0.3547583E-06  0.2100055E+04  0.7818609E-02  0.8561219E-01
        2   -1    0    0  501    0  0.00000000000E+00  0.00000000000E+00  0.16220933937E+04  0.16220933937E+04  0.25500000920E-02 0.  1.
       -2   -1    0    0    0  501  0.00000000000E+00  0.00000000000E+00 -0.67971268577E+03  0.67971268577E+03  0.25500000920E-02 0. -1.
    10030    2    1    2    0    0  0.00000000000E+00  0.00000000000E+00  0.94238070793E+03  0.23018060795E+04  0.21000547204E+04 0.  0.
        2    1    3    3  502    0 -0.14563377037E+03  0.64373175611E+03  0.13663227255E+04  0.15173785155E+04  0.25500000920E-02 0.  1.
       -2    1    3    3    0  502  0.14563377037E+03 -0.64373175611E+03 -0.42394201760E+03  0.78442756401E+03  0.25500000920E-02 0. -1.
</event>
<event>
 5   0  0.3480134E-06  0.2102292E+04  0.7818609E-02  0.8560234E-01
        2   -1    0    0  501    0  0.00000000000E+00  0.00000000000E+00  0.21392582363E+04  0.21392582363E+04  0.25500000920E-02 0. -1.
       -2   -1    0    0    0  501  0.00000000000E+00  0.00000000000E+00 -0.51649107938E+03  0.51649107939E+03  0.25500000920E-02 0.  1.
    10030    2    1    2    0    0  0.00000000000E+00  0.00000000000E+00  0.16227671569E+04  0.26557493157E+04  0.21022918880E+04 0.  0.
        1    1    3    3  502    0  0.46094221759E+03  0.21787989289E+03  0.19726030315E+04  0.20374253595E+04  0.50400001928E-02 0. -1.
       -1    1    3    3    0  502 -0.46094221759E+03 -0.21787989289E+03 -0.34983587455E+03  0.61832395621E+03  0.50400001928E-02 0.  1.
</event>
<event>
 5   0  0.3705828E-06  0.2100324E+04  0.7818609E-02  0.8561101E-01
       -2   -1    0    0    0  501  0.00000000000E+00  0.00000000000E+00  0.85572791137E+03  0.85572791137E+03  0.25500000920E-02 0. -1.
        2   -1    0    0  501    0  0.00000000000E+00  0.00000000000E+00 -0.12887741816E+04  0.12887741816E+04  0.25500000920E-02 0.  1.
    10030    2    1    2    0    0  0.00000000000E+00  0.00000000000E+00 -0.43304627019E+03  0.21445020929E+04  0.21003238213E+04 0.  0.
        5    1    3    3  502    0  0.59136380785E+03 -0.22068525798E+03  0.64041875587E+03  0.89920598818E+03  0.46999998093E+01 0. -1.
       -5    1    3    3    0  502 -0.59136380785E+03  0.22068525798E+03 -0.10734650261E+04  0.12452961047E+04  0.46999998093E+01 0.  1.
</event>
<event>
 5   0  0.1257125E-06  0.2099620E+04  0.7818609E-02  0.8561411E-01
        3   -1    0    0  501    0  0.00000000000E+00  0.00000000000E+00  0.10502628693E+04  0.10502628742E+04  0.10100000352E+00 0.  1.
       -3   -1    0    0    0  501  0.00000000000E+00  0.00000000000E+00 -0.10493577740E+04  0.10493577789E+04  0.10100000352E+00 0. -1.
    10030    2    1    2    0    0  0.00000000000E+00  0.00000000000E+00  0.90509533625E+00  0.20996206530E+04  0.20996204580E+04 0.  0.
        1    1    3    3  502    0  0.70885387285E+03 -0.24662760145E+03  0.73448431136E+03  0.10501267497E+04  0.50400001928E-02 0.  1.
       -1    1    3    3    0  502 -0.70885387285E+03  0.24662760145E+03 -0.73357921603E+03  0.10494939033E+04  0.50400001928E-02 0. -1.
</event>
<event>
 5   0  0.1579820E-06  0.2100263E+04  0.7818609E-02  0.8561128E-01
       -1   -1    0    0    0  501  0.00000000000E+00  0.00000000000E+00  0.91731074644E+03  0.91731074645E+03  0.50400001928E-02 0. -1.
        1   -1    0    0  501    0  0.00000000000E+00  0.00000000000E+00 -0.12021838222E+04  0.12021838222E+04  0.50400001928E-02 0.  1.
    10030    2    1    2    0    0  0.00000000000E+00  0.00000000000E+00 -0.28487307573E+03  0.21194945686E+04  0.21002629733E+04 0.  0.
        2    1    3    3  502    0 -0.73946454292E+03  0.53706401318E+03  0.37953322230E+03  0.98959134562E+03  0.25500000920E-02 0. -1.
       -2    1    3    3    0  502  0.73946454292E+03 -0.53706401318E+03 -0.66440629803E+03  0.11299032230E+04  0.25500000920E-02 0.  1.
</event>
<event>
 5   0  0.3636435E-06  0.2100867E+04  0.7818609E-02  0.8560861E-01
       -2   -1    0    0    0  501  0.00000000000E+00  0.00000000000E+00  0.10761860857E+04  0.10761860857E+04  0.25500000920E-02 0. -1.
        2   -1    0    0  501    0  0.00000000000E+00  0.00000000000E+00 -0.10252973417E+04  0.10252973417E+04  0.25500000920E-02 0.  1.
    10030    2    1    2    0    0  0.00000000000E+00  0.00000000000E+00  0.50888743966E+02  0.21014834274E+04  0.21008671856E+04 0.  0.
        4    1    3    3  502    0 -0.54394598650E+03  0.46888665330E+03 -0.74138155628E+03  0.10321725412E+04  0.12699999809E+01 0.  1.
       -4    1    3    3    0  502  0.54394598650E+03 -0.46888665330E+03  0.79227030025E+03  0.10693108862E+04  0.12699999809E+01 0. -1.
</event>
<event>
 5   0  0.3480134E-06  0.2099724E+04  0.7818609E-02  0.8561365E-01
       -2   -1    0    0    0  501  0.00000000000E+00  0.00000000000E+00  0.86117048991E+03  0.86117048992E+03  0.25500000920E-02 0. -1.
        2   -1    0    0  501    0  0.00000000000E+00  0.00000000000E+00 -0.12798976394E+04  0.12798976394E+04  0.25500000920E-02 0.  1.
    10030    2    1    2    0    0  0.00000000000E+00  0.00000000000E+00 -0.41872714952E+03  0.21410681293E+04  0.20997238649E+04 0.  0.
        1    1    3    3  502    0 -0.51436360628E+03  0.46180211408E+02 -0.11414227603E+04  0.12528162072E+04  0.50400001928E-02 0.  1.
       -1    1    3    3    0  502  0.51436360628E+03 -0.46180211408E+02  0.72269561073E+03  0.88825192214E+03  0.50400001928E-02 0. -1.
</event>
<event>
 5   0  0.1615098E-06  0.2101008E+04  0.7818609E-02  0.8560799E-01
        1   -1    0    0  501    0  0.00000000000E+00  0.00000000000E+00  0.98006191251E+03  0.98006191252E+03  0.50400001928E-02 0. -1.
       -1   -1    0    0    0  501  0.00000000000E+00  0.00000000000E+00 -0.11260094595E+04  0.11260094595E+04  0.50400001928E-02 0.  1.
    10030    2    1    2    0    0  0.00000000000E+00  0.00000000000E+00 -0.14594754702E+03  0.21060713721E+04  0.21010083145E+04 0.  0.
        1    1    3    3  502    0 -0.50492572420E+03 -0.34652497414E+03 -0.92857001243E+03  0.11123272058E+04  0.50400001928E-02 0.  1.
       -1    1    3    3    0  502  0.50492572420E+03  0.34652497414E+03  0.78262246541E+03  0.99374416630E+03  0.50400001928E-02 0. -1.
</event>
<event>
 5   0  0.1590067E-06  0.2100246E+04  0.7818609E-02  0.8561135E-01
       -1   -1    0    0    0  501  0.00000000000E+00  0.00000000000E+00  0.13196734098E+04  0.13196734098E+04  0.50400001928E-02 0. -1.
        1   -1    0    0  501    0  0.00000000000E+00  0.00000000000E+00 -0.83562975633E+03  0.83562975635E+03  0.50400001928E-02 0.  1.
    10030    2    1    2    0    0  0.00000000000E+00  0.00000000000E+00  0.48404365342E+03  0.21553031661E+04  0.21002460521E+04 0.  0.
        5    1    3    3  502    0  0.43754425830E+03  0.76284684702E+03 -0.34691806610E+03  0.94538591304E+03  0.46999998093E+01 0.  1.
       -5    1    3    3    0  502 -0.43754425830E+03 -0.76284684702E+03  0.83096171952E+03  0.12099172531E+04  0.46999998093E+01 0. -1.
</event>
<event>
 5   0  0.3705828E-06  0.2102202E+04  0.7818609E-02  0.8560274E-01
        2   -1    0    0  501    0  0.00000000000E+00  0.00000000000E+00  0.14098161820E+04  0.14098161820E+04  0.25500000920E-02 0. -1.
       -2   -1    0    0    0  501  0.00000000000E+00  0.00000000000E+00 -0.78365750417E+03  0.78365750417E+03  0.25500000920E-02 0.  1.
    10030    2    1    2    0    0  0.00000000000E+00  0.00000000000E+00  0.62615867784E+03  0.21934736862E+04  0.21022017320E+04 0.  0.
        5    1    3    3  502    0  0.47271125524E+02 -0.33530409464E+03 -0.72517465545E+03  0.80035227624E+03  0.46999998093E+01 0.  1.
       -5    1    3    3    0  502 -0.47271125524E+02  0.33530409464E+03  0.13513333333E+04  0.13931214099E+04  0.46999998093E+01 0. -1.
</event>
<event>
 5   0  0.3705828E-06  0.2096643E+04  0.7818609E-02  0.8562723E-01
        2   -1    0    0  501    0  0.00000000000E+00  0.00000000000E+00  0.16182099672E+04  0.16182099672E+04  0.25500000920E-02 0.  1.
       -2   -1    0    0    0  501  0.00000000000E+00  0.00000000000E+00 -0.67913217245E+03  0.67913217246E+03  0.25500000920E-02 0. -1.
    10030    2    1    2    0    0  0.00000000000E+00  0.00000000000E+00  0.93907779475E+03  0.22973421397E+04  0.20966434609E+04 0.  0.
        5    1    3    3  502    0 -0.59061829917E+03  0.86102002536E+03  0.36692097852E+03  0.11067242447E+04  0.46999998093E+01 0. -1.
       -5    1    3    3    0  502  0.59061829917E+03 -0.86102002536E+03  0.57215681622E+03  0.11906178949E+04  0.46999998093E+01 0.  1.
</event>
<event>
 5   0  0.3705828E-06  0.2099281E+04  0.7818609E-02  0.8561560E-01
       -2   -1    0    0    0  501  0.00000000000E+00  0.00000000000E+00  0.12973624583E+04  0.12973624583E+04  0.25500000920E-02 0.  1.
        2   -1    0    0  501    0  0.00000000000E+00  0.00000000000E+00 -0.84921953009E+03  0.84921953009E+03  0.25500000920E-02 0. -1.
    10030    2    1    2    0    0  0.00000000000E+00  0.00000000000E+00  0.44814292821E+03  0.21465819884E+04  0.20992813410E+04 0.  0.
        5    1    3    3  502    0 -0.93825629934E+03 -0.47016775387E+03  0.24294949432E+03  0.10772321694E+04  0.46999998093E+01 0. -1.
       -5    1    3    3    0  502  0.93825629934E+03  0.47016775387E+03  0.20519343389E+03  0.10693498190E+04  0.46999998093E+01 0.  1.
</event>
<event>
 5   0  0.3636435E-06  0.2099855E+04  0.7818609E-02  0.8561307E-01
       -2   -1    0    0    0  501  0.00000000000E+00  0.00000000000E+00  0.41386597886E+03  0.41386597887E+03  0.25500000920E-02 0.  1.
        2   -1    0    0  501    0  0.00000000000E+00  0.00000000000E+00 -0.26635368379E+04  0.26635368379E+04  0.25500000920E-02 0. -1.
    10030    2    1    2    0    0  0.00000000000E+00  0.00000000000E+00 -0.22496708591E+04  0.30774028168E+04  0.20998545480E+04 0.  0.
        4    1    3    3  502    0  0.22457463112E+03  0.83031714712E+03 -0.24248651426E+03  0.89367871869E+03  0.12699999809E+01 0.  1.
       -4    1    3    3    0  502 -0.22457463112E+03 -0.83031714712E+03 -0.20071843448E+04  0.21837240981E+04  0.12699999809E+01 0. -1.
</event>
<event>
 5   0  0.3636435E-06  0.2099595E+04  0.7818609E-02  0.8561422E-01
       -2   -1    0    0    0  501  0.00000000000E+00  0.00000000000E+00  0.15336294785E+04  0.15336294785E+04  0.25500000920E-02 0. -1.
        2   -1    0    0  501    0  0.00000000000E+00  0.00000000000E+00 -0.71860577433E+03  0.71860577433E+03  0.25500000920E-02 0.  1.
    10030    2    1    2    0    0  0.00000000000E+00  0.00000000000E+00  0.81502370420E+03  0.22522352529E+04  0.20995951981E+04 0.  0.
        4    1    3    3  502    0  0.63680569574E+03  0.67219210952E+03  0.93815643828E+03  0.13181437106E+04  0.12699999809E+01 0. -1.
       -4    1    3    3    0  502 -0.63680569574E+03 -0.67219210952E+03 -0.12313273408E+03  0.93409154226E+03  0.12699999809E+01 0.  1.
</event>
<event>
 5   0  0.1590067E-06  0.2099851E+04  0.7818609E-02  0.8561309E-01
       -1   -1    0    0    0  501  0.00000000000E+00  0.00000000000E+00  0.11880335078E+04  0.11880335078E+04  0.50400001928E-02 0.  1.
        1   -1    0    0  501    0  0.00000000000E+00  0.00000000000E+00 -0.92787237523E+03  0.92787237524E+03  0.50400001928E-02 0. -1.
    10030    2    1    2    0    0  0.00000000000E+00  0.00000000000E+00  0.26016113259E+03  0.21159058831E+04  0.20998509212E+04 0.  0.
        5    1    3    3  502    0 -0.56754875683E+03  0.71715795322E+03 -0.38951132545E+03  0.99406653897E+03  0.46999998093E+01 0. -1.
       -5    1    3    3    0  502  0.56754875683E+03 -0.71715795322E+03  0.64967245803E+03  0.11218393441E+04  0.46999998093E+01 0.  1.
</event>
<event>
 5   0  0.3574927E-06  0.2100476E+04  0.7818609E-02  0.8561034E-01
       -2   -1    0    0    0  501  0.00000000000E+00  0.00000000000E+00  0.85726402511E+03  0.85726402511E+03  0.25500000920E-02 0.  1.
        2   -1    0    0  501    0  0.00000000000E+00  0.00000000000E+00 -0.12866510567E+04  0.12866510567E+04  0.25500000920E-02 0. -1.
    10030    2    1    2    0    0  0.00000000000E+00  0.00000000000E+00 -0.42938703157E+03  0.21439150818E+04  0.21004758163E+04 0.  0.
        3    1    3    3  502    0 -0.36402511564E+03  0.45791056828E+03 -0.11049724186E+04  0.12502641439E+04  0.10100000352E+00 0. -1.
       -3    1    3    3    0  502  0.36402511564E+03 -0.45791056828E+03  0.67558538707E+03  0.89365093789E+03  0.10100000352E+00 0.  1.
</event>
<event>
 5   0  0.3547583E-06  0.2100989E+04  0.7818609E-02  0.8560808E-01
       -2   -1    0    0    0  501  0.00000000000E+00  0.00000000000E+00  0.66382019183E+03  0.66382019184E+03  0.25500000920E-02 0.  1.
        2   -1    0    0  501    0  0.00000000000E+00  0.00000000000E+00 -0.16624055995E+04  0.16624055995E+04  0.25500000920E-02 0. -1.
    10030    2    1    2    0    0  0.00000000000E+00  0.00000000000E+00 -0.99858540767E+03  0.23262257913E+04  0.21009887234E+04 0.  0.
        2    1    3    3  502    0  0.27428261513E+03  0.35926224710E+03  0.55064973919E+03  0.71240118643E+03  0.25500000920E-02 0.  1.
       -2    1    3    3    0  502 -0.27428261513E+03 -0.35926224710E+03 -0.15492351469E+04  0.16138246049E+04  0.25500000920E-02 0. -1.
</event>
<event>
 5   0  0.1653260E-06  0.2099885E+04  0.7818609E-02  0.8561294E-01
        1   -1    0    0  501    0  0.00000000000E+00  0.00000000000E+00  0.94091187127E+03  0.94091187129E+03  0.50400001928E-02 0.  1.
       -1   -1    0    0    0  501  0.00000000000E+00  0.00000000000E+00 -0.11716073322E+04  0.11716073322E+04  0.50400001928E-02 0. -1.
    10030    2    1    2    0    0  0.00000000000E+00  0.00000000000E+00 -0.23069546089E+03  0.21125192035E+04  0.20998849943E+04 0.  0.
        3    1    3    3  502    0 -0.39112139917E+03  0.18532921039E+02  0.86471065482E+03  0.94923334582E+03  0.10100000352E+00 0.  1.
       -3    1    3    3    0  502  0.39112139917E+03 -0.18532921039E+02 -0.10954061157E+04  0.11632858576E+04  0.10100000352E+00 0. -1.
</event>
<event>
 5   0  0.3705828E-06  0.2098548E+04  0.7818609E-02  0.8561883E-01
        2   -1    0    0  501    0  0.00000000000E+00  0.00000000000E+00  0.17405071822E+04  0.17405071822E+04  0.25500000920E-02 0.  1.
       -2   -1    0    0    0  501  0.00000000000E+00  0.00000000000E+00 -0.63256036178E+03  0.63256036178E+03  0.25500000920E-02 0. -1.
    10030    2    1    2    0    0  0.00000000000E+00  0.00000000000E+00  0.11079468204E+04  0.23730675440E+04  0.20985479293E+04 0.  0.
        5    1    3    3  502    0  0.43773572894E+03 -0.92379449700E+03  0.28650558746E+03  0.10616573754E+04  0.46999998093E+01 0. -1.
       -5    1    3    3    0  502 -0.43773572894E+03  0.92379449700E+03  0.82144123297E+03  0.13114101686E+04  0.46999998093E+01 0.  1.
</event>
<event>
 5   0  0.3547583E-06  0.2099988E+04  0.7818609E-02  0.8561249E-01
       -2   -1    0    0    0  501  0.00000000000E+00  0.00000000000E+00  0.11537381375E+04  0.11537381375E+04  0.25500000920E-02 0.  1.
        2   -1    0    0  501    0  0.00000000000E+00  0.00000000000E+00 -0.95557828603E+03  0.95557828603E+03  0.25500000920E-02 0. -1.
    10030    2    1    2    0    0  0.00000000000E+00  0.00000000000E+00  0.19815985145E+03  0.21093164235E+04  0.20999877256E+04 0.  0.
        2    1    3    3  502    0  0.32410998346E+03  0.78653136170E+03 -0.51912817410E+03  0.99658061664E+03  0.25500000920E-02 0. -1.
       -2    1    3    3    0  502 -0.32410998346E+03 -0.78653136170E+03  0.71728802555E+03  0.11127358069E+04  0.25500000920E-02 0.  1.
</event>
<event>
 5   0  0.1615098E-06  0.2099594E+04  0.7818609E-02  0.8561422E-01
       -1   -1    0    0    0  501  0.00000000000E+00  0.00000000000E+00  0.86397536462E+03  0.86397536463E+03  0.50400001928E-02 0. -1.
        1   -1    0    0  501    0  0.00000000000E+00  0.00000000000E+00 -0.12755848001E+04  0.12755848001E+04  0.50400001928E-02 0.  1.
    10030    2    1    2    0    0  0.00000000000E+00  0.00000000000E+00 -0.41160943545E+03  0.21395601647E+04  0.20995940967E+04 0.  0.
        1    1    3    3  502    0 -0.64229387123E+03 -0.27603736894E+03  0.59226037762E+03  0.91624800190E+03  0.50400001928E-02 0. -1.
       -1    1    3    3    0  502  0.64229387123E+03  0.27603736894E+03 -0.10038698131E+04  0.12233121628E+04  0.50400001928E-02 0.  1.
</event>
<event>
 5   0  0.3705828E-06  0.2101202E+04  0.7818609E-02  0.8560714E-01
       -2   -1    0    0    0  501  0.00000000000E+00  0.00000000000E+00  0.61505441822E+03  0.61505441823E+03  0.25500000920E-02 0.  1.
        2   -1    0    0  501    0  0.00000000000E+00  0.00000000000E+00 -0.17945767668E+04  0.17945767668E+04  0.25500000920E-02 0. -1.
    10030    2    1    2    0    0  0.00000000000E+00  0.00000000000E+00 -0.11795223485E+04  0.24096311850E+04  0.21012019125E+04 0.  0.
        5    1    3    3  502    0 -0.37620120244E+02 -0.20855348242E+03 -0.17697991910E+04  0.17824480624E+04  0.46999998093E+01 0. -1.
       -5    1    3    3    0  502  0.37620120244E+02  0.20855348242E+03  0.59027684251E+03  0.62718312260E+03  0.46999998093E+01 0.  1.
</event>
<event>
 5   0  0.1257125E-06  0.2101052E+04  0.7818609E-02  0.8560780E-01
       -4   -1    0    0    0  501  0.00000000000E+00  0.00000000000E+00  0.97176886428E+03  0.97176969415E+03  0.12699999809E+01 0. -1.
        4   -1    0    0  501    0  0.00000000000E+00  0.00000000000E+00 -0.11356646928E+04  0.11356654029E+04  0.12699999809E+01 0.  1.
    10030    2    1    2    0    0  0.00000000000E+00  0.00000000000E+00 -0.16389582851E+03  0.21074350971E+04  0.21010523186E+04 0.  0.
        4    1    3    3  502    0  0.72208088809E+00  0.77067159823E+03  0.63413148595E+03  0.99802784936E+03  0.12699999809E+01 0. -1.
       -4    1    3    3    0  502 -0.72208088809E+00 -0.77067159823E+03 -0.79802731446E+03  0.11094072477E+04  0.12699999809E+01 0.  1.
</event>
<event>
 5   0  0.3574927E-06  0.2103386E+04  0.7818609E-02  0.8559753E-01
       -2   -1    0    0    0  501  0.00000000000E+00  0.00000000000E+00  0.10895825017E+04  0.10895825017E+04  0.25500000920E-02 0. -1.
        2   -1    0    0  501    0  0.00000000000E+00  0.00000000000E+00 -0.10151210263E+04  0.10151210263E+04  0.25500000920E-02 0.  1.
    10030    2    1    2    0    0  0.00000000000E+00  0.00000000000E+00  0.74461475411E+02  0.21047035280E+04  0.21033859440E+04 0.  0.
        3    1    3    3  502    0 -0.64086038296E+03  0.80093961873E+02 -0.79331391173E+03  0.10229682526E+04  0.10100000352E+00 0.  1.
       -3    1    3    3    0  502  0.64086038296E+03 -0.80093961873E+02  0.86777538714E+03  0.10817352753E+04  0.10100000352E+00 0. -1.
</event>
<event>
 5   0  0.1579820E-06  0.2100318E+04  0.7818609E-02  0.8561103E-01
        1   -1    0    0  501    0  0.00000000000E+00  0.00000000000E+00  0.17032131868E+04  0.17032131868E+04  0.50400001928E-02 0. -1.
       -1   -1    0    0    0  501  0.00000000000E+00  0.00000000000E+00 -0.64750216774E+03  0.64750216776E+03  0.50400001928E-02 0.  1.
    10030    2    1    2    0    0  0.00000000000E+00  0.00000000000E+00  0.10557110191E+04  0.23507153546E+04  0.21003182907E+04 0.  0.
        2    1    3    3  502    0 -0.88854012643E+03  0.18374519136E+03 -0.63922678540E+02  0.90958889640E+03  0.25500000920E-02 0.  1.
       -2    1    3    3    0  502  0.88854012643E+03 -0.18374519136E+03  0.11196336976E+04  0.14411264582E+04  0.25500000920E-02 0. -1.
</event>
<event>
 5   0  0.1590067E-06  0.2099777E+04  0.7818609E-02  0.8561341E-01
       -1   -1    0    0    0  501  0.00000000000E+00  0.00000000000E+00  0.87388923231E+03  0.87388923233E+03  0.50400001928E-02 0.  1.
        1   -1    0    0  501    0  0.00000000000E+00  0.00000000000E+00 -0.12613340042E+04  0.12613340042E+04  0.50400001928E-02 0. -1.
    10030    2    1    2    0    0  0.00000000000E+00  0.00000000000E+00 -0.38744477190E+03  0.21352232365E+04  0.20997773260E+04 0.  0.
        5    1    3    3  502    0  0.72462800041E+03  0.26792859432E+03 -0.91661853316E+03  0.11987840072E+04  0.46999998093E+01 0. -1.
       -5    1    3    3    0  502 -0.72462800041E+03 -0.26792859432E+03  0.52917376126E+03  0.93643922933E+03  0.46999998093E+01 0.  1.
</event>
<event>
 5   0  0.3547583E-06  0.2100108E+04  0.7818609E-02  0.8561196E-01
        2   -1    0    0  501    0  0.00000000000E+00  0.00000000000E+00  0.14380943622E+04  0.14380943622E+04  0.25500000920E-02 0.  1.
       -2   -1    0    0    0  501  0.00000000000E+00  0.00000000000E+00 -0.76671867992E+03  0.76671867993E+03  0.25500000920E-02 0. -1.
    10030    2    1    2    0    0  0.00000000000E+00  0.00000000000E+00  0.67137568226E+03  0.22048130421E+04  0.21001083886E+04 0.  0.
        2    1    3    3  502    0 -0.10099313463E+04  0.14309082159E+03  0.73901670580E+02  0.10226914316E+04  0.25500000920E-02 0.  1.
       -2    1    3    3    0  502  0.10099313463E+04 -0.14309082159E+03  0.59747401168E+03  0.11821216105E+04  0.25500000920E-02 0. -1.
</event>
<event>
 5   0  0.3480134E-06  0.2101503E+04  0.7818609E-02  0.8560582E-01
       -2   -1    0    0    0  501  0.00000000000E+00  0.00000000000E+00  0.13560309109E+04  0.13560309109E+04  0.25500000920E-02 0. -1.
        2   -1    0    0  501    0  0.00000000000E+00  0.00000000000E+00 -0.81419889528E+03  0.81419889528E+03  0.25500000920E-02 0.  1.
    10030    2    1    2    0    0  0.00000000000E+00  0.00000000000E+00  0.54183201560E+03  0.21702298062E+04  0.21015031474E+04 0.  0.
        1    1    3    3  502    0 -0.71182674110E+03 -0.30509019184E+03  0.10042820966E+04  0.12682112853E+04  0.50400001928E-02 0. -1.
       -1    1    3    3    0  502  0.71182674110E+03  0.30509019184E+03 -0.46245008104E+03  0.90201852087E+03  0.50400001928E-02 0.  1.
</event>
<event>
 5   0  0.1579820E-06  0.2100418E+04  0.7818609E-02  0.8561059E-01
       -1   -1    0    0    0  501  0.00000000000E+00  0.00000000000E+00  0.11385604729E+04  0.11385604729E+04  0.50400001928E-02 0. -1.
        1   -1    0    0  501    0  0.00000000000E+00  0.00000000000E+00 -0.96871364616E+03  0.96871364618E+03  0.50400001928E-02 0.  1.
    10030    2    1    2    0    0  0.00000000000E+00  0.00000000000E+00  0.16984682672E+03  0.21072741191E+04  0.21004181175E+04 0.  0.
        2    1    3    3  502    0  0.86877008657E+03  0.69648394996E+02 -0.50293003516E+03  0.10062559230E+04  0.25500000920E-02 0.  1.
       -2    1    3    3    0  502 -0.86877008657E+03 -0.69648394996E+02  0.67277686188E+03  0.11010181961E+04  0.25500000920E-02 0. -1.
</event>
<event>
 5   0  0.1653260E-06  0.2100978E+04  0.7818609E-02  0.8560813E-01
        1   -1    0    0  501    0  0.00000000000E+00  0.00000000000E+00  0.12481334589E+04  0.12481334589E+04  0.50400001928E-02 0. -1.
       -1   -1    0    0    0  501  0.00000000000E+00  0.00000000000E+00 -0.88414179125E+03  0.88414179126E+03  0.50400001928E-02 0.  1.
    10030    2    1    2    0    0  0.00000000000E+00  0.00000000000E+00  0.36399166764E+03  0.21322752502E+04  0.21009778220E+04 0.  0.
        3    1    3    3  502    0 -0.10441814551E+04 -0.97367586234E+02  0.24399250912E+03  0.10767208147E+04  0.10100000352E+00 0.  1.
       -3    1    3    3    0  502  0.10441814551E+04  0.97367586234E+02  0.11999915852E+03  0.10555544355E+04  0.10100000352E+00 0. -1.
</event>
<event>
 5   0  0.3547583E-06  0.2099956E+04  0.7818609E-02  0.8561263E-01
       -2   -1    0    0    0  501  0.00000000000E+00  0.00000000000E+00  0.55704485280E+03  0.55704485280E+03  0.25500000920E-02 0.  1.
        2   -1    0    0  501    0  0.00000000000E+00  0.00000000000E+00 -0.19791114892E+04  0.19791114892E+04  0.25500000920E-02 0. -1.
    10030    2    1    2    0    0  0.00000000000E+00  0.00000000000E+00 -0.14220666364E+04  0.25361563420E+04  0.20999560645E+04 0.  0.
        2    1    3    3  502    0  0.80828940378E+03 -0.10473084017E+03 -0.15104606376E+04  0.17163308675E+04  0.25500000920E-02 0. -1.
       -2    1    3    3    0  502 -0.80828940378E+03  0.10473084017E+03  0.88394001176E+02  0.81982547447E+03  0.25500000920E-02 0.  1.
</event>
<event>
 5   0  0.1615098E-06  0.2100430E+04  0.7818609E-02  0.8561054E-01
       -1   -1    0    0    0  501  0.00000000000E+00  0.00000000000E+00  0.42945104802E+03  0.42945104805E+03  0.50400001928E-02 0. -1.
        1   -1    0    0  501    0  0.00000000000E+00  0.00000000000E+00 -0.25682816479E+04  0.25682816479E+04  0.50400001928E-02 0.  1.
    10030    2    1    2    0    0  0.00000000000E+00  0.00000000000E+00 -0.21388305999E+04  0.29977326960E+04  0.21004297135E+04 0.  0.
        1    1    3    3  502    0 -0.94654486002E+03  0.30614005128E+03 -0.58905637798E+03  0.11561385382E+04  0.50400001928E-02 0. -1.
       -1    1    3    3    0  502  0.94654486002E+03 -0.30614005128E+03 -0.15497742219E+04  0.18415941578E+04  0.50400001928E-02 0.  1.
</event>
<event>
 5   0  0.1615098E-06  0.2104478E+04  0.7818609E-02  0.8559273E-01
        1   -1    0    0  501    0  0.00000000000E+00  0.00000000000E+00  0.12239928435E+04  0.12239928435E+04  0.50400001928E-02 0. -1.
       -1   -1    0    0    0  501  0.00000000000E+00  0.00000000000E+00 -0.90458586947E+03  0.90458586949E+03  0.50400001928E-02 0.  1.
    10030    2    1    2    0    0  0.00000000000E+00  0.00000000000E+00  0.31940697405E+03  0.21285787130E+04  0.21044777315E+04 0.  0.
        1    1    3    3  502    0 -0.41043411724E+03 -0.72528635908E+03  0.80948591408E+03  0.11617934035E+04  0.50400001928E-02 0. -1.
       -1    1    3    3    0  502  0.41043411724E+03  0.72528635908E+03 -0.49007894003E+03  0.96678530954E+03  0.50400001928E-02 0.  1.
</event>
<event>
 5   0  0.1579820E-06  0.2100096E+04  0.7818609E-02  0.8561201E-01
        1   -1    0    0  501    0  0.00000000000E+00  0.00000000000E+00  0.20415651866E+04  0.20415651866E+04  0.50400001928E-02 0. -1.
       -1   -1    0    0    0  501  0.00000000000E+00  0.00000000000E+00 -0.54007620917E+03  0.54007620919E+03  0.50400001928E-02 0.  1.
    10030    2    1    2    0    0  0.00000000000E+00  0.00000000000E+00  0.15014889774E+04  0.25816413958E+04  0.21000959852E+04 0.  0.
        2    1    3    3  502    0 -0.52268249477E+03 -0.65161524581E+03  0.15328723508E+04  0.17457081837E+04  0.25500000920E-02 0.  1.
       -2    1    3    3    0  502  0.52268249477E+03  0.65161524581E+03 -0.31383373363E+02  0.83593321207E+03  0.25500000920E-02 0. -1.
</event>
<event>
 5   0  0.3636435E-06  0.2099096E+04  0.7818609E-02  0.8561642E-01
        2   -1    0    0  501    0  0.00000000000E+00  0.00000000000E+00  0.13920448698E+04  0.13920448698E+04  0.25500000920E-02 0.  1.
       -2   -1    0    0    0  501  0.00000000000E+00  0.00000000000E+00 -0.79131850988E+03  0.79131850989E+03  0.25500000920E-02 0. -1.
    10030    2    1    2    0    0  0.00000000000E+00  0.00000000000E+00  0.60072635989E+03  0.21833633797E+04  0.20990958740E+04 0.  0.
        4    1    3    3  502    0 -0.51276746810E+02  0.82702898449E+03 -0.36965714176E+03  0.90733359979E+03  0.12699999809E+01 0. -1.
       -4    1    3    3    0  502  0.51276746810E+02 -0.82702898449E+03  0.97038350165E+03  0.12760297799E+04  0.12699999809E+01 0.  1.
</event>
<event>
 5   0  0.1257125E-06  0.2099109E+04  0.7818609E-02  0.8561636E-01
        4   -1    0    0  501    0  0.00000000000E+00  0.00000000000E+00  0.74220055615E+03  0.74220164271E+03  0.12699999809E+01 0.  1.
       -4   -1    0    0    0  501  0.00000000000E+00  0.00000000000E+00 -0.14841844985E+04  0.14841850419E+04  0.12699999809E+01 0. -1.
    10030    2    1    2    0    0  0.00000000000E+00  0.00000000000E+00 -0.74198394238E+03  0.22263866846E+04  0.20991087391E+04 0.  0.
        3    1    3    3  502    0  0.80859184070E+03 -0.59289699470E+03 -0.41995675371E+02  0.10035493302E+04  0.10100000352E+00 0.  1.
       -3    1    3    3    0  502 -0.80859184070E+03  0.59289699470E+03 -0.69998826701E+03  0.12228373544E+04  0.10100000352E+00 0. -1.
</event>
<event>
 5   0  0.3636435E-06  0.2099610E+04  0.7818609E-02  0.8561415E-01
       -2   -1    0    0    0  501  0.00000000000E+00  0.00000000000E+00  0.10904467844E+04  0.10904467844E+04  0.25500000920E-02 0.  1.
        2   -1    0    0  501    0  0.00000000000E+00  0.00000000000E+00 -0.10106777042E+04  0.10106777042E+04  0.25500000920E-02 0. -1.
    10030    2    1    2    0    0  0.00000000000E+00  0.00000000000E+00  0.79769080176E+02  0.21011244885E+04  0.20996097281E+04 0.  0.
        4    1    3    3  502    0 -0.21070802086E+03 -0.28036572443E+03  0.10300860650E+04  0.10881551928E+04  0.12699999809E+01 0.  1.
       -4    1    3    3    0  502  0.21070802086E+03  0.28036572443E+03 -0.95031698482E+03  0.10129692957E+04  0.12699999809E+01 0. -1.
</event>
<event>
 5   0  0.3480134E-06  0.2100063E+04  0.7818609E-02  0.8561216E-01
       -2   -1    0    0    0  501  0.00000000000E+00  0.00000000000E+00  0.91731707985E+03  0.91731707986E+03  0.25500000920E-02 0.  1.
        2   -1    0    0  501    0  0.00000000000E+00  0.00000000000E+00 -0.12019461390E+04  0.12019461390E+04  0.25500000920E-02 0. -1.
    10030    2    1    2    0    0  0.00000000000E+00  0.00000000000E+00 -0.28462905912E+03  0.21192632188E+04  0.21000625918E+04 0.  0.
        1    1    3    3  502    0 -0.18741623866E+03 -0.29323993500E+03  0.85742535953E+03  0.92536087727E+03  0.50400001928E-02 0.  1.
       -1    1    3    3    0  502  0.18741623866E+03  0.29323993500E+03 -0.11420544186E+04  0.11939023416E+04  0.50400001928E-02 0. -1.
</event>
<event>
 5   0  0.1257125E-06  0.2100601E+04  0.7818609E-02  0.8560979E-01
        4   -1    0    0  501    0  0.00000000000E+00  0.00000000000E+00  0.11915786181E+04  0.11915792949E+04  0.12699999809E+01 0.  1.
       -4   -1    0    0    0  501  0.00000000000E+00  0.00000000000E+00 -0.92577141242E+03  0.92577228353E+03  0.12699999809E+01 0. -1.
    10030    2    1    2    0    0  0.00000000000E+00  0.00000000000E+00  0.26580720566E+03  0.21173515784E+04  0.21006009226E+04 0.  0.
        2    1    3    3  502    0  0.19010348390E+02 -0.38499728080E+03  0.11177035779E+04  0.11823052007E+04  0.25500000920E-02 0.  1.
       -2    1    3    3    0  502 -0.19010348390E+02  0.38499728080E+03 -0.85189637219E+03  0.93504637774E+03  0.25500000920E-02 0. -1.
</event>
<event>
 5   0  0.3574927E-06  0.2096160E+04  0.7818609E-02  0.8562937E-01
        2   -1    0    0  501    0  0.00000000000E+00  0.00000000000E+00  0.76233286737E+03  0.76233286737E+03  0.25500000920E-02 0. -1.
       -2   -1    0    0    0  501  0.00000000000E+00  0.00000000000E+00 -0.14409349612E+04  0.14409349612E+04  0.25500000920E-02 0.  1.
    10030    2    1    2    0    0  0.00000000000E+00  0.00000000000E+00 -0.67860209383E+03  0.22032678286E+04  0.20961603762E+04 0.  0.
        3    1    3    3  502    0  0.18639112151E+03  0.67404216573E+03 -0.11598285604E+04  0.13543547508E+04  0.10100000352E+00 0.  1.
       -3    1    3    3    0  502 -0.18639112151E+03 -0.67404216573E+03  0.48122646652E+03  0.84891307779E+03  0.10100000352E+00 0. -1.
</event>
<event>
 5   0  0.3636435E-06  0.2100250E+04  0.7818609E-02  0.8561133E-01
        2   -1    0    0  501    0  0.00000000000E+00  0.00000000000E+00  0.11504762613E+04  0.11504762613E+04  0.25500000920E-02 0.  1.
       -2   -1    0    0    0  501  0.00000000000E+00  0.00000000000E+00 -0.95852661889E+03  0.95852661889E+03  0.25500000920E-02 0. -1.
    10030    2    1    2    0    0  0.00000000000E+00  0.00000000000E+00  0.19194964245E+03  0.21090028802E+04  0.21002496241E+04 0.  0.
        4    1    3    3  502    0 -0.50869011380E+03  0.57954284016E+02 -0.82470854144E+03  0.97070599160E+03  0.12699999809E+01 0. -1.
       -4    1    3    3    0  502  0.50869011380E+03 -0.57954284016E+02  0.10166581839E+04  0.11382968886E+04  0.12699999809E+01 0.  1.
</event>
<event>
 5   0  0.1653260E-06  0.2100054E+04  0.7818609E-02  0.8561220E-01
        1   -1    0    0  501    0  0.00000000000E+00  0.00000000000E+00  0.16123542011E+04  0.16123542011E+04  0.50400001928E-02 0.  1.
       -1   -1    0    0    0  501  0.00000000000E+00  0.00000000000E+00 -0.68381796346E+03  0.68381796348E+03  0.50400001928E-02 0. -1.
    10030    2    1    2    0    0  0.00000000000E+00  0.00000000000E+00  0.92853623765E+03  0.22961721646E+04  0.21000540624E+04 0.  0.
        3    1    3    3  502    0 -0.52396221116E+03 -0.33488097745E+03  0.13893764619E+04  0.15221854785E+04  0.10100000352E+00 0.  1.
       -3    1    3    3    0  502  0.52396221116E+03  0.33488097745E+03 -0.46084022427E+03  0.77398668612E+03  0.10100000352E+00 0. -1.
</event>
<event>
 5   0  0.1579820E-06  0.2101291E+04  0.7818609E-02  0.8560675E-01
       -1   -1    0    0    0  501  0.00000000000E+00  0.00000000000E+00  0.24863867992E+04  0.24863867992E+04  0.50400001928E-02 0.  1.
        1   -1    0    0  501    0  0.00000000000E+00  0.00000000000E+00 -0.44395985374E+03  0.44395985377E+03  0.50400001928E-02 0. -1.
    10030    2    1    2    0    0  0.00000000000E+00  0.00000000000E+00  0.20424269454E+04  0.29303466529E+04  0.21012909553E+04 0.  0.
        2    1    3    3  502    0 -0.47585889891E+03 -0.34402469195E+03 -0.19377236542E+03  0.61833842671E+03  0.25500000920E-02 0. -1.
       -2    1    3    3    0  502  0.47585889891E+03  0.34402469195E+03  0.22361993108E+04  0.23120082262E+04  0.25500000920E-02 0.  1.
</event>
<event>
 5   0  0.1590067E-06  0.2100444E+04  0.7818609E-02  0.8561048E-01
        1   -1    0    0  501    0  0.00000000000E+00  0.00000000000E+00  0.19204769696E+04  0.19204769696E+04  0.50400001928E-02 0. -1.
       -1   -1    0    0    0  501  0.00000000000E+00  0.00000000000E+00 -0.57431884629E+03  0.57431884631E+03  0.50400001928E-02 0.  1.
    10030    2    1    2    0    0  0.00000000000E+00  0.00000000000E+00  0.13461581233E+04  0.24947958159E+04  0.21004438746E+04 0.  0.
        5    1    3    3  502    0 -0.41718588675E+03 -0.54320378433E+02  0.18160035028E+04  0.18641044981E+04  0.46999998093E+01 0. -1.
       -5    1    3    3    0  502  0.41718588675E+03  0.54320378433E+02 -0.46984537956E+03  0.63069131777E+03  0.46999998093E+01 0.  1.
</event>
<event>
 5   0  0.3636435E-06  0.2099738E+04  0.7818609E-02  0.8561359E-01
       -2   -1    0    0    0  501  0.00000000000E+00  0.00000000000E+00  0.96972386834E+03  0.96972386834E+03  0.25500000920E-02 0. -1.
        2   -1    0    0  501    0  0.00000000000E+00  0.00000000000E+00 -0.11366379959E+04  0.11366379959E+04  0.25500000920E-02 0.  1.
    10030    2    1    2    0    0  0.00000000000E+00  0.00000000000E+00 -0.16691412753E+03  0.21063618642E+04  0.20997380734E+04 0.  0.
        4    1    3    3  502    0 -0.57347278587E+03 -0.68726439339E+03  0.46692660007E+03  0.10095669593E+04  0.12699999809E+01 0. -1.
       -4    1    3    3    0  502  0.57347278587E+03  0.68726439339E+03 -0.63384072760E+03  0.10967949049E+04  0.12699999809E+01 0.  1.
</event>
<event>
 5   0  0.1615098E-06  0.2095625E+04  0.7818609E-02  0.8563173E-01
       -1   -1    0    0    0  501  0.00000000000E+00  0.00000000000E+00  0.78963914042E+03  0.78963914044E+03  0.50400001928E-02 0. -1.
        1   -1    0    0  501    0  0.00000000000E+00  0.00000000000E+00 -0.13903954359E+04  0.13903954359E+04  0.50400001928E-02 0.  1.
    10030    2    1    2    0    0  0.00000000000E+00  0.00000000000E+00 -0.60075629543E+03  0.21800345763E+04  0.20956246389E+04 0.  0.
        1    1    3    3  502    0 -0.50445593455E+03  0.24602485755E+03 -0.12208380475E+04  0.13436701822E+04  0.50400001928E-02 0.  1.
       -1    1    3    3    0  502  0.50445593455E+03 -0.24602485755E+03  0.62008175204E+03  0.83636439407E+03  0.50400001928E-02 0. -1.
</event>
<event>
 5   0  0.1590067E-06  0.2099863E+04  0.7818609E-02  0.8561304E-01
       -1   -1    0    0    0  501  0.00000000000E+00  0.00000000000E+00  0.12266440595E+04  0.12266440595E+04  0.50400001928E-02 0. -1.
        1   -1    0    0  501    0  0.00000000000E+00  0.00000000000E+00 -0.89867617913E+03  0.89867617914E+03  0.50400001928E-02 0.  1.
    10030    2    1    2    0    0  0.00000000000E+00  0.00000000000E+00  0.32796788036E+03  0.21253202386E+04  0.20998626589E+04 0.  0.
        5    1    3    3  502    0  0.34125728636E+02 -0.90333163027E+03  0.70446270216E+03  0.11460638675E+04  0.46999998093E+01 0.  1.
       -5    1    3    3    0  502 -0.34125728636E+02  0.90333163027E+03 -0.37649482180E+03  0.97925637116E+03  0.46999998093E+01 0. -1.
</event>
<event>
 5   0  0.1615098E-06  0.2099985E+04  0.7818609E-02  0.8561250E-01
       -1   -1    0    0    0  501  0.00000000000E+00  0.00000000000E+00  0.10301255789E+04  0.10301255789E+04  0.50400001928E-02 0.  1.
        1   -1    0    0  501    0  0.00000000000E+00  0.00000000000E+00 -0.10702424036E+04  0.10702424036E+04  0.50400001928E-02 0. -1.
    10030    2    1    2    0    0  0.00000000000E+00  0.00000000000E+00 -0.40116824667E+02  0.21003679825E+04  0.20999848338E+04 0.  0.
        1    1    3    3  502    0  0.89219066690E+03  0.54810802664E+03  0.57785605991E+02  0.10486971781E+04  0.50400001928E-02 0.  1.
       -1    1    3    3    0  502 -0.89219066690E+03 -0.54810802664E+03 -0.97902430658E+02  0.10516708044E+04  0.50400001928E-02 0. -1.
</event>
<event>
 5   0  0.1579820E-06  0.2101865E+04  0.7818609E-02  0.8560422E-01
       -1   -1    0    0    0  501  0.00000000000E+00  0.00000000000E+00  0.13641199447E+04  0.13641199447E+04  0.50400001928E-02 0.  1.
        1   -1    0    0  501    0  0.00000000000E+00  0.00000000000E+00 -0.80964984262E+03  0.80964984264E+03  0.50400001928E-02 0. -1.
    10030    2    1    2    0    0  0.00000000000E+00  0.00000000000E+00  0.55447010204E+03  0.21737697873E+04  0.21018653606E+04 0.  0.
        2    1    3    3  502    0  0.14995187842E+03  0.82112156932E+03 -0.38314926001E+03  0.91843864951E+03  0.25500000920E-02 0. -1.
       -2    1    3    3    0  502 -0.14995187842E+03 -0.82112156932E+03  0.93761936206E+03  0.12553311378E+04  0.25500000920E-02 0.  1.
</event>
<event>
 5   0  0.3705828E-06  0.2100055E+04  0.7818609E-02  0.8561219E-01
       -2   -1    0    0    0  501  0.00000000000E+00  0.00000000000E+00  0.14006479436E+04  0.14006479436E+04  0.25500000920E-02 0. -1.
        2   -1    0    0  501    0  0.00000000000E+00  0.00000000000E+00 -0.78717660654E+03  0.78717660654E+03  0.25500000920E-02 0.  1.
    10030    2    1    2    0    0  0.00000000000E+00  0.00000000000E+00  0.61347133704E+03  0.21878245501E+04  0.21000545661E+04 0.  0.
        5    1    3    3  502    0  0.56861692029E+03  0.85294160742E+03  0.54361642272E+03  0.11603342160E+04  0.46999998093E+01 0. -1.
       -5    1    3    3    0  502 -0.56861692029E+03 -0.85294160742E+03  0.69854914321E+02  0.10274903341E+04  0.46999998093E+01 0.  1.
</event>
<event>
 5   0  0.3636435E-06  0.2100457E+04  0.7818609E-02  0.8561042E-01
       -2   -1    0    0    0  501  0.00000000000E+00  0.00000000000E+00  0.76035612754E+03  0.76035612754E+03  0.25500000920E-02 0.  1.
        2   -1    0    0  501    0  0.00000000000E+00  0.00000000000E+00 -0.14506098189E+04  0.14506098189E+04  0.25500000920E-02 0. -1.
    10030    2    1    2    0    0  0.00000000000E+00  0.00000000000E+00 -0.69025369140E+03  0.22109659465E+04  0.21004571545E+04 0.  0.
        4    1    3    3  502    0  0.27894727190E+03 -0.36079025159E+02  0.71997125974E+03  0.77296410286E+03  0.12699999809E+01 0.  1.
       -4    1    3    3    0  502 -0.27894727190E+03  0.36079025159E+02 -0.14102249511E+04  0.14380018436E+04  0.12699999809E+01 0. -1.
</event>
<event>
 5   0  0.1653260E-06  0.2099583E+04  0.7818609E-02  0.8561427E-01
        1   -1    0    0  501    0  0.00000000000E+00  0.00000000000E+00  0.12265760595E+04  0.12265760595E+04  0.50400001928E-02 0. -1.
       -1   -1    0    0    0  501  0.00000000000E+00  0.00000000000E+00 -0.89848647235E+03  0.89848647237E+03  0.50400001928E-02 0.  1.
    10030    2    1    2    0    0  0.00000000000E+00  0.00000000000E+00  0.32808958713E+03  0.21250625319E+04  0.20995828126E+04 0.  0.
        3    1    3    3  502    0 -0.24292720290E+02  0.22771291096E+03 -0.87289724339E+03  0.90243720767E+03  0.10100000352E+00 0.  1.
       -3    1    3    3    0  502  0.24292720290E+02 -0.22771291096E+03  0.12009868305E+04  0.12226253242E+04  0.10100000352E+00 0. -1.
</event>
<event>
 5   0  0.1579820E-06  0.2100369E+04  0.7818609E-02  0.8561081E-01
        1   -1    0    0  501    0  0.00000000000E+00  0.00000000000E+00  0.12023538588E+04  0.12023538588E+04  0.50400001928E-02 0. -1.
       -1   -1    0    0    0  501  0.00000000000E+00  0.00000000000E+00 -0.91727381021E+03  0.91727381023E+03  0.50400001928E-02 0.  1.
    10030    2    1    2    0    0  0.00000000000E+00  0.00000000000E+00  0.28508004854E+03  0.21196276690E+04  0.21003692107E+04 0.  0.
        2    1    3    3  502    0  0.27622667588E+03  0.83514570694E+03 -0.43640839310E+03  0.98194796902E+03  0.25500000920E-02 0.  1.
       -2    1    3    3    0  502 -0.27622667588E+03 -0.83514570694E+03  0.72148844165E+03  0.11376797000E+04  0.25500000920E-02 0. -1.
</event>
<event>
 5   0  0.3636435E-06  0.2099990E+04  0.7818609E-02  0.8561248E-01
        2   -1    0    0  501    0  0.00000000000E+00  0.00000000000E+00  0.20513984616E+04  0.20513984616E+04  0.25500000920E-02 0. -1.
       -2   -1    0    0    0  501  0.00000000000E+00  0.00000000000E+00 -0.53743317807E+03  0.53743317807E+03  0.25500000920E-02 0.  1.
    10030    2    1    2    0    0  0.00000000000E+00  0.00000000000E+00  0.15139652836E+04  0.25888316397E+04  0.20999900902E+04 0.  0.
        4    1    3    3  502    0  0.42187171254E+03  0.94509923417E+03  0.97508305796E+03  0.14219623367E+04  0.12699999809E+01 0. -1.
       -4    1    3    3    0  502 -0.42187171254E+03 -0.94509923417E+03  0.53888222562E+03  0.11668693030E+04  0.12699999809E+01 0.  1.
</event>
<event>
 5   0  0.1615098E-06  0.2099246E+04  0.7818609E-02  0.8561575E-01
       -1   -1    0    0    0  501  0.00000000000E+00  0.00000000000E+00  0.65696805440E+03  0.65696805442E+03  0.50400001928E-02 0. -1.
        1   -1    0    0  501    0  0.00000000000E+00  0.00000000000E+00 -0.16769592682E+04  0.16769592682E+04  0.50400001928E-02 0.  1.
    10030    2    1    2    0    0  0.00000000000E+00  0.00000000000E+00 -0.10199912138E+04  0.23339273227E+04  0.20992462150E+04 0.  0.
        1    1    3    3  502    0 -0.90364869928E+03 -0.52109939456E+03 -0.63957133898E+03  0.12235918635E+04  0.50400001928E-02 0. -1.
       -1    1    3    3    0  502  0.90364869928E+03  0.52109939456E+03 -0.38041987486E+03  0.11103354592E+04  0.50400001928E-02 0.  1.
</event>
<event>
 5   0  0.3480134E-06  0.2100861E+04  0.7818609E-02  0.8560864E-01
       -2   -1    0    0    0  501  0.00000000000E+00  0.00000000000E+00  0.11166482648E+04  0.11166482648E+04  0.25500000920E-02 0.  1.
        2   -1    0    0  501    0  0.00000000000E+00  0.00000000000E+00 -0.98813955803E+03  0.98813955803E+03  0.25500000920E-02 0. -1.
    10030    2    1    2    0    0  0.00000000000E+00  0.00000000000E+00  0.12850870680E+03  0.21047878229E+04  0.21008610834E+04 0.  0.
        1    1    3    3  502    0 -0.23415501971E+03  0.88878761563E+03 -0.44525526550E+03  0.10212855871E+04  0.50400001928E-02 0. -1.
       -1    1    3    3    0  502  0.23415501971E+03 -0.88878761563E+03  0.57376397230E+03  0.10835022358E+04  0.50400001928E-02 0.  1.
</event>
<event>
 5   0  0.1615098E-06  0.2100025E+04  0.7818609E-02  0.8561232E-01
        1   -1    0    0  501    0  0.00000000000E+00  0.00000000000E+00  0.10599141166E+04  0.10599141167E+04  0.50400001928E-02 0. -1.
       -1   -1    0    0    0  501  0.00000000000E+00  0.00000000000E+00 -0.10402035725E+04  0.10402035725E+04  0.50400001928E-02 0.  1.
    10030    2    1    2    0    0  0.00000000000E+00  0.00000000000E+00  0.19710544157E+02  0.21001176892E+04  0.21000251910E+04 0.  0.
        1    1    3    3  502    0 -0.37130418597E+03  0.77127185361E+03 -0.59828283495E+03  0.10443511963E+04  0.50400001928E-02 0.  1.
       -1    1    3    3    0  502  0.37130418597E+03 -0.77127185361E+03  0.61799337911E+03  0.10557664928E+04  0.50400001928E-02 0. -1.
</event>
<event>
 5   0  0.1615098E-06  0.2099278E+04  0.7818609E-02  0.8561561E-01
        1   -1    0    0  501    0  0.00000000000E+00  0.00000000000E+00  0.13324410087E+04  0.13324410087E+04  0.50400001928E-02 0. -1.
       -1   -1    0    0    0  501  0.00000000000E+00  0.00000000000E+00 -0.82685999268E+03  0.82685999269E+03  0.50400001928E-02 0.  1.
    10030    2    1    2    0    0  0.00000000000E+00  0.00000000000E+00  0.50558101604E+03  0.21593010014E+04  0.20992781262E+04 0.  0.
        1    1    3    3  502    0 -0.10742548214E+03 -0.10172711868E+04  0.49480768594E+03  0.11363166582E+04  0.50400001928E-02 0. -1.
       -1    1    3    3    0  502  0.10742548214E+03  0.10172711868E+04  0.10773330096E+02  0.10229843432E+04  0.50400001928E-02 0.  1.
</event>
<event>
 5   0  0.3574927E-06  0.2100174E+04  0.7818609E-02  0.8561167E-01
        2   -1    0    0  501    0  0.00000000000E+00  0.00000000000E+00  0.18753335670E+04  0.18753335670E+04  0.25500000920E-02 0.  1.
       -2   -1    0    0    0  501  0.00000000000E+00  0.00000000000E+00 -0.58799291881E+03  0.58799291882E+03  0.25500000920E-02 0. -1.
    10030    2    1    2    0    0  0.00000000000E+00  0.00000000000E+00  0.12873406482E+04  0.24633264858E+04  0.21001741431E+04 0.  0.
        3    1    3    3  502    0 -0.48579050857E+03  0.38933255298E+03 -0.34819629558E+03  0.71331124026E+03  0.10100000352E+00 0. -1.
       -3    1    3    3    0  502  0.48579050857E+03 -0.38933255298E+03  0.16355369437E+04  0.17500152455E+04  0.10100000352E+00 0.  1.
</event>
<event>
 5   0  0.1590067E-06  0.2100680E+04  0.7818609E-02  0.8560944E-01
        1   -1    0    0  501    0  0.00000000000E+00  0.00000000000E+00  0.70757075465E+03  0.70757075467E+03  0.50400001928E-02 0. -1.
       -1   -1    0    0    0  501  0.00000000000E+00  0.00000000000E+00 -0.15591575553E+04  0.15591575553E+04  0.50400001928E-02 0.  1.
    10030    2    1    2    0    0  0.00000000000E+00  0.00000000000E+00 -0.85158680063E+03  0.22667283100E+04  0.21006801642E+04 0.  0.
        5    1    3    3  502    0  0.58349475858E+03  0.86746136352E+03 -0.31661853825E+03  0.10923482683E+04  0.46999998093E+01 0. -1.
       -5    1    3    3    0  502 -0.58349475858E+03 -0.86746136352E+03 -0.53496826238E+03  0.11743800417E+04  0.46999998093E+01 0.  1.
</event>
<event>
 5   0  0.3574927E-06  0.2097370E+04  0.7818609E-02  0.8562403E-01
        2   -1    0    0  501    0  0.00000000000E+00  0.00000000000E+00  0.12860197371E+04  0.12860197371E+04  0.25500000920E-02 0. -1.
       -2   -1    0    0    0  501  0.00000000000E+00  0.00000000000E+00 -0.85515061562E+03  0.85515061563E+03  0.25500000920E-02 0.  1.
    10030    2    1    2    0    0  0.00000000000E+00  0.00000000000E+00  0.43086912152E+03  0.21411703528E+04  0.20973703249E+04 0.  0.
        3    1    3    3  502    0  0.47748728558E+03 -0.53217551762E+03 -0.56774707841E+03  0.91298501887E+03  0.10100000352E+00 0.  1.
       -3    1    3    3    0  502 -0.47748728558E+03  0.53217551762E+03  0.99861619993E+03  0.12281853339E+04  0.10100000352E+00 0. -1.
</event>
<event>
 5   0  0.3636435E-06  0.2099421E+04  0.7818609E-02  0.8561499E-01
        2   -1    0    0  501    0  0.00000000000E+00  0.00000000000E+00  0.11672859631E+04  0.11672859631E+04  0.25500000920E-02 0.  1.
       -2   -1    0    0    0  501  0.00000000000E+00  0.00000000000E+00 -0.94397775178E+03  0.94397775178E+03  0.25500000920E-02 0. -1.
    10030    2    1    2    0    0  0.00000000000E+00  0.00000000000E+00  0.22330821136E+03  0.21112637149E+04  0.20994208527E+04 0.  0.
        4    1    3    3  502    0  0.65721543043E+02 -0.38617028284E+03 -0.86772023785E+03  0.95204350355E+03  0.12699999809E+01 0. -1.
       -4    1    3    3    0  502 -0.65721543043E+02  0.38617028284E+03  0.10910284492E+04  0.11592202114E+04  0.12699999809E+01 0.  1.
</event>
<event>
 5   0  0.3574927E-06  0.2100163E+04  0.7818609E-02  0.8561171E-01
       -2   -1    0    0    0  501  0.00000000000E+00  0.00000000000E+00  0.41141592838E+03  0.41141592838E+03  0.25500000920E-02 0.  1.
        2   -1    0    0  501    0  0.00000000000E+00  0.00000000000E+00 -0.26801865159E+04  0.26801865159E+04  0.25500000920E-02 0. -1.
    10030    2    1    2    0    0  0.00000000000E+00  0.00000000000E+00 -0.22687705875E+04  0.30916024442E+04  0.21001632543E+04 0.  0.
        3    1    3    3  502    0  0.38743718530E+03 -0.95463580720E+03 -0.14333087441E+04  0.17651660158E+04  0.10100000352E+00 0. -1.
       -3    1    3    3    0  502 -0.38743718530E+03  0.95463580720E+03 -0.83546184334E+03  0.13264364285E+04  0.10100000352E+00 0.  1.
</event>
<event>
 5   0  0.3480134E-06  0.2100288E+04  0.7818609E-02  0.8561117E-01
       -2   -1    0    0    0  501  0.00000000000E+00  0.00000000000E+00  0.10521693516E+04  0.10521693516E+04  0.25500000920E-02 0. -1.
        2   -1    0    0  501    0  0.00000000000E+00  0.00000000000E+00 -0.10481222235E+04  0.10481222236E+04  0.25500000920E-02 0.  1.
    10030    2    1    2    0    0  0.00000000000E+00  0.00000000000E+00  0.40471280044E+01  0.21002915751E+04  0.21002876758E+04 0.  0.
        1    1    3    3  502    0 -0.10302309009E+04  0.12229950886E+01  0.20555496006E+03  0.10505379796E+04  0.50400001928E-02 0.  1.
       -1    1    3    3    0  502  0.10302309009E+04 -0.12229950886E+01 -0.20150783206E+03  0.10497535955E+04  0.50400001928E-02 0. -1.
</event>
<event>
 5   0  0.1579820E-06  0.2101639E+04  0.7818609E-02  0.8560522E-01
       -1   -1    0    0    0  501  0.00000000000E+00  0.00000000000E+00  0.63725877878E+03  0.63725877880E+03  0.50400001928E-02 0. -1.
        1   -1    0    0  501    0  0.00000000000E+00  0.00000000000E+00 -0.17327684247E+04  0.17327684247E+04  0.50400001928E-02 0.  1.
    10030    2    1    2    0    0  0.00000000000E+00  0.00000000000E+00 -0.10955096459E+04  0.23700272035E+04  0.21016392557E+04 0.  0.
        2    1    3    3  502    0 -0.59420343491E+03  0.40763523141E+03  0.31475650820E+03  0.78633063237E+03  0.25500000920E-02 0. -1.
       -2    1    3    3    0  502  0.59420343491E+03 -0.40763523141E+03 -0.14102661541E+04  0.15836965711E+04  0.25500000920E-02 0.  1.
</event>
<event>
 5   0  0.1646510E-06  0.2098503E+04  0.7818609E-02  0.8561903E-01
        1   -1    0    0  501    0  0.00000000000E+00  0.00000000000E+00  0.15353531998E+04  0.15353531998E+04  0.50400001928E-02 0. -1.
       -1   -1    0    0    0  501  0.00000000000E+00  0.00000000000E+00 -0.71705216379E+03  0.71705216380E+03  0.50400001928E-02 0.  1.
    10030    2    1    2    0    0  0.00000000000E+00  0.00000000000E+00  0.81830103600E+03  0.22524053636E+04  0.20985026415E+04 0.  0.
        4    1    3    3  502    0 -0.35376177128E+03  0.74105193182E+03 -0.29191455792E+03  0.87150506511E+03  0.12699999809E+01 0.  1.
       -4    1    3    3    0  502  0.35376177128E+03 -0.74105193182E+03  0.11102155939E+04  0.13809002985E+04  0.12699999809E+01 0. -1.
</event>
<event>
 5   0  0.3705828E-06  0.2100085E+04  0.7818609E-02  0.8561206E-01
        2   -1    0    0  501    0  0.00000000000E+00  0.00000000000E+00  0.12278709023E+04  0.12278709023E+04  0.25500000920E-02 0.  1.
       -2   -1    0    0    0  501  0.00000000000E+00  0.00000000000E+00 -0.89796854340E+03  0.89796854341E+03  0.25500000920E-02 0. -1.
    10030    2    1    2    0    0  0.00000000000E+00  0.00000000000E+00  0.32990235893E+03  0.21258394457E+04  0.21000851846E+04 0.  0.
        5    1    3    3  502    0 -0.35747237285E+03 -0.99237663026E+02  0.11593075770E+04  0.12172307748E+04  0.46999998093E+01 0.  1.
       -5    1    3    3    0  502  0.35747237285E+03  0.99237663026E+02 -0.82940521807E+03  0.90860867092E+03  0.46999998093E+01 0. -1.
</event>
<event>
 5   0  0.1615098E-06  0.2099168E+04  0.7818609E-02  0.8561610E-01
       -1   -1    0    0    0  501  0.00000000000E+00  0.00000000000E+00  0.91235006050E+03  0.91235006052E+03  0.50400001928E-02 0. -1.
        1   -1    0    0  501    0  0.00000000000E+00  0.00000000000E+00 -0.12074603205E+04  0.12074603206E+04  0.50400001928E-02 0.  1.
    10030    2    1    2    0    0  0.00000000000E+00  0.00000000000E+00 -0.29511026004E+03  0.21198103811E+04  0.20991679271E+04 0.  0.
        1    1    3    3  502    0  0.26817898518E+03 -0.16259219535E+03  0.86392839121E+03  0.91909110280E+03  0.50400001928E-02 0. -1.
       -1    1    3    3    0  502 -0.26817898518E+03  0.16259219535E+03 -0.11590386513E+04  0.12007192783E+04  0.50400001928E-02 0.  1.
</event>
<event>
 5   0  0.1646510E-06  0.2098319E+04  0.7818609E-02  0.8561984E-01
       -1   -1    0    0    0  501  0.00000000000E+00  0.00000000000E+00  0.12977619810E+04  0.12977619810E+04  0.50400001928E-02 0.  1.
        1   -1    0    0  501    0  0.00000000000E+00  0.00000000000E+00 -0.84817973522E+03  0.84817973523E+03  0.50400001928E-02 0. -1.
    10030    2    1    2    0    0  0.00000000000E+00  0.00000000000E+00  0.44958224576E+03  0.21459417162E+04  0.20983187684E+04 0.  0.
        4    1    3    3  502    0 -0.15770932091E+03  0.10305369462E+04  0.34517059503E+03  0.10981907758E+04  0.12699999809E+01 0.  1.
       -4    1    3    3    0  502  0.15770932091E+03 -0.10305369462E+04  0.10441165072E+03  0.10477509404E+04  0.12699999809E+01 0. -1.
</event>
<event>
 5   0  0.1590067E-06  0.2098982E+04  0.7818609E-02  0.8561692E-01
        1   -1    0    0  501    0  0.00000000000E+00  0.00000000000E+00  0.93831449217E+03  0.93831449219E+03  0.50400001928E-02 0.  1.
       -1   -1    0    0    0  501  0.00000000000E+00  0.00000000000E+00 -0.11738405795E+04  0.11738405795E+04  0.50400001928E-02 0. -1.
    10030    2    1    2    0    0  0.00000000000E+00  0.00000000000E+00 -0.23552608730E+03  0.21121550717E+04  0.20989822555E+04 0.  0.
        5    1    3    3  502    0 -0.87918505346E+03 -0.35073872807E+03 -0.57384641112E+03  0.11069353220E+04  0.46999998093E+01 0. -1.
       -5    1    3    3    0  502  0.87918505346E+03  0.35073872807E+03  0.33832032382E+03  0.10052197497E+04  0.46999998093E+01 0.  1.
</event>
<event>
 5   0  0.3636435E-06  0.2102537E+04  0.7818609E-02  0.8560127E-01
       -2   -1    0    0    0  501  0.00000000000E+00  0.00000000000E+00  0.60856847058E+03  0.60856847059E+03  0.25500000920E-02 0.  1.
        2   -1    0    0  501    0  0.00000000000E+00  0.00000000000E+00 -0.18160082049E+04  0.18160082049E+04  0.25500000920E-02 0. -1.
    10030    2    1    2    0    0  0.00000000000E+00  0.00000000000E+00 -0.12074397343E+04  0.24245766755E+04  0.21025368828E+04 0.  0.
        4    1    3    3  502    0  0.34449907206E+03 -0.98276060498E+03 -0.43794548465E+03  0.11297326577E+04  0.12699999809E+01 0.  1.
       -4    1    3    3    0  502 -0.34449907206E+03  0.98276060498E+03 -0.76949424969E+03  0.12948440178E+04  0.12699999809E+01 0. -1.
</event>
<event>
 5   0  0.1615098E-06  0.2095022E+04  0.7818609E-02  0.8563440E-01
        1   -1    0    0  501    0  0.00000000000E+00  0.00000000000E+00  0.89680707586E+03  0.89680707587E+03  0.50400001928E-02 0. -1.
       -1   -1    0    0    0  501  0.00000000000E+00  0.00000000000E+00 -0.12235396250E+04  0.12235396250E+04  0.50400001928E-02 0.  1.
    10030    2    1    2    0    0  0.00000000000E+00  0.00000000000E+00 -0.32673254910E+03  0.21203467008E+04  0.20950217119E+04 0.  0.
        1    1    3    3  502    0 -0.77838790323E+03  0.56003507514E+02 -0.87056528395E+03  0.11691484227E+04  0.50400001928E-02 0.  1.
       -1    1    3    3    0  502  0.77838790323E+03 -0.56003507514E+02  0.54383273485E+03  0.95119827810E+03  0.50400001928E-02 0. -1.
</event>
<event>
 5   0  0.3547583E-06  0.2104634E+04  0.7818609E-02  0.8559205E-01
        2   -1    0    0  501    0  0.00000000000E+00  0.00000000000E+00  0.11084140459E+04  0.11084140459E+04  0.25500000920E-02 0. -1.
       -2   -1    0    0    0  501  0.00000000000E+00  0.00000000000E+00 -0.99905859263E+03  0.99905859264E+03  0.25500000920E-02 0.  1.
    10030    2    1    2    0    0  0.00000000000E+00  0.00000000000E+00  0.10935545325E+03  0.21074726385E+04  0.21046335327E+04 0.  0.
        2    1    3    3  502    0 -0.69793224196E+03 -0.75546560656E+03  0.27753778899E+03  0.10653003902E+04  0.25500000920E-02 0. -1.
       -2    1    3    3    0  502  0.69793224196E+03  0.75546560656E+03 -0.16818233575E+03  0.10421722483E+04  0.25500000920E-02 0.  1.
</event>
<event>
 5   0  0.3705828E-06  0.2100388E+04  0.7818609E-02  0.8561072E-01
        2   -1    0    0  501    0  0.00000000000E+00  0.00000000000E+00  0.15267105543E+04  0.15267105543E+04  0.25500000920E-02 0.  1.
       -2   -1    0    0    0  501  0.00000000000E+00  0.00000000000E+00 -0.72240770206E+03  0.72240770206E+03  0.25500000920E-02 0. -1.
    10030    2    1    2    0    0  0.00000000000E+00  0.00000000000E+00  0.80430285224E+03  0.22491182564E+04  0.21003880244E+04 0.  0.
        5    1    3    3  502    0 -0.90547837275E+03  0.24096829681E+03 -0.10569811941E+03  0.94294802933E+03  0.46999998093E+01 0. -1.
       -5    1    3    3    0  502  0.90547837275E+03 -0.24096829681E+03  0.91000097165E+03  0.13061702270E+04  0.46999998093E+01 0.  1.
</event>
<event>
 5   0  0.1653260E-06  0.2107325E+04  0.7818609E-02  0.8558023E-01
        1   -1    0    0  501    0  0.00000000000E+00  0.00000000000E+00  0.16683648858E+04  0.16683648858E+04  0.50400001928E-02 0.  1.
       -1   -1    0    0    0  501  0.00000000000E+00  0.00000000000E+00 -0.66544507141E+03  0.66544507143E+03  0.50400001928E-02 0. -1.
    10030    2    1    2    0    0  0.00000000000E+00  0.00000000000E+00  0.10029198144E+04  0.23338099572E+04  0.21073254999E+04 0.  0.
        3    1    3    3  502    0 -0.56573515524E+03  0.58827370677E+03  0.12394761510E+04  0.14840563867E+04  0.10100000352E+00 0.  1.
       -3    1    3    3    0  502  0.56573515524E+03 -0.58827370677E+03 -0.23655633662E+03  0.84975357048E+03  0.10100000352E+00 0. -1.
</event>
<event>
 5   0  0.1590067E-06  0.2096916E+04  0.7818609E-02  0.8562603E-01
       -1   -1    0    0    0  501  0.00000000000E+00  0.00000000000E+00  0.13648437634E+04  0.13648437634E+04  0.50400001928E-02 0.  1.
        1   -1    0    0  501    0  0.00000000000E+00  0.00000000000E+00 -0.80541401741E+03  0.80541401742E+03  0.50400001928E-02 0. -1.
    10030    2    1    2    0    0  0.00000000000E+00  0.00000000000E+00  0.55942974603E+03  0.21702577809E+04  0.20969161153E+04 0.  0.
        5    1    3    3  502    0 -0.85714168753E+03 -0.40917376995E+03  0.73923390091E+03  0.12035796180E+04  0.46999998093E+01 0.  1.
       -5    1    3    3    0  502  0.85714168753E+03  0.40917376995E+03 -0.17980415488E+03  0.96667816291E+03  0.46999998093E+01 0. -1.
</event>
<event>
 5   0  0.3547583E-06  0.2100026E+04  0.7818609E-02  0.8561232E-01
       -2   -1    0    0    0  501  0.00000000000E+00  0.00000000000E+00  0.19892058789E+04  0.19892058789E+04  0.25500000920E-02 0. -1.
        2   -1    0    0  501    0  0.00000000000E+00  0.00000000000E+00 -0.55425485190E+03  0.55425485190E+03  0.25500000920E-02 0.  1.
    10030    2    1    2    0    0  0.00000000000E+00  0.00000000000E+00  0.14349510270E+04  0.25434607308E+04  0.21000257235E+04 0.  0.
        2    1    3    3  502    0 -0.14568427981E+03  0.10368647992E+04  0.62199755554E+03  0.12178643111E+04  0.25500000920E-02 0. -1.
       -2    1    3    3    0  502  0.14568427981E+03 -0.10368647992E+04  0.81295347146E+03  0.13255964197E+04  0.25500000920E-02 0.  1.
</event>
<event>
 5   0  0.1646510E-06  0.2099705E+04  0.7818609E-02  0.8561374E-01
        1   -1    0    0  501    0  0.00000000000E+00  0.00000000000E+00  0.67895304868E+03  0.67895304870E+03  0.50400001928E-02 0. -1.
       -1   -1    0    0    0  501  0.00000000000E+00  0.00000000000E+00 -0.16233667293E+04  0.16233667293E+04  0.50400001928E-02 0.  1.
    10030    2    1    2    0    0  0.00000000000E+00  0.00000000000E+00 -0.94441368061E+03  0.23023197780E+04  0.20997045411E+04 0.  0.
        4    1    3    3  502    0  0.21736139627E+03 -0.70349643258E+03 -0.12927756968E+04  0.14877579851E+04  0.12699999809E+01 0.  1.
       -4    1    3    3    0  502 -0.21736139627E+03  0.70349643258E+03  0.34836201615E+03  0.81456179289E+03  0.12699999809E+01 0. -1.
</event>
<event>
 5   0  0.3574927E-06  0.2101435E+04  0.7818609E-02  0.8560611E-01
       -2   -1    0    0    0  501  0.00000000000E+00  0.00000000000E+00  0.40967580554E+03  0.40967580555E+03  0.25500000920E-02 0.  1.
        2   -1    0    0  501    0  0.00000000000E+00  0.00000000000E+00 -0.26948317101E+04  0.26948317101E+04  0.25500000920E-02 0. -1.
    10030    2    1    2    0    0  0.00000000000E+00  0.00000000000E+00 -0.22851559046E+04  0.31045075157E+04  0.21014350827E+04 0.  0.
        3    1    3    3  502    0 -0.41923226771E+03 -0.24668107663E+03 -0.25184766815E+04  0.25650208680E+04  0.10100000352E+00 0. -1.
       -3    1    3    3    0  502  0.41923226771E+03  0.24668107663E+03  0.23332077693E+03  0.53948664766E+03  0.10100000352E+00 0.  1.
</event>
<event>
 5   0  0.3705828E-06  0.2098177E+04  0.7818609E-02  0.8562047E-01
       -2   -1    0    0    0  501  0.00000000000E+00  0.00000000000E+00  0.79883124925E+03  0.79883124926E+03  0.25500000920E-02 0. -1.
        2   -1    0    0  501    0  0.00000000000E+00  0.00000000000E+00 -0.13777455141E+04  0.13777455141E+04  0.25500000920E-02 0.  1.
    10030    2    1    2    0    0  0.00000000000E+00  0.00000000000E+00 -0.57891426487E+03  0.21765767634E+04  0.20981765133E+04 0.  0.
        5    1    3    3  502    0  0.44105160797E+03 -0.80308922414E+03  0.24060056033E+03  0.94730646701E+03  0.46999998093E+01 0. -1.
       -5    1    3    3    0  502 -0.44105160797E+03  0.80308922414E+03 -0.81951482520E+03  0.12292702964E+04  0.46999998093E+01 0.  1.
</event>
<event>
 5   0  0.3480134E-06  0.2099265E+04  0.7818609E-02  0.8561567E-01
       -2   -1    0    0    0  501  0.00000000000E+00  0.00000000000E+00  0.85802896222E+03  0.85802896223E+03  0.25500000920E-02 0. -1.
        2   -1    0    0  501    0  0.00000000000E+00  0.00000000000E+00 -0.12840221248E+04  0.12840221248E+04  0.25500000920E-02 0.  1.
    10030    2    1    2    0    0  0.00000000000E+00  0.00000000000E+00 -0.42599316256E+03  0.21420510870E+04  0.20992647963E+04 0.  0.
        1    1    3    3  502    0  0.96628840997E+03 -0.15467243675E+03 -0.60032691252E+03  0.11480545526E+04  0.50400001928E-02 0. -1.
       -1    1    3    3    0  502 -0.96628840997E+03  0.15467243675E+03  0.17433374996E+03  0.99399653436E+03  0.50400001928E-02 0.  1.
</event>
<event>
 5   0  0.1646510E-06  0.2100759E+04  0.7818609E-02  0.8560909E-01
        1   -1    0    0  501    0  0.00000000000E+00  0.00000000000E+00  0.60596468501E+03  0.60596468504E+03  0.50400001928E-02 0. -1.
       -1   -1    0    0    0  501  0.00000000000E+00  0.00000000000E+00 -0.18207286265E+04  0.18207286265E+04  0.50400001928E-02 0.  1.
    10030    2    1    2    0    0  0.00000000000E+00  0.00000000000E+00 -0.12147639414E+04  0.24266933115E+04  0.21007591472E+04 0.  0.
        4    1    3    3  502    0 -0.44600906822E+03 -0.74409845568E+03  0.76686735551E+02  0.87091277920E+03  0.12699999809E+01 0. -1.
       -4    1    3    3    0  502  0.44600906822E+03  0.74409845568E+03 -0.12914506770E+04  0.15557805323E+04  0.12699999809E+01 0.  1.
</event>
<event>
 5   0  0.3480134E-06  0.2098391E+04  0.7818609E-02  0.8561952E-01
       -2   -1    0    0    0  501  0.00000000000E+00  0.00000000000E+00  0.13819902569E+04  0.13819902569E+04  0.25500000920E-02 0. -1.
        2   -1    0    0  501    0  0.00000000000E+00  0.00000000000E+00 -0.79654065248E+03  0.79654065248E+03  0.25500000920E-02 0.  1.
    10030    2    1    2    0    0  0.00000000000E+00  0.00000000000E+00  0.58544960440E+03  0.21785309094E+04  0.20983912132E+04 0.  0.
        1    1    3    3  502    0 -0.75319401638E+03  0.54210138973E+03 -0.21549730177E+03  0.95268789756E+03  0.50400001928E-02 0.  1.
       -1    1    3    3    0  502  0.75319401638E+03 -0.54210138973E+03  0.80094690617E+03  0.12258430118E+04  0.50400001928E-02 0. -1.
</event>
<event>
 5   0  0.1615098E-06  0.2099282E+04  0.7818609E-02  0.8561560E-01
       -1   -1    0    0    0  501  0.00000000000E+00  0.00000000000E+00  0.53415617842E+03  0.53415617844E+03  0.50400001928E-02 0.  1.
        1   -1    0    0  501    0  0.00000000000E+00  0.00000000000E+00 -0.20625911884E+04  0.20625911884E+04  0.50400001928E-02 0. -1.
    10030    2    1    2    0    0  0.00000000000E+00  0.00000000000E+00 -0.15284350099E+04  0.25967473668E+04  0.20992816170E+04 0.  0.
        1    1    3    3  502    0  0.50636804551E+03  0.33516794947E+03 -0.18232539068E+04  0.19217182313E+04  0.50400001928E-02 0. -1.
       -1    1    3    3    0  502 -0.50636804551E+03 -0.33516794947E+03  0.29481889683E+03  0.67502913553E+03  0.50400001928E-02 0.  1.
</event>
<event>
 5   0  0.3636435E-06  0.2101981E+04  0.7818609E-02  0.8560371E-01
       -2   -1    0    0    0  501  0.00000000000E+00  0.00000000000E+00  0.14615883782E+04  0.14615883782E+04  0.25500000920E-02 0. -1.
        2   -1    0    0  501    0  0.00000000000E+00  0.00000000000E+00 -0.75574010318E+03  0.75574010318E+03  0.25500000920E-02 0.  1.
    10030    2    1    2    0    0  0.00000000000E+00  0.00000000000E+00  0.70584827506E+03  0.22173284814E+04  0.21019809245E+04 0.  0.
        4    1    3    3  502    0 -0.85109441769E+03 -0.74238520832E+02 -0.29279959269E+03  0.90310922937E+03  0.12699999809E+01 0.  1.
       -4    1    3    3    0  502  0.85109441769E+03  0.74238520832E+02  0.99864786775E+03  0.13142192520E+04  0.12699999809E+01 0. -1.
</event>
<event>
 5   0  0.1615098E-06  0.2100651E+04  0.7818609E-02  0.8560957E-01
        1   -1    0    0  501    0  0.00000000000E+00  0.00000000000E+00  0.12944969460E+04  0.12944969460E+04  0.50400001928E-02 0. -1.
       -1   -1    0    0    0  501  0.00000000000E+00  0.00000000000E+00 -0.85221029257E+03  0.85221029259E+03  0.50400001928E-02 0.  1.
    10030    2    1    2    0    0  0.00000000000E+00  0.00000000000E+00  0.44228665341E+03  0.21467072386E+04  0.21006509668E+04 0.  0.
        1    1    3    3  502    0 -0.26845378296E+03 -0.50836869846E+03 -0.67714972918E+03  0.88827806622E+03  0.50400001928E-02 0.  1.
       -1    1    3    3    0  502  0.26845378296E+03  0.50836869846E+03  0.11194363826E+04  0.12584291724E+04  0.50400001928E-02 0. -1.
</event>
<event>
 5   0  0.3705828E-06  0.2097852E+04  0.7818609E-02  0.8562190E-01
        2   -1    0    0  501    0  0.00000000000E+00  0.00000000000E+00  0.12580440447E+04  0.12580440447E+04  0.25500000920E-02 0. -1.
       -2   -1    0    0    0  501  0.00000000000E+00  0.00000000000E+00 -0.87456873120E+03  0.87456873121E+03  0.25500000920E-02 0.  1.
    10030    2    1    2    0    0  0.00000000000E+00  0.00000000000E+00  0.38347531353E+03  0.21326127759E+04  0.20978522198E+04 0.  0.
        5    1    3    3  502    0 -0.72127423539E+03 -0.33350322542E+03  0.88774490688E+03  0.11914587839E+04  0.46999998093E+01 0. -1.
       -5    1    3    3    0  502  0.72127423539E+03  0.33350322542E+03 -0.50426959335E+03  0.94115399206E+03  0.46999998093E+01 0.  1.
</event>
<event>
 5   0  0.3705828E-06  0.2100206E+04  0.7818609E-02  0.8561153E-01
       -2   -1    0    0    0  501  0.00000000000E+00  0.00000000000E+00  0.12916855068E+04  0.12916855068E+04  0.25500000920E-02 0. -1.
        2   -1    0    0  501    0  0.00000000000E+00  0.00000000000E+00 -0.85370332156E+03  0.85370332156E+03  0.25500000920E-02 0.  1.
    10030    2    1    2    0    0  0.00000000000E+00  0.00000000000E+00  0.43798218523E+03  0.21453888283E+04  0.21002059019E+04 0.  0.
        5    1    3    3  502    0 -0.65321516453E+03  0.71586962141E+03  0.63208535975E+03  0.11570278121E+04  0.46999998093E+01 0. -1.
       -5    1    3    3    0  502  0.65321516453E+03 -0.71586962141E+03 -0.19410317452E+03  0.98836101622E+03  0.46999998093E+01 0.  1.
</event>
<event>
 5   0  0.3547583E-06  0.2099267E+04  0.7818609E-02  0.8561566E-01
        2   -1    0    0  501    0  0.00000000000E+00  0.00000000000E+00  0.10436988238E+04  0.10436988238E+04  0.25500000920E-02 0. -1.
       -2   -1    0    0    0  501  0.00000000000E+00  0.00000000000E+00 -0.10556018747E+04  0.10556018748E+04  0.25500000920E-02 0.  1.
    10030    2    1    2    0    0  0.00000000000E+00  0.00000000000E+00 -0.11903050951E+02  0.20993006985E+04  0.20992669531E+04 0.  0.
        2    1    3    3  502    0 -0.33744102471E+03 -0.87473808811E+03  0.46596417339E+03  0.10469745837E+04  0.25500000920E-02 0. -1.
       -2    1    3    3    0  502  0.33744102471E+03  0.87473808811E+03 -0.47786722434E+03  0.10523261149E+04  0.25500000920E-02 0.  1.
</event>
<event>
 5   0  0.3547583E-06  0.2102141E+04  0.7818609E-02  0.8560301E-01
       -2   -1    0    0    0  501  0.00000000000E+00  0.00000000000E+00  0.49960227384E+03  0.49960227384E+03  0.25500000920E-02 0. -1.
        2   -1    0    0  501    0  0.00000000000E+00  0.00000000000E+00 -0.22112566630E+04  0.22112566630E+04  0.25500000920E-02 0.  1.
    10030    2    1    2    0    0  0.00000000000E+00  0.00000000000E+00 -0.17116543892E+04  0.27108589368E+04  0.21021406774E+04 0.  0.
        2    1    3    3  502    0 -0.94453125888E+03  0.21967618650E+03 -0.13786235465E+04  0.16855265673E+04  0.25500000920E-02 0. -1.
       -2    1    3    3    0  502  0.94453125888E+03 -0.21967618650E+03 -0.33303084262E+03  0.10253323696E+04  0.25500000920E-02 0.  1.
</event>
<event>
 5   0  0.3480134E-06  0.2105838E+04  0.7818609E-02  0.8558676E-01
        2   -1    0    0  501    0  0.00000000000E+00  0.00000000000E+00  0.78352653413E+03  0.78352653414E+03  0.25500000920E-02 0. -1.
       -2   -1    0    0    0  501  0.00000000000E+00  0.00000000000E+00 -0.14149344685E+04  0.14149344685E+04  0.25500000920E-02 0.  1.
    10030    2    1    2    0    0  0.00000000000E+00  0.00000000000E+00 -0.63140793437E+03  0.21984610026E+04  0.21058382655E+04 0.  0.
        1    1    3    3  502    0  0.10326117233E+04  0.17943139439E+03 -0.42091403909E+03  0.11294473094E+04  0.50400001928E-02 0. -1.
       -1    1    3    3    0  502 -0.10326117233E+04 -0.17943139439E+03 -0.21049389528E+03  0.10690136932E+04  0.50400001928E-02 0.  1.
</event>
<event>
 5   0  0.1590067E-06  0.2100337E+04  0.7818609E-02  0.8561095E-01
       -1   -1    0    0    0  501  0.00000000000E+00  0.00000000000E+00  0.12728072193E+04  0.12728072193E+04  0.50400001928E-02 0. -1.
        1   -1    0    0  501    0  0.00000000000E+00  0.00000000000E+00 -0.86647374547E+03  0.86647374548E+03  0.50400001928E-02 0.  1.
    10030    2    1    2    0    0  0.00000000000E+00  0.00000000000E+00  0.40633347380E+03  0.21392809648E+04  0.21003371525E+04 0.  0.
        5    1    3    3  502    0  0.24201058648E+03  0.43335889618E+03  0.11457790047E+04  0.12486795724E+04  0.46999998093E+01 0. -1.
       -5    1    3    3    0  502 -0.24201058648E+03 -0.43335889618E+03 -0.73944553092E+03  0.89060139236E+03  0.46999998093E+01 0.  1.
</event>
<event>
 5   0  0.1653260E-06  0.2100515E+04  0.7818609E-02  0.8561017E-01
        1   -1    0    0  501    0  0.00000000000E+00  0.00000000000E+00  0.17711127236E+04  0.17711127236E+04  0.50400001928E-02 0. -1.
       -1   -1    0    0    0  501  0.00000000000E+00  0.00000000000E+00 -0.62279520486E+03  0.62279520488E+03  0.50400001928E-02 0.  1.
    10030    2    1    2    0    0  0.00000000000E+00  0.00000000000E+00  0.11483175188E+04  0.23939079285E+04  0.21005147099E+04 0.  0.
        3    1    3    3  502    0 -0.56984864651E+03  0.87287440602E+03  0.42819426274E+03  0.11269372411E+04  0.10100000352E+00 0.  1.
       -3    1    3    3    0  502  0.56984864651E+03 -0.87287440602E+03  0.72012325604E+03  0.12669706874E+04  0.10100000352E+00 0. -1.
</event>
<event>
 5   0  0.1257125E-06  0.2100443E+04  0.7818609E-02  0.8561048E-01
        3   -1    0    0  501    0  0.00000000000E+00  0.00000000000E+00  0.85482562465E+03  0.85482563062E+03  0.10100000352E+00 0. -1.
       -3   -1    0    0    0  501  0.00000000000E+00  0.00000000000E+00 -0.12902804317E+04  0.12902804357E+04  0.10100000352E+00 0.  1.
    10030    2    1    2    0    0  0.00000000000E+00  0.00000000000E+00 -0.43545480707E+03  0.21451060663E+04  0.21004426073E+04 0.  0.
        5    1    3    3  502    0 -0.20781135668E+03  0.24745928830E+03 -0.12382357507E+04  0.12797154073E+04  0.46999998093E+01 0.  1.
       -5    1    3    3    0  502  0.20781135668E+03 -0.24745928830E+03  0.80278094360E+03  0.86539065903E+03  0.46999998093E+01 0. -1.
</event>
<event>
 5   0  0.3574927E-06  0.2100773E+04  0.7818609E-02  0.8560903E-01
       -2   -1    0    0    0  501  0.00000000000E+00  0.00000000000E+00  0.47701772263E+03  0.47701772264E+03  0.25500000920E-02 0.  1.
        2   -1    0    0  501    0  0.00000000000E+00  0.00000000000E+00 -0.23129369010E+04  0.23129369010E+04  0.25500000920E-02 0. -1.
    10030    2    1    2    0    0  0.00000000000E+00  0.00000000000E+00 -0.18359191784E+04  0.27899546236E+04  0.21007730892E+04 0.  0.
        3    1    3    3  502    0 -0.58412947752E+03 -0.43357178669E+03  0.88321673981E+02  0.73279769992E+03  0.10100000352E+00 0.  1.
       -3    1    3    3    0  502  0.58412947752E+03  0.43357178669E+03 -0.19242408524E+04  0.20571569237E+04  0.10100000352E+00 0. -1.
</event>
<event>
 5   0  0.1615098E-06  0.2100215E+04  0.7818609E-02  0.8561149E-01
        1   -1    0    0  501    0  0.00000000000E+00  0.00000000000E+00  0.16559729740E+04  0.16559729740E+04  0.50400001928E-02 0. -1.
       -1   -1    0    0    0  501  0.00000000000E+00  0.00000000000E+00 -0.66590798537E+03  0.66590798539E+03  0.50400001928E-02 0.  1.
    10030    2    1    2    0    0  0.00000000000E+00  0.00000000000E+00  0.99006498864E+03  0.23218809594E+04  0.21002148719E+04 0.  0.
        1    1    3    3  502    0 -0.51442151440E+03  0.50565209240E+03  0.13387390293E+04  0.15207023778E+04  0.50400001928E-02 0. -1.
       -1    1    3    3    0  502  0.51442151440E+03 -0.50565209240E+03 -0.34867404069E+03  0.80117858166E+03  0.50400001928E-02 0.  1.
</event>
<event>
 5   0  0.3547583E-06  0.2099613E+04  0.7818609E-02  0.8561414E-01
        2   -1    0    0  501    0  0.00000000000E+00  0.00000000000E+00  0.89135413561E+03  0.89135413562E+03  0.25500000920E-02 0. -1.
       -2   -1    0    0    0  501  0.00000000000E+00  0.00000000000E+00 -0.12364263367E+04  0.12364263367E+04  0.25500000920E-02 0.  1.
    10030    2    1    2    0    0  0.00000000000E+00  0.00000000000E+00 -0.34507220106E+03  0.21277804723E+04  0.20996130392E+04 0.  0.
        2    1    3    3  502    0  0.50840548992E+03  0.53471757446E+03 -0.92934427967E+03  0.11866253902E+04  0.25500000920E-02 0.  1.
       -2    1    3    3    0  502 -0.50840548992E+03 -0.53471757446E+03  0.58427207861E+03  0.94115508205E+03  0.25500000920E-02 0. -1.
</event>
<event>
 5   0  0.1646510E-06  0.2099413E+04  0.7818609E-02  0.8561502E-01
        1   -1    0    0  501    0  0.00000000000E+00  0.00000000000E+00  0.13491281729E+04  0.13491281729E+04  0.50400001928E-02 0.  1.
       -1   -1    0    0    0  501  0.00000000000E+00  0.00000000000E+00 -0.81673790877E+03  0.81673790878E+03  0.50400001928E-02 0. -1.
    10030    2    1    2    0    0  0.00000000000E+00  0.00000000000E+00  0.53239026410E+03  0.21658660817E+04  0.20994133682E+04 0.  0.
        4    1    3    3  502    0  0.40793103145E+03 -0.20515132231E+03 -0.70891491389E+03  0.84324181556E+03  0.12699999809E+01 0. -1.
       -4    1    3    3    0  502 -0.40793103145E+03  0.20515132231E+03  0.12413051780E+04  0.13226242661E+04  0.12699999809E+01 0.  1.
</event>
<event>
 5   0  0.1615098E-06  0.2100130E+04  0.7818609E-02  0.8561186E-01
        1   -1    0    0  501    0  0.00000000000E+00  0.00000000000E+00  0.11421708248E+04  0.11421708248E+04  0.50400001928E-02 0.  1.
       -1   -1    0    0    0  501  0.00000000000E+00  0.00000000000E+00 -0.96538646105E+03  0.96538646107E+03  0.50400001928E-02 0. -1.
    10030    2    1    2    0    0  0.00000000000E+00  0.00000000000E+00  0.17678436371E+03  0.21075572858E+04  0.21001297583E+04 0.  0.
        1    1    3    3  502    0 -0.36638295188E+03  0.70825143574E+03 -0.59723690459E+03  0.99626727533E+03  0.50400001928E-02 0. -1.
       -1    1    3    3    0  502  0.36638295188E+03 -0.70825143574E+03  0.77402126830E+03  0.11112900105E+04  0.50400001928E-02 0.  1.
</event>
<event>
 5   0  0.1579820E-06  0.2100035E+04  0.7818609E-02  0.8561228E-01
        1   -1    0    0  501    0  0.00000000000E+00  0.00000000000E+00  0.10387047739E+04  0.10387047739E+04  0.50400001928E-02 0. -1.
       -1   -1    0    0    0  501  0.00000000000E+00  0.00000000000E+00 -0.10614529337E+04  0.10614529337E+04  0.50400001928E-02 0.  1.
    10030    2    1    2    0    0  0.00000000000E+00  0.00000000000E+00 -0.22748159790E+02  0.21001577076E+04  0.21000345040E+04 0.  0.
        2    1    3    3  502    0 -0.55859244819E+02 -0.49513494422E+02  0.10360480432E+04  0.10387335507E+04  0.25500000920E-02 0. -1.
       -2    1    3    3    0  502  0.55859244819E+02  0.49513494422E+02 -0.10587962030E+04  0.10614241569E+04  0.25500000920E-02 0.  1.
</event>
<event>
 5   0  0.1653260E-06  0.2100615E+04  0.7818609E-02  0.8560972E-01
        1   -1    0    0  501    0  0.00000000000E+00  0.00000000000E+00  0.84689142454E+03  0.84689142455E+03  0.50400001928E-02 0.  1.
       -1   -1    0    0    0  501  0.00000000000E+00  0.00000000000E+00 -0.13025827755E+04  0.13025827755E+04  0.50400001928E-02 0. -1.
    10030    2    1    2    0    0  0.00000000000E+00  0.00000000000E+00 -0.45569135100E+03  0.21494742001E+04  0.21006153216E+04 0.  0.
        3    1    3    3  502    0  0.19748703507E+03  0.57365651941E+03  0.64945418514E+03  0.88874837838E+03  0.10100000352E+00 0.  1.
       -3    1    3    3    0  502 -0.19748703507E+03 -0.57365651941E+03 -0.11051455361E+04  0.12607258217E+04  0.10100000352E+00 0. -1.
</event>
<event>
 5   0  0.3636435E-06  0.2104603E+04  0.7818609E-02  0.8559218E-01
       -2   -1    0    0    0  501  0.00000000000E+00  0.00000000000E+00  0.87329110702E+03  0.87329110703E+03  0.25500000920E-02 0.  1.
        2   -1    0    0  501    0  0.00000000000E+00  0.00000000000E+00 -0.12680064656E+04  0.12680064656E+04  0.25500000920E-02 0. -1.
    10030    2    1    2    0    0  0.00000000000E+00  0.00000000000E+00 -0.39471535857E+03  0.21412975726E+04  0.21046033071E+04 0.  0.
        4    1    3    3  502    0 -0.36716583839E+03 -0.75286362471E+03  0.45071164562E+03  0.95118714809E+03  0.12699999809E+01 0.  1.
       -4    1    3    3    0  502  0.36716583839E+03  0.75286362471E+03 -0.84542700418E+03  0.11901104245E+04  0.12699999809E+01 0. -1.
</event>
<event>
 5   0  0.3636435E-06  0.2100306E+04  0.7818609E-02  0.8561109E-01
        2   -1    0    0  501    0  0.00000000000E+00  0.00000000000E+00  0.84877619050E+03  0.84877619050E+03  0.25500000920E-02 0. -1.
       -2   -1    0    0    0  501  0.00000000000E+00  0.00000000000E+00 -0.12993073038E+04  0.12993073038E+04  0.25500000920E-02 0.  1.
    10030    2    1    2    0    0  0.00000000000E+00  0.00000000000E+00 -0.45053111332E+03  0.21480834943E+04  0.21003057907E+04 0.  0.
        4    1    3    3  502    0 -0.59368427492E+03 -0.58212808688E+03  0.43079786397E+03  0.93644142386E+03  0.12699999809E+01 0. -1.
       -4    1    3    3    0  502  0.59368427492E+03  0.58212808688E+03 -0.88132897730E+03  0.12116420705E+04  0.12699999809E+01 0.  1.
</event>
<event>
 5   0  0.1579820E-06  0.2099759E+04  0.7818609E-02  0.8561350E-01
       -1   -1    0    0    0  501  0.00000000000E+00  0.00000000000E+00  0.62029518886E+03  0.62029518888E+03  0.50400001928E-02 0.  1.
        1   -1    0    0  501    0  0.00000000000E+00  0.00000000000E+00 -0.17769715642E+04  0.17769715642E+04  0.50400001928E-02 0. -1.
    10030    2    1    2    0    0  0.00000000000E+00  0.00000000000E+00 -0.11566763753E+04  0.23972667531E+04  0.20997589500E+04 0.  0.
        2    1    3    3  502    0  0.69809666074E+03 -0.29920989888E+02 -0.14729519972E+04  0.16302827360E+04  0.25500000920E-02 0. -1.
       -2    1    3    3    0  502 -0.69809666074E+03  0.29920989888E+02  0.31627562188E+03  0.76698401703E+03  0.25500000920E-02 0.  1.
</event>
<event>
 5   0  0.3636435E-06  0.2099949E+04  0.7818609E-02  0.8561266E-01
        2   -1    0    0  501    0  0.00000000000E+00  0.00000000000E+00  0.20610887224E+04  0.20610887224E+04  0.25500000920E-02 0.  1.
       -2   -1    0    0    0  501  0.00000000000E+00  0.00000000000E+00 -0.53488558652E+03  0.53488558652E+03  0.25500000920E-02 0. -1.
    10030    2    1    2    0    0  0.00000000000E+00  0.00000000000E+00  0.15262031359E+04  0.25959743089E+04  0.20999491900E+04 0.  0.
        4    1    3    3  502    0 -0.40657242472E+03  0.91389355573E+03  0.36839970307E+03  0.10659373912E+04  0.12699999809E+01 0. -1.
       -4    1    3    3    0  502  0.40657242472E+03 -0.91389355573E+03  0.11578034328E+04  0.15300369177E+04  0.12699999809E+01 0.  1.
</event>
<event>
 5   0  0.3480134E-06  0.2100036E+04  0.7818609E-02  0.8561228E-01
        2   -1    0    0  501    0  0.00000000000E+00  0.00000000000E+00  0.13870639023E+04  0.13870639023E+04  0.25500000920E-02 0. -1.
       -2   -1    0    0    0  501  0.00000000000E+00  0.00000000000E+00 -0.79487136002E+03  0.79487136003E+03  0.25500000920E-02 0.  1.
    10030    2    1    2    0    0  0.00000000000E+00  0.00000000000E+00  0.59219254224E+03  0.21819352623E+04  0.21000355906E+04 0.  0.
        1    1    3    3  502    0 -0.57267660137E+03  0.35783164872E+03 -0.53933621251E+03  0.86422539232E+03  0.50400001928E-02 0.  1.
       -1    1    3    3    0  502  0.57267660137E+03 -0.35783164872E+03  0.11315287548E+04  0.13177098700E+04  0.50400001928E-02 0. -1.
</event>
<event>
 5   0  0.3636435E-06  0.2100077E+04  0.7818609E-02  0.8561209E-01
       -2   -1    0    0    0  501  0.00000000000E+00  0.00000000000E+00  0.10785809634E+04  0.10785809634E+04  0.25500000920E-02 0. -1.
        2   -1    0    0  501    0  0.00000000000E+00  0.00000000000E+00 -0.10222517622E+04  0.10222517622E+04  0.25500000920E-02 0.  1.
    10030    2    1    2    0    0  0.00000000000E+00  0.00000000000E+00  0.56329201141E+02  0.21008327256E+04  0.21000774181E+04 0.  0.
        4    1    3    3  502    0  0.57764258312E+03 -0.87604795493E+03 -0.99109388233E+01  0.10493954511E+04  0.12699999809E+01 0.  1.
       -4    1    3    3    0  502 -0.57764258312E+03  0.87604795493E+03  0.66240139964E+02  0.10514372745E+04  0.12699999809E+01 0. -1.
</event>
<event>
 5   0  0.1590067E-06  0.2101023E+04  0.7818609E-02  0.8560793E-01
       -1   -1    0    0    0  501  0.00000000000E+00  0.00000000000E+00  0.70553445240E+03  0.70553445242E+03  0.50400001928E-02 0. -1.
        1   -1    0    0  501    0  0.00000000000E+00  0.00000000000E+00 -0.15641679351E+04  0.15641679351E+04  0.50400001928E-02 0.  1.
    10030    2    1    2    0    0  0.00000000000E+00  0.00000000000E+00 -0.85863348271E+03  0.22697023875E+04  0.21010229581E+04 0.  0.
        5    1    3    3  502    0  0.75202469148E+03 -0.70684499986E+03 -0.21767667739E+03  0.10547872849E+04  0.46999998093E+01 0. -1.
       -5    1    3    3    0  502 -0.75202469148E+03  0.70684499986E+03 -0.64095680532E+03  0.12149151027E+04  0.46999998093E+01 0.  1.
</event>
<event>
 5   0  0.3705828E-06  0.2099563E+04  0.7818609E-02  0.8561436E-01
       -2   -1    0    0    0  501  0.00000000000E+00  0.00000000000E+00  0.69079231145E+03  0.69079231145E+03  0.25500000920E-02 0. -1.
        2   -1    0    0  501    0  0.00000000000E+00  0.00000000000E+00 -0.15953296776E+04  0.15953296776E+04  0.25500000920E-02 0.  1.
    10030    2    1    2    0    0  0.00000000000E+00  0.00000000000E+00 -0.90453736611E+03  0.22861219890E+04  0.20995632646E+04 0.  0.
        5    1    3    3  502    0  0.66455771781E+02  0.60825084111E+03  0.47654136848E+03  0.77556380858E+03  0.46999998093E+01 0. -1.
       -5    1    3    3    0  502 -0.66455771781E+02 -0.60825084111E+03 -0.13810787346E+04  0.15105581804E+04  0.46999998093E+01 0.  1.
</event>
<event>
 5   0  0.1590067E-06  0.2101587E+04  0.7818609E-02  0.8560545E-01
        1   -1    0    0  501    0  0.00000000000E+00  0.00000000000E+00  0.16380352254E+04  0.16380352255E+04  0.50400001928E-02 0.  1.
       -1   -1    0    0    0  501  0.00000000000E+00  0.00000000000E+00 -0.67407998518E+03  0.67407998520E+03  0.50400001928E-02 0. -1.
    10030    2    1    2    0    0  0.00000000000E+00  0.00000000000E+00  0.96395524027E+03  0.23121152107E+04  0.21015867915E+04 0.  0.
        5    1    3    3  502    0 -0.59024447624E+03 -0.38127004518E+02  0.14374868856E+04  0.15544236380E+04  0.46999998093E+01 0.  1.
       -5    1    3    3    0  502  0.59024447624E+03  0.38127004518E+02 -0.47353164528E+03  0.75769157267E+03  0.46999998093E+01 0. -1.
</event>
<event>
 5   0  0.1653260E-06  0.2101057E+04  0.7818609E-02  0.8560778E-01
        1   -1    0    0  501    0  0.00000000000E+00  0.00000000000E+00  0.13341172030E+04  0.13341172030E+04  0.50400001928E-02 0. -1.
       -1   -1    0    0    0  501  0.00000000000E+00  0.00000000000E+00 -0.82722106591E+03  0.82722106593E+03  0.50400001928E-02 0.  1.
    10030    2    1    2    0    0  0.00000000000E+00  0.00000000000E+00  0.50689613712E+03  0.21613382690E+04  0.21010567387E+04 0.  0.
        3    1    3    3  502    0  0.19020461904E+03  0.51414296156E+03  0.11753119893E+04  0.12968728020E+04  0.10100000352E+00 0. -1.
       -3    1    3    3    0  502 -0.19020461904E+03 -0.51414296156E+03 -0.66841585218E+03  0.86446546703E+03  0.10100000352E+00 0.  1.
</event>
<event>
 5   0  0.3574927E-06  0.2110906E+04  0.7818609E-02  0.8556455E-01
       -2   -1    0    0    0  501  0.00000000000E+00  0.00000000000E+00  0.61993733115E+03  0.61993733116E+03  0.25500000920E-02 0.  1.
        2   -1    0    0  501    0  0.00000000000E+00  0.00000000000E+00 -0.17969245790E+04  0.17969245790E+04  0.25500000920E-02 0. -1.
    10030    2    1    2    0    0  0.00000000000E+00  0.00000000000E+00 -0.11769872478E+04  0.24168619101E+04  0.21109056140E+04 0.  0.
        3    1    3    3  502    0  0.10384704116E+04  0.99837170300E+02 -0.40533043265E+03  0.11192323378E+04  0.10100000352E+00 0.  1.
       -3    1    3    3    0  502 -0.10384704116E+04 -0.99837170300E+02 -0.77165681518E+03  0.12976295723E+04  0.10100000352E+00 0. -1.
</event>
<event>
 5   0  0.1615098E-06  0.2099765E+04  0.7818609E-02  0.8561347E-01
        1   -1    0    0  501    0  0.00000000000E+00  0.00000000000E+00  0.10635138700E+04  0.10635138700E+04  0.50400001928E-02 0.  1.
       -1   -1    0    0    0  501  0.00000000000E+00  0.00000000000E+00 -0.10364262799E+04  0.10364262799E+04  0.50400001928E-02 0. -1.
    10030    2    1    2    0    0  0.00000000000E+00  0.00000000000E+00  0.27087590114E+02  0.20999401499E+04  0.20997654382E+04 0.  0.
        1    1    3    3  502    0 -0.95012161692E+03  0.23645864644E+03  0.39253435517E+03  0.10548587576E+04  0.50400001928E-02 0.  1.
       -1    1    3    3    0  502  0.95012161692E+03 -0.23645864644E+03 -0.36544676506E+03  0.10450813923E+04  0.50400001928E-02 0. -1.
</event>
<event>
 5   0  0.1646510E-06  0.2100089E+04  0.7818609E-02  0.8561204E-01
        1   -1    0    0  501    0  0.00000000000E+00  0.00000000000E+00  0.10911998985E+04  0.10911998986E+04  0.50400001928E-02 0.  1.
       -1   -1    0    0    0  501  0.00000000000E+00  0.00000000000E+00 -0.10104409881E+04  0.10104409882E+04  0.50400001928E-02 0. -1.
    10030    2    1    2    0    0  0.00000000000E+00  0.00000000000E+00  0.80758910402E+02  0.21016408867E+04  0.21000886684E+04 0.  0.
        4    1    3    3  502    0  0.92997012418E+03  0.48621862655E+03  0.76992097233E+02  0.10522273426E+04  0.12699999809E+01 0.  1.
       -4    1    3    3    0  502 -0.92997012418E+03 -0.48621862655E+03  0.37668131686E+01  0.10494135441E+04  0.12699999809E+01 0. -1.
</event>
<event>
 5   0  0.1590067E-06  0.2100837E+04  0.7818609E-02  0.8560875E-01
       -1   -1    0    0    0  501  0.00000000000E+00  0.00000000000E+00  0.13123692585E+04  0.13123692585E+04  0.50400001928E-02 0. -1.
        1   -1    0    0  501    0  0.00000000000E+00  0.00000000000E+00 -0.84075340656E+03  0.84075340658E+03  0.50400001928E-02 0.  1.
    10030    2    1    2    0    0  0.00000000000E+00  0.00000000000E+00  0.47161585194E+03  0.21531226651E+04  0.21008369045E+04 0.  0.
        5    1    3    3  502    0 -0.82431077309E+02  0.95356353630E+03 -0.20771945492E+03  0.97941194715E+03  0.46999998093E+01 0.  1.
       -5    1    3    3    0  502  0.82431077309E+02 -0.95356353630E+03  0.67933530686E+03  0.11737107179E+04  0.46999998093E+01 0. -1.
</event>
<event>
 5   0  0.1646510E-06  0.2100127E+04  0.7818609E-02  0.8561187E-01
        1   -1    0    0  501    0  0.00000000000E+00  0.00000000000E+00  0.21679868439E+04  0.21679868439E+04  0.50400001928E-02 0.  1.
       -1   -1    0    0    0  501  0.00000000000E+00  0.00000000000E+00 -0.50859780525E+03  0.50859780527E+03  0.50400001928E-02 0. -1.
    10030    2    1    2    0    0  0.00000000000E+00  0.00000000000E+00  0.16593890386E+04  0.26765846492E+04  0.21001269968E+04 0.  0.
        4    1    3    3  502    0 -0.43716414788E+02  0.93389850842E+03  0.22039614737E+03  0.96054860555E+03  0.12699999809E+01 0. -1.
       -4    1    3    3    0  502  0.43716414788E+02 -0.93389850842E+03  0.14389928913E+04  0.17160360436E+04  0.12699999809E+01 0.  1.
</event>
<event>
 5   0  0.1615098E-06  0.2100428E+04  0.7818609E-02  0.8561055E-01
       -1   -1    0    0    0  501  0.00000000000E+00  0.00000000000E+00  0.95387795158E+03  0.95387795160E+03  0.50400001928E-02 0.  1.
        1   -1    0    0  501    0  0.00000000000E+00  0.00000000000E+00 -0.11562798185E+04  0.11562798185E+04  0.50400001928E-02 0. -1.
    10030    2    1    2    0    0  0.00000000000E+00  0.00000000000E+00 -0.20240186693E+03  0.21101577701E+04  0.21004283608E+04 0.  0.
        1    1    3    3  502    0 -0.11289441968E+02  0.90605176256E+03  0.43219398446E+03  0.10039167735E+04  0.50400001928E-02 0.  1.
       -1    1    3    3    0  502  0.11289441968E+02 -0.90605176256E+03 -0.63459585139E+03  0.11062409966E+04  0.50400001928E-02 0. -1.
</event>
<event>
 5   0  0.3636435E-06  0.2099725E+04  0.7818609E-02  0.8561364E-01
        2   -1    0    0  501    0  0.00000000000E+00  0.00000000000E+00  0.83036634012E+03  0.83036634012E+03  0.25500000920E-02 0.  1.
       -2   -1    0    0    0  501  0.00000000000E+00  0.00000000000E+00 -0.13273800835E+04  0.13273800836E+04  0.25500000920E-02 0. -1.
    10030    2    1    2    0    0  0.00000000000E+00  0.00000000000E+00 -0.49701374343E+03  0.21577464237E+04  0.20997254506E+04 0.  0.
        4    1    3    3  502    0 -0.53685263542E+03  0.13144340114E+02  0.67854457155E+03  0.86533685598E+03  0.12699999809E+01 0.  1.
       -4    1    3    3    0  502  0.53685263542E+03 -0.13144340114E+02 -0.11755583150E+04  0.12924095677E+04  0.12699999809E+01 0. -1.
</event>
<event>
 5   0  0.1646510E-06  0.2100743E+04  0.7818609E-02  0.8560916E-01
        1   -1    0    0  501    0  0.00000000000E+00  0.00000000000E+00  0.20492864031E+04  0.20492864031E+04  0.50400001928E-02 0.  1.
       -1   -1    0    0    0  501  0.00000000000E+00  0.00000000000E+00 -0.53837266016E+03  0.53837266019E+03  0.50400001928E-02 0. -1.
    10030    2    1    2    0    0  0.00000000000E+00  0.00000000000E+00  0.15109137429E+04  0.25876590633E+04  0.21007425090E+04 0.  0.
        4    1    3    3  502    0 -0.95582807870E+03 -0.26880005429E+03  0.33337139013E+03  0.10473771440E+04  0.12699999809E+01 0. -1.
       -4    1    3    3    0  502  0.95582807870E+03  0.26880005429E+03  0.11775423528E+04  0.15402819193E+04  0.12699999809E+01 0.  1.
</event>
<event>
 5   0  0.1615098E-06  0.2099182E+04  0.7818609E-02  0.8561604E-01
       -1   -1    0    0    0  501  0.00000000000E+00  0.00000000000E+00  0.75684688728E+03  0.75684688730E+03  0.50400001928E-02 0.  1.
        1   -1    0    0  501    0  0.00000000000E+00  0.00000000000E+00 -0.14555671997E+04  0.14555671997E+04  0.50400001928E-02 0. -1.
    10030    2    1    2    0    0  0.00000000000E+00  0.00000000000E+00 -0.69872031244E+03  0.22124140870E+04  0.20991822259E+04 0.  0.
        1    1    3    3  502    0  0.53304128609E+03  0.25597569372E+03  0.56458649303E+03  0.81756619095E+03  0.50400001928E-02 0.  1.
       -1    1    3    3    0  502 -0.53304128609E+03 -0.25597569372E+03 -0.12633068055E+04  0.13948478961E+04  0.50400001928E-02 0. -1.
</event>
<event>
 5   0  0.1653260E-06  0.2099738E+04  0.7818609E-02  0.8561359E-01
        1   -1    0    0  501    0  0.00000000000E+00  0.00000000000E+00  0.15287799583E+04  0.15287799583E+04  0.50400001928E-02 0.  1.
       -1   -1    0    0    0  501  0.00000000000E+00  0.00000000000E+00 -0.72098310746E+03  0.72098310748E+03  0.50400001928E-02 0. -1.
    10030    2    1    2    0    0  0.00000000000E+00  0.00000000000E+00  0.80779685086E+03  0.22497630658E+04  0.20997376265E+04 0.  0.
        3    1    3    3  502    0  0.77718961973E+03  0.67900172355E+03  0.19736287554E+03  0.10507231607E+04  0.10100000352E+00 0. -1.
       -3    1    3    3    0  502 -0.77718961973E+03 -0.67900172355E+03  0.61043397532E+03  0.11990399051E+04  0.10100000352E+00 0.  1.
</event>
<event>
 5   0  0.1653260E-06  0.2100587E+04  0.7818609E-02  0.8560985E-01
       -1   -1    0    0    0  501  0.00000000000E+00  0.00000000000E+00  0.50974360475E+03  0.50974360478E+03  0.50400001928E-02 0. -1.
        1   -1    0    0  501    0  0.00000000000E+00  0.00000000000E+00 -0.21640613013E+04  0.21640613013E+04  0.50400001928E-02 0.  1.
    10030    2    1    2    0    0  0.00000000000E+00  0.00000000000E+00 -0.16543176966E+04  0.26738049061E+04  0.21005869738E+04 0.  0.
        3    1    3    3  502    0 -0.31816846242E+03 -0.43963949574E+03 -0.19717662374E+04  0.20450858568E+04  0.10100000352E+00 0.  1.
       -3    1    3    3    0  502  0.31816846242E+03  0.43963949574E+03  0.31744854080E+03  0.62871904929E+03  0.10100000352E+00 0. -1.
</event>
<event>
 5   0  0.3636435E-06  0.2096075E+04  0.7818609E-02  0.8562974E-01
        2   -1    0    0  501    0  0.00000000000E+00  0.00000000000E+00  0.15308972822E+04  0.15308972822E+04  0.25500000920E-02 0.  1.
       -2   -1    0    0    0  501  0.00000000000E+00  0.00000000000E+00 -0.71747642272E+03  0.71747642272E+03  0.25500000920E-02 0. -1.
    10030    2    1    2    0    0  0.00000000000E+00  0.00000000000E+00  0.81342085945E+03  0.22483737049E+04  0.20960750994E+04 0.  0.
        4    1    3    3  502    0 -0.94665574963E+03 -0.27212369827E+03  0.79073533139E+03  0.12631201022E+04  0.12699999809E+01 0. -1.
       -4    1    3    3    0  502  0.94665574963E+03  0.27212369827E+03  0.22685528064E+02  0.98525360266E+03  0.12699999809E+01 0.  1.
</event>
<event>
 5   0  0.1579820E-06  0.2099938E+04  0.7818609E-02  0.8561271E-01
       -1   -1    0    0    0  501  0.00000000000E+00  0.00000000000E+00  0.56269498258E+03  0.56269498260E+03  0.50400001928E-02 0. -1.
        1   -1    0    0  501    0  0.00000000000E+00  0.00000000000E+00 -0.19592052190E+04  0.19592052190E+04  0.50400001928E-02 0.  1.
    10030    2    1    2    0    0  0.00000000000E+00  0.00000000000E+00 -0.13965102364E+04  0.25219002016E+04  0.20999380435E+04 0.  0.
        2    1    3    3  502    0  0.12365392434E+03 -0.26849449455E+03  0.51169169289E+03  0.59093821605E+03  0.25500000920E-02 0. -1.
       -2    1    3    3    0  502 -0.12365392434E+03  0.26849449455E+03 -0.19082019293E+04  0.19309619855E+04  0.25500000920E-02 0.  1.
</event>
<event>
 5   0  0.1646510E-06  0.2103014E+04  0.7818609E-02  0.8559917E-01
       -1   -1    0    0    0  501  0.00000000000E+00  0.00000000000E+00  0.84855314316E+03  0.84855314318E+03  0.50400001928E-02 0. -1.
        1   -1    0    0  501    0  0.00000000000E+00  0.00000000000E+00 -0.13030021231E+04  0.13030021231E+04  0.50400001928E-02 0.  1.
    10030    2    1    2    0    0  0.00000000000E+00  0.00000000000E+00 -0.45444897990E+03  0.21515552662E+04  0.21030135968E+04 0.  0.
        4    1    3    3  502    0 -0.53979889267E+03 -0.25056161457E+03 -0.11141255979E+04  0.12631078449E+04  0.12699999809E+01 0.  1.
       -4    1    3    3    0  502  0.53979889267E+03  0.25056161457E+03  0.65967661797E+03  0.88844742130E+03  0.12699999809E+01 0. -1.
</event>
<event>
 5   0  0.3636435E-06  0.2100109E+04  0.7818609E-02  0.8561195E-01
        2   -1    0    0  501    0  0.00000000000E+00  0.00000000000E+00  0.98915487206E+03  0.98915487206E+03  0.25500000920E-02 0. -1.
       -2   -1    0    0    0  501  0.00000000000E+00  0.00000000000E+00 -0.11147035132E+04  0.11147035132E+04  0.25500000920E-02 0.  1.
    10030    2    1    2    0    0  0.00000000000E+00  0.00000000000E+00 -0.12554864116E+03  0.21038583853E+04  0.21001089600E+04 0.  0.
        4    1    3    3  502    0 -0.21182928648E+03 -0.36874505344E+03  0.89902738937E+03  0.99453326781E+03  0.12699999809E+01 0. -1.
       -4    1    3    3    0  502  0.21182928648E+03  0.36874505344E+03 -0.10245760305E+04  0.11093251175E+04  0.12699999809E+01 0.  1.
</event>
<event>
 5   0  0.3705828E-06  0.2099636E+04  0.7818609E-02  0.8561404E-01
       -2   -1    0    0    0  501  0.00000000000E+00  0.00000000000E+00  0.10538563204E+04  0.10538563204E+04  0.25500000920E-02 0.  1.
        2   -1    0    0  501    0  0.00000000000E+00  0.00000000000E+00 -0.10457949232E+04  0.10457949232E+04  0.25500000920E-02 0. -1.
    10030    2    1    2    0    0  0.00000000000E+00  0.00000000000E+00  0.80613971706E+01  0.20996512436E+04  0.20996357680E+04 0.  0.
        5    1    3    3  502    0  0.24346768703E+03  0.92051908513E+03 -0.43808521411E+03  0.10481281627E+04  0.46999998093E+01 0. -1.
       -5    1    3    3    0  502 -0.24346768703E+03 -0.92051908513E+03  0.44614661128E+03  0.10515230808E+04  0.46999998093E+01 0.  1.
</event>
<event>
 5   0  0.1646510E-06  0.2100804E+04  0.7818609E-02  0.8560889E-01
       -1   -1    0    0    0  501  0.00000000000E+00  0.00000000000E+00  0.67049293423E+03  0.67049293424E+03  0.50400001928E-02 0.  1.
        1   -1    0    0  501    0  0.00000000000E+00  0.00000000000E+00 -0.16455718885E+04  0.16455718885E+04  0.50400001928E-02 0. -1.
    10030    2    1    2    0    0  0.00000000000E+00  0.00000000000E+00 -0.97507895423E+03  0.23160648227E+04  0.21008039642E+04 0.  0.
        4    1    3    3  502    0  0.57005391302E+03  0.75716185246E+03  0.11729332034E+02  0.94783686608E+03  0.12699999809E+01 0.  1.
       -4    1    3    3    0  502 -0.57005391302E+03 -0.75716185246E+03 -0.98680828627E+03  0.13682279566E+04  0.12699999809E+01 0. -1.
</event>
<event>
 5   0  0.3636435E-06  0.2099925E+04  0.7818609E-02  0.8561277E-01
       -2   -1    0    0    0  501  0.00000000000E+00  0.00000000000E+00  0.94910019001E+03  0.94910019002E+03  0.25500000920E-02 0. -1.
        2   -1    0    0  501    0  0.00000000000E+00  0.00000000000E+00 -0.11615433431E+04  0.11615433431E+04  0.25500000920E-02 0.  1.
    10030    2    1    2    0    0  0.00000000000E+00  0.00000000000E+00 -0.21244315306E+03  0.21106435331E+04  0.20999247678E+04 0.  0.
        4    1    3    3  502    0 -0.82647732238E+03  0.58474443036E+03  0.17345867848E+03  0.10271710370E+04  0.12699999809E+01 0. -1.
       -4    1    3    3    0  502  0.82647732238E+03 -0.58474443036E+03 -0.38590183154E+03  0.10834724961E+04  0.12699999809E+01 0.  1.
</event>
<event>
 5   0  0.3574927E-06  0.2099450E+04  0.7818609E-02  0.8561486E-01
       -2   -1    0    0    0  501  0.00000000000E+00  0.00000000000E+00  0.56153100666E+03  0.56153100667E+03  0.25500000920E-02 0. -1.
        2   -1    0    0  501    0  0.00000000000E+00  0.00000000000E+00 -0.19623546593E+04  0.19623546593E+04  0.25500000920E-02 0.  1.
    10030    2    1    2    0    0  0.00000000000E+00  0.00000000000E+00 -0.14008236526E+04  0.25238856660E+04  0.20994503921E+04 0.  0.
        3    1    3    3  502    0 -0.33746324866E+03  0.97192416077E+03 -0.44995450405E+03  0.11229323597E+04  0.10100000352E+00 0. -1.
       -3    1    3    3    0  502  0.33746324866E+03 -0.97192416077E+03 -0.95086914858E+03  0.14009533063E+04  0.10100000352E+00 0.  1.
</event>
<event>
 5   0  0.1590067E-06  0.2099368E+04  0.7818609E-02  0.8561522E-01
        1   -1    0    0  501    0  0.00000000000E+00  0.00000000000E+00  0.17502962954E+04  0.17502962954E+04  0.50400001928E-02 0. -1.
       -1   -1    0    0    0  501  0.00000000000E+00  0.00000000000E+00 -0.62951452983E+03  0.62951452985E+03  0.50400001928E-02 0.  1.
    10030    2    1    2    0    0  0.00000000000E+00  0.00000000000E+00  0.11207817655E+04  0.23798108252E+04  0.20993684283E+04 0.  0.
        5    1    3    3  502    0 -0.70610381680E+03  0.29949798744E+03 -0.25194950010E+03  0.80733034452E+03  0.46999998093E+01 0.  1.
       -5    1    3    3    0  502  0.70610381680E+03 -0.29949798744E+03  0.13727312656E+04  0.15724804807E+04  0.46999998093E+01 0. -1.
</event>
<event>
 5   0  0.3547583E-06  0.2109651E+04  0.7818609E-02  0.8557004E-01
       -2   -1    0    0    0  501  0.00000000000E+00  0.00000000000E+00  0.88954798851E+03  0.88954798852E+03  0.25500000920E-02 0. -1.
        2   -1    0    0  501    0  0.00000000000E+00  0.00000000000E+00 -0.12508113208E+04  0.12508113208E+04  0.25500000920E-02 0.  1.
    10030    2    1    2    0    0  0.00000000000E+00  0.00000000000E+00 -0.36126333230E+03  0.21403593093E+04  0.21096508663E+04 0.  0.
        2    1    3    3  502    0 -0.16170027574E+03 -0.82044774163E+03  0.47166974253E+03  0.96008011225E+03  0.25500000920E-02 0. -1.
       -2    1    3    3    0  502  0.16170027574E+03  0.82044774163E+03 -0.83293307483E+03  0.11802791971E+04  0.25500000920E-02 0.  1.
</event>
<event>
 5   0  0.1590067E-06  0.2101372E+04  0.7818609E-02  0.8560639E-01
        1   -1    0    0  501    0  0.00000000000E+00  0.00000000000E+00  0.22884182805E+04  0.22884182806E+04  0.50400001928E-02 0. -1.
       -1   -1    0    0    0  501  0.00000000000E+00  0.00000000000E+00 -0.48240342676E+03  0.48240342679E+03  0.50400001928E-02 0.  1.
    10030    2    1    2    0    0  0.00000000000E+00  0.00000000000E+00  0.18060148538E+04  0.27708217073E+04  0.21013717619E+04 0.  0.
        5    1    3    3  502    0 -0.33343138445E+03 -0.86962432107E+03  0.15442426786E+04  0.18033664321E+04  0.46999998093E+01 0. -1.
       -5    1    3    3    0  502  0.33343138445E+03  0.86962432107E+03  0.26177217519E+03  0.96745527527E+03  0.46999998093E+01 0.  1.
</event>
<event>
 5   0  0.3547583E-06  0.2101055E+04  0.7818609E-02  0.8560779E-01
       -2   -1    0    0    0  501  0.00000000000E+00  0.00000000000E+00  0.10165880330E+04  0.10165880330E+04  0.25500000920E-02 0. -1.
        2   -1    0    0  501    0  0.00000000000E+00  0.00000000000E+00 -0.10856002130E+04  0.10856002130E+04  0.25500000920E-02 0.  1.
    10030    2    1    2    0    0  0.00000000000E+00  0.00000000000E+00 -0.69012180008E+02  0.21021882460E+04  0.21010551494E+04 0.  0.
        2    1    3    3  502    0  0.66049992312E+03 -0.22391947271E+03 -0.82055571009E+03  0.10768991374E+04  0.25500000920E-02 0.  1.
       -2    1    3    3    0  502 -0.66049992312E+03  0.22391947271E+03  0.75154353008E+03  0.10252891086E+04  0.25500000920E-02 0. -1.
</event>
<event>
 5   0  0.1653260E-06  0.2099714E+04  0.7818609E-02  0.8561369E-01
        1   -1    0    0  501    0  0.00000000000E+00  0.00000000000E+00  0.11339795145E+04  0.11339795146E+04  0.50400001928E-02 0.  1.
       -1   -1    0    0    0  501  0.00000000000E+00  0.00000000000E+00 -0.97197502784E+03  0.97197502785E+03  0.50400001928E-02 0. -1.
    10030    2    1    2    0    0  0.00000000000E+00  0.00000000000E+00  0.16200448671E+03  0.21059545424E+04  0.20997140474E+04 0.  0.
        3    1    3    3  502    0  0.51413996702E+03 -0.80181745263E+03  0.52384437161E+03  0.10870437291E+04  0.10100000352E+00 0.  1.
       -3    1    3    3    0  502 -0.51413996702E+03  0.80181745263E+03 -0.36183988490E+03  0.10189108133E+04  0.10100000352E+00 0. -1.
</event>
<event>
 5   0  0.3574927E-06  0.2100486E+04  0.7818609E-02  0.8561029E-01
        2   -1    0    0  501    0  0.00000000000E+00  0.00000000000E+00  0.78994432258E+03  0.78994432258E+03  0.25500000920E-02 0. -1.
       -2   -1    0    0    0  501  0.00000000000E+00  0.00000000000E+00 -0.13963141597E+04  0.13963141597E+04  0.25500000920E-02 0.  1.
    10030    2    1    2    0    0  0.00000000000E+00  0.00000000000E+00 -0.60636983709E+03  0.21862584823E+04  0.21004860799E+04 0.  0.
        3    1    3    3  502    0  0.93144701521E+03  0.44861010271E+03 -0.11079694568E+03  0.10397694647E+04  0.10100000352E+00 0. -1.
       -3    1    3    3    0  502 -0.93144701521E+03 -0.44861010271E+03 -0.49557289141E+03  0.11464890175E+04  0.10100000352E+00 0.  1.
</event>
<event>
 5   0  0.1646510E-06  0.2102371E+04  0.7818609E-02  0.8560200E-01
       -1   -1    0    0    0  501  0.00000000000E+00  0.00000000000E+00  0.66799159114E+03  0.66799159116E+03  0.50400001928E-02 0. -1.
        1   -1    0    0  501    0  0.00000000000E+00  0.00000000000E+00 -0.16541987076E+04  0.16541987076E+04  0.50400001928E-02 0.  1.
    10030    2    1    2    0    0  0.00000000000E+00  0.00000000000E+00 -0.98620711646E+03  0.23221902988E+04  0.21023708776E+04 0.  0.
        4    1    3    3  502    0  0.34496315386E+03 -0.72656383907E+03 -0.12406980141E+04  0.14785897893E+04  0.12699999809E+01 0.  1.
       -4    1    3    3    0  502 -0.34496315386E+03  0.72656383907E+03  0.25449089766E+03  0.84360050951E+03  0.12699999809E+01 0. -1.
</event>
<event>
 5   0  0.1615098E-06  0.2099936E+04  0.7818609E-02  0.8561272E-01
       -1   -1    0    0    0  501  0.00000000000E+00  0.00000000000E+00  0.11966898195E+04  0.11966898195E+04  0.50400001928E-02 0.  1.
        1   -1    0    0  501    0  0.00000000000E+00  0.00000000000E+00 -0.92123480038E+03  0.92123480039E+03  0.50400001928E-02 0. -1.
    10030    2    1    2    0    0  0.00000000000E+00  0.00000000000E+00  0.27545501915E+03  0.21179246199E+04  0.20999355295E+04 0.  0.
        1    1    3    3  502    0  0.83719249678E+03  0.21306524712E+01 -0.50136988462E+03  0.97584198392E+03  0.50400001928E-02 0. -1.
       -1    1    3    3    0  502 -0.83719249678E+03 -0.21306524712E+01  0.77682490377E+03  0.11420826360E+04  0.50400001928E-02 0.  1.
</event>
<event>
 5   0  0.3547583E-06  0.2099325E+04  0.7818609E-02  0.8561541E-01
       -2   -1    0    0    0  501  0.00000000000E+00  0.00000000000E+00  0.94693800672E+03  0.94693800672E+03  0.25500000920E-02 0. -1.
        2   -1    0    0  501    0  0.00000000000E+00  0.00000000000E+00 -0.11635306079E+04  0.11635306079E+04  0.25500000920E-02 0.  1.
    10030    2    1    2    0    0  0.00000000000E+00  0.00000000000E+00 -0.21659260115E+03  0.21104686146E+04  0.20993249911E+04 0.  0.
        2    1    3    3  502    0  0.25670623554E+03 -0.13991782524E+03  0.90518014663E+03  0.95122352107E+03  0.25500000920E-02 0. -1.
       -2    1    3    3    0  502 -0.25670623554E+03  0.13991782524E+03 -0.11217727478E+04  0.11592450935E+04  0.25500000920E-02 0.  1.
</event>
<event>
 5   0  0.1653260E-06  0.2099681E+04  0.7818609E-02  0.8561384E-01
        1   -1    0    0  501    0  0.00000000000E+00  0.00000000000E+00  0.12291287728E+04  0.12291287728E+04  0.50400001928E-02 0.  1.
       -1   -1    0    0    0  501  0.00000000000E+00  0.00000000000E+00 -0.89670429358E+03  0.89670429359E+03  0.50400001928E-02 0. -1.
    10030    2    1    2    0    0  0.00000000000E+00  0.00000000000E+00  0.33242447921E+03  0.21258330664E+04  0.20996809738E+04 0.  0.
        3    1    3    3  502    0 -0.12824222888E+03  0.17068816214E+03  0.12069180202E+04  0.12256555942E+04  0.10100000352E+00 0.  1.
       -3    1    3    3    0  502  0.12824222888E+03 -0.17068816214E+03 -0.87449354099E+03  0.90017747217E+03  0.10100000352E+00 0. -1.
</event>
<event>
 5   0  0.3636435E-06  0.2100829E+04  0.7818609E-02  0.8560878E-01
       -2   -1    0    0    0  501  0.00000000000E+00  0.00000000000E+00  0.86774043839E+03  0.86774043840E+03  0.25500000920E-02 0. -1.
        2   -1    0    0  501    0  0.00000000000E+00  0.00000000000E+00 -0.12715451478E+04  0.12715451478E+04  0.25500000920E-02 0.  1.
    10030    2    1    2    0    0  0.00000000000E+00  0.00000000000E+00 -0.40380470940E+03  0.21392855862E+04  0.21008294971E+04 0.  0.
        4    1    3    3  502    0 -0.92710961188E+02 -0.10413820677E+04 -0.30523699294E+03  0.10891479091E+04  0.12699999809E+01 0. -1.
       -4    1    3    3    0  502  0.92710961188E+02  0.10413820677E+04 -0.98567716465E+02  0.10501376771E+04  0.12699999809E+01 0.  1.
</event>
<event>
 5   0  0.3574927E-06  0.2099971E+04  0.7818609E-02  0.8561256E-01
       -2   -1    0    0    0  501  0.00000000000E+00  0.00000000000E+00  0.58525299327E+03  0.58525299328E+03  0.25500000920E-02 0.  1.
        2   -1    0    0  501    0  0.00000000000E+00  0.00000000000E+00 -0.18837480784E+04  0.18837480784E+04  0.25500000920E-02 0. -1.
    10030    2    1    2    0    0  0.00000000000E+00  0.00000000000E+00 -0.12984950851E+04  0.24690010717E+04  0.20999706679E+04 0.  0.
        3    1    3    3  502    0 -0.79767544103E+03 -0.65454291371E+03 -0.42079036225E+03  0.11143505168E+04  0.10100000352E+00 0.  1.
       -3    1    3    3    0  502  0.79767544103E+03  0.65454291371E+03 -0.87770472288E+03  0.13546505549E+04  0.10100000352E+00 0. -1.
</event>
<event>
 5   0  0.3705828E-06  0.2099032E+04  0.7818609E-02  0.8561670E-01
       -2   -1    0    0    0  501  0.00000000000E+00  0.00000000000E+00  0.68009498476E+03  0.68009498477E+03  0.25500000920E-02 0.  1.
        2   -1    0    0  501    0  0.00000000000E+00  0.00000000000E+00 -0.16196022188E+04  0.16196022188E+04  0.25500000920E-02 0. -1.
    10030    2    1    2    0    0  0.00000000000E+00  0.00000000000E+00 -0.93950723405E+03  0.22996972036E+04  0.20990315351E+04 0.  0.
        5    1    3    3  502    0 -0.74557221536E+03 -0.64457271767E+03 -0.86494360210E+03  0.13112976174E+04  0.46999998093E+01 0. -1.
       -5    1    3    3    0  502  0.74557221536E+03  0.64457271767E+03 -0.74563631951E+02  0.98839958615E+03  0.46999998093E+01 0.  1.
</event>
<event>
 5   0  0.1646510E-06  0.2099946E+04  0.7818609E-02  0.8561267E-01
        1   -1    0    0  501    0  0.00000000000E+00  0.00000000000E+00  0.97638479290E+03  0.97638479291E+03  0.50400001928E-02 0. -1.
       -1   -1    0    0    0  501  0.00000000000E+00  0.00000000000E+00 -0.11291075789E+04  0.11291075789E+04  0.50400001928E-02 0.  1.
    10030    2    1    2    0    0  0.00000000000E+00  0.00000000000E+00 -0.15272278601E+03  0.21054923718E+04  0.20999461609E+04 0.  0.
        4    1    3    3  502    0  0.32498150566E+03 -0.91997760773E+03 -0.46529062540E+03  0.10809573335E+04  0.12699999809E+01 0.  1.
       -4    1    3    3    0  502 -0.32498150566E+03  0.91997760773E+03  0.31256783939E+03  0.10245350384E+04  0.12699999809E+01 0. -1.
</event>
<event>
 5   0  0.1653260E-06  0.2097507E+04  0.7818609E-02  0.8562342E-01
        1   -1    0    0  501    0  0.00000000000E+00  0.00000000000E+00  0.18904049119E+04  0.18904049119E+04  0.50400001928E-02 0. -1.
       -1   -1    0    0    0  501  0.00000000000E+00  0.00000000000E+00 -0.58182463437E+03  0.58182463440E+03  0.50400001928E-02 0.  1.
    10030    2    1    2    0    0  0.00000000000E+00  0.00000000000E+00  0.13085802775E+04  0.24722295463E+04  0.20975072317E+04 0.  0.
        3    1    3    3  502    0 -0.10375560040E+03  0.34499137538E+03 -0.50660648260E+03  0.62163848989E+03  0.10100000352E+00 0.  1.
       -3    1    3    3    0  502  0.10375560040E+03 -0.34499137538E+03  0.18151867601E+04  0.18505910564E+04  0.10100000352E+00 0. -1.
</event>
<event>
 5   0  0.1590067E-06  0.2100259E+04  0.7818609E-02  0.8561129E-01
        1   -1    0    0  501    0  0.00000000000E+00  0.00000000000E+00  0.15260842043E+04  0.15260842043E+04  0.50400001928E-02 0. -1.
       -1   -1    0    0    0  501  0.00000000000E+00  0.00000000000E+00 -0.72261556526E+03  0.72261556527E+03  0.50400001928E-02 0.  1.
    10030    2    1    2    0    0  0.00000000000E+00  0.00000000000E+00  0.80346863906E+03  0.22486997696E+04  0.21002592221E+04 0.  0.
        5    1    3    3  502    0  0.10706098769E+02  0.61590807081E+03  0.13123091200E+04  0.14497015861E+04  0.46999998093E+01 0. -1.
       -5    1    3    3    0  502 -0.10706098769E+02 -0.61590807081E+03 -0.50884048093E+03  0.79899818353E+03  0.46999998093E+01 0.  1.
</event>
<event>
 5   0  0.3636435E-06  0.2100644E+04  0.7818609E-02  0.8560960E-01
       -2   -1    0    0    0  501  0.00000000000E+00  0.00000000000E+00  0.86259282735E+03  0.86259282735E+03  0.25500000920E-02 0.  1.
        2   -1    0    0  501    0  0.00000000000E+00  0.00000000000E+00 -0.12789077202E+04  0.12789077202E+04  0.25500000920E-02 0. -1.
    10030    2    1    2    0    0  0.00000000000E+00  0.00000000000E+00 -0.41631489285E+03  0.21415005476E+04  0.21006443072E+04 0.  0.
        4    1    3    3  502    0 -0.10212402238E+04  0.13825771500E+03 -0.14121486515E+01  0.10305582941E+04  0.12699999809E+01 0.  1.
       -4    1    3    3    0  502  0.10212402238E+04 -0.13825771500E+03 -0.41490274420E+03  0.11109422535E+04  0.12699999809E+01 0. -1.
</event>
<event>
 5   0  0.3480134E-06  0.2101507E+04  0.7818609E-02  0.8560580E-01
       -2   -1    0    0    0  501  0.00000000000E+00  0.00000000000E+00  0.85468628162E+03  0.85468628163E+03  0.25500000920E-02 0. -1.
        2   -1    0    0  501    0  0.00000000000E+00  0.00000000000E+00 -0.12917994689E+04  0.12917994689E+04  0.25500000920E-02 0.  1.
    10030    2    1    2    0    0  0.00000000000E+00  0.00000000000E+00 -0.43711318731E+03  0.21464857506E+04  0.21015073492E+04 0.  0.
        1    1    3    3  502    0 -0.81047268017E+03 -0.41752744318E+03  0.31501099177E+03  0.96458646894E+03  0.50400001928E-02 0. -1.
       -1    1    3    3    0  502  0.81047268017E+03  0.41752744318E+03 -0.75212417909E+03  0.11818992816E+04  0.50400001928E-02 0.  1.
</event>
<event>
 5   0  0.3705828E-06  0.2100235E+04  0.7818609E-02  0.8561140E-01
       -2   -1    0    0    0  501  0.00000000000E+00  0.00000000000E+00  0.97436643263E+03  0.97436643263E+03  0.25500000920E-02 0. -1.
        2   -1    0    0  501    0  0.00000000000E+00  0.00000000000E+00 -0.11317575831E+04  0.11317575831E+04  0.25500000920E-02 0.  1.
    10030    2    1    2    0    0  0.00000000000E+00  0.00000000000E+00 -0.15739115045E+03  0.21061240157E+04  0.21002348429E+04 0.  0.
        5    1    3    3  502    0  0.78595671372E+03  0.64878284389E+03 -0.33254047113E+03  0.10720318975E+04  0.46999998093E+01 0.  1.
       -5    1    3    3    0  502 -0.78595671372E+03 -0.64878284389E+03  0.17514932068E+03  0.10340921182E+04  0.46999998093E+01 0. -1.
</event>
<event>
 5   0  0.3636435E-06  0.2100494E+04  0.7818609E-02  0.8561026E-01
        2   -1    0    0  501    0  0.00000000000E+00  0.00000000000E+00  0.12324330730E+04  0.12324330730E+04  0.25500000920E-02 0.  1.
       -2   -1    0    0    0  501  0.00000000000E+00  0.00000000000E+00 -0.89499295211E+03  0.89499295211E+03  0.25500000920E-02 0. -1.
    10030    2    1    2    0    0  0.00000000000E+00  0.00000000000E+00  0.33744012090E+03  0.21274260251E+04  0.21004941459E+04 0.  0.
        4    1    3    3  502    0  0.88042389244E+03 -0.23238888405E+03 -0.36131235434E+03  0.97964230927E+03  0.12699999809E+01 0. -1.
       -4    1    3    3    0  502 -0.88042389244E+03  0.23238888405E+03  0.69875247525E+03  0.11477837159E+04  0.12699999809E+01 0.  1.
</event>
<event>
 5   0  0.3547583E-06  0.2099131E+04  0.7818609E-02  0.8561626E-01
        2   -1    0    0  501    0  0.00000000000E+00  0.00000000000E+00  0.91617777267E+03  0.91617777268E+03  0.25500000920E-02 0.  1.
       -2   -1    0    0    0  501  0.00000000000E+00  0.00000000000E+00 -0.12023732187E+04  0.12023732187E+04  0.25500000920E-02 0. -1.
    10030    2    1    2    0    0  0.00000000000E+00  0.00000000000E+00 -0.28619544607E+03  0.21185509914E+04  0.20991308844E+04 0.  0.
        2    1    3    3  502    0  0.74484669551E+03 -0.61844666379E+03 -0.55220543591E+03  0.11145419325E+04  0.25500000920E-02 0.  1.
       -2    1    3    3    0  502 -0.74484669551E+03  0.61844666379E+03  0.26600998984E+03  0.10040090590E+04  0.25500000920E-02 0. -1.
</event>
<event>
 5   0  0.3705828E-06  0.2101100E+04  0.7818609E-02  0.8560759E-01
       -2   -1    0    0    0  501  0.00000000000E+00  0.00000000000E+00  0.90464592217E+03  0.90464592217E+03  0.25500000920E-02 0.  1.
        2   -1    0    0  501    0  0.00000000000E+00  0.00000000000E+00 -0.12199863827E+04  0.12199863827E+04  0.25500000920E-02 0. -1.
    10030    2    1    2    0    0  0.00000000000E+00  0.00000000000E+00 -0.31534046058E+03  0.21246323049E+04  0.21011003843E+04 0.  0.
        5    1    3    3  502    0 -0.64743481491E+03  0.29543327210E+03 -0.93910000335E+03  0.11782968913E+04  0.46999998093E+01 0. -1.
       -5    1    3    3    0  502  0.64743481491E+03 -0.29543327210E+03  0.62375954277E+03  0.94633541359E+03  0.46999998093E+01 0.  1.
</event>
<event>
 5   0  0.3705828E-06  0.2100853E+04  0.7818609E-02  0.8560868E-01
       -2   -1    0    0    0  501  0.00000000000E+00  0.00000000000E+00  0.81702605359E+03  0.81702605359E+03  0.25500000920E-02 0.  1.
        2   -1    0    0  501    0  0.00000000000E+00  0.00000000000E+00 -0.13505024834E+04  0.13505024834E+04  0.25500000920E-02 0. -1.
    10030    2    1    2    0    0  0.00000000000E+00  0.00000000000E+00 -0.53347642986E+03  0.21675285370E+04  0.21008528882E+04 0.  0.
        5    1    3    3  502    0 -0.70871876387E+03 -0.26473059466E+03 -0.10185690671E+04  0.12688063716E+04  0.46999998093E+01 0. -1.
       -5    1    3    3    0  502  0.70871876387E+03  0.26473059466E+03  0.48509263726E+03  0.89872216549E+03  0.46999998093E+01 0.  1.
</event>
<event>
 5   0  0.1579820E-06  0.2100925E+04  0.7818609E-02  0.8560836E-01
        1   -1    0    0  501    0  0.00000000000E+00  0.00000000000E+00  0.94218494251E+03  0.94218494252E+03  0.50400001928E-02 0. -1.
       -1   -1    0    0    0  501  0.00000000000E+00  0.00000000000E+00 -0.11711838145E+04  0.11711838145E+04  0.50400001928E-02 0.  1.
    10030    2    1    2    0    0  0.00000000000E+00  0.00000000000E+00 -0.22899887200E+03  0.21133687570E+04  0.21009252771E+04 0.  0.
        2    1    3    3  502    0 -0.10072761961E+03  0.84874672111E+03 -0.72881670185E+03  0.11232501212E+04  0.25500000920E-02 0.  1.
       -2    1    3    3    0  502  0.10072761961E+03 -0.84874672111E+03  0.49981782985E+03  0.99011863581E+03  0.25500000920E-02 0. -1.
</event>
<event>
 5   0  0.1579820E-06  0.2100118E+04  0.7818609E-02  0.8561191E-01
       -1   -1    0    0    0  501  0.00000000000E+00  0.00000000000E+00  0.74225137964E+03  0.74225137966E+03  0.50400001928E-02 0.  1.
        1   -1    0    0  501    0  0.00000000000E+00  0.00000000000E+00 -0.14855124672E+04  0.14855124672E+04  0.50400001928E-02 0. -1.
    10030    2    1    2    0    0  0.00000000000E+00  0.00000000000E+00 -0.74326108757E+03  0.22277638469E+04  0.21001177855E+04 0.  0.
        2    1    3    3  502    0  0.38275483020E+03  0.97647993180E+03 -0.31744385856E+03  0.10958033220E+04  0.25500000920E-02 0.  1.
       -2    1    3    3    0  502 -0.38275483020E+03 -0.97647993180E+03 -0.42581722901E+03  0.11319605248E+04  0.25500000920E-02 0. -1.
</event>
<event>
 5   0  0.1579820E-06  0.2100443E+04  0.7818609E-02  0.8561048E-01
       -1   -1    0    0    0  501  0.00000000000E+00  0.00000000000E+00  0.53434106733E+03  0.53434106735E+03  0.50400001928E-02 0. -1.
        1   -1    0    0  501    0  0.00000000000E+00  0.00000000000E+00 -0.20641603272E+04  0.20641603273E+04  0.50400001928E-02 0.  1.
    10030    2    1    2    0    0  0.00000000000E+00  0.00000000000E+00 -0.15298192599E+04  0.25985013946E+04  0.21004434126E+04 0.  0.
        2    1    3    3  502    0 -0.70608571533E+02  0.63143065333E+03 -0.17994229601E+04  0.19083011371E+04  0.25500000920E-02 0.  1.
       -2    1    3    3    0  502  0.70608571533E+02 -0.63143065333E+03  0.26960370019E+03  0.69020025754E+03  0.25500000920E-02 0. -1.
</event>
<event>
 5   0  0.1590067E-06  0.2099501E+04  0.7818609E-02  0.8561463E-01
       -1   -1    0    0    0  501  0.00000000000E+00  0.00000000000E+00  0.82116598067E+03  0.82116598069E+03  0.50400001928E-02 0. -1.
        1   -1    0    0  501    0  0.00000000000E+00  0.00000000000E+00 -0.13419649366E+04  0.13419649366E+04  0.50400001928E-02 0.  1.
    10030    2    1    2    0    0  0.00000000000E+00  0.00000000000E+00 -0.52079895595E+03  0.21631309173E+04  0.20995008485E+04 0.  0.
        5    1    3    3  502    0 -0.65204544087E+03  0.58843080749E+03 -0.85274979374E+03  0.12241806945E+04  0.46999998093E+01 0.  1.
       -5    1    3    3    0  502  0.65204544087E+03 -0.58843080749E+03  0.33195083779E+03  0.93895022278E+03  0.46999998093E+01 0. -1.
</event>
<event>
 5   0  0.3574927E-06  0.2099233E+04  0.7818609E-02  0.8561581E-01
        2   -1    0    0  501    0  0.00000000000E+00  0.00000000000E+00  0.24623780088E+04  0.24623780088E+04  0.25500000920E-02 0.  1.
       -2   -1    0    0    0  501  0.00000000000E+00  0.00000000000E+00 -0.44741080489E+03  0.44741080489E+03  0.25500000920E-02 0. -1.
    10030    2    1    2    0    0  0.00000000000E+00  0.00000000000E+00  0.20149672039E+04  0.29097888137E+04  0.20992327426E+04 0.  0.
        3    1    3    3  502    0 -0.96916051461E+03 -0.16540435285E+03  0.49807018123E+03  0.11021363884E+04  0.10100000352E+00 0.  1.
       -3    1    3    3    0  502  0.96916051461E+03  0.16540435285E+03  0.15168970227E+04  0.18076524253E+04  0.10100000352E+00 0. -1.
</event>
<event>
 5   0  0.1615098E-06  0.2099803E+04  0.7818609E-02  0.8561330E-01
        1   -1    0    0  501    0  0.00000000000E+00  0.00000000000E+00  0.89382247116E+03  0.89382247117E+03  0.50400001928E-02 0. -1.
       -1   -1    0    0    0  501  0.00000000000E+00  0.00000000000E+00 -0.12332348817E+04  0.12332348817E+04  0.50400001928E-02 0.  1.
    10030    2    1    2    0    0  0.00000000000E+00  0.00000000000E+00 -0.33941241057E+03  0.21270573529E+04  0.20998028951E+04 0.  0.
        1    1    3    3  502    0 -0.35578160274E+03 -0.37160331848E+03  0.75739061159E+03  0.91559276630E+03  0.50400001928E-02 0. -1.
       -1    1    3    3    0  502  0.35578160274E+03  0.37160331848E+03 -0.10968030222E+04  0.12114645866E+04  0.50400001928E-02 0.  1.
</event>
<event>
 5   0  0.1579820E-06  0.2100153E+04  0.7818609E-02  0.8561176E-01
       -1   -1    0    0    0  501  0.00000000000E+00  0.00000000000E+00  0.11633287171E+04  0.11633287171E+04  0.50400001928E-02 0.  1.
        1   -1    0    0  501    0  0.00000000000E+00  0.00000000000E+00 -0.94784920807E+03  0.94784920808E+03  0.50400001928E-02 0. -1.
    10030    2    1    2    0    0  0.00000000000E+00  0.00000000000E+00  0.21547950906E+03  0.21111779252E+04  0.21001525690E+04 0.  0.
        2    1    3    3  502    0  0.99094658043E+03  0.18140794150E+02 -0.24100512866E+03  0.10199939636E+04  0.25500000920E-02 0.  1.
       -2    1    3    3    0  502 -0.99094658043E+03 -0.18140794150E+02  0.45648463772E+03  0.10911839616E+04  0.25500000920E-02 0. -1.
</event>
<event>
 5   0  0.1590067E-06  0.2099707E+04  0.7818609E-02  0.8561373E-01
        1   -1    0    0  501    0  0.00000000000E+00  0.00000000000E+00  0.17774523192E+04  0.17774523192E+04  0.50400001928E-02 0.  1.
       -1   -1    0    0    0  501  0.00000000000E+00  0.00000000000E+00 -0.62009652733E+03  0.62009652736E+03  0.50400001928E-02 0. -1.
    10030    2    1    2    0    0  0.00000000000E+00  0.00000000000E+00  0.11573557919E+04  0.23975488466E+04  0.20997066563E+04 0.  0.
        5    1    3    3  502    0 -0.74032681660E+03 -0.19388836265E+03 -0.24194048227E+03  0.80264175041E+03  0.46999998093E+01 0. -1.
       -5    1    3    3    0  502  0.74032681660E+03  0.19388836265E+03  0.13992962741E+04  0.15949070962E+04  0.46999998093E+01 0.  1.
</event>
<event>
 5   0  0.3547583E-06  0.2099786E+04  0.7818609E-02  0.8561338E-01
       -2   -1    0    0    0  501  0.00000000000E+00  0.00000000000E+00  0.50314165016E+03  0.50314165017E+03  0.25500000920E-02 0.  1.
        2   -1    0    0  501    0  0.00000000000E+00  0.00000000000E+00 -0.21907849866E+04  0.21907849866E+04  0.25500000920E-02 0. -1.
    10030    2    1    2    0    0  0.00000000000E+00  0.00000000000E+00 -0.16876433364E+04  0.26939266367E+04  0.20997858684E+04 0.  0.
        2    1    3    3  502    0 -0.69370983611E+03  0.56463249233E+03 -0.15491331727E+04  0.17888143489E+04  0.25500000920E-02 0. -1.
       -2    1    3    3    0  502  0.69370983611E+03 -0.56463249233E+03 -0.13851016371E+03  0.90511228783E+03  0.25500000920E-02 0.  1.
</event>
<event>
 5   0  0.3636435E-06  0.2100391E+04  0.7818609E-02  0.8561071E-01
       -2   -1    0    0    0  501  0.00000000000E+00  0.00000000000E+00  0.39616365873E+03  0.39616365874E+03  0.25500000920E-02 0. -1.
        2   -1    0    0  501    0  0.00000000000E+00  0.00000000000E+00 -0.27839760753E+04  0.27839760753E+04  0.25500000920E-02 0.  1.
    10030    2    1    2    0    0  0.00000000000E+00  0.00000000000E+00 -0.23878124166E+04  0.31801397341E+04  0.21003905807E+04 0.  0.
        4    1    3    3  502    0  0.68153061743E+02 -0.69304386809E+02 -0.27771496949E+04  0.27788504780E+04  0.12699999809E+01 0.  1.
       -4    1    3    3    0  502 -0.68153061743E+02  0.69304386809E+02  0.38933727834E+03  0.40128925610E+03  0.12699999809E+01 0. -1.
</event>
<event>
 5   0  0.1653260E-06  0.2094542E+04  0.7818609E-02  0.8563651E-01
       -1   -1    0    0    0  501  0.00000000000E+00  0.00000000000E+00  0.83119646106E+03  0.83119646107E+03  0.50400001928E-02 0.  1.
        1   -1    0    0  501    0  0.00000000000E+00  0.00000000000E+00 -0.13195156281E+04  0.13195156281E+04  0.50400001928E-02 0. -1.
    10030    2    1    2    0    0  0.00000000000E+00  0.00000000000E+00 -0.48831916701E+03  0.21507120892E+04  0.20945421651E+04 0.  0.
        3    1    3    3  502    0  0.73037290594E+03  0.91228305878E+02 -0.10091277925E+04  0.12490420719E+04  0.10100000352E+00 0. -1.
       -3    1    3    3    0  502 -0.73037290594E+03 -0.91228305878E+02  0.52080862546E+03  0.90167001730E+03  0.10100000352E+00 0.  1.
</event>
<event>
 5   0  0.3547583E-06  0.2101494E+04  0.7818609E-02  0.8560586E-01
        2   -1    0    0  501    0  0.00000000000E+00  0.00000000000E+00  0.11115362467E+04  0.11115362467E+04  0.25500000920E-02 0.  1.
       -2   -1    0    0    0  501  0.00000000000E+00  0.00000000000E+00 -0.99328225221E+03  0.99328225221E+03  0.25500000920E-02 0. -1.
    10030    2    1    2    0    0  0.00000000000E+00  0.00000000000E+00  0.11825399453E+03  0.21048184990E+04  0.21014939701E+04 0.  0.
        2    1    3    3  502    0  0.42619023637E+03  0.20739148992E+03 -0.88013044100E+03  0.99963940541E+03  0.25500000920E-02 0. -1.
       -2    1    3    3    0  502 -0.42619023637E+03 -0.20739148992E+03  0.99838443554E+03  0.11051790935E+04  0.25500000920E-02 0.  1.
</event>
<event>
 5   0  0.1590067E-06  0.2098946E+04  0.7818609E-02  0.8561708E-01
        1   -1    0    0  501    0  0.00000000000E+00  0.00000000000E+00  0.12945583410E+04  0.12945583410E+04  0.50400001928E-02 0. -1.
       -1   -1    0    0    0  501  0.00000000000E+00  0.00000000000E+00 -0.85078723360E+03  0.85078723362E+03  0.50400001928E-02 0.  1.
    10030    2    1    2    0    0  0.00000000000E+00  0.00000000000E+00  0.44377110741E+03  0.21453455746E+04  0.20989461258E+04 0.  0.
        5    1    3    3  502    0 -0.80734243362E+03  0.47769585351E+03 -0.25902212556E+03  0.97319560475E+03  0.46999998093E+01 0.  1.
       -5    1    3    3    0  502  0.80734243362E+03 -0.47769585351E+03  0.70279323296E+03  0.11721499699E+04  0.46999998093E+01 0. -1.
</event>
<event>
 5   0  0.1646510E-06  0.2114541E+04  0.7818609E-02  0.8554865E-01
        1   -1    0    0  501    0  0.00000000000E+00  0.00000000000E+00  0.21512280148E+04  0.21512280148E+04  0.50400001928E-02 0. -1.
       -1   -1    0    0    0  501  0.00000000000E+00  0.00000000000E+00 -0.51962007007E+03  0.51962007009E+03  0.50400001928E-02 0.  1.
    10030    2    1    2    0    0  0.00000000000E+00  0.00000000000E+00  0.16316079448E+04  0.26708480849E+04  0.21145413232E+04 0.  0.
        4    1    3    3  502    0 -0.38118968017E+03  0.47273391319E+03 -0.27735811780E+03  0.66761670393E+03  0.12699999809E+01 0.  1.
       -4    1    3    3    0  502  0.38118968017E+03 -0.47273391319E+03  0.19089660625E+04  0.20032313810E+04  0.12699999809E+01 0. -1.
</event>
<event>
 5   0  0.1579820E-06  0.2099684E+04  0.7818609E-02  0.8561382E-01
        1   -1    0    0  501    0  0.00000000000E+00  0.00000000000E+00  0.13966957873E+04  0.13966957873E+04  0.50400001928E-02 0.  1.
       -1   -1    0    0    0  501  0.00000000000E+00  0.00000000000E+00 -0.78912567168E+03  0.78912567170E+03  0.50400001928E-02 0. -1.
    10030    2    1    2    0    0  0.00000000000E+00  0.00000000000E+00  0.60757011561E+03  0.21858214590E+04  0.20996842632E+04 0.  0.
        2    1    3    3  502    0  0.53921939187E+03  0.13551639539E+03 -0.62327944301E+03  0.83522422742E+03  0.25500000920E-02 0. -1.
       -2    1    3    3    0  502 -0.53921939187E+03 -0.13551639539E+03  0.12308495586E+04  0.13505972316E+04  0.25500000920E-02 0.  1.
</event>
<event>
 5   0  0.1590067E-06  0.2097073E+04  0.7818609E-02  0.8562534E-01
        1   -1    0    0  501    0  0.00000000000E+00  0.00000000000E+00  0.13788317013E+04  0.13788317013E+04  0.50400001928E-02 0. -1.
       -1   -1    0    0    0  501  0.00000000000E+00  0.00000000000E+00 -0.79736256302E+03  0.79736256304E+03  0.50400001928E-02 0.  1.
    10030    2    1    2    0    0  0.00000000000E+00  0.00000000000E+00  0.58146913824E+03  0.21761942643E+04  0.20970729881E+04 0.  0.
        5    1    3    3  502    0  0.30273900198E+03  0.84040973482E+03 -0.27904148668E+03  0.93585558020E+03  0.46999998093E+01 0.  1.
       -5    1    3    3    0  502 -0.30273900198E+03 -0.84040973482E+03  0.86051062491E+03  0.12403386841E+04  0.46999998093E+01 0. -1.
</event>
<event>
 5   0  0.1615098E-06  0.2099917E+04  0.7818609E-02  0.8561280E-01
        1   -1    0    0  501    0  0.00000000000E+00  0.00000000000E+00  0.24309651111E+04  0.24309651112E+04  0.50400001928E-02 0. -1.
       -1   -1    0    0    0  501  0.00000000000E+00  0.00000000000E+00 -0.45348758657E+03  0.45348758660E+03  0.50400001928E-02 0.  1.
    10030    2    1    2    0    0  0.00000000000E+00  0.00000000000E+00  0.19774775246E+04  0.28844526977E+04  0.20999166663E+04 0.  0.
        1    1    3    3  502    0 -0.45254553702E+02 -0.35034079750E+03 -0.36941111801E+03  0.51112740404E+03  0.50400001928E-02 0.  1.
       -1    1    3    3    0  502  0.45254553702E+02  0.35034079750E+03  0.23468886426E+04  0.23733252937E+04  0.50400001928E-02 0. -1.
</event>
<event>
 5   0  0.3574927E-06  0.2100712E+04  0.7818609E-02  0.8560930E-01
        2   -1    0    0  501    0  0.00000000000E+00  0.00000000000E+00  0.13539866756E+04  0.13539866756E+04  0.25500000920E-02 0.  1.
       -2   -1    0    0    0  501  0.00000000000E+00  0.00000000000E+00 -0.81481457965E+03  0.81481457966E+03  0.25500000920E-02 0. -1.
    10030    2    1    2    0    0  0.00000000000E+00  0.00000000000E+00  0.53917209592E+03  0.21688012552E+04  0.21007123401E+04 0.  0.
        3    1    3    3  502    0  0.55902570505E+03 -0.46958856035E+03  0.10491940091E+04  0.12782140798E+04  0.10100000352E+00 0.  1.
       -3    1    3    3    0  502 -0.55902570505E+03  0.46958856035E+03 -0.51002191317E+03  0.89058717542E+03  0.10100000352E+00 0. -1.
</event>
<event>
 5   0  0.3574927E-06  0.2100310E+04  0.7818609E-02  0.8561107E-01
        2   -1    0    0  501    0  0.00000000000E+00  0.00000000000E+00  0.63510200772E+03  0.63510200773E+03  0.25500000920E-02 0.  1.
       -2   -1    0    0    0  501  0.00000000000E+00  0.00000000000E+00 -0.17364545576E+04  0.17364545576E+04  0.25500000920E-02 0. -1.
    10030    2    1    2    0    0  0.00000000000E+00  0.00000000000E+00 -0.11013525499E+04  0.23715565654E+04  0.21003102398E+04 0.  0.
        3    1    3    3  502    0  0.49926205581E+03 -0.27444005904E+02 -0.15934166217E+04  0.16700276388E+04  0.10100000352E+00 0. -1.
       -3    1    3    3    0  502 -0.49926205581E+03  0.27444005904E+02  0.49206407180E+03  0.70152892655E+03  0.10100000352E+00 0.  1.
</event>
<event>
 5   0  0.1590067E-06  0.2100580E+04  0.7818609E-02  0.8560988E-01
       -1   -1    0    0    0  501  0.00000000000E+00  0.00000000000E+00  0.66935234581E+03  0.66935234583E+03  0.50400001928E-02 0. -1.
        1   -1    0    0  501    0  0.00000000000E+00  0.00000000000E+00 -0.16480238187E+04  0.16480238187E+04  0.50400001928E-02 0.  1.
    10030    2    1    2    0    0  0.00000000000E+00  0.00000000000E+00 -0.97867147292E+03  0.23173761646E+04  0.21005795477E+04 0.  0.
        5    1    3    3  502    0  0.75757569295E+02 -0.22134792469E+03  0.64022880585E+03  0.68165176367E+03  0.46999998093E+01 0. -1.
       -5    1    3    3    0  502 -0.75757569295E+02  0.22134792469E+03 -0.16189002788E+04  0.16357244009E+04  0.46999998093E+01 0.  1.
</event>
<event>
 5   0  0.1653260E-06  0.2100335E+04  0.7818609E-02  0.8561096E-01
       -1   -1    0    0    0  501  0.00000000000E+00  0.00000000000E+00  0.10121467201E+04  0.10121467201E+04  0.50400001928E-02 0. -1.
        1   -1    0    0  501    0  0.00000000000E+00  0.00000000000E+00 -0.10896170259E+04  0.10896170260E+04  0.50400001928E-02 0.  1.
    10030    2    1    2    0    0  0.00000000000E+00  0.00000000000E+00 -0.77470305885E+02  0.21017637460E+04  0.21003354960E+04 0.  0.
        3    1    3    3  502    0  0.97428753459E+03 -0.73801277071E+02 -0.42392477152E+03  0.10650798330E+04  0.10100000352E+00 0.  1.
       -3    1    3    3    0  502 -0.97428753459E+03  0.73801277071E+02  0.34645446564E+03  0.10366839130E+04  0.10100000352E+00 0. -1.
</event>
<event>
 5   0  0.1653260E-06  0.2097110E+04  0.7818609E-02  0.8562518E-01
        1   -1    0    0  501    0  0.00000000000E+00  0.00000000000E+00  0.12101440215E+04  0.12101440215E+04  0.50400001928E-02 0. -1.
       -1   -1    0    0    0  501  0.00000000000E+00  0.00000000000E+00 -0.90854256354E+03  0.90854256355E+03  0.50400001928E-02 0.  1.
    10030    2    1    2    0    0  0.00000000000E+00  0.00000000000E+00  0.30160145796E+03  0.21186865851E+04  0.20971097745E+04 0.  0.
        3    1    3    3  502    0  0.32909733190E+03  0.44970281022E+03 -0.74655511800E+03  0.93160196747E+03  0.10100000352E+00 0.  1.
       -3    1    3    3    0  502 -0.32909733190E+03 -0.44970281022E+03  0.10481565760E+04  0.11870846176E+04  0.10100000352E+00 0. -1.
</event>
<event>
 5   0  0.3547583E-06  0.2100316E+04  0.7818609E-02  0.8561104E-01
        2   -1    0    0  501    0  0.00000000000E+00  0.00000000000E+00  0.98575231565E+03  0.98575231565E+03  0.25500000920E-02 0. -1.
       -2   -1    0    0    0  501  0.00000000000E+00  0.00000000000E+00 -0.11187714606E+04  0.11187714606E+04  0.25500000920E-02 0.  1.
    10030    2    1    2    0    0  0.00000000000E+00  0.00000000000E+00 -0.13301914498E+03  0.21045237763E+04  0.21003157458E+04 0.  0.
        2    1    3    3  502    0  0.73573154681E+03  0.58770142986E+03  0.39932797377E+03  0.10228180240E+04  0.25500000920E-02 0. -1.
       -2    1    3    3    0  502 -0.73573154681E+03 -0.58770142986E+03 -0.53234711875E+03  0.10817057523E+04  0.25500000920E-02 0.  1.
</event>
<event>
 5   0  0.3547583E-06  0.2100228E+04  0.7818609E-02  0.8561143E-01
        2   -1    0    0  501    0  0.00000000000E+00  0.00000000000E+00  0.17898720171E+04  0.17898720171E+04  0.25500000920E-02 0.  1.
       -2   -1    0    0    0  501  0.00000000000E+00  0.00000000000E+00 -0.61609962654E+03  0.61609962655E+03  0.25500000920E-02 0. -1.
    10030    2    1    2    0    0  0.00000000000E+00  0.00000000000E+00  0.11737723906E+04  0.24059716437E+04  0.21002280651E+04 0.  0.
        2    1    3    3  502    0  0.10000844002E+03 -0.51357398482E+03 -0.45614177998E+03  0.69413633344E+03  0.25500000920E-02 0. -1.
       -2    1    3    3    0  502 -0.10000844002E+03  0.51357398482E+03  0.16299141706E+04  0.17118353102E+04  0.25500000920E-02 0.  1.
</event>
<event>
 5   0  0.1646510E-06  0.2100456E+04  0.7818609E-02  0.8561042E-01
       -1   -1    0    0    0  501  0.00000000000E+00  0.00000000000E+00  0.16415655407E+04  0.16415655407E+04  0.50400001928E-02 0.  1.
        1   -1    0    0  501    0  0.00000000000E+00  0.00000000000E+00 -0.67190674096E+03  0.67190674098E+03  0.50400001928E-02 0. -1.
    10030    2    1    2    0    0  0.00000000000E+00  0.00000000000E+00  0.96965879969E+03  0.23134722816E+04  0.21004560957E+04 0.  0.
        4    1    3    3  502    0 -0.64092551688E+03  0.53431653403E+03 -0.21757387962E+03  0.86233385804E+03  0.12699999809E+01 0. -1.
       -4    1    3    3    0  502  0.64092551688E+03 -0.53431653403E+03  0.11872326793E+04  0.14511384236E+04  0.12699999809E+01 0.  1.
</event>
<event>
 5   0  0.3480134E-06  0.2099749E+04  0.7818609E-02  0.8561354E-01
       -2   -1    0    0    0  501  0.00000000000E+00  0.00000000000E+00  0.75670184226E+03  0.75670184226E+03  0.25500000920E-02 0.  1.
        2   -1    0    0  501    0  0.00000000000E+00  0.00000000000E+00 -0.14566317986E+04  0.14566317987E+04  0.25500000920E-02 0. -1.
    10030    2    1    2    0    0  0.00000000000E+00  0.00000000000E+00 -0.69992995639E+03  0.22133336409E+04  0.20997485235E+04 0.  0.
        1    1    3    3  502    0 -0.72646075418E+03  0.60069717947E+03  0.13726583425E+03  0.95258817863E+03  0.50400001928E-02 0.  1.
       -1    1    3    3    0  502  0.72646075418E+03 -0.60069717947E+03 -0.83719579064E+03  0.12607454623E+04  0.50400001928E-02 0. -1.
</event>
<event>
 5   0  0.1257125E-06  0.2099469E+04  0.7818609E-02  0.8561478E-01
        3   -1    0    0  501    0  0.00000000000E+00  0.00000000000E+00  0.25620457962E+04  0.25620457982E+04  0.10100000352E+00 0.  1.
       -3   -1    0    0    0  501  0.00000000000E+00  0.00000000000E+00 -0.43010237909E+03  0.43010239095E+03  0.10100000352E+00 0. -1.
    10030    2    1    2    0    0  0.00000000000E+00  0.00000000000E+00  0.21319434171E+04  0.29921481891E+04  0.20994685166E+04 0.  0.
        3    1    3    3  502    0  0.43523346483E+03  0.23680730591E+02 -0.29503408505E+03  0.52634025824E+03  0.10100000352E+00 0. -1.
       -3    1    3    3    0  502 -0.43523346483E+03 -0.23680730591E+02  0.24269775021E+04  0.24658079309E+04  0.10100000352E+00 0.  1.
</event>
<event>
 5   0  0.3705828E-06  0.2100963E+04  0.7818609E-02  0.8560819E-01
       -2   -1    0    0    0  501  0.00000000000E+00  0.00000000000E+00  0.63198815142E+03  0.63198815143E+03  0.25500000920E-02 0. -1.
        2   -1    0    0  501    0  0.00000000000E+00  0.00000000000E+00 -0.17460945483E+04  0.17460945483E+04  0.25500000920E-02 0.  1.
    10030    2    1    2    0    0  0.00000000000E+00  0.00000000000E+00 -0.11141063968E+04  0.23780826997E+04  0.21009626991E+04 0.  0.
        5    1    3    3  502    0 -0.37182315735E+03  0.91759918943E+03 -0.95442677010E+03  0.13752066326E+04  0.46999998093E+01 0.  1.
       -5    1    3    3    0  502  0.37182315735E+03 -0.91759918943E+03 -0.15967962673E+03  0.10028760671E+04  0.46999998093E+01 0. -1.
</event>
<event>
 5   0  0.3705828E-06  0.2098992E+04  0.7818609E-02  0.8561688E-01
       -2   -1    0    0    0  501  0.00000000000E+00  0.00000000000E+00  0.10912690757E+04  0.10912690757E+04  0.25500000920E-02 0. -1.
        2   -1    0    0  501    0  0.00000000000E+00  0.00000000000E+00 -0.10093216545E+04  0.10093216545E+04  0.25500000920E-02 0.  1.
    10030    2    1    2    0    0  0.00000000000E+00  0.00000000000E+00  0.81947421160E+02  0.21005907302E+04  0.20989916712E+04 0.  0.
        5    1    3    3  502    0  0.65469946497E+03  0.80488401283E+03  0.19904895994E+03  0.10564621347E+04  0.46999998093E+01 0.  1.
       -5    1    3    3    0  502 -0.65469946497E+03 -0.80488401283E+03 -0.11710153878E+03  0.10441285955E+04  0.46999998093E+01 0. -1.
</event>
<event>
 5   0  0.3547583E-06  0.2099583E+04  0.7818609E-02  0.8561427E-01
       -2   -1    0    0    0  501  0.00000000000E+00  0.00000000000E+00  0.12565628986E+04  0.12565628986E+04  0.25500000920E-02 0. -1.
        2   -1    0    0  501    0  0.00000000000E+00  0.00000000000E+00 -0.87704496412E+03  0.87704496412E+03  0.25500000920E-02 0.  1.
    10030    2    1    2    0    0  0.00000000000E+00  0.00000000000E+00  0.37951793452E+03  0.21336078628E+04  0.20995829704E+04 0.  0.
        2    1    3    3  502    0 -0.93485822314E+03 -0.22167284328E+03  0.61965525158E+03  0.11432722238E+04  0.25500000920E-02 0. -1.
       -2    1    3    3    0  502  0.93485822314E+03  0.22167284328E+03 -0.24013731706E+03  0.99033563900E+03  0.25500000920E-02 0.  1.
</event>
<event>
 5   0  0.1590067E-06  0.2100362E+04  0.7818609E-02  0.8561084E-01
        1   -1    0    0  501    0  0.00000000000E+00  0.00000000000E+00  0.62601305645E+03  0.62601305647E+03  0.50400001928E-02 0.  1.
       -1   -1    0    0    0  501  0.00000000000E+00  0.00000000000E+00 -0.17617518403E+04  0.17617518403E+04  0.50400001928E-02 0. -1.
    10030    2    1    2    0    0  0.00000000000E+00  0.00000000000E+00 -0.11357387839E+04  0.23877648968E+04  0.21003615444E+04 0.  0.
        5    1    3    3  502    0 -0.33245388811E+03  0.95590973021E+03 -0.24921352886E+03  0.10423139992E+04  0.46999998093E+01 0.  1.
       -5    1    3    3    0  502  0.33245388811E+03 -0.95590973021E+03 -0.88652525502E+03  0.13454508976E+04  0.46999998093E+01 0. -1.
</event>
<event>
 5   0  0.3574927E-06  0.2100439E+04  0.7818609E-02  0.8561050E-01
        2   -1    0    0  501    0  0.00000000000E+00  0.00000000000E+00  0.12023999446E+04  0.12023999446E+04  0.25500000920E-02 0.  1.
       -2   -1    0    0    0  501  0.00000000000E+00  0.00000000000E+00 -0.91729986498E+03  0.91729986498E+03  0.25500000920E-02 0. -1.
    10030    2    1    2    0    0  0.00000000000E+00  0.00000000000E+00  0.28510007965E+03  0.21196998096E+04  0.21004392939E+04 0.  0.
        3    1    3    3  502    0 -0.51524080340E+03  0.79628263061E+03  0.59770929938E+03  0.11210689230E+04  0.10100000352E+00 0.  1.
       -3    1    3    3    0  502  0.51524080340E+03 -0.79628263061E+03 -0.31260921973E+03  0.99863088664E+03  0.10100000352E+00 0. -1.
</event>
<event>
 5   0  0.1653260E-06  0.2100465E+04  0.7818609E-02  0.8561039E-01
        1   -1    0    0  501    0  0.00000000000E+00  0.00000000000E+00  0.10843707535E+04  0.10843707535E+04  0.50400001928E-02 0.  1.
       -1   -1    0    0    0  501  0.00000000000E+00  0.00000000000E+00 -0.10171686369E+04  0.10171686369E+04  0.50400001928E-02 0. -1.
    10030    2    1    2    0    0  0.00000000000E+00  0.00000000000E+00  0.67202116605E+02  0.21015393905E+04  0.21004646356E+04 0.  0.
        3    1    3    3  502    0  0.96780471887E+02  0.10456952081E+04  0.45564733619E+02  0.10511522645E+04  0.10100000352E+00 0. -1.
       -3    1    3    3    0  502 -0.96780471887E+02 -0.10456952081E+04  0.21637382986E+02  0.10503871260E+04  0.10100000352E+00 0.  1.
</event>
<event>
 5   0  0.3636435E-06  0.2100164E+04  0.7818609E-02  0.8561171E-01
       -2   -1    0    0    0  501  0.00000000000E+00  0.00000000000E+00  0.97167431440E+03  0.97167431440E+03  0.25500000920E-02 0.  1.
        2   -1    0    0  501    0  0.00000000000E+00  0.00000000000E+00 -0.11348163118E+04  0.11348163118E+04  0.25500000920E-02 0. -1.
    10030    2    1    2    0    0  0.00000000000E+00  0.00000000000E+00 -0.16314199738E+03  0.21064906262E+04  0.21001636715E+04 0.  0.
        4    1    3    3  502    0 -0.90242496462E+03 -0.15040326691E+03 -0.59856371223E+03  0.10932849994E+04  0.12699999809E+01 0. -1.
       -4    1    3    3    0  502  0.90242496462E+03  0.15040326691E+03  0.43542171484E+03  0.10132056268E+04  0.12699999809E+01 0.  1.
</event>
<event>
 5   0  0.1579820E-06  0.2099592E+04  0.7818609E-02  0.8561423E-01
        1   -1    0    0  501    0  0.00000000000E+00  0.00000000000E+00  0.16702544972E+04  0.16702544972E+04  0.50400001928E-02 0.  1.
       -1   -1    0    0    0  501  0.00000000000E+00  0.00000000000E+00 -0.65982250358E+03  0.65982250359E+03  0.50400001928E-02 0. -1.
    10030    2    1    2    0    0  0.00000000000E+00  0.00000000000E+00  0.10104319936E+04  0.23300770008E+04  0.20995918689E+04 0.  0.
        2    1    3    3  502    0  0.82287522460E+03  0.29296472935E+03  0.11514827220E+04  0.14452904300E+04  0.25500000920E-02 0.  1.
       -2    1    3    3    0  502 -0.82287522460E+03 -0.29296472935E+03 -0.14105072840E+03  0.88478657081E+03  0.25500000920E-02 0. -1.
</event>
<event>
 5   0  0.1615098E-06  0.2099938E+04  0.7818609E-02  0.8561271E-01
        1   -1    0    0  501    0  0.00000000000E+00  0.00000000000E+00  0.14775600864E+04  0.14775600864E+04  0.50400001928E-02 0. -1.
       -1   -1    0    0    0  501  0.00000000000E+00  0.00000000000E+00 -0.74611865601E+03  0.74611865603E+03  0.50400001928E-02 0.  1.
    10030    2    1    2    0    0  0.00000000000E+00  0.00000000000E+00  0.73144143036E+03  0.22236787424E+04  0.20999382332E+04 0.  0.
        1    1    3    3  502    0 -0.10318595187E+04  0.56542045332E+02  0.16902236027E+03  0.10471387814E+04  0.50400001928E-02 0. -1.
       -1    1    3    3    0  502  0.10318595187E+04 -0.56542045332E+02  0.56241907009E+03  0.11765399610E+04  0.50400001928E-02 0.  1.
</event>
<event>
 5   0  0.3705828E-06  0.2100071E+04  0.7818609E-02  0.8561212E-01
       -2   -1    0    0    0  501  0.00000000000E+00  0.00000000000E+00  0.12679388401E+04  0.12679388401E+04  0.25500000920E-02 0.  1.
        2   -1    0    0  501    0  0.00000000000E+00  0.00000000000E+00 -0.86958037561E+03  0.86958037561E+03  0.25500000920E-02 0. -1.
    10030    2    1    2    0    0  0.00000000000E+00  0.00000000000E+00  0.39835846453E+03  0.21375192158E+04  0.21000711729E+04 0.  0.
        5    1    3    3  502    0  0.14849944952E+03 -0.52816501248E+03  0.11104327771E+04  0.12385852451E+04  0.46999998093E+01 0.  1.
       -5    1    3    3    0  502 -0.14849944952E+03  0.52816501248E+03 -0.71207431259E+03  0.89893397064E+03  0.46999998093E+01 0. -1.
</event>
<event>
 5   0  0.1590067E-06  0.2099357E+04  0.7818609E-02  0.8561527E-01
       -1   -1    0    0    0  501  0.00000000000E+00  0.00000000000E+00  0.11851366200E+04  0.11851366200E+04  0.50400001928E-02 0.  1.
        1   -1    0    0  501    0  0.00000000000E+00  0.00000000000E+00 -0.92970302912E+03  0.92970302913E+03  0.50400001928E-02 0. -1.
    10030    2    1    2    0    0  0.00000000000E+00  0.00000000000E+00  0.25543359087E+03  0.21148396491E+04  0.20993571450E+04 0.  0.
        5    1    3    3  502    0  0.86337207284E+03  0.46914395223E+03  0.49962185310E+03  0.11023390904E+04  0.46999998093E+01 0.  1.
       -5    1    3    3    0  502 -0.86337207284E+03 -0.46914395223E+03 -0.24418826224E+03  0.10125005588E+04  0.46999998093E+01 0. -1.
</event>
<event>
 5   0  0.3574927E-06  0.2099607E+04  0.7818609E-02  0.8561417E-01
       -2   -1    0    0    0  501  0.00000000000E+00  0.00000000000E+00  0.50936049634E+03  0.50936049634E+03  0.25500000920E-02 0.  1.
        2   -1    0    0  501    0  0.00000000000E+00  0.00000000000E+00 -0.21636677431E+04  0.21636677431E+04  0.25500000920E-02 0. -1.
    10030    2    1    2    0    0  0.00000000000E+00  0.00000000000E+00 -0.16543072468E+04  0.26730282395E+04  0.20996065113E+04 0.  0.
        3    1    3    3  502    0  0.96726469151E+03  0.27951724046E+02 -0.13453959688E+04  0.16572485044E+04  0.10100000352E+00 0. -1.
       -3    1    3    3    0  502 -0.96726469151E+03 -0.27951724046E+02 -0.30891127802E+03  0.10157797351E+04  0.10100000352E+00 0.  1.
</event>
<event>
 5   0  0.3480134E-06  0.2100693E+04  0.7818609E-02  0.8560938E-01
       -2   -1    0    0    0  501  0.00000000000E+00  0.00000000000E+00  0.88314537002E+03  0.88314537002E+03  0.25500000920E-02 0.  1.
        2   -1    0    0  501    0  0.00000000000E+00  0.00000000000E+00 -0.12492025648E+04  0.12492025648E+04  0.25500000920E-02 0. -1.
    10030    2    1    2    0    0  0.00000000000E+00  0.00000000000E+00 -0.36605719474E+03  0.21323479348E+04  0.21006927060E+04 0.  0.
        1    1    3    3  502    0  0.23603563385E+03 -0.45590231468E+03 -0.11131706319E+04  0.12258501527E+04  0.50400001928E-02 0. -1.
       -1    1    3    3    0  502 -0.23603563385E+03  0.45590231468E+03  0.74711343718E+03  0.90649778213E+03  0.50400001928E-02 0.  1.
</event>
<event>
 5   0  0.1579820E-06  0.2102278E+04  0.7818609E-02  0.8560241E-01
        1   -1    0    0  501    0  0.00000000000E+00  0.00000000000E+00  0.10924018041E+04  0.10924018041E+04  0.50400001928E-02 0. -1.
       -1   -1    0    0    0  501  0.00000000000E+00  0.00000000000E+00 -0.10114344969E+04  0.10114344969E+04  0.50400001928E-02 0.  1.
    10030    2    1    2    0    0  0.00000000000E+00  0.00000000000E+00  0.80967307176E+02  0.21038363010E+04  0.21022776878E+04 0.  0.
        2    1    3    3  502    0  0.50679558416E+03 -0.46309946635E+03  0.83705745146E+03  0.10825747350E+04  0.25500000920E-02 0. -1.
       -2    1    3    3    0  502 -0.50679558416E+03  0.46309946635E+03 -0.75609014429E+03  0.10212615660E+04  0.25500000920E-02 0.  1.
</event>
<event>
 5   0  0.1579820E-06  0.2102137E+04  0.7818609E-02  0.8560303E-01
       -1   -1    0    0    0  501  0.00000000000E+00  0.00000000000E+00  0.12216739360E+04  0.12216739360E+04  0.50400001928E-02 0.  1.
        1   -1    0    0  501    0  0.00000000000E+00  0.00000000000E+00 -0.90428810059E+03  0.90428810061E+03  0.50400001928E-02 0. -1.
    10030    2    1    2    0    0  0.00000000000E+00  0.00000000000E+00  0.31738583540E+03  0.21259620366E+04  0.21021372012E+04 0.  0.
        2    1    3    3  502    0  0.10248683603E+02  0.10492735035E+04  0.97465185427E+02  0.10538403024E+04  0.25500000920E-02 0.  1.
       -2    1    3    3    0  502 -0.10248683603E+02 -0.10492735035E+04  0.21992064997E+03  0.10721217342E+04  0.25500000920E-02 0. -1.
</event>
<event>
 5   0  0.3574927E-06  0.2104190E+04  0.7818609E-02  0.8559400E-01
       -2   -1    0    0    0  501  0.00000000000E+00  0.00000000000E+00  0.18053725065E+04  0.18053725066E+04  0.25500000920E-02 0.  1.
        2   -1    0    0  501    0  0.00000000000E+00  0.00000000000E+00 -0.61311647028E+03  0.61311647029E+03  0.25500000920E-02 0. -1.
    10030    2    1    2    0    0  0.00000000000E+00  0.00000000000E+00  0.11922560363E+04  0.24184889768E+04  0.21041897431E+04 0.  0.
        3    1    3    3  502    0  0.66337436352E+03 -0.73077411433E+03  0.10149892013E+04  0.14157328283E+04  0.10100000352E+00 0.  1.
       -3    1    3    3    0  502 -0.66337436352E+03  0.73077411433E+03  0.17726683500E+03  0.10027561485E+04  0.10100000352E+00 0. -1.
</event>
<event>
 5   0  0.3574927E-06  0.2099259E+04  0.7818609E-02  0.8561570E-01
       -2   -1    0    0    0  501  0.00000000000E+00  0.00000000000E+00  0.82441045776E+03  0.82441045777E+03  0.25500000920E-02 0. -1.
        2   -1    0    0  501    0  0.00000000000E+00  0.00000000000E+00 -0.13363754561E+04  0.13363754561E+04  0.25500000920E-02 0.  1.
    10030    2    1    2    0    0  0.00000000000E+00  0.00000000000E+00 -0.51196499829E+03  0.21607859138E+04  0.20992588230E+04 0.  0.
        3    1    3    3  502    0  0.40381845563E+03 -0.13497268051E+03  0.73152930735E+03  0.84641721823E+03  0.10100000352E+00 0. -1.
       -3    1    3    3    0  502 -0.40381845563E+03  0.13497268051E+03 -0.12434943056E+04  0.13143686956E+04  0.10100000352E+00 0.  1.
</event>
<event>
 5   0  0.1646510E-06  0.2107216E+04  0.7818609E-02  0.8558071E-01
       -1   -1    0    0    0  501  0.00000000000E+00  0.00000000000E+00  0.76409123032E+03  0.76409123034E+03  0.50400001928E-02 0. -1.
        1   -1    0    0  501    0  0.00000000000E+00  0.00000000000E+00 -0.14528241852E+04  0.14528241852E+04  0.50400001928E-02 0.  1.
    10030    2    1    2    0    0  0.00000000000E+00  0.00000000000E+00 -0.68873295487E+03  0.22169154155E+04  0.21072163810E+04 0.  0.
        4    1    3    3  502    0  0.25116978403E+03 -0.17280616843E+03 -0.14054032516E+04  0.14380918416E+04  0.12699999809E+01 0.  1.
       -4    1    3    3    0  502 -0.25116978403E+03  0.17280616843E+03  0.71667029673E+03  0.77882357397E+03  0.12699999809E+01 0. -1.
</event>
<event>
 5   0  0.1646510E-06  0.2097934E+04  0.7818609E-02  0.8562154E-01
       -1   -1    0    0    0  501  0.00000000000E+00  0.00000000000E+00  0.83126820356E+03  0.83126820357E+03  0.50400001928E-02 0. -1.
        1   -1    0    0  501    0  0.00000000000E+00  0.00000000000E+00 -0.13236781542E+04  0.13236781542E+04  0.50400001928E-02 0.  1.
    10030    2    1    2    0    0  0.00000000000E+00  0.00000000000E+00 -0.49240995063E+03  0.21549463578E+04  0.20979338039E+04 0.  0.
        4    1    3    3  502    0  0.45560025476E+02  0.10252204889E+04 -0.46931068224E+03  0.11284533203E+04  0.12699999809E+01 0.  1.
       -4    1    3    3    0  502 -0.45560025476E+02 -0.10252204889E+04 -0.23099268397E+02  0.10264930374E+04  0.12699999809E+01 0. -1.
</event>
<event>
 5   0  0.1615098E-06  0.2101634E+04  0.7818609E-02  0.8560524E-01
       -1   -1    0    0    0  501  0.00000000000E+00  0.00000000000E+00  0.64294556907E+03  0.64294556909E+03  0.50400001928E-02 0. -1.
        1   -1    0    0  501    0  0.00000000000E+00  0.00000000000E+00 -0.17174329207E+04  0.17174329207E+04  0.50400001928E-02 0.  1.
    10030    2    1    2    0    0  0.00000000000E+00  0.00000000000E+00 -0.10744873516E+04  0.23603784898E+04  0.21016335423E+04 0.  0.
        1    1    3    3  502    0  0.30876326043E+03 -0.10017690476E+04 -0.45517231044E+03  0.11428288620E+04  0.50400001928E-02 0.  1.
       -1    1    3    3    0  502 -0.30876326043E+03  0.10017690476E+04 -0.61931504117E+03  0.12175496277E+04  0.50400001928E-02 0. -1.
</event>
<event>
 5   0  0.1615098E-06  0.2099716E+04  0.7818609E-02  0.8561369E-01
        1   -1    0    0  501    0  0.00000000000E+00  0.00000000000E+00  0.15288266560E+04  0.15288266560E+04  0.50400001928E-02 0. -1.
       -1   -1    0    0    0  501  0.00000000000E+00  0.00000000000E+00 -0.72094611341E+03  0.72094611342E+03  0.50400001928E-02 0.  1.
    10030    2    1    2    0    0  0.00000000000E+00  0.00000000000E+00  0.80788054262E+03  0.22497727695E+04  0.20997158244E+04 0.  0.
        1    1    3    3  502    0 -0.68674376927E+03 -0.36894904526E+03 -0.34949206990E+03  0.85433313735E+03  0.50400001928E-02 0.  1.
       -1    1    3    3    0  502  0.68674376927E+03  0.36894904526E+03  0.11573726125E+04  0.13954396321E+04  0.50400001928E-02 0. -1.
</event>
<event>
 5   0  0.1579820E-06  0.2100214E+04  0.7818609E-02  0.8561149E-01
        1   -1    0    0  501    0  0.00000000000E+00  0.00000000000E+00  0.10830319582E+04  0.10830319582E+04  0.50400001928E-02 0.  1.
       -1   -1    0    0    0  501  0.00000000000E+00  0.00000000000E+00 -0.10181827802E+04  0.10181827802E+04  0.50400001928E-02 0. -1.
    10030    2    1    2    0    0  0.00000000000E+00  0.00000000000E+00  0.64849178071E+02  0.21012147384E+04  0.21002137893E+04 0.  0.
        2    1    3    3  502    0 -0.48554473695E+03  0.35314603404E+01 -0.89912514042E+03  0.10218572214E+04  0.25500000920E-02 0. -1.
       -2    1    3    3    0  502  0.48554473695E+03 -0.35314603404E+01  0.96397431849E+03  0.10793575170E+04  0.25500000920E-02 0.  1.
</event>
<event>
 5   0  0.1590067E-06  0.2100295E+04  0.7818609E-02  0.8561113E-01
        1   -1    0    0  501    0  0.00000000000E+00  0.00000000000E+00  0.80623034459E+03  0.80623034461E+03  0.50400001928E-02 0. -1.
       -1   -1    0    0    0  501  0.00000000000E+00  0.00000000000E+00 -0.13678599079E+04  0.13678599079E+04  0.50400001928E-02 0.  1.
    10030    2    1    2    0    0  0.00000000000E+00  0.00000000000E+00 -0.56162956332E+03  0.21740902525E+04  0.21002953744E+04 0.  0.
        5    1    3    3  502    0 -0.59646565217E+03 -0.77547506933E+03 -0.67587219527E+03  0.11890997316E+04  0.46999998093E+01 0.  1.
       -5    1    3    3    0  502  0.59646565217E+03  0.77547506933E+03  0.11424263195E+03  0.98499052093E+03  0.46999998093E+01 0. -1.
</event>
<event>
 5   0  0.1579820E-06  0.2099922E+04  0.7818609E-02  0.8561278E-01
       -1   -1    0    0    0  501  0.00000000000E+00  0.00000000000E+00  0.87041759768E+03  0.87041759769E+03  0.50400001928E-02 0. -1.
        1   -1    0    0  501    0  0.00000000000E+00  0.00000000000E+00 -0.12665395744E+04  0.12665395744E+04  0.50400001928E-02 0.  1.
    10030    2    1    2    0    0  0.00000000000E+00  0.00000000000E+00 -0.39612197672E+03  0.21369571721E+04  0.20999222212E+04 0.  0.
        2    1    3    3  502    0 -0.85297591292E+03 -0.60205541865E+02 -0.81808946656E+03  0.11834115897E+04  0.25500000920E-02 0.  1.
       -2    1    3    3    0  502  0.85297591292E+03  0.60205541865E+02  0.42196748984E+03  0.95354558243E+03  0.25500000920E-02 0. -1.
</event>
<event>
 5   0  0.3480134E-06  0.2100657E+04  0.7818609E-02  0.8560954E-01
       -2   -1    0    0    0  501  0.00000000000E+00  0.00000000000E+00  0.11809836316E+04  0.11809836316E+04  0.25500000920E-02 0.  1.
        2   -1    0    0  501    0  0.00000000000E+00  0.00000000000E+00 -0.93412779965E+03  0.93412779965E+03  0.25500000920E-02 0. -1.
    10030    2    1    2    0    0  0.00000000000E+00  0.00000000000E+00  0.24685583191E+03  0.21151114312E+04  0.21006566984E+04 0.  0.
        1    1    3    3  502    0 -0.52405493209E+03 -0.60619532360E+03 -0.56027568148E+03  0.97776028836E+03  0.50400001928E-02 0. -1.
       -1    1    3    3    0  502  0.52405493209E+03  0.60619532360E+03  0.80713151339E+03  0.11373511428E+04  0.50400001928E-02 0.  1.
</event>
<event>
 5   0  0.3480134E-06  0.2100048E+04  0.7818609E-02  0.8561222E-01
        2   -1    0    0  501    0  0.00000000000E+00  0.00000000000E+00  0.13937854429E+04  0.13937854429E+04  0.25500000920E-02 0. -1.
       -2   -1    0    0    0  501  0.00000000000E+00  0.00000000000E+00 -0.79104718743E+03  0.79104718744E+03  0.25500000920E-02 0.  1.
    10030    2    1    2    0    0  0.00000000000E+00  0.00000000000E+00  0.60273825552E+03  0.21848326304E+04  0.21000476704E+04 0.  0.
        1    1    3    3  502    0  0.31238978031E+03 -0.43531704683E+03  0.12408562190E+04  0.13515962645E+04  0.50400001928E-02 0. -1.
       -1    1    3    3    0  502 -0.31238978031E+03  0.43531704683E+03 -0.63811796344E+03  0.83323636587E+03  0.50400001928E-02 0.  1.
</event>
<event>
 5   0  0.3547583E-06  0.2099595E+04  0.7818609E-02  0.8561422E-01
       -2   -1    0    0    0  501  0.00000000000E+00  0.00000000000E+00  0.14440744581E+04  0.14440744581E+04  0.25500000920E-02 0. -1.
        2   -1    0    0  501    0  0.00000000000E+00  0.00000000000E+00 -0.76317056816E+03  0.76317056817E+03  0.25500000920E-02 0.  1.
    10030    2    1    2    0    0  0.00000000000E+00  0.00000000000E+00  0.68090388998E+03  0.22072450263E+04  0.20995953179E+04 0.  0.
        2    1    3    3  502    0  0.50424322415E+03  0.14668711895E+03 -0.61516310906E+03  0.80882877714E+03  0.25500000920E-02 0.  1.
       -2    1    3    3    0  502 -0.50424322415E+03 -0.14668711895E+03  0.12960669990E+04  0.13984162492E+04  0.25500000920E-02 0. -1.
</event>
<event>
 5   0  0.1646510E-06  0.2100060E+04  0.7818609E-02  0.8561217E-01
       -1   -1    0    0    0  501  0.00000000000E+00  0.00000000000E+00  0.11852987340E+04  0.11852987340E+04  0.50400001928E-02 0. -1.
        1   -1    0    0  501    0  0.00000000000E+00  0.00000000000E+00 -0.93019831449E+03  0.93019831450E+03  0.50400001928E-02 0.  1.
    10030    2    1    2    0    0  0.00000000000E+00  0.00000000000E+00  0.25510041947E+03  0.21154970485E+04  0.21000598892E+04 0.  0.
        4    1    3    3  502    0  0.60647549316E+02 -0.10140575078E+04 -0.14005366289E+03  0.10254791055E+04  0.12699999809E+01 0.  1.
       -4    1    3    3    0  502 -0.60647549316E+02  0.10140575078E+04  0.39515408237E+03  0.10900179430E+04  0.12699999809E+01 0. -1.
</event>
<event>
 5   0  0.1646510E-06  0.2099766E+04  0.7818609E-02  0.8561346E-01
        1   -1    0    0  501    0  0.00000000000E+00  0.00000000000E+00  0.14039628282E+04  0.14039628282E+04  0.50400001928E-02 0. -1.
       -1   -1    0    0    0  501  0.00000000000E+00  0.00000000000E+00 -0.78510216711E+03  0.78510216713E+03  0.50400001928E-02 0.  1.
    10030    2    1    2    0    0  0.00000000000E+00  0.00000000000E+00  0.61886066111E+03  0.21890649954E+04  0.20997659479E+04 0.  0.
        4    1    3    3  502    0  0.38224072212E+03 -0.83276321514E+03  0.84371972849E+03  0.12455790361E+04  0.12699999809E+01 0. -1.
       -4    1    3    3    0  502 -0.38224072212E+03  0.83276321514E+03 -0.22485906738E+03  0.94348595921E+03  0.12699999809E+01 0.  1.
</event>
<event>
 5   0  0.1615098E-06  0.2100575E+04  0.7818609E-02  0.8560990E-01
       -1   -1    0    0    0  501  0.00000000000E+00  0.00000000000E+00  0.12514140176E+04  0.12514140176E+04  0.50400001928E-02 0.  1.
        1   -1    0    0  501    0  0.00000000000E+00  0.00000000000E+00 -0.88148571951E+03  0.88148571953E+03  0.50400001928E-02 0. -1.
    10030    2    1    2    0    0  0.00000000000E+00  0.00000000000E+00  0.36992829810E+03  0.21328997372E+04  0.21005747649E+04 0.  0.
        1    1    3    3  502    0 -0.13292923309E+03 -0.58121520879E+03 -0.69299319548E+03  0.91417770097E+03  0.50400001928E-02 0. -1.
       -1    1    3    3    0  502  0.13292923309E+03  0.58121520879E+03  0.10629214936E+04  0.12187220362E+04  0.50400001928E-02 0.  1.
</event>
<event>
 5   0  0.1579820E-06  0.2100207E+04  0.7818609E-02  0.8561152E-01
        1   -1    0    0  501    0  0.00000000000E+00  0.00000000000E+00  0.14338538833E+04  0.14338538833E+04  0.50400001928E-02 0.  1.
       -1   -1    0    0    0  501  0.00000000000E+00  0.00000000000E+00 -0.76905857043E+03  0.76905857044E+03  0.50400001928E-02 0. -1.
    10030    2    1    2    0    0  0.00000000000E+00  0.00000000000E+00  0.66479531284E+03  0.22029124537E+04  0.21002072447E+04 0.  0.
        2    1    3    3  502    0  0.54380411504E+03  0.10289977118E+03 -0.60365965537E+03  0.81897268450E+03  0.25500000920E-02 0. -1.
       -2    1    3    3    0  502 -0.54380411504E+03 -0.10289977118E+03  0.12684549682E+04  0.13839397692E+04  0.25500000920E-02 0.  1.
</event>
<event>
 5   0  0.1579820E-06  0.2099458E+04  0.7818609E-02  0.8561482E-01
       -1   -1    0    0    0  501  0.00000000000E+00  0.00000000000E+00  0.64581317083E+03  0.64581317085E+03  0.50400001928E-02 0.  1.
        1   -1    0    0  501    0  0.00000000000E+00  0.00000000000E+00 -0.17062689892E+04  0.17062689892E+04  0.50400001928E-02 0. -1.
    10030    2    1    2    0    0  0.00000000000E+00  0.00000000000E+00 -0.10604558183E+04  0.23520821600E+04  0.20994580122E+04 0.  0.
        2    1    3    3  502    0 -0.41900360829E+02 -0.67259046082E+02  0.64245751325E+03  0.64732609699E+03  0.25500000920E-02 0.  1.
       -2    1    3    3    0  502  0.41900360829E+02  0.67259046082E+02 -0.17029133316E+04  0.17047560630E+04  0.25500000920E-02 0. -1.
</event>
<event>
 5   0  0.3574927E-06  0.2098027E+04  0.7818609E-02  0.8562113E-01
       -2   -1    0    0    0  501  0.00000000000E+00  0.00000000000E+00  0.57818236367E+03  0.57818236367E+03  0.25500000920E-02 0. -1.
        2   -1    0    0  501    0  0.00000000000E+00  0.00000000000E+00 -0.19032565904E+04  0.19032565904E+04  0.25500000920E-02 0.  1.
    10030    2    1    2    0    0  0.00000000000E+00  0.00000000000E+00 -0.13250742267E+04  0.24814389541E+04  0.20980270676E+04 0.  0.
        3    1    3    3  502    0 -0.45001668023E+03  0.37577781627E+03 -0.16913962686E+04  0.17901243887E+04  0.10100000352E+00 0.  1.
       -3    1    3    3    0  502  0.45001668023E+03 -0.37577781627E+03  0.36632204184E+03  0.69131456532E+03  0.10100000352E+00 0. -1.
</event>
<event>
 5   0  0.3480134E-06  0.2098848E+04  0.7818609E-02  0.8561751E-01
        2   -1    0    0  501    0  0.00000000000E+00  0.00000000000E+00  0.13340789565E+04  0.13340789565E+04  0.25500000920E-02 0.  1.
       -2   -1    0    0    0  501  0.00000000000E+00  0.00000000000E+00 -0.82550629309E+03  0.82550629310E+03  0.25500000920E-02 0. -1.
    10030    2    1    2    0    0  0.00000000000E+00  0.00000000000E+00  0.50857266339E+03  0.21595852496E+04  0.20988478497E+04 0.  0.
        1    1    3    3  502    0  0.85591838333E+02 -0.50243759865E+03  0.11981774360E+04  0.13020747565E+04  0.50400001928E-02 0.  1.
       -1    1    3    3    0  502 -0.85591838333E+02  0.50243759865E+03 -0.68960477261E+03  0.85751049309E+03  0.50400001928E-02 0. -1.
</event>
<event>
 5   0  0.3574927E-06  0.2099512E+04  0.7818609E-02  0.8561458E-01
        2   -1    0    0  501    0  0.00000000000E+00  0.00000000000E+00  0.25593314743E+04  0.25593314743E+04  0.25500000920E-02 0.  1.
       -2   -1    0    0    0  501  0.00000000000E+00  0.00000000000E+00 -0.43057655598E+03  0.43057655598E+03  0.25500000920E-02 0. -1.
    10030    2    1    2    0    0  0.00000000000E+00  0.00000000000E+00  0.21287549183E+04  0.29899080303E+04  0.20995124499E+04 0.  0.
        3    1    3    3  502    0  0.64000115782E+03  0.42533101497E+03  0.45894482117E+02  0.76981443738E+03  0.10100000352E+00 0. -1.
       -3    1    3    3    0  502 -0.64000115782E+03 -0.42533101497E+03  0.20828604362E+04  0.22200935929E+04  0.10100000352E+00 0.  1.
</event>
<event>
 5   0  0.1615098E-06  0.2100585E+04  0.7818609E-02  0.8560986E-01
       -1   -1    0    0    0  501  0.00000000000E+00  0.00000000000E+00  0.15486406683E+04  0.15486406684E+04  0.50400001928E-02 0. -1.
        1   -1    0    0  501    0  0.00000000000E+00  0.00000000000E+00 -0.71231143998E+03  0.71231144000E+03  0.50400001928E-02 0.  1.
    10030    2    1    2    0    0  0.00000000000E+00  0.00000000000E+00  0.83632922837E+03  0.22609521084E+04  0.21005851228E+04 0.  0.
        1    1    3    3  502    0  0.46950556545E+03 -0.32763628540E+03  0.13659179883E+04  0.14810513030E+04  0.50400001928E-02 0. -1.
       -1    1    3    3    0  502 -0.46950556545E+03  0.32763628540E+03 -0.52958875991E+03  0.77990080532E+03  0.50400001928E-02 0.  1.
</event>
<event>
 5   0  0.3547583E-06  0.2099695E+04  0.7818609E-02  0.8561378E-01
       -2   -1    0    0    0  501  0.00000000000E+00  0.00000000000E+00  0.91995937176E+03  0.91995937176E+03  0.25500000920E-02 0.  1.
        2   -1    0    0  501    0  0.00000000000E+00  0.00000000000E+00 -0.11980746282E+04  0.11980746282E+04  0.25500000920E-02 0. -1.
    10030    2    1    2    0    0  0.00000000000E+00  0.00000000000E+00 -0.27811525644E+03  0.21180340000E+04  0.20996951991E+04 0.  0.
        2    1    3    3  502    0  0.49581390831E+03 -0.34308423287E+03  0.72789147314E+03  0.94517946401E+03  0.25500000920E-02 0.  1.
       -2    1    3    3    0  502 -0.49581390831E+03  0.34308423287E+03 -0.10060067296E+04  0.11728545359E+04  0.25500000920E-02 0. -1.
</event>
<event>
 5   0  0.3547583E-06  0.2100264E+04  0.7818609E-02  0.8561127E-01
       -2   -1    0    0    0  501  0.00000000000E+00  0.00000000000E+00  0.40766426234E+03  0.40766426235E+03  0.25500000920E-02 0.  1.
        2   -1    0    0  501    0  0.00000000000E+00  0.00000000000E+00 -0.27051119090E+04  0.27051119090E+04  0.25500000920E-02 0. -1.
    10030    2    1    2    0    0  0.00000000000E+00  0.00000000000E+00 -0.22974476467E+04  0.31127761714E+04  0.21002642224E+04 0.  0.
        2    1    3    3  502    0 -0.30384474676E+03  0.10845002922E+03 -0.26298439000E+04  0.26495588269E+04  0.25500000920E-02 0. -1.
       -2    1    3    3    0  502  0.30384474676E+03 -0.10845002922E+03  0.33239625332E+03  0.46321734445E+03  0.25500000920E-02 0.  1.
</event>
<event>
 5   0  0.1615098E-06  0.2099621E+04  0.7818609E-02  0.8561410E-01
        1   -1    0    0  501    0  0.00000000000E+00  0.00000000000E+00  0.18899858277E+04  0.18899858277E+04  0.50400001928E-02 0. -1.
       -1   -1    0    0    0  501  0.00000000000E+00  0.00000000000E+00 -0.58312726550E+03  0.58312726552E+03  0.50400001928E-02 0.  1.
    10030    2    1    2    0    0  0.00000000000E+00  0.00000000000E+00  0.13068585622E+04  0.24731130933E+04  0.20996211731E+04 0.  0.
        1    1    3    3  502    0 -0.19336287711E+03 -0.10313325613E+04  0.61496788099E+03  0.12162325225E+04  0.50400001928E-02 0.  1.
       -1    1    3    3    0  502  0.19336287711E+03  0.10313325613E+04  0.69189068124E+03  0.12568805707E+04  0.50400001928E-02 0. -1.
</event>
<event>
 5   0  0.1646510E-06  0.2099842E+04  0.7818609E-02  0.8561313E-01
       -1   -1    0    0    0  501  0.00000000000E+00  0.00000000000E+00  0.56021205276E+03  0.56021205278E+03  0.50400001928E-02 0. -1.
        1   -1    0    0  501    0  0.00000000000E+00  0.00000000000E+00 -0.19677093712E+04  0.19677093712E+04  0.50400001928E-02 0.  1.
    10030    2    1    2    0    0  0.00000000000E+00  0.00000000000E+00 -0.14074973185E+04  0.25279214240E+04  0.20998423809E+04 0.  0.
        4    1    3    3  502    0  0.60217723619E+03 -0.23953345959E+03  0.29068778483E+03  0.71027790561E+03  0.12699999809E+01 0. -1.
       -4    1    3    3    0  502 -0.60217723619E+03  0.23953345959E+03 -0.16981851033E+04  0.18176435184E+04  0.12699999809E+01 0.  1.
</event>
<event>
 5   0  0.1590067E-06  0.2100130E+04  0.7818609E-02  0.8561186E-01
       -1   -1    0    0    0  501  0.00000000000E+00  0.00000000000E+00  0.67921024249E+03  0.67921024251E+03  0.50400001928E-02 0.  1.
        1   -1    0    0  501    0  0.00000000000E+00  0.00000000000E+00 -0.16234102224E+04  0.16234102224E+04  0.50400001928E-02 0. -1.
    10030    2    1    2    0    0  0.00000000000E+00  0.00000000000E+00 -0.94419997994E+03  0.23026204649E+04  0.21001303301E+04 0.  0.
        5    1    3    3  502    0  0.10186714657E+04 -0.14696843024E+03 -0.24388833929E+03  0.10577310086E+04  0.46999998093E+01 0. -1.
       -5    1    3    3    0  502 -0.10186714657E+04  0.14696843024E+03 -0.70031164064E+03  0.12448894563E+04  0.46999998093E+01 0.  1.
</event>
<event>
 5   0  0.3636435E-06  0.2100507E+04  0.7818609E-02  0.8561020E-01
        2   -1    0    0  501    0  0.00000000000E+00  0.00000000000E+00  0.12442066002E+04  0.12442066002E+04  0.25500000920E-02 0. -1.
       -2   -1    0    0    0  501  0.00000000000E+00  0.00000000000E+00 -0.88653453191E+03  0.88653453191E+03  0.25500000920E-02 0.  1.
    10030    2    1    2    0    0  0.00000000000E+00  0.00000000000E+00  0.35767206828E+03  0.21307411321E+04  0.21005067159E+04 0.  0.
        4    1    3    3  502    0  0.32242681478E+03 -0.90591574782E+03 -0.24960352846E+03  0.99345152240E+03  0.12699999809E+01 0.  1.
       -4    1    3    3    0  502 -0.32242681478E+03  0.90591574782E+03  0.60727559674E+03  0.11372896097E+04  0.12699999809E+01 0. -1.
</event>
<event>
 5   0  0.1590067E-06  0.2102047E+04  0.7818609E-02  0.8560342E-01
       -1   -1    0    0    0  501  0.00000000000E+00  0.00000000000E+00  0.11933909759E+04  0.11933909759E+04  0.50400001928E-02 0.  1.
        1   -1    0    0  501    0  0.00000000000E+00  0.00000000000E+00 -0.92563999138E+03  0.92563999140E+03  0.50400001928E-02 0. -1.
    10030    2    1    2    0    0  0.00000000000E+00  0.00000000000E+00  0.26775098454E+03  0.21190309673E+04  0.21020470144E+04 0.  0.
        5    1    3    3  502    0 -0.79552111382E+03  0.93068409656E+02  0.81989781523E+03  0.11461981019E+04  0.46999998093E+01 0.  1.
       -5    1    3    3    0  502  0.79552111382E+03 -0.93068409656E+02 -0.55214683068E+03  0.97283286542E+03  0.46999998093E+01 0. -1.
</event>
<event>
 5   0  0.3480134E-06  0.2099660E+04  0.7818609E-02  0.8561393E-01
        2   -1    0    0  501    0  0.00000000000E+00  0.00000000000E+00  0.83960502313E+03  0.83960502313E+03  0.25500000920E-02 0. -1.
       -2   -1    0    0    0  501  0.00000000000E+00  0.00000000000E+00 -0.13126927467E+04  0.13126927467E+04  0.25500000920E-02 0.  1.
    10030    2    1    2    0    0  0.00000000000E+00  0.00000000000E+00 -0.47308772355E+03  0.21522977698E+04  0.20996603763E+04 0.  0.
        1    1    3    3  502    0  0.79430955578E+03 -0.19382163379E+03 -0.91157287825E+03  0.12245242376E+04  0.50400001928E-02 0.  1.
       -1    1    3    3    0  502 -0.79430955578E+03  0.19382163379E+03  0.43848515470E+03  0.92777353220E+03  0.50400001928E-02 0. -1.
</event>
<event>
 5   0  0.1590067E-06  0.2098724E+04  0.7818609E-02  0.8561806E-01
       -1   -1    0    0    0  501  0.00000000000E+00  0.00000000000E+00  0.48370752526E+03  0.48370752528E+03  0.50400001928E-02 0.  1.
        1   -1    0    0  501    0  0.00000000000E+00  0.00000000000E+00 -0.22765004422E+04  0.22765004422E+04  0.50400001928E-02 0. -1.
    10030    2    1    2    0    0  0.00000000000E+00  0.00000000000E+00 -0.17927929169E+04  0.27602079675E+04  0.20987237981E+04 0.  0.
        5    1    3    3  502    0 -0.35857880165E+03 -0.40332290480E+02 -0.21923251840E+04  0.22218274580E+04  0.46999998093E+01 0. -1.
       -5    1    3    3    0  502  0.35857880165E+03  0.40332290480E+02  0.39953226703E+03  0.53838050953E+03  0.46999998093E+01 0.  1.
</event>
<event>
 5   0  0.1653260E-06  0.2100255E+04  0.7818609E-02  0.8561131E-01
       -1   -1    0    0    0  501  0.00000000000E+00  0.00000000000E+00  0.86337204409E+03  0.86337204410E+03  0.50400001928E-02 0. -1.
        1   -1    0    0  501    0  0.00000000000E+00  0.00000000000E+00 -0.12772796470E+04  0.12772796470E+04  0.50400001928E-02 0.  1.
    10030    2    1    2    0    0  0.00000000000E+00  0.00000000000E+00 -0.41390760289E+03  0.21406516911E+04  0.21002547843E+04 0.  0.
        3    1    3    3  502    0 -0.72864530654E+03 -0.15410485519E+03  0.54762055318E+03  0.92442445317E+03  0.10100000352E+00 0. -1.
       -3    1    3    3    0  502  0.72864530654E+03  0.15410485519E+03 -0.96152815608E+03  0.12162272379E+04  0.10100000352E+00 0.  1.
</event>
<event>
 5   0  0.1653260E-06  0.2100808E+04  0.7818609E-02  0.8560887E-01
        1   -1    0    0  501    0  0.00000000000E+00  0.00000000000E+00  0.18073300970E+04  0.18073300970E+04  0.50400001928E-02 0. -1.
       -1   -1    0    0    0  501  0.00000000000E+00  0.00000000000E+00 -0.61048542880E+03  0.61048542882E+03  0.50400001928E-02 0.  1.
    10030    2    1    2    0    0  0.00000000000E+00  0.00000000000E+00  0.11968446682E+04  0.24178155258E+04  0.21008081200E+04 0.  0.
        3    1    3    3  502    0  0.47061096749E+03 -0.81734087605E+03  0.66229590647E+02  0.94546663572E+03  0.10100000352E+00 0.  1.
       -3    1    3    3    0  502 -0.47061096749E+03  0.81734087605E+03  0.11306150775E+04  0.14723488901E+04  0.10100000352E+00 0. -1.
</event>
<event>
 5   0  0.1590067E-06  0.2099675E+04  0.7818609E-02  0.8561387E-01
        1   -1    0    0  501    0  0.00000000000E+00  0.00000000000E+00  0.18474767855E+04  0.18474767855E+04  0.50400001928E-02 0. -1.
       -1   -1    0    0    0  501  0.00000000000E+00  0.00000000000E+00 -0.59657492097E+03  0.59657492099E+03  0.50400001928E-02 0.  1.
    10030    2    1    2    0    0  0.00000000000E+00  0.00000000000E+00  0.12509018645E+04  0.24440517065E+04  0.20996745627E+04 0.  0.
        5    1    3    3  502    0 -0.61481404439E+03  0.45345629150E+03  0.14636362176E+04  0.16510214974E+04  0.46999998093E+01 0.  1.
       -5    1    3    3    0  502  0.61481404439E+03 -0.45345629150E+03 -0.21273435310E+03  0.79303020905E+03  0.46999998093E+01 0. -1.
</event>
<event>
 5   0  0.3636435E-06  0.2099222E+04  0.7818609E-02  0.8561586E-01
       -2   -1    0    0    0  501  0.00000000000E+00  0.00000000000E+00  0.52242991906E+03  0.52242991907E+03  0.25500000920E-02 0.  1.
        2   -1    0    0  501    0  0.00000000000E+00  0.00000000000E+00 -0.21087669500E+04  0.21087669500E+04  0.25500000920E-02 0. -1.
    10030    2    1    2    0    0  0.00000000000E+00  0.00000000000E+00 -0.15863370309E+04  0.26311968690E+04  0.20992217101E+04 0.  0.
        4    1    3    3  502    0 -0.42145133299E+02 -0.43426022139E+03  0.40338256551E+03  0.59420304543E+03  0.12699999809E+01 0.  1.
       -4    1    3    3    0  502  0.42145133299E+02  0.43426022139E+03 -0.19897195964E+04  0.20369938236E+04  0.12699999809E+01 0. -1.
</event>
<event>
 5   0  0.3574927E-06  0.2099206E+04  0.7818609E-02  0.8561593E-01
       -2   -1    0    0    0  501  0.00000000000E+00  0.00000000000E+00  0.10848773304E+04  0.10848773304E+04  0.25500000920E-02 0.  1.
        2   -1    0    0  501    0  0.00000000000E+00  0.00000000000E+00 -0.10154752090E+04  0.10154752090E+04  0.25500000920E-02 0. -1.
    10030    2    1    2    0    0  0.00000000000E+00  0.00000000000E+00  0.69402121388E+02  0.21003525394E+04  0.20992055962E+04 0.  0.
        3    1    3    3  502    0 -0.74800884056E+03 -0.19180600420E+03  0.74597571372E+03  0.10736789764E+04  0.10100000352E+00 0.  1.
       -3    1    3    3    0  502  0.74800884056E+03  0.19180600420E+03 -0.67657359234E+03  0.10266735629E+04  0.10100000352E+00 0. -1.
</event>
<event>
 5   0  0.3547583E-06  0.2100429E+04  0.7818609E-02  0.8561055E-01
       -2   -1    0    0    0  501  0.00000000000E+00  0.00000000000E+00  0.88399077322E+03  0.88399077322E+03  0.25500000920E-02 0.  1.
        2   -1    0    0  501    0  0.00000000000E+00  0.00000000000E+00 -0.12476940663E+04  0.12476940663E+04  0.25500000920E-02 0. -1.
    10030    2    1    2    0    0  0.00000000000E+00  0.00000000000E+00 -0.36370329307E+03  0.21316848395E+04  0.21004285681E+04 0.  0.
        2    1    3    3  502    0 -0.76980304709E+03 -0.71314098239E+03 -0.22470859407E+03  0.10731545762E+04  0.25500000920E-02 0. -1.
       -2    1    3    3    0  502  0.76980304709E+03  0.71314098239E+03 -0.13899469900E+03  0.10585302634E+04  0.25500000920E-02 0.  1.
</event>
<event>
 5   0  0.3480134E-06  0.2100022E+04  0.7818609E-02  0.8561234E-01
        2   -1    0    0  501    0  0.00000000000E+00  0.00000000000E+00  0.36488889003E+03  0.36488889004E+03  0.25500000920E-02 0.  1.
       -2   -1    0    0    0  501  0.00000000000E+00  0.00000000000E+00 -0.30215295872E+04  0.30215295872E+04  0.25500000920E-02 0. -1.
    10030    2    1    2    0    0  0.00000000000E+00  0.00000000000E+00 -0.26566406972E+04  0.33864184773E+04  0.21000215021E+04 0.  0.
        1    1    3    3  502    0  0.60143716385E+03 -0.81625971845E+03 -0.17685118094E+04  0.20385388419E+04  0.50400001928E-02 0. -1.
       -1    1    3    3    0  502 -0.60143716385E+03  0.81625971845E+03 -0.88812888782E+03  0.13478796354E+04  0.50400001928E-02 0.  1.
</event>
<event>
 5   0  0.3705828E-06  0.2100959E+04  0.7818609E-02  0.8560821E-01
       -2   -1    0    0    0  501  0.00000000000E+00  0.00000000000E+00  0.51783888780E+03  0.51783888780E+03  0.25500000920E-02 0. -1.
        2   -1    0    0  501    0  0.00000000000E+00  0.00000000000E+00 -0.21309850757E+04  0.21309850757E+04  0.25500000920E-02 0.  1.
    10030    2    1    2    0    0  0.00000000000E+00  0.00000000000E+00 -0.16131461879E+04  0.26488239635E+04  0.21009587730E+04 0.  0.
        5    1    3    3  502    0 -0.62512750312E+03  0.37808481779E+03  0.14507990420E+03  0.74485085299E+03  0.46999998093E+01 0. -1.
       -5    1    3    3    0  502  0.62512750312E+03 -0.37808481779E+03 -0.17582260921E+04  0.19039731105E+04  0.46999998093E+01 0.  1.
</event>
<event>
 5   0  0.3574927E-06  0.2100136E+04  0.7818609E-02  0.8561183E-01
        2   -1    0    0  501    0  0.00000000000E+00  0.00000000000E+00  0.16287964164E+04  0.16287964164E+04  0.25500000920E-02 0. -1.
       -2   -1    0    0    0  501  0.00000000000E+00  0.00000000000E+00 -0.67696787941E+03  0.67696787941E+03  0.25500000920E-02 0.  1.
    10030    2    1    2    0    0  0.00000000000E+00  0.00000000000E+00  0.95182853696E+03  0.23057642958E+04  0.21001360489E+04 0.  0.
        3    1    3    3  502    0 -0.56495516286E+03  0.25442615762E+03  0.14067051737E+04  0.15371162811E+04  0.10100000352E+00 0. -1.
       -3    1    3    3    0  502  0.56495516286E+03 -0.25442615762E+03 -0.45487663669E+03  0.76864801472E+03  0.10100000352E+00 0.  1.
</event>
<event>
 5   0  0.1615098E-06  0.2100369E+04  0.7818609E-02  0.8561081E-01
       -1   -1    0    0    0  501  0.00000000000E+00  0.00000000000E+00  0.11581716312E+04  0.11581716312E+04  0.50400001928E-02 0. -1.
        1   -1    0    0  501    0  0.00000000000E+00  0.00000000000E+00 -0.95226602630E+03  0.95226602632E+03  0.50400001928E-02 0.  1.
    10030    2    1    2    0    0  0.00000000000E+00  0.00000000000E+00  0.20590560492E+03  0.21104376575E+04  0.21003690124E+04 0.  0.
        1    1    3    3  502    0  0.92913211689E+03 -0.47067561287E+03 -0.32099379133E+02  0.10420424144E+04  0.50400001928E-02 0.  1.
       -1    1    3    3    0  502 -0.92913211689E+03  0.47067561287E+03  0.23800498405E+03  0.10683952432E+04  0.50400001928E-02 0. -1.
</event>
<event>
 5   0  0.1653260E-06  0.2100058E+04  0.7818609E-02  0.8561218E-01
       -1   -1    0    0    0  501  0.00000000000E+00  0.00000000000E+00  0.72508305976E+03  0.72508305978E+03  0.50400001928E-02 0. -1.
        1   -1    0    0  501    0  0.00000000000E+00  0.00000000000E+00 -0.15205991802E+04  0.15205991802E+04  0.50400001928E-02 0.  1.
    10030    2    1    2    0    0  0.00000000000E+00  0.00000000000E+00 -0.79551612048E+03  0.22456822400E+04  0.21000578147E+04 0.  0.
        3    1    3    3  502    0 -0.42425128451E+03  0.55582860900E+03 -0.12354203518E+04  0.14195767154E+04  0.10100000352E+00 0.  1.
       -3    1    3    3    0  502  0.42425128451E+03 -0.55582860900E+03  0.43990423130E+03  0.82610552468E+03  0.10100000352E+00 0. -1.
</event>
<event>
 5   0  0.1590067E-06  0.2100119E+04  0.7818609E-02  0.8561191E-01
       -1   -1    0    0    0  501  0.00000000000E+00  0.00000000000E+00  0.93330719905E+03  0.93330719906E+03  0.50400001928E-02 0.  1.
        1   -1    0    0  501    0  0.00000000000E+00  0.00000000000E+00 -0.11814165974E+04  0.11814165975E+04  0.50400001928E-02 0. -1.
    10030    2    1    2    0    0  0.00000000000E+00  0.00000000000E+00 -0.24810939839E+03  0.21147237965E+04  0.21001186781E+04 0.  0.
        5    1    3    3  502    0 -0.15495674252E+03 -0.99526561925E+03  0.17471952293E+03  0.10223082933E+04  0.46999998093E+01 0. -1.
       -5    1    3    3    0  502  0.15495674252E+03  0.99526561925E+03 -0.42282892132E+03  0.10924155032E+04  0.46999998093E+01 0.  1.
</event>
<event>
 5   0  0.1653260E-06  0.2099740E+04  0.7818609E-02  0.8561358E-01
        1   -1    0    0  501    0  0.00000000000E+00  0.00000000000E+00  0.10098924791E+04  0.10098924791E+04  0.50400001928E-02 0.  1.
       -1   -1    0    0    0  501  0.00000000000E+00  0.00000000000E+00 -0.10914305053E+04  0.10914305053E+04  0.50400001928E-02 0. -1.
    10030    2    1    2    0    0  0.00000000000E+00  0.00000000000E+00 -0.81538026242E+02  0.21013229844E+04  0.20997404209E+04 0.  0.
        3    1    3    3  502    0 -0.45450382652E+03  0.58892670449E+03  0.70061257078E+03  0.10218935248E+04  0.10100000352E+00 0.  1.
       -3    1    3    3    0  502  0.45450382652E+03 -0.58892670449E+03 -0.78215059702E+03  0.10794294596E+04  0.10100000352E+00 0. -1.
</event>
<event>
 5   0  0.3547583E-06  0.2107654E+04  0.7818609E-02  0.8557879E-01
       -2   -1    0    0    0  501  0.00000000000E+00  0.00000000000E+00  0.52756368589E+03  0.52756368589E+03  0.25500000920E-02 0. -1.
        2   -1    0    0  501    0  0.00000000000E+00  0.00000000000E+00 -0.21050558539E+04  0.21050558540E+04  0.25500000920E-02 0.  1.
    10030    2    1    2    0    0  0.00000000000E+00  0.00000000000E+00 -0.15774921681E+04  0.26326195398E+04  0.21076536958E+04 0.  0.
        2    1    3    3  502    0 -0.79899608279E+03  0.58378950361E+03 -0.33605969388E+03  0.10450555214E+04  0.25500000920E-02 0. -1.
       -2    1    3    3    0  502  0.79899608279E+03 -0.58378950361E+03 -0.12414324742E+04  0.15875640185E+04  0.25500000920E-02 0.  1.
</event>
<event>
 5   0  0.3574927E-06  0.2100525E+04  0.7818609E-02  0.8561012E-01
        2   -1    0    0  501    0  0.00000000000E+00  0.00000000000E+00  0.52226014990E+03  0.52226014990E+03  0.25500000920E-02 0. -1.
       -2   -1    0    0    0  501  0.00000000000E+00  0.00000000000E+00 -0.21120719959E+04  0.21120719959E+04  0.25500000920E-02 0.  1.
    10030    2    1    2    0    0  0.00000000000E+00  0.00000000000E+00 -0.15898118460E+04  0.26343321458E+04  0.21005247317E+04 0.  0.
        3    1    3    3  502    0 -0.71869885139E+03  0.67525062452E+03 -0.34175057714E+03  0.10436881297E+04  0.10100000352E+00 0. -1.
       -3    1    3    3    0  502  0.71869885139E+03 -0.67525062452E+03 -0.12480612688E+04  0.15906440161E+04  0.10100000352E+00 0.  1.
</event>
<event>
 5   0  0.1653260E-06  0.2099941E+04  0.7818609E-02  0.8561269E-01
        1   -1    0    0  501    0  0.00000000000E+00  0.00000000000E+00  0.97384469831E+03  0.97384469832E+03  0.50400001928E-02 0. -1.
       -1   -1    0    0    0  501  0.00000000000E+00  0.00000000000E+00 -0.11320475695E+04  0.11320475695E+04  0.50400001928E-02 0.  1.
    10030    2    1    2    0    0  0.00000000000E+00  0.00000000000E+00 -0.15820287122E+03  0.21058922679E+04  0.20999414505E+04 0.  0.
        3    1    3    3  502    0 -0.67951285994E+03  0.77217060934E+03  0.13233564188E+03  0.10370621529E+04  0.10100000352E+00 0.  1.
       -3    1    3    3    0  502  0.67951285994E+03 -0.77217060934E+03 -0.29053851310E+03  0.10688301149E+04  0.10100000352E+00 0. -1.
</event>
<event>
 5   0  0.1579820E-06  0.2099867E+04  0.7818609E-02  0.8561302E-01
        1   -1    0    0  501    0  0.00000000000E+00  0.00000000000E+00  0.77365697472E+03  0.77365697474E+03  0.50400001928E-02 0. -1.
       -1   -1    0    0    0  501  0.00000000000E+00  0.00000000000E+00 -0.14248696305E+04  0.14248696306E+04  0.50400001928E-02 0.  1.
    10030    2    1    2    0    0  0.00000000000E+00  0.00000000000E+00 -0.65121265582E+03  0.21985266053E+04  0.20998669746E+04 0.  0.
        2    1    3    3  502    0 -0.40453217254E+03  0.24880612312E+03  0.65476946891E+03  0.80887194472E+03  0.25500000920E-02 0. -1.
       -2    1    3    3    0  502  0.40453217254E+03 -0.24880612312E+03 -0.13059821247E+04  0.13896546606E+04  0.25500000920E-02 0.  1.
</event>
<event>
 5   0  0.3547583E-06  0.2100448E+04  0.7818609E-02  0.8561046E-01
        2   -1    0    0  501    0  0.00000000000E+00  0.00000000000E+00  0.16744941944E+04  0.16744941944E+04  0.25500000920E-02 0.  1.
       -2   -1    0    0    0  501  0.00000000000E+00  0.00000000000E+00 -0.65868872583E+03  0.65868872584E+03  0.25500000920E-02 0. -1.
    10030    2    1    2    0    0  0.00000000000E+00  0.00000000000E+00  0.10158054685E+04  0.23331829202E+04  0.21004479973E+04 0.  0.
        2    1    3    3  502    0 -0.67553858479E+03 -0.13460312569E+03 -0.37271924092E+03  0.78319219451E+03  0.25500000920E-02 0. -1.
       -2    1    3    3    0  502  0.67553858479E+03  0.13460312569E+03  0.13885247094E+04  0.15499907257E+04  0.25500000920E-02 0.  1.
</event>
<event>
 5   0  0.1646510E-06  0.2099403E+04  0.7818609E-02  0.8561507E-01
       -1   -1    0    0    0  501  0.00000000000E+00  0.00000000000E+00  0.27110221020E+04  0.27110221020E+04  0.50400001928E-02 0. -1.
        1   -1    0    0  501    0  0.00000000000E+00  0.00000000000E+00 -0.40644182728E+03  0.40644182731E+03  0.50400001928E-02 0.  1.
    10030    2    1    2    0    0  0.00000000000E+00  0.00000000000E+00  0.23045802747E+04  0.31174639293E+04  0.20994025598E+04 0.  0.
        4    1    3    3  502    0 -0.16538382129E+03 -0.10340163069E+04  0.12606963977E+04  0.16388711210E+04  0.12699999809E+01 0. -1.
       -4    1    3    3    0  502  0.16538382129E+03  0.10340163069E+04  0.10438838770E+04  0.14785928083E+04  0.12699999809E+01 0.  1.
</event>
<event>
 5   0  0.3480134E-06  0.2099957E+04  0.7818609E-02  0.8561263E-01
        2   -1    0    0  501    0  0.00000000000E+00  0.00000000000E+00  0.21231185339E+04  0.21231185339E+04  0.25500000920E-02 0.  1.
       -2   -1    0    0    0  501  0.00000000000E+00  0.00000000000E+00 -0.51926182704E+03  0.51926182704E+03  0.25500000920E-02 0. -1.
    10030    2    1    2    0    0  0.00000000000E+00  0.00000000000E+00  0.16038567069E+04  0.26423803610E+04  0.20999565795E+04 0.  0.
        1    1    3    3  502    0 -0.93480379611E+02  0.10452161202E+04  0.75763522386E+03  0.12943053936E+04  0.50400001928E-02 0.  1.
       -1    1    3    3    0  502  0.93480379611E+02 -0.10452161202E+04  0.84622148303E+03  0.13480749674E+04  0.50400001928E-02 0. -1.
</event>
<event>
 5   0  0.1646510E-06  0.2100507E+04  0.7818609E-02  0.8561020E-01
       -1   -1    0    0    0  501  0.00000000000E+00  0.00000000000E+00  0.92381981250E+03  0.92381981252E+03  0.50400001928E-02 0. -1.
        1   -1    0    0  501    0  0.00000000000E+00  0.00000000000E+00 -0.11939909734E+04  0.11939909734E+04  0.50400001928E-02 0.  1.
    10030    2    1    2    0    0  0.00000000000E+00  0.00000000000E+00 -0.27017116087E+03  0.21178107859E+04  0.21005070980E+04 0.  0.
        4    1    3    3  502    0  0.38534491059E+03 -0.78179055186E+03 -0.72586800574E+03  0.11342720757E+04  0.12699999809E+01 0.  1.
       -4    1    3    3    0  502 -0.38534491059E+03  0.78179055186E+03  0.45569684488E+03  0.98353871018E+03  0.12699999809E+01 0. -1.
</event>
<event>
 5   0  0.1653260E-06  0.2098972E+04  0.7818609E-02  0.8561696E-01
        1   -1    0    0  501    0  0.00000000000E+00  0.00000000000E+00  0.17427924685E+04  0.17427924685E+04  0.50400001928E-02 0.  1.
       -1   -1    0    0    0  501  0.00000000000E+00  0.00000000000E+00 -0.63198633995E+03  0.63198633997E+03  0.50400001928E-02 0. -1.
    10030    2    1    2    0    0  0.00000000000E+00  0.00000000000E+00  0.11108061286E+04  0.23747788085E+04  0.20989721613E+04 0.  0.
        3    1    3    3  502    0  0.72459102179E+02 -0.10069686330E+04  0.23105416168E+03  0.10356747488E+04  0.10100000352E+00 0. -1.
       -3    1    3    3    0  502 -0.72459102179E+02  0.10069686330E+04  0.87975196691E+03  0.13391040598E+04  0.10100000352E+00 0.  1.
</event>
<event>
 5   0  0.1579820E-06  0.2100488E+04  0.7818609E-02  0.8561028E-01
       -1   -1    0    0    0  501  0.00000000000E+00  0.00000000000E+00  0.57342521284E+03  0.57342521286E+03  0.50400001928E-02 0. -1.
        1   -1    0    0  501    0  0.00000000000E+00  0.00000000000E+00 -0.19235511403E+04  0.19235511403E+04  0.50400001928E-02 0.  1.
    10030    2    1    2    0    0  0.00000000000E+00  0.00000000000E+00 -0.13501259274E+04  0.24969763531E+04  0.21004882500E+04 0.  0.
        2    1    3    3  502    0  0.12747552437E+03 -0.10319594907E+04 -0.85067110922E+03  0.13434402613E+04  0.25500000920E-02 0.  1.
       -2    1    3    3    0  502 -0.12747552437E+03  0.10319594907E+04 -0.49945481820E+03  0.11535360918E+04  0.25500000920E-02 0. -1.
</event>
<event>
 5   0  0.3480134E-06  0.2099979E+04  0.7818609E-02  0.8561253E-01
       -2   -1    0    0    0  501  0.00000000000E+00  0.00000000000E+00  0.78935185161E+03  0.78935185161E+03  0.25500000920E-02 0.  1.
        2   -1    0    0  501    0  0.00000000000E+00  0.00000000000E+00 -0.13966873171E+04  0.13966873171E+04  0.25500000920E-02 0. -1.
    10030    2    1    2    0    0  0.00000000000E+00  0.00000000000E+00 -0.60733546548E+03  0.21860391687E+04  0.20999787807E+04 0.  0.
        1    1    3    3  502    0 -0.12776139638E+03 -0.37572807133E+03 -0.13156084430E+04  0.13741616110E+04  0.50400001928E-02 0. -1.
       -1    1    3    3    0  502  0.12776139638E+03  0.37572807133E+03  0.70827297749E+03  0.81187755767E+03  0.50400001928E-02 0.  1.
</event>
<event>
 5   0  0.3705828E-06  0.2102720E+04  0.7818609E-02  0.8560046E-01
       -2   -1    0    0    0  501  0.00000000000E+00  0.00000000000E+00  0.15169808757E+04  0.15169808757E+04  0.25500000920E-02 0.  1.
        2   -1    0    0  501    0  0.00000000000E+00  0.00000000000E+00 -0.72865640067E+03  0.72865640068E+03  0.25500000920E-02 0. -1.
    10030    2    1    2    0    0  0.00000000000E+00  0.00000000000E+00  0.78832447507E+03  0.22456372764E+04  0.21027199764E+04 0.  0.
        5    1    3    3  502    0  0.38398020281E+03 -0.52300065320E+03  0.12776532674E+04  0.14329656106E+04  0.46999998093E+01 0.  1.
       -5    1    3    3    0  502 -0.38398020281E+03  0.52300065320E+03 -0.48932879235E+03  0.81267166582E+03  0.46999998093E+01 0. -1.
</event>
<event>
 5   0  0.1590067E-06  0.2100154E+04  0.7818609E-02  0.8561175E-01
        1   -1    0    0  501    0  0.00000000000E+00  0.00000000000E+00  0.12532467352E+04  0.12532467352E+04  0.50400001928E-02 0.  1.
       -1   -1    0    0    0  501  0.00000000000E+00  0.00000000000E+00 -0.87984416723E+03  0.87984416724E+03  0.50400001928E-02 0. -1.
    10030    2    1    2    0    0  0.00000000000E+00  0.00000000000E+00  0.37340256797E+03  0.21330909025E+04  0.21001541182E+04 0.  0.
        5    1    3    3  502    0  0.53743515436E+02 -0.48479964756E+03  0.11311885761E+04  0.12318801680E+04  0.46999998093E+01 0.  1.
       -5    1    3    3    0  502 -0.53743515436E+02  0.48479964756E+03 -0.75778600812E+03  0.90121073442E+03  0.46999998093E+01 0. -1.
</event>
<event>
 5   0  0.3636435E-06  0.2098978E+04  0.7818609E-02  0.8561694E-01
        2   -1    0    0  501    0  0.00000000000E+00  0.00000000000E+00  0.12904653154E+04  0.12904653154E+04  0.25500000920E-02 0.  1.
       -2   -1    0    0    0  501  0.00000000000E+00  0.00000000000E+00 -0.85351132609E+03  0.85351132609E+03  0.25500000920E-02 0. -1.
    10030    2    1    2    0    0  0.00000000000E+00  0.00000000000E+00  0.43695398931E+03  0.21439766415E+04  0.20989776203E+04 0.  0.
        4    1    3    3  502    0  0.58839448621E+03  0.73007928857E+03  0.69996508532E+03  0.11701181874E+04  0.12699999809E+01 0.  1.
       -4    1    3    3    0  502 -0.58839448621E+03 -0.73007928857E+03 -0.26301109601E+03  0.97385845405E+03  0.12699999809E+01 0. -1.
</event>
<event>
 5   0  0.1615098E-06  0.2100135E+04  0.7818609E-02  0.8561184E-01
       -1   -1    0    0    0  501  0.00000000000E+00  0.00000000000E+00  0.60644270764E+03  0.60644270766E+03  0.50400001928E-02 0.  1.
        1   -1    0    0  501    0  0.00000000000E+00  0.00000000000E+00 -0.18182133208E+04  0.18182133208E+04  0.50400001928E-02 0. -1.
    10030    2    1    2    0    0  0.00000000000E+00  0.00000000000E+00 -0.12117706132E+04  0.24246560285E+04  0.21001354331E+04 0.  0.
        1    1    3    3  502    0  0.74095868343E+03 -0.27745556134E+03  0.19118836587E+03  0.81397441627E+03  0.50400001928E-02 0.  1.
       -1    1    3    3    0  502 -0.74095868343E+03  0.27745556134E+03 -0.14029589791E+04  0.16106816122E+04  0.50400001928E-02 0. -1.
</event>
<event>
 5   0  0.1590067E-06  0.2100800E+04  0.7818609E-02  0.8560891E-01
        1   -1    0    0  501    0  0.00000000000E+00  0.00000000000E+00  0.10607439265E+04  0.10607439266E+04  0.50400001928E-02 0. -1.
       -1   -1    0    0    0  501  0.00000000000E+00  0.00000000000E+00 -0.10401574245E+04  0.10401574246E+04  0.50400001928E-02 0.  1.
    10030    2    1    2    0    0  0.00000000000E+00  0.00000000000E+00  0.20586502000E+02  0.21009013511E+04  0.21008004863E+04 0.  0.
        5    1    3    3  502    0  0.29560553032E+03 -0.81496816100E+03  0.60341771237E+03  0.10562626371E+04  0.46999998093E+01 0. -1.
       -5    1    3    3    0  502 -0.29560553032E+03  0.81496816100E+03 -0.58283121037E+03  0.10446387140E+04  0.46999998093E+01 0.  1.
</event>
<event>
 5   0  0.1579820E-06  0.2101211E+04  0.7818609E-02  0.8560710E-01
        1   -1    0    0  501    0  0.00000000000E+00  0.00000000000E+00  0.11135581712E+04  0.11135581713E+04  0.50400001928E-02 0.  1.
       -1   -1    0    0    0  501  0.00000000000E+00  0.00000000000E+00 -0.99121193064E+03  0.99121193065E+03  0.50400001928E-02 0. -1.
    10030    2    1    2    0    0  0.00000000000E+00  0.00000000000E+00  0.12234624061E+03  0.21047701019E+04  0.21012112172E+04 0.  0.
        2    1    3    3  502    0 -0.21935290671E+03 -0.66509921714E+03  0.84563393225E+03  0.10979842502E+04  0.25500000920E-02 0.  1.
       -2    1    3    3    0  502  0.21935290671E+03  0.66509921714E+03 -0.72328769164E+03  0.10067858517E+04  0.25500000920E-02 0. -1.
</event>
<event>
 5   0  0.1579820E-06  0.2106338E+04  0.7818609E-02  0.8558456E-01
        1   -1    0    0  501    0  0.00000000000E+00  0.00000000000E+00  0.32175671868E+04  0.32175671868E+04  0.50400001928E-02 0. -1.
       -1   -1    0    0    0  501  0.00000000000E+00  0.00000000000E+00 -0.34472171274E+03  0.34472171278E+03  0.50400001928E-02 0.  1.
    10030    2    1    2    0    0  0.00000000000E+00  0.00000000000E+00  0.28728454741E+04  0.35622888996E+04  0.21063383124E+04 0.  0.
        2    1    3    3  502    0 -0.74275893289E+03 -0.70286862717E+03  0.18624302672E+04  0.21247027179E+04  0.25500000920E-02 0. -1.
       -2    1    3    3    0  502  0.74275893289E+03  0.70286862717E+03  0.10104152069E+04  0.14375861817E+04  0.25500000920E-02 0.  1.
</event>
<event>
 5   0  0.1590067E-06  0.2103902E+04  0.7818609E-02  0.8559527E-01
       -1   -1    0    0    0  501  0.00000000000E+00  0.00000000000E+00  0.10411461862E+04  0.10411461862E+04  0.50400001928E-02 0. -1.
        1   -1    0    0  501    0  0.00000000000E+00  0.00000000000E+00 -0.10628675744E+04  0.10628675744E+04  0.50400001928E-02 0.  1.
    10030    2    1    2    0    0  0.00000000000E+00  0.00000000000E+00 -0.21721388163E+02  0.21040137607E+04  0.21039016342E+04 0.  0.
        5    1    3    3  502    0  0.48533834199E+02  0.10488442541E+04 -0.75273979181E+02  0.10526718693E+04  0.46999998093E+01 0.  1.
       -5    1    3    3    0  502 -0.48533834199E+02 -0.10488442541E+04  0.53552591018E+02  0.10513418913E+04  0.46999998093E+01 0. -1.
</event>
<event>
 5   0  0.1590067E-06  0.2099640E+04  0.7818609E-02  0.8561402E-01
        1   -1    0    0  501    0  0.00000000000E+00  0.00000000000E+00  0.12456797706E+04  0.12456797706E+04  0.50400001928E-02 0.  1.
       -1   -1    0    0    0  501  0.00000000000E+00  0.00000000000E+00 -0.88475554816E+03  0.88475554818E+03  0.50400001928E-02 0. -1.
    10030    2    1    2    0    0  0.00000000000E+00  0.00000000000E+00  0.36092422246E+03  0.21304353188E+04  0.20996400533E+04 0.  0.
        5    1    3    3  502    0 -0.95497311129E+03  0.42569033301E+03  0.84662853669E+02  0.10489879845E+04  0.46999998093E+01 0.  1.
       -5    1    3    3    0  502  0.95497311129E+03 -0.42569033301E+03  0.27626136879E+03  0.10814473343E+04  0.46999998093E+01 0. -1.
</event>
<event>
 5   0  0.1579820E-06  0.2100477E+04  0.7818609E-02  0.8561033E-01
       -1   -1    0    0    0  501  0.00000000000E+00  0.00000000000E+00  0.79577902462E+03  0.79577902464E+03  0.50400001928E-02 0.  1.
        1   -1    0    0  501    0  0.00000000000E+00  0.00000000000E+00 -0.13860639141E+04  0.13860639141E+04  0.50400001928E-02 0. -1.
    10030    2    1    2    0    0  0.00000000000E+00  0.00000000000E+00 -0.59028488952E+03  0.21818429388E+04  0.21004766980E+04 0.  0.
        2    1    3    3  502    0  0.62577545029E+03 -0.39591271566E+03  0.47846131038E+03  0.88162748264E+03  0.25500000920E-02 0.  1.
       -2    1    3    3    0  502 -0.62577545029E+03  0.39591271566E+03 -0.10687461999E+04  0.13002154561E+04  0.25500000920E-02 0. -1.
</event>
<event>
 5   0  0.1579820E-06  0.2100879E+04  0.7818609E-02  0.8560856E-01
       -1   -1    0    0    0  501  0.00000000000E+00  0.00000000000E+00  0.11640732360E+04  0.11640732361E+04  0.50400001928E-02 0. -1.
        1   -1    0    0  501    0  0.00000000000E+00  0.00000000000E+00 -0.94789815826E+03  0.94789815828E+03  0.50400001928E-02 0.  1.
    10030    2    1    2    0    0  0.00000000000E+00  0.00000000000E+00  0.21617507778E+03  0.21119713943E+04  0.21008787462E+04 0.  0.
        2    1    3    3  502    0  0.10488068145E+04  0.32373824573E+02  0.15712086783E+03  0.10610046021E+04  0.25500000920E-02 0. -1.
       -2    1    3    3    0  502 -0.10488068145E+04 -0.32373824573E+02  0.59054209950E+02  0.10509667922E+04  0.25500000920E-02 0.  1.
</event>
<event>
 5   0  0.1579820E-06  0.2097665E+04  0.7818609E-02  0.8562273E-01
       -1   -1    0    0    0  501  0.00000000000E+00  0.00000000000E+00  0.51776737690E+03  0.51776737693E+03  0.50400001928E-02 0.  1.
        1   -1    0    0  501    0  0.00000000000E+00  0.00000000000E+00 -0.21246026653E+04  0.21246026653E+04  0.50400001928E-02 0. -1.
    10030    2    1    2    0    0  0.00000000000E+00  0.00000000000E+00 -0.16068352884E+04  0.26423700422E+04  0.20976653203E+04 0.  0.
        2    1    3    3  502    0 -0.36994701885E+03 -0.46463670311E+03  0.28552618424E+03  0.65899413087E+03  0.25500000920E-02 0.  1.
       -2    1    3    3    0  502  0.36994701885E+03  0.46463670311E+03 -0.18923614726E+04  0.19833759114E+04  0.25500000920E-02 0. -1.
</event>
<event>
 5   0  0.3480134E-06  0.2101111E+04  0.7818609E-02  0.8560754E-01
        2   -1    0    0  501    0  0.00000000000E+00  0.00000000000E+00  0.19221556590E+04  0.19221556590E+04  0.25500000920E-02 0.  1.
       -2   -1    0    0    0  501  0.00000000000E+00  0.00000000000E+00 -0.57418159563E+03  0.57418159564E+03  0.25500000920E-02 0. -1.
    10030    2    1    2    0    0  0.00000000000E+00  0.00000000000E+00  0.13479740634E+04  0.24963372547E+04  0.21011105667E+04 0.  0.
        1    1    3    3  502    0 -0.79745247439E+02 -0.36039939155E+03  0.18425758925E+04  0.18791841170E+04  0.50400001928E-02 0.  1.
       -1    1    3    3    0  502  0.79745247439E+02  0.36039939155E+03 -0.49460182912E+03  0.61715313765E+03  0.50400001928E-02 0. -1.
</event>
<event>
 5   0  0.1590067E-06  0.2101257E+04  0.7818609E-02  0.8560690E-01
       -1   -1    0    0    0  501  0.00000000000E+00  0.00000000000E+00  0.94715000278E+03  0.94715000280E+03  0.50400001928E-02 0. -1.
        1   -1    0    0  501    0  0.00000000000E+00  0.00000000000E+00 -0.11654123801E+04  0.11654123801E+04  0.50400001928E-02 0.  1.
    10030    2    1    2    0    0  0.00000000000E+00  0.00000000000E+00 -0.21826237733E+03  0.21125623829E+04  0.21012570896E+04 0.  0.
        5    1    3    3  502    0 -0.13548527679E+03  0.83781270054E+03 -0.73174643944E+03  0.11206075687E+04  0.46999998093E+01 0.  1.
       -5    1    3    3    0  502  0.13548527679E+03 -0.83781270054E+03  0.51348406211E+03  0.99195481422E+03  0.46999998093E+01 0. -1.
</event>
<event>
 5   0  0.1579820E-06  0.2099573E+04  0.7818609E-02  0.8561431E-01
        1   -1    0    0  501    0  0.00000000000E+00  0.00000000000E+00  0.12750050141E+04  0.12750050141E+04  0.50400001928E-02 0. -1.
       -1   -1    0    0    0  501  0.00000000000E+00  0.00000000000E+00 -0.86435089674E+03  0.86435089675E+03  0.50400001928E-02 0.  1.
    10030    2    1    2    0    0  0.00000000000E+00  0.00000000000E+00  0.41065411739E+03  0.21393559109E+04  0.20995730302E+04 0.  0.
        2    1    3    3  502    0 -0.63600811087E+03 -0.41065239992E+03  0.94636927828E+03  0.12119226549E+04  0.25500000920E-02 0. -1.
       -2    1    3    3    0  502  0.63600811087E+03  0.41065239992E+03 -0.53571516089E+03  0.92743325596E+03  0.25500000920E-02 0.  1.
</event>
<event>
 5   0  0.1615098E-06  0.2100356E+04  0.7818609E-02  0.8561087E-01
       -1   -1    0    0    0  501  0.00000000000E+00  0.00000000000E+00  0.74751890386E+03  0.74751890388E+03  0.50400001928E-02 0.  1.
        1   -1    0    0  501    0  0.00000000000E+00  0.00000000000E+00 -0.14753788965E+04  0.14753788965E+04  0.50400001928E-02 0. -1.
    10030    2    1    2    0    0  0.00000000000E+00  0.00000000000E+00 -0.72785999260E+03  0.22228978003E+04  0.21003557941E+04 0.  0.
        1    1    3    3  502    0  0.17855332697E+03 -0.99383274863E+03 -0.66936577593E+03  0.12114600137E+04  0.50400001928E-02 0.  1.
       -1    1    3    3    0  502 -0.17855332697E+03  0.99383274863E+03 -0.58494216668E+02  0.10114377866E+04  0.50400001928E-02 0. -1.
</event>
<event>
 5   0  0.3705828E-06  0.2097767E+04  0.7818609E-02  0.8562228E-01
       -2   -1    0    0    0  501  0.00000000000E+00  0.00000000000E+00  0.64196086112E+03  0.64196086113E+03  0.25500000920E-02 0.  1.
        2   -1    0    0  501    0  0.00000000000E+00  0.00000000000E+00 -0.17137434720E+04  0.17137434720E+04  0.25500000920E-02 0. -1.
    10030    2    1    2    0    0  0.00000000000E+00  0.00000000000E+00 -0.10717826109E+04  0.23557043331E+04  0.20977666553E+04 0.  0.
        5    1    3    3  502    0 -0.23011960714E+02  0.29648092274E+03  0.59361916949E+03  0.66395504085E+03  0.46999998093E+01 0.  1.
       -5    1    3    3    0  502  0.23011960714E+02 -0.29648092274E+03 -0.16654017804E+04  0.16917492923E+04  0.46999998093E+01 0. -1.
</event>
<event>
 5   0  0.3705828E-06  0.2100146E+04  0.7818609E-02  0.8561179E-01
       -2   -1    0    0    0  501  0.00000000000E+00  0.00000000000E+00  0.88656820260E+03  0.88656820260E+03  0.25500000920E-02 0. -1.
        2   -1    0    0  501    0  0.00000000000E+00  0.00000000000E+00 -0.12437325570E+04  0.12437325570E+04  0.25500000920E-02 0.  1.
    10030    2    1    2    0    0  0.00000000000E+00  0.00000000000E+00 -0.35716435440E+03  0.21303007596E+04  0.21001464116E+04 0.  0.
        5    1    3    3  502    0  0.47883613162E+03  0.64676668414E+03 -0.86283462212E+03  0.11798715438E+04  0.46999998093E+01 0.  1.
       -5    1    3    3    0  502 -0.47883613162E+03 -0.64676668414E+03  0.50567026772E+03  0.95042921583E+03  0.46999998093E+01 0. -1.
</event>
<event>
 5   0  0.3636435E-06  0.2101075E+04  0.7818609E-02  0.8560770E-01
       -2   -1    0    0    0  501  0.00000000000E+00  0.00000000000E+00  0.13010420822E+04  0.13010420822E+04  0.25500000920E-02 0. -1.
        2   -1    0    0  501    0  0.00000000000E+00  0.00000000000E+00 -0.84826559142E+03  0.84826559142E+03  0.25500000920E-02 0.  1.
    10030    2    1    2    0    0  0.00000000000E+00  0.00000000000E+00  0.45277649081E+03  0.21493076737E+04  0.21010751832E+04 0.  0.
        4    1    3    3  502    0 -0.38973449946E+03  0.66246457487E+02 -0.76927234924E+03  0.86490643044E+03  0.12699999809E+01 0.  1.
       -4    1    3    3    0  502  0.38973449946E+03 -0.66246457487E+02  0.12220488401E+04  0.12844012432E+04  0.12699999809E+01 0. -1.
</event>
<event>
 5   0  0.1590067E-06  0.2100135E+04  0.7818609E-02  0.8561184E-01
       -1   -1    0    0    0  501  0.00000000000E+00  0.00000000000E+00  0.53406073789E+03  0.53406073791E+03  0.50400001928E-02 0.  1.
        1   -1    0    0  501    0  0.00000000000E+00  0.00000000000E+00 -0.20646373690E+04  0.20646373690E+04  0.50400001928E-02 0. -1.
    10030    2    1    2    0    0  0.00000000000E+00  0.00000000000E+00 -0.15305766311E+04  0.25986981069E+04  0.21001350021E+04 0.  0.
        5    1    3    3  502    0 -0.27081207198E+03 -0.95782235345E+03 -0.35144126341E+03  0.10556021460E+04  0.46999998093E+01 0.  1.
       -5    1    3    3    0  502  0.27081207198E+03  0.95782235345E+03 -0.11791353677E+04  0.15430959609E+04  0.46999998093E+01 0. -1.
</event>
<event>
 5   0  0.3547583E-06  0.2100525E+04  0.7818609E-02  0.8561012E-01
        2   -1    0    0  501    0  0.00000000000E+00  0.00000000000E+00  0.90994038597E+03  0.90994038597E+03  0.25500000920E-02 0. -1.
       -2   -1    0    0    0  501  0.00000000000E+00  0.00000000000E+00 -0.12122237474E+04  0.12122237474E+04  0.25500000920E-02 0.  1.
    10030    2    1    2    0    0  0.00000000000E+00  0.00000000000E+00 -0.30228336142E+03  0.21221641334E+04  0.21005250245E+04 0.  0.
        2    1    3    3  502    0 -0.70211759160E+03  0.18847575742E+03  0.61466380341E+03  0.95199990273E+03  0.25500000920E-02 0. -1.
       -2    1    3    3    0  502  0.70211759160E+03 -0.18847575742E+03 -0.91694716483E+03  0.11701642306E+04  0.25500000920E-02 0.  1.
</event>
<event>
 5   0  0.1579820E-06  0.2100530E+04  0.7818609E-02  0.8561010E-01
       -1   -1    0    0    0  501  0.00000000000E+00  0.00000000000E+00  0.79953664672E+03  0.79953664674E+03  0.50400001928E-02 0.  1.
        1   -1    0    0  501    0  0.00000000000E+00  0.00000000000E+00 -0.13796200885E+04  0.13796200885E+04  0.50400001928E-02 0. -1.
    10030    2    1    2    0    0  0.00000000000E+00  0.00000000000E+00 -0.58008344181E+03  0.21791567353E+04  0.21005302372E+04 0.  0.
        2    1    3    3  502    0  0.10724851989E+03 -0.80015438754E+03 -0.98698240988E+03  0.12751013945E+04  0.25500000920E-02 0. -1.
       -2    1    3    3    0  502 -0.10724851989E+03  0.80015438754E+03  0.40689896807E+03  0.90405534075E+03  0.25500000920E-02 0.  1.
</event>
<event>
 5   0  0.3547583E-06  0.2098420E+04  0.7818609E-02  0.8561940E-01
       -2   -1    0    0    0  501  0.00000000000E+00  0.00000000000E+00  0.69013455990E+03  0.69013455991E+03  0.25500000920E-02 0.  1.
        2   -1    0    0  501    0  0.00000000000E+00  0.00000000000E+00 -0.15951108517E+04  0.15951108517E+04  0.25500000920E-02 0. -1.
    10030    2    1    2    0    0  0.00000000000E+00  0.00000000000E+00 -0.90497629175E+03  0.22852454116E+04  0.20984195249E+04 0.  0.
        2    1    3    3  502    0 -0.46181912979E+03  0.51956073098E+03  0.40336944380E+03  0.80369594376E+03  0.25500000920E-02 0.  1.
       -2    1    3    3    0  502  0.46181912979E+03 -0.51956073098E+03 -0.13083457355E+04  0.14815494678E+04  0.25500000920E-02 0. -1.
</event>
<event>
 5   0  0.1590067E-06  0.2098755E+04  0.7818609E-02  0.8561792E-01
       -1   -1    0    0    0  501  0.00000000000E+00  0.00000000000E+00  0.65281570175E+03  0.65281570177E+03  0.50400001928E-02 0. -1.
        1   -1    0    0  501    0  0.00000000000E+00  0.00000000000E+00 -0.16868366943E+04  0.16868366943E+04  0.50400001928E-02 0.  1.
    10030    2    1    2    0    0  0.00000000000E+00  0.00000000000E+00 -0.10340209925E+04  0.23396523961E+04  0.20987553267E+04 0.  0.
        5    1    3    3  502    0  0.33472881318E+03 -0.90024872971E+03 -0.45786078188E+02  0.96156622688E+03  0.46999998093E+01 0.  1.
       -5    1    3    3    0  502 -0.33472881318E+03  0.90024872971E+03 -0.98823491435E+03  0.13780861692E+04  0.46999998093E+01 0. -1.
</event>
<event>
 5   0  0.3636435E-06  0.2095864E+04  0.7818609E-02  0.8563067E-01
       -2   -1    0    0    0  501  0.00000000000E+00  0.00000000000E+00  0.11586749323E+04  0.11586749323E+04  0.25500000920E-02 0. -1.
        2   -1    0    0  501    0  0.00000000000E+00  0.00000000000E+00 -0.94777394551E+03  0.94777394551E+03  0.25500000920E-02 0.  1.
    10030    2    1    2    0    0  0.00000000000E+00  0.00000000000E+00  0.21090098681E+03  0.21064488778E+04  0.20958644156E+04 0.  0.
        4    1    3    3  502    0  0.96261052468E+03 -0.32221583840E+03 -0.15609096445E+03  0.10270384953E+04  0.12699999809E+01 0. -1.
       -4    1    3    3    0  502 -0.96261052468E+03  0.32221583840E+03  0.36699195126E+03  0.10794103825E+04  0.12699999809E+01 0.  1.
</event>
<event>
 5   0  0.1615098E-06  0.2098768E+04  0.7818609E-02  0.8561786E-01
        1   -1    0    0  501    0  0.00000000000E+00  0.00000000000E+00  0.12908098536E+04  0.12908098536E+04  0.50400001928E-02 0. -1.
       -1   -1    0    0    0  501  0.00000000000E+00  0.00000000000E+00 -0.85311338745E+03  0.85311338747E+03  0.50400001928E-02 0.  1.
    10030    2    1    2    0    0  0.00000000000E+00  0.00000000000E+00  0.43769646618E+03  0.21439232411E+04  0.20987683691E+04 0.  0.
        1    1    3    3  502    0  0.63322720674E+03  0.31588801059E+03  0.10104038295E+04  0.12335630626E+04  0.50400001928E-02 0. -1.
       -1    1    3    3    0  502 -0.63322720674E+03 -0.31588801059E+03 -0.57270736335E+03  0.91036017853E+03  0.50400001928E-02 0.  1.
</event>
<event>
 5   0  0.1590067E-06  0.2093607E+04  0.7818609E-02  0.8564065E-01
        1   -1    0    0  501    0  0.00000000000E+00  0.00000000000E+00  0.90031400500E+03  0.90031400502E+03  0.50400001928E-02 0.  1.
       -1   -1    0    0    0  501  0.00000000000E+00  0.00000000000E+00 -0.12171278015E+04  0.12171278015E+04  0.50400001928E-02 0. -1.
    10030    2    1    2    0    0  0.00000000000E+00  0.00000000000E+00 -0.31681379646E+03  0.21174418065E+04  0.20936066541E+04 0.  0.
        5    1    3    3  502    0 -0.24042654146E+02 -0.10223317831E+04  0.67824271366E+02  0.10248719656E+04  0.46999998093E+01 0. -1.
       -5    1    3    3    0  502  0.24042654146E+02  0.10223317831E+04 -0.38463806782E+03  0.10925698409E+04  0.46999998093E+01 0.  1.
</event>
<event>
 5   0  0.1615098E-06  0.2098553E+04  0.7818609E-02  0.8561881E-01
        1   -1    0    0  501    0  0.00000000000E+00  0.00000000000E+00  0.12096155280E+04  0.12096155280E+04  0.50400001928E-02 0. -1.
       -1   -1    0    0    0  501  0.00000000000E+00  0.00000000000E+00 -0.91019107393E+03  0.91019107394E+03  0.50400001928E-02 0.  1.
    10030    2    1    2    0    0  0.00000000000E+00  0.00000000000E+00  0.29942445407E+03  0.21198066020E+04  0.20985530791E+04 0.  0.
        1    1    3    3  502    0  0.85793078561E+03  0.49355823050E+03 -0.20214919200E+03  0.10102025815E+04  0.50400001928E-02 0.  1.
       -1    1    3    3    0  502 -0.85793078561E+03 -0.49355823050E+03  0.50157364607E+03  0.11096040205E+04  0.50400001928E-02 0. -1.
</event>
<event>
 5   0  0.3547583E-06  0.2097669E+04  0.7818609E-02  0.8562271E-01
        2   -1    0    0  501    0  0.00000000000E+00  0.00000000000E+00  0.58092767012E+03  0.58092767012E+03  0.25500000920E-02 0.  1.
       -2   -1    0    0    0  501  0.00000000000E+00  0.00000000000E+00 -0.18936156164E+04  0.18936156164E+04  0.25500000920E-02 0. -1.
    10030    2    1    2    0    0  0.00000000000E+00  0.00000000000E+00 -0.13126879463E+04  0.24745432865E+04  0.20976689044E+04 0.  0.
        2    1    3    3  502    0  0.38859184622E+03  0.39073258752E+03  0.39638791298E+03  0.67882174056E+03  0.25500000920E-02 0.  1.
       -2    1    3    3    0  502 -0.38859184622E+03 -0.39073258752E+03 -0.17090758593E+04  0.17957215460E+04  0.25500000920E-02 0. -1.
</event>
<event>
 5   0  0.3574927E-06  0.2100438E+04  0.7818609E-02  0.8561050E-01
        2   -1    0    0  501    0  0.00000000000E+00  0.00000000000E+00  0.19561034259E+04  0.19561034259E+04  0.25500000920E-02 0.  1.
       -2   -1    0    0    0  501  0.00000000000E+00  0.00000000000E+00 -0.56385583694E+03  0.56385583694E+03  0.25500000920E-02 0. -1.
    10030    2    1    2    0    0  0.00000000000E+00  0.00000000000E+00  0.13922475889E+04  0.25199592628E+04  0.21004383679E+04 0.  0.
        3    1    3    3  502    0  0.33206868861E+03 -0.78231103531E+03 -0.44101115141E+02  0.85101415292E+03  0.10100000352E+00 0. -1.
       -3    1    3    3    0  502 -0.33206868861E+03  0.78231103531E+03  0.14363487041E+04  0.16689451099E+04  0.10100000352E+00 0.  1.
</event>
<event>
 5   0  0.1590067E-06  0.2100316E+04  0.7818609E-02  0.8561104E-01
        1   -1    0    0  501    0  0.00000000000E+00  0.00000000000E+00  0.71603774852E+03  0.71603774854E+03  0.50400001928E-02 0.  1.
       -1   -1    0    0    0  501  0.00000000000E+00  0.00000000000E+00 -0.15401871753E+04  0.15401871753E+04  0.50400001928E-02 0. -1.
    10030    2    1    2    0    0  0.00000000000E+00  0.00000000000E+00 -0.82414942675E+03  0.22562249238E+04  0.21003163165E+04 0.  0.
        5    1    3    3  502    0 -0.46745358452E+03 -0.51989330291E+03 -0.12538278825E+04  0.14355864130E+04  0.46999998093E+01 0. -1.
       -5    1    3    3    0  502  0.46745358452E+03  0.51989330291E+03  0.42967845580E+03  0.82063851084E+03  0.46999998093E+01 0.  1.
</event>
<event>
 5   0  0.3705828E-06  0.2099794E+04  0.7818609E-02  0.8561334E-01
        2   -1    0    0  501    0  0.00000000000E+00  0.00000000000E+00  0.12545624950E+04  0.12545624950E+04  0.25500000920E-02 0.  1.
       -2   -1    0    0    0  501  0.00000000000E+00  0.00000000000E+00 -0.87861999101E+03  0.87861999101E+03  0.25500000920E-02 0. -1.
    10030    2    1    2    0    0  0.00000000000E+00  0.00000000000E+00  0.37594250401E+03  0.21331824860E+04  0.20997939786E+04 0.  0.
        5    1    3    3  502    0  0.94449918414E+03  0.35981666454E+03 -0.10064983945E+03  0.10157259577E+04  0.46999998093E+01 0. -1.
       -5    1    3    3    0  502 -0.94449918414E+03 -0.35981666454E+03  0.47659234346E+03  0.11174565284E+04  0.46999998093E+01 0.  1.
</event>
<event>
 5   0  0.3705828E-06  0.2099874E+04  0.7818609E-02  0.8561299E-01
       -2   -1    0    0    0  501  0.00000000000E+00  0.00000000000E+00  0.62868865091E+03  0.62868865092E+03  0.25500000920E-02 0. -1.
        2   -1    0    0  501    0  0.00000000000E+00  0.00000000000E+00 -0.17534394851E+04  0.17534394851E+04  0.25500000920E-02 0.  1.
    10030    2    1    2    0    0  0.00000000000E+00  0.00000000000E+00 -0.11247508342E+04  0.23821281360E+04  0.20998738099E+04 0.  0.
        5    1    3    3  502    0  0.86924520186E+02 -0.36969218045E+03 -0.16727800056E+04  0.17153551287E+04  0.46999998093E+01 0.  1.
       -5    1    3    3    0  502 -0.86924520186E+02  0.36969218045E+03  0.54802917143E+03  0.66677300728E+03  0.46999998093E+01 0. -1.
</event>
<event>
 5   0  0.3705828E-06  0.2099720E+04  0.7818609E-02  0.8561367E-01
        2   -1    0    0  501    0  0.00000000000E+00  0.00000000000E+00  0.27705857120E+04  0.27705857120E+04  0.25500000920E-02 0.  1.
       -2   -1    0    0    0  501  0.00000000000E+00  0.00000000000E+00 -0.39782424700E+03  0.39782424701E+03  0.25500000920E-02 0. -1.
    10030    2    1    2    0    0  0.00000000000E+00  0.00000000000E+00  0.23727614650E+04  0.31684099590E+04  0.20997201477E+04 0.  0.
        5    1    3    3  502    0  0.48692096298E+03  0.90344263422E+03  0.85275391336E+03  0.13343582518E+04  0.46999998093E+01 0.  1.
       -5    1    3    3    0  502 -0.48692096298E+03 -0.90344263422E+03  0.15200075517E+04  0.18340517072E+04  0.46999998093E+01 0. -1.
</event>
<event>
 5   0  0.1615098E-06  0.2100022E+04  0.7818609E-02  0.8561234E-01
       -1   -1    0    0    0  501  0.00000000000E+00  0.00000000000E+00  0.11004508837E+04  0.11004508837E+04  0.50400001928E-02 0.  1.
        1   -1    0    0  501    0  0.00000000000E+00  0.00000000000E+00 -0.10018832047E+04  0.10018832047E+04  0.50400001928E-02 0. -1.
    10030    2    1    2    0    0  0.00000000000E+00  0.00000000000E+00  0.98567679034E+02  0.21023340885E+04  0.21000221504E+04 0.  0.
        1    1    3    3  502    0  0.21930364664E+03 -0.34868870461E+02  0.10766754863E+04  0.10993361771E+04  0.50400001928E-02 0.  1.
       -1    1    3    3    0  502 -0.21930364664E+03  0.34868870461E+02 -0.97810780723E+03  0.10029979113E+04  0.50400001928E-02 0. -1.
</event>
<event>
 5   0  0.3636435E-06  0.2097619E+04  0.7818609E-02  0.8562293E-01
        2   -1    0    0  501    0  0.00000000000E+00  0.00000000000E+00  0.10989535667E+04  0.10989535667E+04  0.25500000920E-02 0. -1.
       -2   -1    0    0    0  501  0.00000000000E+00  0.00000000000E+00 -0.10009536496E+04  0.10009536496E+04  0.25500000920E-02 0.  1.
    10030    2    1    2    0    0  0.00000000000E+00  0.00000000000E+00  0.97999917120E+02  0.20999072163E+04  0.20976192060E+04 0.  0.
        4    1    3    3  502    0 -0.10505983943E+03  0.97498795720E+03 -0.32337470088E+03  0.10325753709E+04  0.12699999809E+01 0.  1.
       -4    1    3    3    0  502  0.10505983943E+03 -0.97498795720E+03  0.42137461801E+03  0.10673318454E+04  0.12699999809E+01 0. -1.
</event>
<event>
 5   0  0.1615098E-06  0.2100230E+04  0.7818609E-02  0.8561142E-01
        1   -1    0    0  501    0  0.00000000000E+00  0.00000000000E+00  0.23399497729E+04  0.23399497729E+04  0.50400001928E-02 0. -1.
       -1   -1    0    0    0  501  0.00000000000E+00  0.00000000000E+00 -0.47126705322E+03  0.47126705324E+03  0.50400001928E-02 0.  1.
    10030    2    1    2    0    0  0.00000000000E+00  0.00000000000E+00  0.18686827196E+04  0.28112168261E+04  0.21002297343E+04 0.  0.
        1    1    3    3  502    0  0.22733987887E+03  0.40164122473E+03  0.21969234395E+04  0.22448767656E+04  0.50400001928E-02 0. -1.
       -1    1    3    3    0  502 -0.22733987887E+03 -0.40164122473E+03 -0.32824071983E+03  0.56634006048E+03  0.50400001928E-02 0.  1.
</event>
<event>
 5   0  0.1653260E-06  0.2095562E+04  0.7818609E-02  0.8563201E-01
       -1   -1    0    0    0  501  0.00000000000E+00  0.00000000000E+00  0.10362745032E+04  0.10362745032E+04  0.50400001928E-02 0.  1.
        1   -1    0    0  501    0  0.00000000000E+00  0.00000000000E+00 -0.10594149840E+04  0.10594149840E+04  0.50400001928E-02 0. -1.
    10030    2    1    2    0    0  0.00000000000E+00  0.00000000000E+00 -0.23140480756E+02  0.20956894872E+04  0.20955617254E+04 0.  0.
        3    1    3    3  502    0 -0.45823230635E+03  0.20777890938E+03 -0.93069961425E+03  0.10579937164E+04  0.10100000352E+00 0. -1.
       -3    1    3    3    0  502  0.45823230635E+03 -0.20777890938E+03  0.90755913349E+03  0.10376957708E+04  0.10100000352E+00 0.  1.
</event>
<event>
 5   0  0.1579820E-06  0.2097872E+04  0.7818609E-02  0.8562181E-01
        1   -1    0    0  501    0  0.00000000000E+00  0.00000000000E+00  0.17671739898E+04  0.17671739898E+04  0.50400001928E-02 0.  1.
       -1   -1    0    0    0  501  0.00000000000E+00  0.00000000000E+00 -0.62261355291E+03  0.62261355293E+03  0.50400001928E-02 0. -1.
    10030    2    1    2    0    0  0.00000000000E+00  0.00000000000E+00  0.11445604369E+04  0.23897875427E+04  0.20978717563E+04 0.  0.
        2    1    3    3  502    0 -0.65967969365E+02 -0.46564799900E+03 -0.49578112763E+03  0.68335844070E+03  0.25500000920E-02 0. -1.
       -2    1    3    3    0  502  0.65967969365E+02  0.46564799900E+03  0.16403415645E+04  0.17064291020E+04  0.25500000920E-02 0.  1.
</event>
<event>
 5   0  0.3636435E-06  0.2083371E+04  0.7818609E-02  0.8568604E-01
       -2   -1    0    0    0  501  0.00000000000E+00  0.00000000000E+00  0.78666729619E+03  0.78666729619E+03  0.25500000920E-02 0.  1.
        2   -1    0    0  501    0  0.00000000000E+00  0.00000000000E+00 -0.13793749373E+04  0.13793749373E+04  0.25500000920E-02 0. -1.
    10030    2    1    2    0    0  0.00000000000E+00  0.00000000000E+00 -0.59270764114E+03  0.21660422335E+04  0.20833714526E+04 0.  0.
        4    1    3    3  502    0  0.27531038959E+03  0.40995828638E+02 -0.13399944708E+04  0.13685990147E+04  0.12699999809E+01 0. -1.
       -4    1    3    3    0  502 -0.27531038959E+03 -0.40995828638E+02  0.74728682962E+03  0.79744321879E+03  0.12699999809E+01 0.  1.
</event>
<event>
 5   0  0.1646510E-06  0.2100373E+04  0.7818609E-02  0.8561079E-01
       -1   -1    0    0    0  501  0.00000000000E+00  0.00000000000E+00  0.72686980294E+03  0.72686980295E+03  0.50400001928E-02 0.  1.
        1   -1    0    0  501    0  0.00000000000E+00  0.00000000000E+00 -0.15173166088E+04  0.15173166088E+04  0.50400001928E-02 0. -1.
    10030    2    1    2    0    0  0.00000000000E+00  0.00000000000E+00 -0.79044680582E+03  0.22441864117E+04  0.21003729425E+04 0.  0.
        4    1    3    3  502    0  0.35798490936E+03  0.69553753012E+03 -0.11438883456E+04  0.13857877945E+04  0.12699999809E+01 0. -1.
       -4    1    3    3    0  502 -0.35798490936E+03 -0.69553753012E+03  0.35344153981E+03  0.85839861725E+03  0.12699999809E+01 0.  1.
</event>
<event>
 5   0  0.1653260E-06  0.2099005E+04  0.7818609E-02  0.8561682E-01
       -1   -1    0    0    0  501  0.00000000000E+00  0.00000000000E+00  0.17160326298E+04  0.17160326298E+04  0.50400001928E-02 0.  1.
        1   -1    0    0  501    0  0.00000000000E+00  0.00000000000E+00 -0.64186183277E+03  0.64186183279E+03  0.50400001928E-02 0. -1.
    10030    2    1    2    0    0  0.00000000000E+00  0.00000000000E+00  0.10741707971E+04  0.23578944626E+04  0.20990053348E+04 0.  0.
        3    1    3    3  502    0 -0.48017548275E+03  0.24468526368E+03 -0.47455381688E+03  0.71808126824E+03  0.10100000352E+00 0. -1.
       -3    1    3    3    0  502  0.48017548275E+03 -0.24468526368E+03  0.15487246139E+04  0.16398131944E+04  0.10100000352E+00 0.  1.
</event>
<event>
 5   0  0.3480134E-06  0.2098839E+04  0.7818609E-02  0.8561755E-01
        2   -1    0    0  501    0  0.00000000000E+00  0.00000000000E+00  0.15631836969E+04  0.15631836969E+04  0.25500000920E-02 0. -1.
       -2   -1    0    0    0  501  0.00000000000E+00  0.00000000000E+00 -0.70451172967E+03  0.70451172967E+03  0.25500000920E-02 0.  1.
    10030    2    1    2    0    0  0.00000000000E+00  0.00000000000E+00  0.85867196718E+03  0.22676954265E+04  0.20988389648E+04 0.  0.
        1    1    3    3  502    0  0.23905004564E+03  0.93305579162E+03  0.87943641155E+03  0.13042800453E+04  0.50400001928E-02 0. -1.
       -1    1    3    3    0  502 -0.23905004564E+03 -0.93305579162E+03 -0.20764444370E+02  0.96341538122E+03  0.50400001928E-02 0.  1.
</event>
<event>
 5   0  0.3705828E-06  0.2100103E+04  0.7818609E-02  0.8561198E-01
       -2   -1    0    0    0  501  0.00000000000E+00  0.00000000000E+00  0.10357807730E+04  0.10357807730E+04  0.25500000920E-02 0. -1.
        2   -1    0    0  501    0  0.00000000000E+00  0.00000000000E+00 -0.10645187465E+04  0.10645187465E+04  0.25500000920E-02 0.  1.
    10030    2    1    2    0    0  0.00000000000E+00  0.00000000000E+00 -0.28737973547E+02  0.21002995195E+04  0.21001029024E+04 0.  0.
        5    1    3    3  502    0 -0.53671778846E+03  0.10365105066E+03 -0.91098871987E+03  0.10624180262E+04  0.46999998093E+01 0.  1.
       -5    1    3    3    0  502  0.53671778846E+03 -0.10365105066E+03  0.88225074632E+03  0.10378814933E+04  0.46999998093E+01 0. -1.
</event>
<event>
 5   0  0.1646510E-06  0.2100157E+04  0.7818609E-02  0.8561174E-01
        1   -1    0    0  501    0  0.00000000000E+00  0.00000000000E+00  0.14560808041E+04  0.14560808041E+04  0.50400001928E-02 0.  1.
       -1   -1    0    0    0  501  0.00000000000E+00  0.00000000000E+00 -0.75728263415E+03  0.75728263416E+03  0.50400001928E-02 0. -1.
    10030    2    1    2    0    0  0.00000000000E+00  0.00000000000E+00  0.69879816991E+03  0.22133634382E+04  0.21001568578E+04 0.  0.
        4    1    3    3  502    0  0.30966067928E+03 -0.46623560848E+02  0.14057239422E+04  0.14401822479E+04  0.12699999809E+01 0.  1.
       -4    1    3    3    0  502 -0.30966067928E+03  0.46623560848E+02 -0.70692577224E+03  0.77318119033E+03  0.12699999809E+01 0. -1.
</event>
<event>
 5   0  0.3636435E-06  0.2100119E+04  0.7818609E-02  0.8561191E-01
       -2   -1    0    0    0  501  0.00000000000E+00  0.00000000000E+00  0.12698216777E+04  0.12698216777E+04  0.25500000920E-02 0.  1.
        2   -1    0    0  501    0  0.00000000000E+00  0.00000000000E+00 -0.86833055403E+03  0.86833055403E+03  0.25500000920E-02 0. -1.
    10030    2    1    2    0    0  0.00000000000E+00  0.00000000000E+00  0.40149112370E+03  0.21381522318E+04  0.21001190071E+04 0.  0.
        4    1    3    3  502    0  0.87853464502E+03  0.36070885613E+03 -0.25535108232E+03  0.98343265633E+03  0.12699999809E+01 0.  1.
       -4    1    3    3    0  502 -0.87853464502E+03 -0.36070885613E+03  0.65684220602E+03  0.11547195754E+04  0.12699999809E+01 0. -1.
</event>
<event>
 5   0  0.3547583E-06  0.2100339E+04  0.7818609E-02  0.8561094E-01
       -2   -1    0    0    0  501  0.00000000000E+00  0.00000000000E+00  0.72281988575E+03  0.72281988575E+03  0.25500000920E-02 0.  1.
        2   -1    0    0  501    0  0.00000000000E+00  0.00000000000E+00 -0.15257689588E+04  0.15257689588E+04  0.25500000920E-02 0. -1.
    10030    2    1    2    0    0  0.00000000000E+00  0.00000000000E+00 -0.80294907306E+03  0.22485888446E+04  0.21003391578E+04 0.  0.
        2    1    3    3  502    0  0.15818833041E+03 -0.72390262698E+03  0.39522790962E+03  0.83979977481E+03  0.25500000920E-02 0.  1.
       -2    1    3    3    0  502 -0.15818833041E+03  0.72390262698E+03 -0.11981769827E+04  0.14087890698E+04  0.25500000920E-02 0. -1.
</event>
<event>
 5   0  0.1615098E-06  0.2099658E+04  0.7818609E-02  0.8561394E-01
       -1   -1    0    0    0  501  0.00000000000E+00  0.00000000000E+00  0.17868232493E+04  0.17868232493E+04  0.50400001928E-02 0.  1.
        1   -1    0    0  501    0  0.00000000000E+00  0.00000000000E+00 -0.61681587824E+03  0.61681587827E+03  0.50400001928E-02 0. -1.
    10030    2    1    2    0    0  0.00000000000E+00  0.00000000000E+00  0.11700073710E+04  0.24036391275E+04  0.20996580215E+04 0.  0.
        1    1    3    3  502    0  0.11710868195E+03  0.22513137980E+03 -0.58117600593E+03  0.63416412028E+03  0.50400001928E-02 0. -1.
       -1    1    3    3    0  502 -0.11710868195E+03 -0.22513137980E+03  0.17511833769E+04  0.17694750072E+04  0.50400001928E-02 0.  1.
</event>
<event>
 5   0  0.3547583E-06  0.2095437E+04  0.7818609E-02  0.8563256E-01
        2   -1    0    0  501    0  0.00000000000E+00  0.00000000000E+00  0.11403189309E+04  0.11403189309E+04  0.25500000920E-02 0. -1.
       -2   -1    0    0    0  501  0.00000000000E+00  0.00000000000E+00 -0.96263768142E+03  0.96263768142E+03  0.25500000920E-02 0.  1.
    10030    2    1    2    0    0  0.00000000000E+00  0.00000000000E+00  0.17768124952E+03  0.21029566124E+04  0.20954369203E+04 0.  0.
        2    1    3    3  502    0 -0.10099509773E+04 -0.86324260762E+02  0.35485998627E+03  0.10739545914E+04  0.25500000920E-02 0. -1.
       -2    1    3    3    0  502  0.10099509773E+04  0.86324260762E+02 -0.17717873674E+03  0.10290020210E+04  0.25500000920E-02 0.  1.
</event>
<event>
 5   0  0.1579820E-06  0.2105279E+04  0.7818609E-02  0.8558921E-01
        1   -1    0    0  501    0  0.00000000000E+00  0.00000000000E+00  0.91754192228E+03  0.91754192229E+03  0.50400001928E-02 0.  1.
       -1   -1    0    0    0  501  0.00000000000E+00  0.00000000000E+00 -0.12076287330E+04  0.12076287330E+04  0.50400001928E-02 0. -1.
    10030    2    1    2    0    0  0.00000000000E+00  0.00000000000E+00 -0.29008681071E+03  0.21251706553E+04  0.21052790685E+04 0.  0.
        2    1    3    3  502    0  0.87038638961E+02  0.26357673861E+03 -0.11700196513E+04  0.12024950754E+04  0.25500000920E-02 0. -1.
       -2    1    3    3    0  502 -0.87038638961E+02 -0.26357673861E+03  0.87993284060E+03  0.92267557993E+03  0.25500000920E-02 0.  1.
</event>
<event>
 5   0  0.1646510E-06  0.2100125E+04  0.7818609E-02  0.8561188E-01
       -1   -1    0    0    0  501  0.00000000000E+00  0.00000000000E+00  0.73615950602E+03  0.73615950604E+03  0.50400001928E-02 0.  1.
        1   -1    0    0  501    0  0.00000000000E+00  0.00000000000E+00 -0.14978158507E+04  0.14978158507E+04  0.50400001928E-02 0. -1.
    10030    2    1    2    0    0  0.00000000000E+00  0.00000000000E+00 -0.76165634463E+03  0.22339753567E+04  0.21001251170E+04 0.  0.
        4    1    3    3  502    0 -0.70475300751E+03  0.77016044122E+03 -0.50120351421E+03  0.11580287053E+04  0.12699999809E+01 0.  1.
       -4    1    3    3    0  502  0.70475300751E+03 -0.77016044122E+03 -0.26045283042E+03  0.10759466514E+04  0.12699999809E+01 0. -1.
</event>
<event>
 5   0  0.3480134E-06  0.2100367E+04  0.7818609E-02  0.8561082E-01
       -2   -1    0    0    0  501  0.00000000000E+00  0.00000000000E+00  0.12327883396E+04  0.12327883396E+04  0.25500000920E-02 0.  1.
        2   -1    0    0  501    0  0.00000000000E+00  0.00000000000E+00 -0.89462653260E+03  0.89462653260E+03  0.25500000920E-02 0. -1.
    10030    2    1    2    0    0  0.00000000000E+00  0.00000000000E+00  0.33816180695E+03  0.21274148722E+04  0.21003667848E+04 0.  0.
        1    1    3    3  502    0 -0.70166530473E+03 -0.57866911442E+03 -0.36274554267E+03  0.97917131933E+03  0.50400001928E-02 0. -1.
       -1    1    3    3    0  502  0.70166530473E+03  0.57866911442E+03  0.70090734963E+03  0.11482435528E+04  0.50400001928E-02 0.  1.
</event>
<event>
 5   0  0.3547583E-06  0.2099692E+04  0.7818609E-02  0.8561379E-01
       -2   -1    0    0    0  501  0.00000000000E+00  0.00000000000E+00  0.81857746046E+03  0.81857746046E+03  0.25500000920E-02 0.  1.
        2   -1    0    0  501    0  0.00000000000E+00  0.00000000000E+00 -0.13464537073E+04  0.13464537073E+04  0.25500000920E-02 0. -1.
    10030    2    1    2    0    0  0.00000000000E+00  0.00000000000E+00 -0.52787624686E+03  0.21650311678E+04  0.20996920311E+04 0.  0.
        2    1    3    3  502    0 -0.67341050521E+03  0.41011341398E+03  0.45081510151E+03  0.90824499812E+03  0.25500000920E-02 0.  1.
       -2    1    3    3    0  502  0.67341050521E+03 -0.41011341398E+03 -0.97869134837E+03  0.12567861697E+04  0.25500000920E-02 0. -1.
</event>
<event>
 5   0  0.1615098E-06  0.2099520E+04  0.7818609E-02  0.8561455E-01
       -1   -1    0    0    0  501  0.00000000000E+00  0.00000000000E+00  0.13997027892E+04  0.13997027892E+04  0.50400001928E-02 0. -1.
        1   -1    0    0  501    0  0.00000000000E+00  0.00000000000E+00 -0.78730746931E+03  0.78730746933E+03  0.50400001928E-02 0.  1.
    10030    2    1    2    0    0  0.00000000000E+00  0.00000000000E+00  0.61239531993E+03  0.21870102586E+04  0.20995203841E+04 0.  0.
        1    1    3    3  502    0  0.88440186289E+02 -0.94177953048E+03  0.78038828351E+03  0.12262855392E+04  0.50400001928E-02 0. -1.
       -1    1    3    3    0  502 -0.88440186289E+02  0.94177953048E+03 -0.16799296359E+03  0.96072471937E+03  0.50400001928E-02 0.  1.
</event>
<event>
 5   0  0.1579820E-06  0.2099609E+04  0.7818609E-02  0.8561416E-01
       -1   -1    0    0    0  501  0.00000000000E+00  0.00000000000E+00  0.37599498451E+03  0.37599498454E+03  0.50400001928E-02 0.  1.
        1   -1    0    0  501    0  0.00000000000E+00  0.00000000000E+00 -0.29311286541E+04  0.29311286541E+04  0.50400001928E-02 0. -1.
    10030    2    1    2    0    0  0.00000000000E+00  0.00000000000E+00 -0.25551336696E+04  0.33071236387E+04  0.20996091760E+04 0.  0.
        2    1    3    3  502    0  0.92248070496E+03  0.43237464095E+03 -0.16765752195E+04  0.19618417235E+04  0.25500000920E-02 0.  1.
       -2    1    3    3    0  502 -0.92248070496E+03 -0.43237464095E+03 -0.87855845007E+03  0.13452819152E+04  0.25500000920E-02 0. -1.
</event>
<event>
 5   0  0.3480134E-06  0.2106016E+04  0.7818609E-02  0.8558598E-01
       -2   -1    0    0    0  501  0.00000000000E+00  0.00000000000E+00  0.93065349895E+03  0.93065349895E+03  0.25500000920E-02 0.  1.
        2   -1    0    0  501    0  0.00000000000E+00  0.00000000000E+00 -0.11914481567E+04  0.11914481567E+04  0.25500000920E-02 0. -1.
    10030    2    1    2    0    0  0.00000000000E+00  0.00000000000E+00 -0.26079465775E+03  0.21221016557E+04  0.21060155706E+04 0.  0.
        1    1    3    3  502    0 -0.92283130296E+03 -0.71911460398E+02 -0.63626432625E+03  0.11232191081E+04  0.50400001928E-02 0. -1.
       -1    1    3    3    0  502  0.92283130296E+03  0.71911460398E+02  0.37546966850E+03  0.99888254758E+03  0.50400001928E-02 0.  1.
</event>
<event>
 5   0  0.1579820E-06  0.2097121E+04  0.7818609E-02  0.8562513E-01
       -1   -1    0    0    0  501  0.00000000000E+00  0.00000000000E+00  0.86718507608E+03  0.86718507609E+03  0.50400001928E-02 0. -1.
        1   -1    0    0  501    0  0.00000000000E+00  0.00000000000E+00 -0.12678712537E+04  0.12678712537E+04  0.50400001928E-02 0.  1.
    10030    2    1    2    0    0  0.00000000000E+00  0.00000000000E+00 -0.40068617764E+03  0.21350563298E+04  0.20971209118E+04 0.  0.
        2    1    3    3  502    0  0.79651982467E+02 -0.10373696021E+04 -0.67604781583E+02  0.10426171571E+04  0.25500000920E-02 0. -1.
       -2    1    3    3    0  502 -0.79651982467E+02  0.10373696021E+04 -0.33308139606E+03  0.10924391727E+04  0.25500000920E-02 0.  1.
</event>
<event>
 5   0  0.1653260E-06  0.2099619E+04  0.7818609E-02  0.8561411E-01
       -1   -1    0    0    0  501  0.00000000000E+00  0.00000000000E+00  0.79087980450E+03  0.79087980451E+03  0.50400001928E-02 0.  1.
        1   -1    0    0  501    0  0.00000000000E+00  0.00000000000E+00 -0.13935116177E+04  0.13935116177E+04  0.50400001928E-02 0. -1.
    10030    2    1    2    0    0  0.00000000000E+00  0.00000000000E+00 -0.60263181320E+03  0.21843914222E+04  0.20996191996E+04 0.  0.
        3    1    3    3  502    0  0.98206298243E+03 -0.35343538119E+03 -0.41872588568E+03  0.11245868787E+04  0.10100000352E+00 0.  1.
       -3    1    3    3    0  502 -0.98206298243E+03  0.35343538119E+03 -0.18390592751E+03  0.10598045435E+04  0.10100000352E+00 0. -1.
</event>
<event>
 5   0  0.3636435E-06  0.2100966E+04  0.7818609E-02  0.8560818E-01
       -2   -1    0    0    0  501  0.00000000000E+00  0.00000000000E+00  0.97499677869E+03  0.97499677869E+03  0.25500000920E-02 0.  1.
        2   -1    0    0  501    0  0.00000000000E+00  0.00000000000E+00 -0.11318134727E+04  0.11318134727E+04  0.25500000920E-02 0. -1.
    10030    2    1    2    0    0  0.00000000000E+00  0.00000000000E+00 -0.15681669399E+03  0.21068102514E+04  0.21009659587E+04 0.  0.
        4    1    3    3  502    0  0.11007967893E+03 -0.47474335700E+03 -0.10115957878E+04  0.11228652820E+04  0.12699999809E+01 0. -1.
       -4    1    3    3    0  502 -0.11007967893E+03  0.47474335700E+03  0.85477909379E+03  0.98394496940E+03  0.12699999809E+01 0.  1.
</event>
<event>
 5   0  0.3636435E-06  0.2100025E+04  0.7818609E-02  0.8561233E-01
        2   -1    0    0  501    0  0.00000000000E+00  0.00000000000E+00  0.12058082378E+04  0.12058082378E+04  0.25500000920E-02 0. -1.
       -2   -1    0    0    0  501  0.00000000000E+00  0.00000000000E+00 -0.91434585445E+03  0.91434585446E+03  0.25500000920E-02 0.  1.
    10030    2    1    2    0    0  0.00000000000E+00  0.00000000000E+00  0.29146238332E+03  0.21201540922E+04  0.21000245365E+04 0.  0.
        4    1    3    3  502    0 -0.27602532873E+03  0.17599895786E+03  0.11529708799E+04  0.11985445666E+04  0.12699999809E+01 0. -1.
       -4    1    3    3    0  502  0.27602532873E+03 -0.17599895786E+03 -0.86150849656E+03  0.92160952568E+03  0.12699999809E+01 0.  1.
</event>
<event>
 5   0  0.3636435E-06  0.2100347E+04  0.7818609E-02  0.8561090E-01
        2   -1    0    0  501    0  0.00000000000E+00  0.00000000000E+00  0.14408472726E+04  0.14408472726E+04  0.25500000920E-02 0.  1.
       -2   -1    0    0    0  501  0.00000000000E+00  0.00000000000E+00 -0.76542798326E+03  0.76542798327E+03  0.25500000920E-02 0. -1.
    10030    2    1    2    0    0  0.00000000000E+00  0.00000000000E+00  0.67541928931E+03  0.22062752558E+04  0.21003474208E+04 0.  0.
        4    1    3    3  502    0  0.64151280622E+03  0.71199146679E+03 -0.11335666894E+03  0.96505019384E+03  0.12699999809E+01 0. -1.
       -4    1    3    3    0  502 -0.64151280622E+03 -0.71199146679E+03  0.78877595826E+03  0.12412250620E+04  0.12699999809E+01 0.  1.
</event>
<event>
 5   0  0.3574927E-06  0.2098665E+04  0.7818609E-02  0.8561832E-01
       -2   -1    0    0    0  501  0.00000000000E+00  0.00000000000E+00  0.15814005328E+04  0.15814005328E+04  0.25500000920E-02 0. -1.
        2   -1    0    0  501    0  0.00000000000E+00  0.00000000000E+00 -0.69628049749E+03  0.69628049749E+03  0.25500000920E-02 0.  1.
    10030    2    1    2    0    0  0.00000000000E+00  0.00000000000E+00  0.88512003535E+03  0.22776810303E+04  0.20986646704E+04 0.  0.
        3    1    3    3  502    0  0.49465217749E+03  0.62599874907E+03 -0.29715233928E+03  0.85138401058E+03  0.10100000352E+00 0.  1.
       -3    1    3    3    0  502 -0.49465217749E+03 -0.62599874907E+03  0.11822723746E+04  0.14262970197E+04  0.10100000352E+00 0. -1.
</event>
<event>
 5   0  0.1615098E-06  0.2099212E+04  0.7818609E-02  0.8561591E-01
       -1   -1    0    0    0  501  0.00000000000E+00  0.00000000000E+00  0.13925284001E+04  0.13925284001E+04  0.50400001928E-02 0.  1.
        1   -1    0    0  501    0  0.00000000000E+00  0.00000000000E+00 -0.79113131016E+03  0.79113131018E+03  0.50400001928E-02 0. -1.
    10030    2    1    2    0    0  0.00000000000E+00  0.00000000000E+00  0.60139708995E+03  0.21836597103E+04  0.20992120595E+04 0.  0.
        1    1    3    3  502    0 -0.35807903685E+03  0.37632916526E+03 -0.64803786416E+03  0.83054037269E+03  0.50400001928E-02 0. -1.
       -1    1    3    3    0  502  0.35807903685E+03 -0.37632916526E+03  0.12494349541E+04  0.13531193376E+04  0.50400001928E-02 0.  1.
</event>
<event>
 5   0  0.3547583E-06  0.2100039E+04  0.7818609E-02  0.8561226E-01
        2   -1    0    0  501    0  0.00000000000E+00  0.00000000000E+00  0.83535772052E+03  0.83535772052E+03  0.25500000920E-02 0.  1.
       -2   -1    0    0    0  501  0.00000000000E+00  0.00000000000E+00 -0.13198426992E+04  0.13198426992E+04  0.25500000920E-02 0. -1.
    10030    2    1    2    0    0  0.00000000000E+00  0.00000000000E+00 -0.48448497868E+03  0.21552004197E+04  0.21000388460E+04 0.  0.
        2    1    3    3  502    0 -0.27568504293E+03 -0.55595146361E+03 -0.11115193650E+04  0.12730120076E+04  0.25500000920E-02 0. -1.
       -2    1    3    3    0  502  0.27568504293E+03  0.55595146361E+03  0.62703438632E+03  0.88218841209E+03  0.25500000920E-02 0.  1.
</event>
<event>
 5   0  0.3480134E-06  0.2100040E+04  0.7818609E-02  0.8561226E-01
        2   -1    0    0  501    0  0.00000000000E+00  0.00000000000E+00  0.16679350314E+04  0.16679350314E+04  0.25500000920E-02 0.  1.
       -2   -1    0    0    0  501  0.00000000000E+00  0.00000000000E+00 -0.66102200193E+03  0.66102200194E+03  0.25500000920E-02 0. -1.
    10030    2    1    2    0    0  0.00000000000E+00  0.00000000000E+00  0.10069130295E+04  0.23289570334E+04  0.21000397649E+04 0.  0.
        1    1    3    3  502    0  0.74394563263E+03 -0.14750329924E+02 -0.31815844811E+03  0.80925735997E+03  0.50400001928E-02 0. -1.
       -1    1    3    3    0  502 -0.74394563263E+03  0.14750329924E+02  0.13250714776E+04  0.15196996734E+04  0.50400001928E-02 0.  1.
</event>
<event>
 5   0  0.1579820E-06  0.2100287E+04  0.7818609E-02  0.8561117E-01
       -1   -1    0    0    0  501  0.00000000000E+00  0.00000000000E+00  0.64625157056E+03  0.64625157058E+03  0.50400001928E-02 0.  1.
        1   -1    0    0  501    0  0.00000000000E+00  0.00000000000E+00 -0.17064590207E+04  0.17064590207E+04  0.50400001928E-02 0. -1.
    10030    2    1    2    0    0  0.00000000000E+00  0.00000000000E+00 -0.10602074501E+04  0.23527105913E+04  0.21002874301E+04 0.  0.
        2    1    3    3  502    0 -0.87462667408E+03  0.53960509501E+03 -0.77206459079E+03  0.12853906838E+04  0.25500000920E-02 0.  1.
       -2    1    3    3    0  502  0.87462667408E+03 -0.53960509501E+03 -0.28814285935E+03  0.10673199075E+04  0.25500000920E-02 0. -1.
</event>
<event>
 5   0  0.1579820E-06  0.2100134E+04  0.7818609E-02  0.8561184E-01
        1   -1    0    0  501    0  0.00000000000E+00  0.00000000000E+00  0.17104523676E+04  0.17104523676E+04  0.50400001928E-02 0.  1.
       -1   -1    0    0    0  501  0.00000000000E+00  0.00000000000E+00 -0.64464874572E+03  0.64464874574E+03  0.50400001928E-02 0. -1.
    10030    2    1    2    0    0  0.00000000000E+00  0.00000000000E+00  0.10658036219E+04  0.23551011134E+04  0.21001342561E+04 0.  0.
        2    1    3    3  502    0  0.19566031603E+03 -0.84541119657E+03 -0.13018709918E+03  0.87746893469E+03  0.25500000920E-02 0. -1.
       -2    1    3    3    0  502 -0.19566031603E+03  0.84541119657E+03  0.11959907211E+04  0.14776321787E+04  0.25500000920E-02 0.  1.
</event>
<event>
 5   0  0.3480134E-06  0.2099796E+04  0.7818609E-02  0.8561333E-01
       -2   -1    0    0    0  501  0.00000000000E+00  0.00000000000E+00  0.83223415356E+03  0.83223415356E+03  0.25500000920E-02 0. -1.
        2   -1    0    0  501    0  0.00000000000E+00  0.00000000000E+00 -0.13244895030E+04  0.13244895030E+04  0.25500000920E-02 0.  1.
    10030    2    1    2    0    0  0.00000000000E+00  0.00000000000E+00 -0.49225534943E+03  0.21567236566E+04  0.20997956095E+04 0.  0.
        1    1    3    3  502    0 -0.48072949105E+02 -0.18006170897E+03  0.81510846979E+03  0.83614295728E+03  0.50400001928E-02 0. -1.
       -1    1    3    3    0  502  0.48072949105E+02  0.18006170897E+03 -0.13073638192E+04  0.13205806993E+04  0.50400001928E-02 0.  1.
</event>
<event>
 5   0  0.3636435E-06  0.2099956E+04  0.7818609E-02  0.8561263E-01
        2   -1    0    0  501    0  0.00000000000E+00  0.00000000000E+00  0.10967264813E+04  0.10967264813E+04  0.25500000920E-02 0. -1.
       -2   -1    0    0    0  501  0.00000000000E+00  0.00000000000E+00 -0.10052218864E+04  0.10052218864E+04  0.25500000920E-02 0.  1.
    10030    2    1    2    0    0  0.00000000000E+00  0.00000000000E+00  0.91504594949E+02  0.21019483677E+04  0.20999556780E+04 0.  0.
        4    1    3    3  502    0 -0.44492139965E+03  0.90808298004E+02 -0.90185120495E+03  0.10097219457E+04  0.12699999809E+01 0.  1.
       -4    1    3    3    0  502  0.44492139965E+03 -0.90808298004E+02  0.99335579990E+03  0.10922264220E+04  0.12699999809E+01 0. -1.
</event>
<event>
 5   0  0.3636435E-06  0.2100126E+04  0.7818609E-02  0.8561188E-01
       -2   -1    0    0    0  501  0.00000000000E+00  0.00000000000E+00  0.60016481496E+03  0.60016481496E+03  0.25500000920E-02 0. -1.
        2   -1    0    0  501    0  0.00000000000E+00  0.00000000000E+00 -0.18372152264E+04  0.18372152264E+04  0.25500000920E-02 0.  1.
    10030    2    1    2    0    0  0.00000000000E+00  0.00000000000E+00 -0.12370504114E+04  0.24373800413E+04  0.21001256499E+04 0.  0.
        4    1    3    3  502    0 -0.93063625398E+03 -0.22868805547E+03 -0.11166976120E+04  0.14715288762E+04  0.12699999809E+01 0.  1.
       -4    1    3    3    0  502  0.93063625398E+03  0.22868805547E+03 -0.12035279939E+03  0.96585116512E+03  0.12699999809E+01 0. -1.
</event>
<event>
 5   0  0.1653260E-06  0.2099887E+04  0.7818609E-02  0.8561293E-01
        1   -1    0    0  501    0  0.00000000000E+00  0.00000000000E+00  0.11744645031E+04  0.11744645031E+04  0.50400001928E-02 0.  1.
       -1   -1    0    0    0  501  0.00000000000E+00  0.00000000000E+00 -0.93862436289E+03  0.93862436290E+03  0.50400001928E-02 0. -1.
    10030    2    1    2    0    0  0.00000000000E+00  0.00000000000E+00  0.23584014019E+03  0.21130888660E+04  0.20998866598E+04 0.  0.
        3    1    3    3  502    0 -0.25511364918E+03  0.14892287297E+03 -0.89594601835E+03  0.94338765844E+03  0.10100000352E+00 0. -1.
       -3    1    3    3    0  502  0.25511364918E+03 -0.14892287297E+03  0.11317861585E+04  0.11697012076E+04  0.10100000352E+00 0.  1.
</event>
<event>
 5   0  0.1590067E-06  0.2103513E+04  0.7818609E-02  0.8559697E-01
       -1   -1    0    0    0  501  0.00000000000E+00  0.00000000000E+00  0.88432588726E+03  0.88432588728E+03  0.50400001928E-02 0.  1.
        1   -1    0    0  501    0  0.00000000000E+00  0.00000000000E+00 -0.12508870087E+04  0.12508870087E+04  0.50400001928E-02 0. -1.
    10030    2    1    2    0    0  0.00000000000E+00  0.00000000000E+00 -0.36656112145E+03  0.21352128960E+04  0.21035130272E+04 0.  0.
        5    1    3    3  502    0  0.59922598346E+03 -0.86327930848E+03 -0.13965935171E+03  0.10601178087E+04  0.46999998093E+01 0.  1.
       -5    1    3    3    0  502 -0.59922598346E+03  0.86327930848E+03 -0.22690176973E+03  0.10750950873E+04  0.46999998093E+01 0. -1.
</event>
<event>
 5   0  0.3547583E-06  0.2099198E+04  0.7818609E-02  0.8561597E-01
       -2   -1    0    0    0  501  0.00000000000E+00  0.00000000000E+00  0.64964407333E+03  0.64964407333E+03  0.25500000920E-02 0.  1.
        2   -1    0    0  501    0  0.00000000000E+00  0.00000000000E+00 -0.16957865704E+04  0.16957865704E+04  0.25500000920E-02 0. -1.
    10030    2    1    2    0    0  0.00000000000E+00  0.00000000000E+00 -0.10461424971E+04  0.23454306437E+04  0.20991976516E+04 0.  0.
        2    1    3    3  502    0  0.67053015431E+03 -0.73148534432E+03 -0.90520730242E+03  0.13431611062E+04  0.25500000920E-02 0. -1.
       -2    1    3    3    0  502 -0.67053015431E+03  0.73148534432E+03 -0.14093519465E+03  0.10022695375E+04  0.25500000920E-02 0.  1.
</event>
<event>
 5   0  0.1579820E-06  0.2100373E+04  0.7818609E-02  0.8561079E-01
       -1   -1    0    0    0  501  0.00000000000E+00  0.00000000000E+00  0.73008982492E+03  0.73008982493E+03  0.50400001928E-02 0. -1.
        1   -1    0    0  501    0  0.00000000000E+00  0.00000000000E+00 -0.15106248326E+04  0.15106248326E+04  0.50400001928E-02 0.  1.
    10030    2    1    2    0    0  0.00000000000E+00  0.00000000000E+00 -0.78053500771E+03  0.22407146576E+04  0.21003731284E+04 0.  0.
        2    1    3    3  502    0 -0.42637532034E+03 -0.82006645278E+03  0.14163157399E+03  0.93507454437E+03  0.25500000920E-02 0. -1.
       -2    1    3    3    0  502  0.42637532034E+03  0.82006645278E+03 -0.92216658170E+03  0.13056401132E+04  0.25500000920E-02 0.  1.
</event>
<event>
 5   0  0.1579820E-06  0.2100341E+04  0.7818609E-02  0.8561093E-01
        1   -1    0    0  501    0  0.00000000000E+00  0.00000000000E+00  0.23453249241E+04  0.23453249241E+04  0.50400001928E-02 0.  1.
       -1   -1    0    0    0  501  0.00000000000E+00  0.00000000000E+00 -0.47023664341E+03  0.47023664344E+03  0.50400001928E-02 0. -1.
    10030    2    1    2    0    0  0.00000000000E+00  0.00000000000E+00  0.18750882807E+04  0.28155615675E+04  0.21003406581E+04 0.  0.
        2    1    3    3  502    0  0.30493698490E+02  0.59600133955E+03 -0.22083665191E+03  0.63633033028E+03  0.25500000920E-02 0. -1.
       -2    1    3    3    0  502 -0.30493698490E+02 -0.59600133955E+03  0.20959249326E+04  0.21792312373E+04  0.25500000920E-02 0.  1.
</event>
<event>
 5   0  0.1615098E-06  0.2102498E+04  0.7818609E-02  0.8560144E-01
       -1   -1    0    0    0  501  0.00000000000E+00  0.00000000000E+00  0.65406906324E+03  0.65406906326E+03  0.50400001928E-02 0. -1.
        1   -1    0    0  501    0  0.00000000000E+00  0.00000000000E+00 -0.16896149705E+04  0.16896149705E+04  0.50400001928E-02 0.  1.
    10030    2    1    2    0    0  0.00000000000E+00  0.00000000000E+00 -0.10355459072E+04  0.23436840337E+04  0.21024984005E+04 0.  0.
        1    1    3    3  502    0 -0.10262384025E+04 -0.83802433732E+02 -0.28147262038E+03  0.10674338119E+04  0.50400001928E-02 0. -1.
       -1    1    3    3    0  502  0.10262384025E+04  0.83802433732E+02 -0.75407328684E+03  0.12762502218E+04  0.50400001928E-02 0.  1.
</event>
<event>
 5   0  0.3547583E-06  0.2102700E+04  0.7818609E-02  0.8560055E-01
       -2   -1    0    0    0  501  0.00000000000E+00  0.00000000000E+00  0.78328339782E+03  0.78328339782E+03  0.25500000920E-02 0. -1.
        2   -1    0    0  501    0  0.00000000000E+00  0.00000000000E+00 -0.14111585771E+04  0.14111585771E+04  0.25500000920E-02 0.  1.
    10030    2    1    2    0    0  0.00000000000E+00  0.00000000000E+00 -0.62787517923E+03  0.21944419749E+04  0.21027002498E+04 0.  0.
        2    1    3    3  502    0 -0.60934323016E+03  0.85304626321E+03 -0.23077402202E+03  0.10734261729E+04  0.25500000920E-02 0.  1.
       -2    1    3    3    0  502  0.60934323016E+03 -0.85304626321E+03 -0.39710115722E+03  0.11210158020E+04  0.25500000920E-02 0. -1.
</event>
<event>
 5   0  0.3636435E-06  0.2089922E+04  0.7818609E-02  0.8565696E-01
        2   -1    0    0  501    0  0.00000000000E+00  0.00000000000E+00  0.16379383630E+04  0.16379383630E+04  0.25500000920E-02 0.  1.
       -2   -1    0    0    0  501  0.00000000000E+00  0.00000000000E+00 -0.66665701253E+03  0.66665701254E+03  0.25500000920E-02 0. -1.
    10030    2    1    2    0    0  0.00000000000E+00  0.00000000000E+00  0.97128135044E+03  0.23045953755E+04  0.20899216213E+04 0.  0.
        4    1    3    3  502    0  0.96613123034E+03 -0.19058117545E+03  0.10014511424E+03  0.98982897284E+03  0.12699999809E+01 0. -1.
       -4    1    3    3    0  502 -0.96613123034E+03  0.19058117545E+03  0.87113623620E+03  0.13147664027E+04  0.12699999809E+01 0.  1.
</event>
<event>
 5   0  0.1615098E-06  0.2099484E+04  0.7818609E-02  0.8561471E-01
       -1   -1    0    0    0  501  0.00000000000E+00  0.00000000000E+00  0.41447896725E+03  0.41447896728E+03  0.50400001928E-02 0. -1.
        1   -1    0    0  501    0  0.00000000000E+00  0.00000000000E+00 -0.26586580984E+04  0.26586580984E+04  0.50400001928E-02 0.  1.
    10030    2    1    2    0    0  0.00000000000E+00  0.00000000000E+00 -0.22441791311E+04  0.30731370657E+04  0.20994836155E+04 0.  0.
        1    1    3    3  502    0 -0.65427362481E+03 -0.71297895471E+03 -0.52652707156E+03  0.11016549928E+04  0.50400001928E-02 0. -1.
       -1    1    3    3    0  502  0.65427362481E+03  0.71297895471E+03 -0.17176520596E+04  0.19714820729E+04  0.50400001928E-02 0.  1.
</event>
<event>
 5   0  0.3480134E-06  0.2100475E+04  0.7818609E-02  0.8561034E-01
       -2   -1    0    0    0  501  0.00000000000E+00  0.00000000000E+00  0.40198729828E+03  0.40198729829E+03  0.25500000920E-02 0. -1.
        2   -1    0    0  501    0  0.00000000000E+00  0.00000000000E+00 -0.27438658924E+04  0.27438658924E+04  0.25500000920E-02 0.  1.
    10030    2    1    2    0    0  0.00000000000E+00  0.00000000000E+00 -0.23418785941E+04  0.31458531907E+04  0.21004754099E+04 0.  0.
        1    1    3    3  502    0 -0.18631204695E+03 -0.73709824238E+03 -0.85790152459E+02  0.76510518757E+03  0.50400001928E-02 0. -1.
       -1    1    3    3    0  502  0.18631204695E+03  0.73709824238E+03 -0.22560884416E+04  0.23807480031E+04  0.50400001928E-02 0.  1.
</event>
<event>
 5   0  0.1579820E-06  0.2099931E+04  0.7818609E-02  0.8561274E-01
        1   -1    0    0  501    0  0.00000000000E+00  0.00000000000E+00  0.82458286226E+03  0.82458286228E+03  0.50400001928E-02 0.  1.
       -1   -1    0    0    0  501  0.00000000000E+00  0.00000000000E+00 -0.13369520563E+04  0.13369520563E+04  0.50400001928E-02 0. -1.
    10030    2    1    2    0    0  0.00000000000E+00  0.00000000000E+00 -0.51236919405E+03  0.21615349186E+04  0.20999311925E+04 0.  0.
        2    1    3    3  502    0 -0.24817764055E+02 -0.10002893807E+04 -0.58368980951E+03  0.11583991368E+04  0.25500000920E-02 0. -1.
       -2    1    3    3    0  502  0.24817764055E+02  0.10002893807E+04  0.71320615460E+02  0.10031357818E+04  0.25500000920E-02 0.  1.
</event>
<event>
 5   0  0.1615098E-06  0.2099782E+04  0.7818609E-02  0.8561339E-01
       -1   -1    0    0    0  501  0.00000000000E+00  0.00000000000E+00  0.10032034950E+04  0.10032034950E+04  0.50400001928E-02 0. -1.
        1   -1    0    0  501    0  0.00000000000E+00  0.00000000000E+00 -0.10987517746E+04  0.10987517746E+04  0.50400001928E-02 0.  1.
    10030    2    1    2    0    0  0.00000000000E+00  0.00000000000E+00 -0.95548279575E+02  0.21019552696E+04  0.20997824843E+04 0.  0.
        1    1    3    3  502    0 -0.63862222180E+03 -0.59515689769E+02 -0.87983286554E+03  0.10888004091E+04  0.50400001928E-02 0.  1.
       -1    1    3    3    0  502  0.63862222180E+03  0.59515689769E+02  0.78428458596E+03  0.10131548605E+04  0.50400001928E-02 0. -1.
</event>
<event>
 5   0  0.1615098E-06  0.2089027E+04  0.7818609E-02  0.8566092E-01
        1   -1    0    0  501    0  0.00000000000E+00  0.00000000000E+00  0.89607901196E+03  0.89607901197E+03  0.50400001928E-02 0. -1.
       -1   -1    0    0    0  501  0.00000000000E+00  0.00000000000E+00 -0.12175365019E+04  0.12175365019E+04  0.50400001928E-02 0.  1.
    10030    2    1    2    0    0  0.00000000000E+00  0.00000000000E+00 -0.32145748998E+03  0.21136155139E+04  0.20890274347E+04 0.  0.
        1    1    3    3  502    0  0.31561483700E+03  0.70205544405E+03  0.55363707948E+03  0.94816063389E+03  0.50400001928E-02 0. -1.
       -1    1    3    3    0  502 -0.31561483700E+03 -0.70205544405E+03 -0.87509456946E+03  0.11654548800E+04  0.50400001928E-02 0.  1.
</event>
<event>
 5   0  0.1615098E-06  0.2100693E+04  0.7818609E-02  0.8560938E-01
        1   -1    0    0  501    0  0.00000000000E+00  0.00000000000E+00  0.13400224777E+04  0.13400224777E+04  0.50400001928E-02 0. -1.
       -1   -1    0    0    0  501  0.00000000000E+00  0.00000000000E+00 -0.82329028666E+03  0.82329028667E+03  0.50400001928E-02 0.  1.
    10030    2    1    2    0    0  0.00000000000E+00  0.00000000000E+00  0.51673219101E+03  0.21633127644E+04  0.21006927332E+04 0.  0.
        1    1    3    3  502    0  0.51515229111E+03  0.91494760445E+03  0.23080089240E+03  0.10750721157E+04  0.50400001928E-02 0.  1.
       -1    1    3    3    0  502 -0.51515229111E+03 -0.91494760445E+03  0.28593129861E+03  0.10882406487E+04  0.50400001928E-02 0. -1.
</event>
<event>
 5   0  0.1615098E-06  0.2100486E+04  0.7818609E-02  0.8561029E-01
        1   -1    0    0  501    0  0.00000000000E+00  0.00000000000E+00  0.83426037103E+03  0.83426037105E+03  0.50400001928E-02 0.  1.
       -1   -1    0    0    0  501  0.00000000000E+00  0.00000000000E+00 -0.13221421797E+04  0.13221421797E+04  0.50400001928E-02 0. -1.
    10030    2    1    2    0    0  0.00000000000E+00  0.00000000000E+00 -0.48788180869E+03  0.21564025508E+04  0.21004864441E+04 0.  0.
        1    1    3    3  502    0 -0.30760345860E+03  0.84287474369E+03 -0.80432256122E+03  0.12049865160E+04  0.50400001928E-02 0. -1.
       -1    1    3    3    0  502  0.30760345860E+03 -0.84287474369E+03  0.31644075253E+03  0.95141603475E+03  0.50400001928E-02 0.  1.
</event>
<event>
 5   0  0.1579820E-06  0.2101241E+04  0.7818609E-02  0.8560697E-01
        1   -1    0    0  501    0  0.00000000000E+00  0.00000000000E+00  0.69859393890E+03  0.69859393892E+03  0.50400001928E-02 0. -1.
       -1   -1    0    0    0  501  0.00000000000E+00  0.00000000000E+00 -0.15800353258E+04  0.15800353258E+04  0.50400001928E-02 0.  1.
    10030    2    1    2    0    0  0.00000000000E+00  0.00000000000E+00 -0.88144138694E+03  0.22786292648E+04  0.21012406829E+04 0.  0.
        2    1    3    3  502    0 -0.54244867902E+03 -0.54748987779E+03  0.33356444438E+03  0.83979817469E+03  0.25500000920E-02 0. -1.
       -2    1    3    3    0  502  0.54244867902E+03  0.54748987779E+03 -0.12150058313E+04  0.14388310901E+04  0.25500000920E-02 0.  1.
</event>
<event>
 5   0  0.1615098E-06  0.2100588E+04  0.7818609E-02  0.8560985E-01
        1   -1    0    0  501    0  0.00000000000E+00  0.00000000000E+00  0.14714508508E+04  0.14714508508E+04  0.50400001928E-02 0.  1.
       -1   -1    0    0    0  501  0.00000000000E+00  0.00000000000E+00 -0.74967990470E+03  0.74967990471E+03  0.50400001928E-02 0. -1.
    10030    2    1    2    0    0  0.00000000000E+00  0.00000000000E+00  0.72177094613E+03  0.22211307556E+04  0.21005876641E+04 0.  0.
        1    1    3    3  502    0 -0.64230687998E+03  0.69687607438E+03  0.83954685990E+03  0.12661095218E+04  0.50400001928E-02 0.  1.
       -1    1    3    3    0  502  0.64230687998E+03 -0.69687607438E+03 -0.11777591376E+03  0.95502123379E+03  0.50400001928E-02 0. -1.
</event>
<event>
 5   0  0.3547583E-06  0.2100612E+04  0.7818609E-02  0.8560974E-01
        2   -1    0    0  501    0  0.00000000000E+00  0.00000000000E+00  0.10608072045E+04  0.10608072045E+04  0.25500000920E-02 0. -1.
       -2   -1    0    0    0  501  0.00000000000E+00  0.00000000000E+00 -0.10399087519E+04  0.10399087519E+04  0.25500000920E-02 0.  1.
    10030    2    1    2    0    0  0.00000000000E+00  0.00000000000E+00  0.20898452624E+02  0.21007159564E+04  0.21006120023E+04 0.  0.
        2    1    3    3  502    0 -0.48497385293E+03 -0.92481763441E+03 -0.10205256788E+03  0.10492387820E+04  0.25500000920E-02 0.  1.
       -2    1    3    3    0  502  0.48497385293E+03  0.92481763441E+03  0.12295102051E+03  0.10514771745E+04  0.25500000920E-02 0. -1.
</event>
<event>
 5   0  0.1579820E-06  0.2098954E+04  0.7818609E-02  0.8561704E-01
       -1   -1    0    0    0  501  0.00000000000E+00  0.00000000000E+00  0.64828548590E+03  0.64828548592E+03  0.50400001928E-02 0. -1.
        1   -1    0    0  501    0  0.00000000000E+00  0.00000000000E+00 -0.16989462981E+04  0.16989462981E+04  0.50400001928E-02 0.  1.
    10030    2    1    2    0    0  0.00000000000E+00  0.00000000000E+00 -0.10506608122E+04  0.23472317840E+04  0.20989542410E+04 0.  0.
        2    1    3    3  502    0  0.19715701582E+03 -0.80024391360E+03 -0.12519076341E+04  0.14988441996E+04  0.25500000920E-02 0.  1.
       -2    1    3    3    0  502 -0.19715701582E+03  0.80024391360E+03  0.20124682193E+03  0.84838758447E+03  0.25500000920E-02 0. -1.
</event>
<event>
 5   0  0.1590067E-06  0.2100018E+04  0.7818609E-02  0.8561236E-01
        1   -1    0    0  501    0  0.00000000000E+00  0.00000000000E+00  0.89360854511E+03  0.89360854512E+03  0.50400001928E-02 0.  1.
       -1   -1    0    0    0  501  0.00000000000E+00  0.00000000000E+00 -0.12337825387E+04  0.12337825387E+04  0.50400001928E-02 0. -1.
    10030    2    1    2    0    0  0.00000000000E+00  0.00000000000E+00 -0.34017399361E+03  0.21273910838E+04  0.21000177327E+04 0.  0.
        5    1    3    3  502    0  0.75906753579E+03 -0.63898781983E+03  0.17791305577E+03  0.10080496531E+04  0.46999998093E+01 0.  1.
       -5    1    3    3    0  502 -0.75906753579E+03  0.63898781983E+03 -0.51808704938E+03  0.11193414307E+04  0.46999998093E+01 0. -1.
</event>
<event>
 5   0  0.3480134E-06  0.2097743E+04  0.7818609E-02  0.8562238E-01
        2   -1    0    0  501    0  0.00000000000E+00  0.00000000000E+00  0.40991580918E+03  0.40991580919E+03  0.25500000920E-02 0. -1.
       -2   -1    0    0    0  501  0.00000000000E+00  0.00000000000E+00 -0.26837981906E+04  0.26837981906E+04  0.25500000920E-02 0.  1.
    10030    2    1    2    0    0  0.00000000000E+00  0.00000000000E+00 -0.22738823814E+04  0.30937139998E+04  0.20977428889E+04 0.  0.
        1    1    3    3  502    0 -0.90843814428E+03 -0.26781686555E+03 -0.18016502300E+04  0.20354187006E+04  0.50400001928E-02 0. -1.
       -1    1    3    3    0  502  0.90843814428E+03  0.26781686555E+03 -0.47223215146E+03  0.10582952992E+04  0.50400001928E-02 0.  1.
</event>
<event>
 5   0  0.3480134E-06  0.2099045E+04  0.7818609E-02  0.8561664E-01
       -2   -1    0    0    0  501  0.00000000000E+00  0.00000000000E+00  0.11403581383E+04  0.11403581383E+04  0.25500000920E-02 0. -1.
        2   -1    0    0  501    0  0.00000000000E+00  0.00000000000E+00 -0.96592256070E+03  0.96592256071E+03  0.25500000920E-02 0.  1.
    10030    2    1    2    0    0  0.00000000000E+00  0.00000000000E+00  0.17443557763E+03  0.21062806990E+04  0.20990451668E+04 0.  0.
        1    1    3    3  502    0  0.92989520578E+03  0.48585792674E+03  0.60020219939E+02  0.10508879320E+04  0.50400001928E-02 0. -1.
       -1    1    3    3    0  502 -0.92989520578E+03 -0.48585792674E+03  0.11441535769E+03  0.10553927671E+04  0.50400001928E-02 0.  1.
</event>
<event>
 5   0  0.3547583E-06  0.2091309E+04  0.7818609E-02  0.8565082E-01
        2   -1    0    0  501    0  0.00000000000E+00  0.00000000000E+00  0.12463010008E+04  0.12463010008E+04  0.25500000920E-02 0. -1.
       -2   -1    0    0    0  501  0.00000000000E+00  0.00000000000E+00 -0.87731069598E+03  0.87731069599E+03  0.25500000920E-02 0.  1.
    10030    2    1    2    0    0  0.00000000000E+00  0.00000000000E+00  0.36899030485E+03  0.21236116968E+04  0.20913088710E+04 0.  0.
        2    1    3    3  502    0  0.38135534475E+03 -0.75851724923E+02 -0.80117199180E+03  0.89054025378E+03  0.25500000920E-02 0.  1.
       -2    1    3    3    0  502 -0.38135534475E+03  0.75851724923E+02  0.11701622967E+04  0.12330714430E+04  0.25500000920E-02 0. -1.
</event>
<event>
 5   0  0.3705828E-06  0.2101079E+04  0.7818609E-02  0.8560768E-01
       -2   -1    0    0    0  501  0.00000000000E+00  0.00000000000E+00  0.11352510151E+04  0.11352510151E+04  0.25500000920E-02 0. -1.
        2   -1    0    0  501    0  0.00000000000E+00  0.00000000000E+00 -0.97214894284E+03  0.97214894285E+03  0.25500000920E-02 0.  1.
    10030    2    1    2    0    0  0.00000000000E+00  0.00000000000E+00  0.16310207224E+03  0.21073999579E+04  0.21010788411E+04 0.  0.
        5    1    3    3  502    0 -0.78804672948E+03  0.43403764495E+02  0.77696906791E+03  0.11075218089E+04  0.46999998093E+01 0. -1.
       -5    1    3    3    0  502  0.78804672948E+03 -0.43403764495E+02 -0.61386699567E+03  0.99987814907E+03  0.46999998093E+01 0.  1.
</event>
<event>
 5   0  0.1646510E-06  0.2100246E+04  0.7818609E-02  0.8561135E-01
        1   -1    0    0  501    0  0.00000000000E+00  0.00000000000E+00  0.16668318248E+04  0.16668318248E+04  0.50400001928E-02 0.  1.
       -1   -1    0    0    0  501  0.00000000000E+00  0.00000000000E+00 -0.66158916418E+03  0.66158916420E+03  0.50400001928E-02 0. -1.
    10030    2    1    2    0    0  0.00000000000E+00  0.00000000000E+00  0.10052426606E+04  0.23284209890E+04  0.21002455797E+04 0.  0.
        4    1    3    3  502    0 -0.28723660808E+03  0.69629043998E+03  0.13138498086E+04  0.15144398893E+04  0.12699999809E+01 0.  1.
       -4    1    3    3    0  502  0.28723660808E+03 -0.69629043998E+03 -0.30860714808E+03  0.81398109963E+03  0.12699999809E+01 0. -1.
</event>
<event>
 5   0  0.3480134E-06  0.2100355E+04  0.7818609E-02  0.8561087E-01
       -2   -1    0    0    0  501  0.00000000000E+00  0.00000000000E+00  0.44951169207E+03  0.44951169208E+03  0.25500000920E-02 0.  1.
        2   -1    0    0  501    0  0.00000000000E+00  0.00000000000E+00 -0.24534905441E+04  0.24534905442E+04  0.25500000920E-02 0. -1.
    10030    2    1    2    0    0  0.00000000000E+00  0.00000000000E+00 -0.20039788521E+04  0.29030022362E+04  0.21003549091E+04 0.  0.
        1    1    3    3  502    0 -0.28875169066E+03 -0.22027882332E+03  0.35995104025E+03  0.51133653327E+03  0.50400001928E-02 0.  1.
       -1    1    3    3    0  502  0.28875169066E+03  0.22027882332E+03 -0.23639298923E+04  0.23916657030E+04  0.50400001928E-02 0. -1.
</event>
<event>
 5   0  0.1615098E-06  0.2098541E+04  0.7818609E-02  0.8561886E-01
       -1   -1    0    0    0  501  0.00000000000E+00  0.00000000000E+00  0.49375380370E+03  0.49375380373E+03  0.50400001928E-02 0.  1.
        1   -1    0    0  501    0  0.00000000000E+00  0.00000000000E+00 -0.22297932459E+04  0.22297932459E+04  0.50400001928E-02 0. -1.
    10030    2    1    2    0    0  0.00000000000E+00  0.00000000000E+00 -0.17360394422E+04  0.27235470496E+04  0.20985412997E+04 0.  0.
        1    1    3    3  502    0  0.47078653172E+03  0.81731282601E+03 -0.14646380405E+04  0.17420691157E+04  0.50400001928E-02 0. -1.
       -1    1    3    3    0  502 -0.47078653172E+03 -0.81731282601E+03 -0.27140140169E+03  0.98147793397E+03  0.50400001928E-02 0.  1.
</event>
<event>
 5   0  0.1579820E-06  0.2095515E+04  0.7818609E-02  0.8563222E-01
        1   -1    0    0  501    0  0.00000000000E+00  0.00000000000E+00  0.79297829005E+03  0.79297829007E+03  0.50400001928E-02 0. -1.
       -1   -1    0    0    0  501  0.00000000000E+00  0.00000000000E+00 -0.13843952192E+04  0.13843952192E+04  0.50400001928E-02 0.  1.
    10030    2    1    2    0    0  0.00000000000E+00  0.00000000000E+00 -0.59141692916E+03  0.21773735093E+04  0.20955145943E+04 0.  0.
        2    1    3    3  502    0  0.94084583214E+02  0.10198307952E+04 -0.65963490552E+02  0.10262835581E+04  0.25500000920E-02 0.  1.
       -2    1    3    3    0  502 -0.94084583214E+02 -0.10198307952E+04 -0.52545343861E+03  0.11510899512E+04  0.25500000920E-02 0. -1.
</event>
<event>
 5   0  0.1615098E-06  0.2098978E+04  0.7818609E-02  0.8561694E-01
        1   -1    0    0  501    0  0.00000000000E+00  0.00000000000E+00  0.79980942602E+03  0.79980942603E+03  0.50400001928E-02 0. -1.
       -1   -1    0    0    0  501  0.00000000000E+00  0.00000000000E+00 -0.13771116496E+04  0.13771116496E+04  0.50400001928E-02 0.  1.
    10030    2    1    2    0    0  0.00000000000E+00  0.00000000000E+00 -0.57730222353E+03  0.21769210756E+04  0.20989777302E+04 0.  0.
        1    1    3    3  502    0 -0.33967913770E+03 -0.26070598959E+03 -0.12823950425E+04  0.13519935557E+04  0.50400001928E-02 0.  1.
       -1    1    3    3    0  502  0.33967913770E+03  0.26070598959E+03  0.70509281900E+03  0.82492751986E+03  0.50400001928E-02 0. -1.
</event>
<event>
 5   0  0.1590067E-06  0.2100224E+04  0.7818609E-02  0.8561144E-01
        1   -1    0    0  501    0  0.00000000000E+00  0.00000000000E+00  0.10902596222E+04  0.10902596223E+04  0.50400001928E-02 0.  1.
       -1   -1    0    0    0  501  0.00000000000E+00  0.00000000000E+00 -0.10114432337E+04  0.10114432337E+04  0.50400001928E-02 0. -1.
    10030    2    1    2    0    0  0.00000000000E+00  0.00000000000E+00  0.78816388561E+02  0.21017028559E+04  0.21002244812E+04 0.  0.
        5    1    3    3  502    0 -0.40677029412E+03  0.74862056093E+03  0.65369598782E+03  0.10738879601E+04  0.46999998093E+01 0.  1.
       -5    1    3    3    0  502  0.40677029412E+03 -0.74862056093E+03 -0.57487959926E+03  0.10278148958E+04  0.46999998093E+01 0. -1.
</event>
<event>
 5   0  0.1579820E-06  0.2100721E+04  0.7818609E-02  0.8560926E-01
        1   -1    0    0  501    0  0.00000000000E+00  0.00000000000E+00  0.15166029938E+04  0.15166029938E+04  0.50400001928E-02 0. -1.
       -1   -1    0    0    0  501  0.00000000000E+00  0.00000000000E+00 -0.72745270831E+03  0.72745270832E+03  0.50400001928E-02 0.  1.
    10030    2    1    2    0    0  0.00000000000E+00  0.00000000000E+00  0.78915028547E+03  0.22440557021E+04  0.21007207861E+04 0.  0.
        2    1    3    3  502    0  0.89541136691E+02  0.10377533446E+04  0.53911175618E+03  0.11728559609E+04  0.25500000920E-02 0. -1.
       -2    1    3    3    0  502 -0.89541136691E+02 -0.10377533446E+04  0.25003852929E+03  0.10711997412E+04  0.25500000920E-02 0.  1.
</event>
<event>
 5   0  0.3480134E-06  0.2100645E+04  0.7818609E-02  0.8560960E-01
        2   -1    0    0  501    0  0.00000000000E+00  0.00000000000E+00  0.82618468162E+03  0.82618468162E+03  0.25500000920E-02 0.  1.
       -2   -1    0    0    0  501  0.00000000000E+00  0.00000000000E+00 -0.13352666467E+04  0.13352666467E+04  0.25500000920E-02 0. -1.
    10030    2    1    2    0    0  0.00000000000E+00  0.00000000000E+00 -0.50908196503E+03  0.21614513283E+04  0.21006445195E+04 0.  0.
        1    1    3    3  502    0  0.73973139450E+01 -0.10120852199E+03 -0.13302106655E+04  0.13340758223E+04  0.50400001928E-02 0. -1.
       -1    1    3    3    0  502 -0.73973139450E+01  0.10120852199E+03  0.82112870042E+03  0.82737550596E+03  0.50400001928E-02 0.  1.
</event>
<event>
 5   0  0.3574927E-06  0.2101720E+04  0.7818609E-02  0.8560486E-01
        2   -1    0    0  501    0  0.00000000000E+00  0.00000000000E+00  0.20317746841E+04  0.20317746841E+04  0.25500000920E-02 0.  1.
       -2   -1    0    0    0  501  0.00000000000E+00  0.00000000000E+00 -0.54351808240E+03  0.54351808240E+03  0.25500000920E-02 0. -1.
    10030    2    1    2    0    0  0.00000000000E+00  0.00000000000E+00  0.14882566017E+04  0.25752927665E+04  0.21017195628E+04 0.  0.
        3    1    3    3  502    0 -0.15179784543E+02 -0.53330213828E+03  0.18534817814E+04  0.19287395679E+04  0.10100000352E+00 0.  1.
       -3    1    3    3    0  502  0.15179784543E+02  0.53330213828E+03 -0.36522517970E+03  0.64655319861E+03  0.10100000352E+00 0. -1.
</event>
<event>
 5   0  0.1615098E-06  0.2099441E+04  0.7818609E-02  0.8561490E-01
        1   -1    0    0  501    0  0.00000000000E+00  0.00000000000E+00  0.11170306403E+04  0.11170306403E+04  0.50400001928E-02 0. -1.
       -1   -1    0    0    0  501  0.00000000000E+00  0.00000000000E+00 -0.98646631016E+03  0.98646631018E+03  0.50400001928E-02 0.  1.
    10030    2    1    2    0    0  0.00000000000E+00  0.00000000000E+00  0.13056433014E+03  0.21034969505E+04  0.20994409676E+04 0.  0.
        1    1    3    3  502    0 -0.50150756636E+03 -0.38696609062E+03  0.90395395755E+03  0.11038049428E+04  0.50400001928E-02 0. -1.
       -1    1    3    3    0  502  0.50150756636E+03  0.38696609062E+03 -0.77338962741E+03  0.99969200767E+03  0.50400001928E-02 0.  1.
</event>
<event>
 5   0  0.1579820E-06  0.2100341E+04  0.7818609E-02  0.8561093E-01
       -1   -1    0    0    0  501  0.00000000000E+00  0.00000000000E+00  0.18503412562E+04  0.18503412562E+04  0.50400001928E-02 0. -1.
        1   -1    0    0  501    0  0.00000000000E+00  0.00000000000E+00 -0.59602980431E+03  0.59602980433E+03  0.50400001928E-02 0.  1.
    10030    2    1    2    0    0  0.00000000000E+00  0.00000000000E+00  0.12543114519E+04  0.24463710606E+04  0.21003414359E+04 0.  0.
        2    1    3    3  502    0 -0.10190302547E+04 -0.21409322501E+03  0.46830524770E+03  0.11417391883E+04  0.25500000920E-02 0.  1.
       -2    1    3    3    0  502  0.10190302547E+04  0.21409322501E+03  0.78600620421E+03  0.13046318723E+04  0.25500000920E-02 0. -1.
</event>
<event>
 5   0  0.1615098E-06  0.2095447E+04  0.7818609E-02  0.8563252E-01
        1   -1    0    0  501    0  0.00000000000E+00  0.00000000000E+00  0.13846386965E+04  0.13846386965E+04  0.50400001928E-02 0. -1.
       -1   -1    0    0    0  501  0.00000000000E+00  0.00000000000E+00 -0.79278745685E+03  0.79278745687E+03  0.50400001928E-02 0.  1.
    10030    2    1    2    0    0  0.00000000000E+00  0.00000000000E+00  0.59185123964E+03  0.21774261534E+04  0.20954466740E+04 0.  0.
        1    1    3    3  502    0  0.13385149891E+03 -0.74503204797E+02  0.13729386718E+04  0.13814584857E+04  0.50400001928E-02 0. -1.
       -1    1    3    3    0  502 -0.13385149891E+03  0.74503204797E+02 -0.78108743213E+03  0.79596766765E+03  0.50400001928E-02 0.  1.
</event>
<event>
 5   0  0.1579820E-06  0.2099822E+04  0.7818609E-02  0.8561322E-01
       -1   -1    0    0    0  501  0.00000000000E+00  0.00000000000E+00  0.11919059670E+04  0.11919059670E+04  0.50400001928E-02 0.  1.
        1   -1    0    0  501    0  0.00000000000E+00  0.00000000000E+00 -0.92483241232E+03  0.92483241234E+03  0.50400001928E-02 0. -1.
    10030    2    1    2    0    0  0.00000000000E+00  0.00000000000E+00  0.26707355465E+03  0.21167383793E+04  0.20998221551E+04 0.  0.
        2    1    3    3  502    0  0.36693286003E+03  0.23747444448E+03 -0.82876315540E+03  0.93695368258E+03  0.25500000920E-02 0. -1.
       -2    1    3    3    0  502 -0.36693286003E+03 -0.23747444448E+03  0.10958367100E+04  0.11797846967E+04  0.25500000920E-02 0.  1.
</event>
<event>
 5   0  0.1653260E-06  0.2100212E+04  0.7818609E-02  0.8561150E-01
        1   -1    0    0  501    0  0.00000000000E+00  0.00000000000E+00  0.13596871127E+04  0.13596871127E+04  0.50400001928E-02 0.  1.
       -1   -1    0    0    0  501  0.00000000000E+00  0.00000000000E+00 -0.81101217789E+03  0.81101217791E+03  0.50400001928E-02 0. -1.
    10030    2    1    2    0    0  0.00000000000E+00  0.00000000000E+00  0.54867493479E+03  0.21706992906E+04  0.21002121860E+04 0.  0.
        3    1    3    3  502    0 -0.15001783699E+03  0.63940717692E+03 -0.57253763748E+03  0.87128998952E+03  0.10100000352E+00 0. -1.
       -3    1    3    3    0  502  0.15001783699E+03 -0.63940717692E+03  0.11212125723E+04  0.12994093011E+04  0.10100000352E+00 0.  1.
</event>
<event>
 5   0  0.3480134E-06  0.2100178E+04  0.7818609E-02  0.8561165E-01
        2   -1    0    0  501    0  0.00000000000E+00  0.00000000000E+00  0.12862519613E+04  0.12862519613E+04  0.25500000920E-02 0. -1.
       -2   -1    0    0    0  501  0.00000000000E+00  0.00000000000E+00 -0.85728724195E+03  0.85728724195E+03  0.25500000920E-02 0.  1.
    10030    2    1    2    0    0  0.00000000000E+00  0.00000000000E+00  0.42896471939E+03  0.21435392033E+04  0.21001784652E+04 0.  0.
        1    1    3    3  502    0  0.68724142286E+03 -0.10152684114E+02 -0.59581274400E+03  0.90961347628E+03  0.50400001928E-02 0.  1.
       -1    1    3    3    0  502 -0.68724142286E+03  0.10152684114E+02  0.10247774634E+04  0.12339257270E+04  0.50400001928E-02 0. -1.
</event>
<event>
 5   0  0.1590067E-06  0.2099961E+04  0.7818609E-02  0.8561260E-01
       -1   -1    0    0    0  501  0.00000000000E+00  0.00000000000E+00  0.82924083785E+03  0.82924083786E+03  0.50400001928E-02 0. -1.
        1   -1    0    0  501    0  0.00000000000E+00  0.00000000000E+00 -0.13294803793E+04  0.13294803793E+04  0.50400001928E-02 0.  1.
    10030    2    1    2    0    0  0.00000000000E+00  0.00000000000E+00 -0.50023954149E+03  0.21587212172E+04  0.20999613555E+04 0.  0.
        5    1    3    3  502    0 -0.39743616590E+03 -0.82189435335E+03  0.28301669610E+03  0.95581712388E+03  0.46999998093E+01 0. -1.
       -5    1    3    3    0  502  0.39743616590E+03  0.82189435335E+03 -0.78325623759E+03  0.12029040933E+04  0.46999998093E+01 0.  1.
</event>
<event>
 5   0  0.3547583E-06  0.2100480E+04  0.7818609E-02  0.8561032E-01
       -2   -1    0    0    0  501  0.00000000000E+00  0.00000000000E+00  0.79223033324E+03  0.79223033324E+03  0.25500000920E-02 0. -1.
        2   -1    0    0  501    0  0.00000000000E+00  0.00000000000E+00 -0.13922770056E+04  0.13922770056E+04  0.25500000920E-02 0.  1.
    10030    2    1    2    0    0  0.00000000000E+00  0.00000000000E+00 -0.60004667232E+03  0.21845073388E+04  0.21004800176E+04 0.  0.
        2    1    3    3  502    0 -0.56418337516E+03 -0.15210965043E+03  0.60756334489E+03  0.84295518542E+03  0.25500000920E-02 0. -1.
       -2    1    3    3    0  502  0.56418337516E+03  0.15210965043E+03 -0.12076100172E+04  0.13415521534E+04  0.25500000920E-02 0.  1.
</event>
<event>
 5   0  0.1579820E-06  0.2104686E+04  0.7818609E-02  0.8559182E-01
       -1   -1    0    0    0  501  0.00000000000E+00  0.00000000000E+00  0.49618481683E+03  0.49618481685E+03  0.50400001928E-02 0. -1.
        1   -1    0    0  501    0  0.00000000000E+00  0.00000000000E+00 -0.22318808165E+04  0.22318808165E+04  0.50400001928E-02 0.  1.
    10030    2    1    2    0    0  0.00000000000E+00  0.00000000000E+00 -0.17356959997E+04  0.27280656333E+04  0.21046856052E+04 0.  0.
        2    1    3    3  502    0 -0.44523082785E+02 -0.66030387481E+03  0.19268458600E+03  0.68928286043E+03  0.25500000920E-02 0. -1.
       -2    1    3    3    0  502  0.44523082785E+02  0.66030387481E+03 -0.19283805856E+04  0.20387827729E+04  0.25500000920E-02 0.  1.
</event>
<event>
 5   0  0.3574927E-06  0.2096773E+04  0.7818609E-02  0.8562666E-01
       -2   -1    0    0    0  501  0.00000000000E+00  0.00000000000E+00  0.50502790017E+03  0.50502790018E+03  0.25500000920E-02 0.  1.
        2   -1    0    0  501    0  0.00000000000E+00  0.00000000000E+00 -0.21763431491E+04  0.21763431491E+04  0.25500000920E-02 0. -1.
    10030    2    1    2    0    0  0.00000000000E+00  0.00000000000E+00 -0.16713152490E+04  0.26813710493E+04  0.20967727685E+04 0.  0.
        3    1    3    3  502    0 -0.11159994155E+03  0.53556048591E+03  0.30802518411E+03  0.62782091815E+03  0.10100000352E+00 0.  1.
       -3    1    3    3    0  502  0.11159994155E+03 -0.53556048591E+03 -0.19793404331E+04  0.20535501312E+04  0.10100000352E+00 0. -1.
</event>
<event>
 5   0  0.1615098E-06  0.2099649E+04  0.7818609E-02  0.8561398E-01
       -1   -1    0    0    0  501  0.00000000000E+00  0.00000000000E+00  0.14399621930E+04  0.14399621930E+04  0.50400001928E-02 0. -1.
        1   -1    0    0  501    0  0.00000000000E+00  0.00000000000E+00 -0.76538937842E+03  0.76538937844E+03  0.50400001928E-02 0.  1.
    10030    2    1    2    0    0  0.00000000000E+00  0.00000000000E+00  0.67457281453E+03  0.22053515714E+04  0.20996492734E+04 0.  0.
        1    1    3    3  502    0  0.69733027611E+03  0.66773106031E+03 -0.95777834604E+02  0.97021011977E+03  0.50400001928E-02 0.  1.
       -1    1    3    3    0  502 -0.69733027611E+03 -0.66773106031E+03  0.77035064913E+03  0.12351414516E+04  0.50400001928E-02 0. -1.
</event>
<event>
 5   0  0.3574927E-06  0.2099878E+04  0.7818609E-02  0.8561297E-01
       -2   -1    0    0    0  501  0.00000000000E+00  0.00000000000E+00  0.10377668982E+04  0.10377668982E+04  0.25500000920E-02 0. -1.
        2   -1    0    0  501    0  0.00000000000E+00  0.00000000000E+00 -0.10622539790E+04  0.10622539790E+04  0.25500000920E-02 0.  1.
    10030    2    1    2    0    0  0.00000000000E+00  0.00000000000E+00 -0.24487080783E+02  0.21000208771E+04  0.20998781077E+04 0.  0.
        3    1    3    3  502    0 -0.45013035168E+03 -0.37239578930E+03  0.86021250029E+03  0.10398372532E+04  0.10100000352E+00 0. -1.
       -3    1    3    3    0  502  0.45013035168E+03  0.37239578930E+03 -0.88469958107E+03  0.10601836239E+04  0.10100000352E+00 0.  1.
</event>
<event>
 5   0  0.1653260E-06  0.2099664E+04  0.7818609E-02  0.8561391E-01
        1   -1    0    0  501    0  0.00000000000E+00  0.00000000000E+00  0.15017572131E+04  0.15017572131E+04  0.50400001928E-02 0.  1.
       -1   -1    0    0    0  501  0.00000000000E+00  0.00000000000E+00 -0.73390532297E+03  0.73390532299E+03  0.50400001928E-02 0. -1.
    10030    2    1    2    0    0  0.00000000000E+00  0.00000000000E+00  0.76785189009E+03  0.22356625361E+04  0.20996643661E+04 0.  0.
        3    1    3    3  502    0 -0.79007693380E+03  0.16759045143E+03  0.10980689004E+04  0.13631080078E+04  0.10100000352E+00 0.  1.
       -3    1    3    3    0  502  0.79007693380E+03 -0.16759045143E+03 -0.33021701028E+03  0.87255452828E+03  0.10100000352E+00 0. -1.
</event>
<event>
 5   0  0.1590067E-06  0.2096672E+04  0.7818609E-02  0.8562711E-01
       -1   -1    0    0    0  501  0.00000000000E+00  0.00000000000E+00  0.59759744274E+03  0.59759744276E+03  0.50400001928E-02 0.  1.
        1   -1    0    0  501    0  0.00000000000E+00  0.00000000000E+00 -0.18390452511E+04  0.18390452511E+04  0.50400001928E-02 0. -1.
    10030    2    1    2    0    0  0.00000000000E+00  0.00000000000E+00 -0.12414478084E+04  0.24366426939E+04  0.20966723532E+04 0.  0.
        5    1    3    3  502    0  0.30845958621E+03 -0.69004198606E+03 -0.14649274462E+04  0.16484355527E+04  0.46999998093E+01 0. -1.
       -5    1    3    3    0  502 -0.30845958621E+03  0.69004198606E+03  0.22347963783E+03  0.78820714116E+03  0.46999998093E+01 0.  1.
</event>
<event>
 5   0  0.1653260E-06  0.2100228E+04  0.7818609E-02  0.8561143E-01
        1   -1    0    0  501    0  0.00000000000E+00  0.00000000000E+00  0.20128298672E+04  0.20128298672E+04  0.50400001928E-02 0. -1.
       -1   -1    0    0    0  501  0.00000000000E+00  0.00000000000E+00 -0.54785548906E+03  0.54785548909E+03  0.50400001928E-02 0.  1.
    10030    2    1    2    0    0  0.00000000000E+00  0.00000000000E+00  0.14649743781E+04  0.25606853563E+04  0.21002284555E+04 0.  0.
        3    1    3    3  502    0  0.73201346508E+03 -0.32521587294E+03  0.15604326829E+04  0.17540123276E+04  0.10100000352E+00 0. -1.
       -3    1    3    3    0  502 -0.73201346508E+03  0.32521587294E+03 -0.95458304825E+02  0.80667302870E+03  0.10100000352E+00 0.  1.
</event>
<event>
 5   0  0.3705828E-06  0.2102876E+04  0.7818609E-02  0.8559978E-01
       -2   -1    0    0    0  501  0.00000000000E+00  0.00000000000E+00  0.86452368188E+03  0.86452368189E+03  0.25500000920E-02 0. -1.
        2   -1    0    0  501    0  0.00000000000E+00  0.00000000000E+00 -0.12787640743E+04  0.12787640743E+04  0.25500000920E-02 0.  1.
    10030    2    1    2    0    0  0.00000000000E+00  0.00000000000E+00 -0.41424039245E+03  0.21432877562E+04  0.21028759600E+04 0.  0.
        5    1    3    3  502    0  0.71747845447E+03 -0.92896924357E+02 -0.98473335091E+03  0.12219357731E+04  0.46999998093E+01 0.  1.
       -5    1    3    3    0  502 -0.71747845447E+03  0.92896924357E+02  0.57049295846E+03  0.92135198313E+03  0.46999998093E+01 0. -1.
</event>
<event>
 5   0  0.3480134E-06  0.2100536E+04  0.7818609E-02  0.8561007E-01
        2   -1    0    0  501    0  0.00000000000E+00  0.00000000000E+00  0.20712042010E+04  0.20712042010E+04  0.25500000920E-02 0.  1.
       -2   -1    0    0    0  501  0.00000000000E+00  0.00000000000E+00 -0.53257074141E+03  0.53257074142E+03  0.25500000920E-02 0. -1.
    10030    2    1    2    0    0  0.00000000000E+00  0.00000000000E+00  0.15386334596E+04  0.26037749424E+04  0.21005358906E+04 0.  0.
        1    1    3    3  502    0  0.74869094352E+03  0.25686886031E+03 -0.86388904550E+02  0.79623035810E+03  0.50400001928E-02 0. -1.
       -1    1    3    3    0  502 -0.74869094352E+03 -0.25686886031E+03  0.16250223641E+04  0.18075445843E+04  0.50400001928E-02 0.  1.
</event>
<event>
 5   0  0.3480134E-06  0.2100188E+04  0.7818609E-02  0.8561161E-01
        2   -1    0    0  501    0  0.00000000000E+00  0.00000000000E+00  0.10616426003E+04  0.10616426003E+04  0.25500000920E-02 0.  1.
       -2   -1    0    0    0  501  0.00000000000E+00  0.00000000000E+00 -0.10386707101E+04  0.10386707101E+04  0.25500000920E-02 0. -1.
    10030    2    1    2    0    0  0.00000000000E+00  0.00000000000E+00  0.22971890189E+02  0.21003133104E+04  0.21001876807E+04 0.  0.
        1    1    3    3  502    0  0.20198926514E+03 -0.47909893083E+02 -0.10179453656E+04  0.10388973907E+04  0.50400001928E-02 0. -1.
       -1    1    3    3    0  502 -0.20198926514E+03  0.47909893083E+02  0.10409172558E+04  0.10614159197E+04  0.50400001928E-02 0.  1.
</event>
<event>
 5   0  0.1579820E-06  0.2104501E+04  0.7818609E-02  0.8559263E-01
       -1   -1    0    0    0  501  0.00000000000E+00  0.00000000000E+00  0.54435604789E+03  0.54435604792E+03  0.50400001928E-02 0.  1.
        1   -1    0    0  501    0  0.00000000000E+00  0.00000000000E+00 -0.20340193226E+04  0.20340193226E+04  0.50400001928E-02 0. -1.
    10030    2    1    2    0    0  0.00000000000E+00  0.00000000000E+00 -0.14896632747E+04  0.25783753705E+04  0.21045006247E+04 0.  0.
        2    1    3    3  502    0 -0.69163752445E+03 -0.39843219389E+03  0.95211267211E+02  0.80385064768E+03  0.25500000920E-02 0.  1.
       -2    1    3    3    0  502  0.69163752445E+03  0.39843219389E+03 -0.15848745419E+04  0.17745247228E+04  0.25500000920E-02 0. -1.
</event>
<event>
 5   0  0.1579820E-06  0.2100091E+04  0.7818609E-02  0.8561203E-01
        1   -1    0    0  501    0  0.00000000000E+00  0.00000000000E+00  0.10364595493E+04  0.10364595493E+04  0.50400001928E-02 0.  1.
       -1   -1    0    0    0  501  0.00000000000E+00  0.00000000000E+00 -0.10638097497E+04  0.10638097497E+04  0.50400001928E-02 0. -1.
    10030    2    1    2    0    0  0.00000000000E+00  0.00000000000E+00 -0.27350200405E+02  0.21002692990E+04  0.21000912110E+04 0.  0.
        2    1    3    3  502    0 -0.91539670173E+03 -0.31630043319E+03  0.39206694254E+03  0.10448509812E+04  0.25500000920E-02 0. -1.
       -2    1    3    3    0  502  0.91539670173E+03  0.31630043319E+03 -0.41941714294E+03  0.10554183177E+04  0.25500000920E-02 0.  1.
</event>
<event>
 5   0  0.3547583E-06  0.2100007E+04  0.7818609E-02  0.8561240E-01
       -2   -1    0    0    0  501  0.00000000000E+00  0.00000000000E+00  0.62029080226E+03  0.62029080226E+03  0.25500000920E-02 0. -1.
        2   -1    0    0  501    0  0.00000000000E+00  0.00000000000E+00 -0.17774037707E+04  0.17774037708E+04  0.25500000920E-02 0.  1.
    10030    2    1    2    0    0  0.00000000000E+00  0.00000000000E+00 -0.11571129685E+04  0.23976945730E+04  0.21000068675E+04 0.  0.
        2    1    3    3  502    0 -0.24545085623E+03  0.99669709647E+03 -0.83092317700E+03  0.13206379334E+04  0.25500000920E-02 0.  1.
       -2    1    3    3    0  502  0.24545085623E+03 -0.99669709647E+03 -0.32618979149E+03  0.10770566397E+04  0.25500000920E-02 0. -1.
</event>
<event>
 5   0  0.1590067E-06  0.2100448E+04  0.7818609E-02  0.8561046E-01
       -1   -1    0    0    0  501  0.00000000000E+00  0.00000000000E+00  0.61663585455E+03  0.61663585457E+03  0.50400001928E-02 0.  1.
        1   -1    0    0  501    0  0.00000000000E+00  0.00000000000E+00 -0.17886892626E+04  0.17886892626E+04  0.50400001928E-02 0. -1.
    10030    2    1    2    0    0  0.00000000000E+00  0.00000000000E+00 -0.11720534081E+04  0.24053251172E+04  0.21004475066E+04 0.  0.
        5    1    3    3  502    0  0.17204873558E+03  0.44416103029E+03 -0.16578689635E+04  0.17249438769E+04  0.46999998093E+01 0. -1.
       -5    1    3    3    0  502 -0.17204873558E+03 -0.44416103029E+03  0.48581555545E+03  0.68038124030E+03  0.46999998093E+01 0.  1.
</event>
<event>
 5   0  0.1646510E-06  0.2109179E+04  0.7818609E-02  0.8557211E-01
       -1   -1    0    0    0  501  0.00000000000E+00  0.00000000000E+00  0.72009497155E+03  0.72009497157E+03  0.50400001928E-02 0. -1.
        1   -1    0    0  501    0  0.00000000000E+00  0.00000000000E+00 -0.15444621150E+04  0.15444621150E+04  0.50400001928E-02 0.  1.
    10030    2    1    2    0    0  0.00000000000E+00  0.00000000000E+00 -0.82436714341E+03  0.22645570865E+04  0.21091793691E+04 0.  0.
        4    1    3    3  502    0  0.10365093537E+04  0.57041355574E+02 -0.61175992267E+03  0.12049303600E+04  0.12699999809E+01 0.  1.
       -4    1    3    3    0  502 -0.10365093537E+04 -0.57041355574E+02 -0.21260722074E+03  0.10596267266E+04  0.12699999809E+01 0. -1.
</event>
<event>
 5   0  0.1653260E-06  0.2097006E+04  0.7818609E-02  0.8562563E-01
        1   -1    0    0  501    0  0.00000000000E+00  0.00000000000E+00  0.11772849328E+04  0.11772849328E+04  0.50400001928E-02 0. -1.
       -1   -1    0    0    0  501  0.00000000000E+00  0.00000000000E+00 -0.93380868083E+03  0.93380868085E+03  0.50400001928E-02 0.  1.
    10030    2    1    2    0    0  0.00000000000E+00  0.00000000000E+00  0.24347625192E+03  0.21110936136E+04  0.20970063329E+04 0.  0.
        3    1    3    3  502    0  0.10420363317E+03 -0.10286490429E+04 -0.53736077676E+02  0.10353090489E+04  0.10100000352E+00 0. -1.
       -3    1    3    3    0  502 -0.10420363317E+03  0.10286490429E+04  0.29721232960E+03  0.10757845647E+04  0.10100000352E+00 0.  1.
</event>
<event>
 5   0  0.1590067E-06  0.2101018E+04  0.7818609E-02  0.8560795E-01
       -1   -1    0    0    0  501  0.00000000000E+00  0.00000000000E+00  0.61884621931E+03  0.61884621933E+03  0.50400001928E-02 0.  1.
        1   -1    0    0  501    0  0.00000000000E+00  0.00000000000E+00 -0.17832683592E+04  0.17832683592E+04  0.50400001928E-02 0. -1.
    10030    2    1    2    0    0  0.00000000000E+00  0.00000000000E+00 -0.11644221399E+04  0.24021145786E+04  0.21010177364E+04 0.  0.
        5    1    3    3  502    0  0.79046340621E+03 -0.36859089542E+03 -0.12516629066E+04  0.15255732583E+04  0.46999998093E+01 0. -1.
       -5    1    3    3    0  502 -0.79046340621E+03  0.36859089542E+03  0.87240766677E+02  0.87654132025E+03  0.46999998093E+01 0.  1.
</event>
<event>
 5   0  0.3547583E-06  0.2099452E+04  0.7818609E-02  0.8561485E-01
        2   -1    0    0  501    0  0.00000000000E+00  0.00000000000E+00  0.18631629275E+04  0.18631629275E+04  0.25500000920E-02 0. -1.
       -2   -1    0    0    0  501  0.00000000000E+00  0.00000000000E+00 -0.59142699565E+03  0.59142699566E+03  0.25500000920E-02 0.  1.
    10030    2    1    2    0    0  0.00000000000E+00  0.00000000000E+00  0.12717359319E+04  0.24545899232E+04  0.20994521692E+04 0.  0.
        2    1    3    3  502    0  0.33838093312E+02  0.89643633273E+03 -0.14908846300E+01  0.89707599340E+03  0.25500000920E-02 0.  1.
       -2    1    3    3    0  502 -0.33838093312E+02 -0.89643633273E+03  0.12732268165E+04  0.15575139298E+04  0.25500000920E-02 0. -1.
</event>
<event>
 5   0  0.3547583E-06  0.2101452E+04  0.7818609E-02  0.8560604E-01
        2   -1    0    0  501    0  0.00000000000E+00  0.00000000000E+00  0.16614677912E+04  0.16614677912E+04  0.25500000920E-02 0. -1.
       -2   -1    0    0    0  501  0.00000000000E+00  0.00000000000E+00 -0.66448810541E+03  0.66448810542E+03  0.25500000920E-02 0.  1.
    10030    2    1    2    0    0  0.00000000000E+00  0.00000000000E+00  0.99697968583E+03  0.23259558967E+04  0.21014524356E+04 0.  0.
        2    1    3    3  502    0  0.41602281424E+03  0.59655024938E+02  0.15643827095E+04  0.16198539952E+04  0.25500000920E-02 0. -1.
       -2    1    3    3    0  502 -0.41602281424E+03 -0.59655024938E+02 -0.56740302367E+03  0.70610190146E+03  0.25500000920E-02 0.  1.
</event>
<event>
 5   0  0.1646510E-06  0.2100664E+04  0.7818609E-02  0.8560951E-01
       -1   -1    0    0    0  501  0.00000000000E+00  0.00000000000E+00  0.77548409692E+03  0.77548409694E+03  0.50400001928E-02 0.  1.
        1   -1    0    0  501    0  0.00000000000E+00  0.00000000000E+00 -0.14225912258E+04  0.14225912258E+04  0.50400001928E-02 0. -1.
    10030    2    1    2    0    0  0.00000000000E+00  0.00000000000E+00 -0.64710712890E+03  0.21980753228E+04  0.21006635828E+04 0.  0.
        4    1    3    3  502    0  0.39463090560E+03  0.72143371132E+03  0.36019670984E+03  0.89774352360E+03  0.12699999809E+01 0.  1.
       -4    1    3    3    0  502 -0.39463090560E+03 -0.72143371132E+03 -0.10073038387E+04  0.13003317992E+04  0.12699999809E+01 0. -1.
</event>
<event>
 5   0  0.1615098E-06  0.2100066E+04  0.7818609E-02  0.8561214E-01
       -1   -1    0    0    0  501  0.00000000000E+00  0.00000000000E+00  0.87649063865E+03  0.87649063867E+03  0.50400001928E-02 0. -1.
        1   -1    0    0  501    0  0.00000000000E+00  0.00000000000E+00 -0.12579358959E+04  0.12579358959E+04  0.50400001928E-02 0.  1.
    10030    2    1    2    0    0  0.00000000000E+00  0.00000000000E+00 -0.38144525729E+03  0.21344265346E+04  0.21000657483E+04 0.  0.
        1    1    3    3  502    0 -0.67026561150E+03 -0.68098230235E+03  0.25180477533E+03  0.98812880283E+03  0.50400001928E-02 0. -1.
       -1    1    3    3    0  502  0.67026561150E+03  0.68098230235E+03 -0.63325003262E+03  0.11462977318E+04  0.50400001928E-02 0.  1.
</event>
<event>
 5   0  0.1615098E-06  0.2105135E+04  0.7818609E-02  0.8558985E-01
       -1   -1    0    0    0  501  0.00000000000E+00  0.00000000000E+00  0.14445223568E+04  0.14445223568E+04  0.50400001928E-02 0.  1.
        1   -1    0    0  501    0  0.00000000000E+00  0.00000000000E+00 -0.76696482250E+03  0.76696482251E+03  0.50400001928E-02 0. -1.
    10030    2    1    2    0    0  0.00000000000E+00  0.00000000000E+00  0.67755753432E+03  0.22114871793E+04  0.21051345164E+04 0.  0.
        1    1    3    3  502    0 -0.12986897653E+03  0.56217632961E+03 -0.58603125362E+03  0.82239942053E+03  0.50400001928E-02 0. -1.
       -1    1    3    3    0  502  0.12986897653E+03 -0.56217632961E+03  0.12635887879E+04  0.13890877588E+04  0.50400001928E-02 0.  1.
</event>
<event>
 5   0  0.1590067E-06  0.2100059E+04  0.7818609E-02  0.8561217E-01
       -1   -1    0    0    0  501  0.00000000000E+00  0.00000000000E+00  0.97737089423E+03  0.97737089424E+03  0.50400001928E-02 0.  1.
        1   -1    0    0  501    0  0.00000000000E+00  0.00000000000E+00 -0.11280898714E+04  0.11280898714E+04  0.50400001928E-02 0. -1.
    10030    2    1    2    0    0  0.00000000000E+00  0.00000000000E+00 -0.15071897716E+03  0.21054607656E+04  0.21000592434E+04 0.  0.
        5    1    3    3  502    0 -0.54406687572E+03  0.89066263156E+03 -0.19077041974E+03  0.10609920507E+04  0.46999998093E+01 0. -1.
       -5    1    3    3    0  502  0.54406687572E+03 -0.89066263156E+03  0.40051442571E+02  0.10444687150E+04  0.46999998093E+01 0.  1.
</event>
<event>
 5   0  0.3480134E-06  0.2100219E+04  0.7818609E-02  0.8561147E-01
        2   -1    0    0  501    0  0.00000000000E+00  0.00000000000E+00  0.14205983558E+04  0.14205983558E+04  0.25500000920E-02 0.  1.
       -2   -1    0    0    0  501  0.00000000000E+00  0.00000000000E+00 -0.77624337826E+03  0.77624337827E+03  0.25500000920E-02 0. -1.
    10030    2    1    2    0    0  0.00000000000E+00  0.00000000000E+00  0.64435497755E+03  0.21968417341E+04  0.21002190999E+04 0.  0.
        1    1    3    3  502    0 -0.29727058579E+03 -0.45975676465E+03 -0.61514191576E+03  0.82349599899E+03  0.50400001928E-02 0. -1.
       -1    1    3    3    0  502  0.29727058579E+03  0.45975676465E+03  0.12594968933E+04  0.13733457351E+04  0.50400001928E-02 0.  1.
</event>
<event>
 5   0  0.3574927E-06  0.2109716E+04  0.7818609E-02  0.8556976E-01
        2   -1    0    0  501    0  0.00000000000E+00  0.00000000000E+00  0.12214843692E+04  0.12214843692E+04  0.25500000920E-02 0. -1.
       -2   -1    0    0    0  501  0.00000000000E+00  0.00000000000E+00 -0.91096123765E+03  0.91096123766E+03  0.25500000920E-02 0.  1.
    10030    2    1    2    0    0  0.00000000000E+00  0.00000000000E+00  0.31052313157E+03  0.21324456069E+04  0.21097155380E+04 0.  0.
        3    1    3    3  502    0  0.10045124721E+04  0.91910707541E+02  0.46718324050E+03  0.11116443115E+04  0.10100000352E+00 0. -1.
       -3    1    3    3    0  502 -0.10045124721E+04 -0.91910707541E+02 -0.15666010893E+03  0.10208012954E+04  0.10100000352E+00 0.  1.
</event>
<event>
 5   0  0.3480134E-06  0.2099360E+04  0.7818609E-02  0.8561525E-01
        2   -1    0    0  501    0  0.00000000000E+00  0.00000000000E+00  0.10918621603E+04  0.10918621603E+04  0.25500000920E-02 0. -1.
       -2   -1    0    0    0  501  0.00000000000E+00  0.00000000000E+00 -0.10091273399E+04  0.10091273399E+04  0.25500000920E-02 0.  1.
    10030    2    1    2    0    0  0.00000000000E+00  0.00000000000E+00  0.82734820459E+02  0.21009895002E+04  0.20993598619E+04 0.  0.
        1    1    3    3  502    0  0.54510751445E+03 -0.79940249953E+02 -0.85279988610E+03  0.10152833553E+04  0.50400001928E-02 0.  1.
       -1    1    3    3    0  502 -0.54510751445E+03  0.79940249953E+02  0.93553470656E+03  0.10857061449E+04  0.50400001928E-02 0. -1.
</event>
<event>
 5   0  0.3574927E-06  0.2099997E+04  0.7818609E-02  0.8561245E-01
       -2   -1    0    0    0  501  0.00000000000E+00  0.00000000000E+00  0.12317909526E+04  0.12317909526E+04  0.25500000920E-02 0.  1.
        2   -1    0    0  501    0  0.00000000000E+00  0.00000000000E+00 -0.89503593814E+03  0.89503593814E+03  0.25500000920E-02 0. -1.
    10030    2    1    2    0    0  0.00000000000E+00  0.00000000000E+00  0.33675501448E+03  0.21268268908E+04  0.20999973056E+04 0.  0.
        3    1    3    3  502    0 -0.64250148416E+03 -0.79349014106E+03 -0.79829903787E+02  0.10241130723E+04  0.10100000352E+00 0. -1.
       -3    1    3    3    0  502  0.64250148416E+03  0.79349014106E+03  0.41658491827E+03  0.11027138185E+04  0.10100000352E+00 0.  1.
</event>
<event>
 5   0  0.3705828E-06  0.2101073E+04  0.7818609E-02  0.8560771E-01
        2   -1    0    0  501    0  0.00000000000E+00  0.00000000000E+00  0.47352290989E+03  0.47352290989E+03  0.25500000920E-02 0.  1.
       -2   -1    0    0    0  501  0.00000000000E+00  0.00000000000E+00 -0.23306728498E+04  0.23306728498E+04  0.25500000920E-02 0. -1.
    10030    2    1    2    0    0  0.00000000000E+00  0.00000000000E+00 -0.18571499399E+04  0.28041957597E+04  0.21010730495E+04 0.  0.
        5    1    3    3  502    0  0.13284440594E+03  0.87079458343E+03 -0.16458403526E+03  0.89612545850E+03  0.46999998093E+01 0.  1.
       -5    1    3    3    0  502 -0.13284440594E+03 -0.87079458343E+03 -0.16925659047E+04  0.19080703012E+04  0.46999998093E+01 0. -1.
</event>
<event>
 5   0  0.1257125E-06  0.2099804E+04  0.7818609E-02  0.8561330E-01
        4   -1    0    0  501    0  0.00000000000E+00  0.00000000000E+00  0.21907940032E+04  0.21907943713E+04  0.12699999809E+01 0. -1.
       -4   -1    0    0    0  501  0.00000000000E+00  0.00000000000E+00 -0.50314719905E+03  0.50314880186E+03  0.12699999809E+01 0.  1.
    10030    2    1    2    0    0  0.00000000000E+00  0.00000000000E+00  0.16876468041E+04  0.26939431731E+04  0.20998042967E+04 0.  0.
        5    1    3    3  502    0  0.87824166207E+03  0.54285490237E+03  0.10881657647E+04  0.15000422272E+04  0.46999998093E+01 0.  1.
       -5    1    3    3    0  502 -0.87824166207E+03 -0.54285490237E+03  0.59948103944E+03  0.11939009459E+04  0.46999998093E+01 0. -1.
</event>
<event>
 5   0  0.1653260E-06  0.2099347E+04  0.7818609E-02  0.8561531E-01
       -1   -1    0    0    0  501  0.00000000000E+00  0.00000000000E+00  0.83093244110E+03  0.83093244111E+03  0.50400001928E-02 0. -1.
        1   -1    0    0  501    0  0.00000000000E+00  0.00000000000E+00 -0.13259980985E+04  0.13259980985E+04  0.50400001928E-02 0.  1.
    10030    2    1    2    0    0  0.00000000000E+00  0.00000000000E+00 -0.49506565742E+03  0.21569305396E+04  0.20993473623E+04 0.  0.
        3    1    3    3  502    0 -0.47903141569E+03  0.91996851900E+03 -0.41320605871E+03  0.11164911242E+04  0.10100000352E+00 0.  1.
       -3    1    3    3    0  502  0.47903141569E+03 -0.91996851900E+03 -0.81859598713E+02  0.10404394155E+04  0.10100000352E+00 0. -1.
</event>
<event>
 5   0  0.3480134E-06  0.2100332E+04  0.7818609E-02  0.8561097E-01
       -2   -1    0    0    0  501  0.00000000000E+00  0.00000000000E+00  0.45962527590E+03  0.45962527591E+03  0.25500000920E-02 0.  1.
        2   -1    0    0  501    0  0.00000000000E+00  0.00000000000E+00 -0.23994526074E+04  0.23994526074E+04  0.25500000920E-02 0. -1.
    10030    2    1    2    0    0  0.00000000000E+00  0.00000000000E+00 -0.19398273315E+04  0.28590778833E+04  0.21003324182E+04 0.  0.
        1    1    3    3  502    0  0.12274179455E+03  0.10400562405E+04 -0.86388865948E+03  0.13576030891E+04  0.50400001928E-02 0.  1.
       -1    1    3    3    0  502 -0.12274179455E+03 -0.10400562405E+04 -0.10759386720E+04  0.15014747942E+04  0.50400001928E-02 0. -1.
</event>
<event>
 5   0  0.1653260E-06  0.2100167E+04  0.7818609E-02  0.8561170E-01
       -1   -1    0    0    0  501  0.00000000000E+00  0.00000000000E+00  0.13476720418E+04  0.13476720418E+04  0.50400001928E-02 0.  1.
        1   -1    0    0  501    0  0.00000000000E+00  0.00000000000E+00 -0.81820713627E+03  0.81820713629E+03  0.50400001928E-02 0. -1.
    10030    2    1    2    0    0  0.00000000000E+00  0.00000000000E+00  0.52946490549E+03  0.21658791781E+04  0.21001665476E+04 0.  0.
        3    1    3    3  502    0 -0.42510960763E+03  0.93095934535E+03  0.22277709317E+02  0.10236697650E+04  0.10100000352E+00 0.  1.
       -3    1    3    3    0  502  0.42510960763E+03 -0.93095934535E+03  0.50718719617E+03  0.11422094131E+04  0.10100000352E+00 0. -1.
</event>
<event>
 5   0  0.1579820E-06  0.2099276E+04  0.7818609E-02  0.8561563E-01
        1   -1    0    0  501    0  0.00000000000E+00  0.00000000000E+00  0.10151801787E+04  0.10151801787E+04  0.50400001928E-02 0.  1.
       -1   -1    0    0    0  501  0.00000000000E+00  0.00000000000E+00 -0.10852650422E+04  0.10852650422E+04  0.50400001928E-02 0. -1.
    10030    2    1    2    0    0  0.00000000000E+00  0.00000000000E+00 -0.70084863459E+02  0.21004452209E+04  0.20992756460E+04 0.  0.
        2    1    3    3  502    0  0.99051692111E+03 -0.34692348797E+03 -0.51172267406E+02  0.10507608093E+04  0.25500000920E-02 0.  1.
       -2    1    3    3    0  502 -0.99051692111E+03  0.34692348797E+03 -0.18912596053E+02  0.10496844115E+04  0.25500000920E-02 0. -1.
</event>
<event>
 5   0  0.1646510E-06  0.2099928E+04  0.7818609E-02  0.8561275E-01
       -1   -1    0    0    0  501  0.00000000000E+00  0.00000000000E+00  0.63902180987E+03  0.63902180989E+03  0.50400001928E-02 0. -1.
        1   -1    0    0  501    0  0.00000000000E+00  0.00000000000E+00 -0.17251746746E+04  0.17251746746E+04  0.50400001928E-02 0.  1.
    10030    2    1    2    0    0  0.00000000000E+00  0.00000000000E+00 -0.10861528647E+04  0.23641964845E+04  0.20999278492E+04 0.  0.
        4    1    3    3  502    0  0.53011171577E+03  0.30933903929E+03  0.41601897703E+03  0.74147317859E+03  0.12699999809E+01 0. -1.
       -4    1    3    3    0  502 -0.53011171577E+03 -0.30933903929E+03 -0.15021718417E+04  0.16227233059E+04  0.12699999809E+01 0.  1.
</event>
<event>
 5   0  0.3636435E-06  0.2100344E+04  0.7818609E-02  0.8561092E-01
        2   -1    0    0  501    0  0.00000000000E+00  0.00000000000E+00  0.10613938557E+04  0.10613938557E+04  0.25500000920E-02 0.  1.
       -2   -1    0    0    0  501  0.00000000000E+00  0.00000000000E+00 -0.10390684384E+04  0.10390684384E+04  0.25500000920E-02 0. -1.
    10030    2    1    2    0    0  0.00000000000E+00  0.00000000000E+00  0.22325417266E+02  0.21004622941E+04  0.21003436444E+04 0.  0.
        4    1    3    3  502    0 -0.53962886612E+03 -0.35181984235E+03 -0.81827110345E+03  0.10414152516E+04  0.12699999809E+01 0. -1.
       -4    1    3    3    0  502  0.53962886612E+03  0.35181984235E+03  0.84059652072E+03  0.10590470425E+04  0.12699999809E+01 0.  1.
</event>
<event>
 5   0  0.1590067E-06  0.2114917E+04  0.7818609E-02  0.8554701E-01
       -1   -1    0    0    0  501  0.00000000000E+00  0.00000000000E+00  0.86689426574E+03  0.86689426576E+03  0.50400001928E-02 0.  1.
        1   -1    0    0  501    0  0.00000000000E+00  0.00000000000E+00 -0.12899135570E+04  0.12899135570E+04  0.50400001928E-02 0. -1.
    10030    2    1    2    0    0  0.00000000000E+00  0.00000000000E+00 -0.42301929127E+03  0.21568078228E+04  0.21149171765E+04 0.  0.
        5    1    3    3  502    0 -0.10252257971E+04 -0.18883452166E+03 -0.30655051840E+02  0.10429325164E+04  0.46999998093E+01 0.  1.
       -5    1    3    3    0  502  0.10252257971E+04  0.18883452166E+03 -0.39236423943E+03  0.11138753063E+04  0.46999998093E+01 0. -1.
</event>
<event>
 5   0  0.1590067E-06  0.2099169E+04  0.7818609E-02  0.8561610E-01
        1   -1    0    0  501    0  0.00000000000E+00  0.00000000000E+00  0.15775601729E+04  0.15775601729E+04  0.50400001928E-02 0.  1.
       -1   -1    0    0    0  501  0.00000000000E+00  0.00000000000E+00 -0.69831089661E+03  0.69831089662E+03  0.50400001928E-02 0. -1.
    10030    2    1    2    0    0  0.00000000000E+00  0.00000000000E+00  0.87924927630E+03  0.22758710695E+04  0.20991688439E+04 0.  0.
        5    1    3    3  502    0  0.33713155197E+03 -0.35086319625E+02  0.15165770382E+04  0.15540002368E+04  0.46999998093E+01 0.  1.
       -5    1    3    3    0  502 -0.33713155197E+03  0.35086319625E+02 -0.63732776187E+03  0.72187083277E+03  0.46999998093E+01 0. -1.
</event>
<event>
 5   0  0.1590067E-06  0.2100042E+04  0.7818609E-02  0.8561225E-01
       -1   -1    0    0    0  501  0.00000000000E+00  0.00000000000E+00  0.96883053309E+03  0.96883053311E+03  0.50400001928E-02 0. -1.
        1   -1    0    0  501    0  0.00000000000E+00  0.00000000000E+00 -0.11380159287E+04  0.11380159287E+04  0.50400001928E-02 0.  1.
    10030    2    1    2    0    0  0.00000000000E+00  0.00000000000E+00 -0.16918539557E+03  0.21068464618E+04  0.21000424556E+04 0.  0.
        5    1    3    3  502    0  0.49588454987E+02 -0.10189564379E+04  0.16479114251E+03  0.10333970427E+04  0.46999998093E+01 0.  1.
       -5    1    3    3    0  502 -0.49588454987E+02  0.10189564379E+04 -0.33397653808E+03  0.10734494190E+04  0.46999998093E+01 0. -1.
</event>
<event>
 5   0  0.3705828E-06  0.2099833E+04  0.7818609E-02  0.8561317E-01
        2   -1    0    0  501    0  0.00000000000E+00  0.00000000000E+00  0.21521263700E+04  0.21521263700E+04  0.25500000920E-02 0.  1.
       -2   -1    0    0    0  501  0.00000000000E+00  0.00000000000E+00 -0.51220263860E+03  0.51220263860E+03  0.25500000920E-02 0. -1.
    10030    2    1    2    0    0  0.00000000000E+00  0.00000000000E+00  0.16399237314E+04  0.26643290086E+04  0.20998331413E+04 0.  0.
        5    1    3    3  502    0  0.55471075798E+03  0.83180139580E+03  0.41333213201E+03  0.10818794426E+04  0.46999998093E+01 0. -1.
       -5    1    3    3    0  502 -0.55471075798E+03 -0.83180139580E+03  0.12265915994E+04  0.15824495659E+04  0.46999998093E+01 0.  1.
</event>
<event>
 5   0  0.3480134E-06  0.2092795E+04  0.7818609E-02  0.8564424E-01
       -2   -1    0    0    0  501  0.00000000000E+00  0.00000000000E+00  0.53238250752E+03  0.53238250753E+03  0.25500000920E-02 0.  1.
        2   -1    0    0  501    0  0.00000000000E+00  0.00000000000E+00 -0.20566932919E+04  0.20566932919E+04  0.25500000920E-02 0. -1.
    10030    2    1    2    0    0  0.00000000000E+00  0.00000000000E+00 -0.15243107843E+04  0.25890757994E+04  0.20927948126E+04 0.  0.
        1    1    3    3  502    0  0.61955613777E+03  0.36645232766E+03 -0.17017373357E+04  0.18477140136E+04  0.50400001928E-02 0. -1.
       -1    1    3    3    0  502 -0.61955613777E+03 -0.36645232766E+03  0.17742655136E+03  0.74136178580E+03  0.50400001928E-02 0.  1.
</event>
<event>
 5   0  0.1579820E-06  0.2099456E+04  0.7818609E-02  0.8561483E-01
       -1   -1    0    0    0  501  0.00000000000E+00  0.00000000000E+00  0.51822964977E+03  0.51822964980E+03  0.50400001928E-02 0. -1.
        1   -1    0    0  501    0  0.00000000000E+00  0.00000000000E+00 -0.21263323096E+04  0.21263323096E+04  0.50400001928E-02 0.  1.
    10030    2    1    2    0    0  0.00000000000E+00  0.00000000000E+00 -0.16081026599E+04  0.26445619594E+04  0.20994555943E+04 0.  0.
        2    1    3    3  502    0  0.67045732148E+02  0.67006568080E+03  0.21028907905E+03  0.70548185204E+03  0.25500000920E-02 0. -1.
       -2    1    3    3    0  502 -0.67045732148E+02 -0.67006568080E+03 -0.18183917389E+04  0.19390801074E+04  0.25500000920E-02 0.  1.
</event>
<event>
 5   0  0.1257125E-06  0.2100362E+04  0.7818609E-02  0.8561084E-01
       -4   -1    0    0    0  501  0.00000000000E+00  0.00000000000E+00  0.88814516875E+03  0.88814607677E+03  0.12699999809E+01 0. -1.
        4   -1    0    0  501    0  0.00000000000E+00  0.00000000000E+00 -0.12417775220E+04  0.12417781714E+04  0.12699999809E+01 0.  1.
    10030    2    1    2    0    0  0.00000000000E+00  0.00000000000E+00 -0.35363235322E+03  0.21299242482E+04  0.21003622215E+04 0.  0.
        3    1    3    3  502    0 -0.79979480404E+03 -0.16502278109E+03  0.49276202233E+03  0.95379173182E+03  0.10100000352E+00 0. -1.
       -3    1    3    3    0  502  0.79979480404E+03  0.16502278109E+03 -0.84639437555E+03  0.11761325163E+04  0.10100000352E+00 0.  1.
</event>
<event>
 5   0  0.3480134E-06  0.2099853E+04  0.7818609E-02  0.8561308E-01
       -2   -1    0    0    0  501  0.00000000000E+00  0.00000000000E+00  0.12559159542E+04  0.12559159542E+04  0.25500000920E-02 0. -1.
        2   -1    0    0  501    0  0.00000000000E+00  0.00000000000E+00 -0.87772279900E+03  0.87772279900E+03  0.25500000920E-02 0.  1.
    10030    2    1    2    0    0  0.00000000000E+00  0.00000000000E+00  0.37819315519E+03  0.21336387532E+04  0.20998533917E+04 0.  0.
        1    1    3    3  502    0 -0.10155900580E+04  0.22613937331E+03  0.33201483110E+03  0.10921520179E+04  0.50400001928E-02 0.  1.
       -1    1    3    3    0  502  0.10155900580E+04 -0.22613937331E+03  0.46178324095E+02  0.10414867353E+04  0.50400001928E-02 0. -1.
</event>
<event>
 5   0  0.1257125E-06  0.2100066E+04  0.7818609E-02  0.8561214E-01
       -3   -1    0    0    0  501  0.00000000000E+00  0.00000000000E+00  0.16306030371E+04  0.16306030403E+04  0.10100000352E+00 0.  1.
        3   -1    0    0  501    0  0.00000000000E+00  0.00000000000E+00 -0.67617275575E+03  0.67617276330E+03  0.10100000352E+00 0. -1.
    10030    2    1    2    0    0  0.00000000000E+00  0.00000000000E+00  0.95443028138E+03  0.23067758036E+04  0.21000660575E+04 0.  0.
        5    1    3    3  502    0 -0.65918686352E+03 -0.27030306458E+03 -0.37004140024E+03  0.80283484954E+03  0.46999998093E+01 0. -1.
       -5    1    3    3    0  502  0.65918686352E+03  0.27030306458E+03  0.13244716816E+04  0.15039409540E+04  0.46999998093E+01 0.  1.
</event>
<event>
 5   0  0.3480134E-06  0.2100712E+04  0.7818609E-02  0.8560930E-01
       -2   -1    0    0    0  501  0.00000000000E+00  0.00000000000E+00  0.97340334243E+03  0.97340334244E+03  0.25500000920E-02 0. -1.
        2   -1    0    0  501    0  0.00000000000E+00  0.00000000000E+00 -0.11333922377E+04  0.11333922377E+04  0.25500000920E-02 0.  1.
    10030    2    1    2    0    0  0.00000000000E+00  0.00000000000E+00 -0.15998889522E+03  0.21067955801E+04  0.21007120625E+04 0.  0.
        1    1    3    3  502    0 -0.29371030064E+03 -0.47178856967E+03 -0.97386541196E+03  0.11212778584E+04  0.50400001928E-02 0.  1.
       -1    1    3    3    0  502  0.29371030064E+03  0.47178856967E+03  0.81387651674E+03  0.98551772166E+03  0.50400001928E-02 0. -1.
</event>
<event>
 5   0  0.3574927E-06  0.2102297E+04  0.7818609E-02  0.8560232E-01
        2   -1    0    0  501    0  0.00000000000E+00  0.00000000000E+00  0.16790959113E+04  0.16790959113E+04  0.25500000920E-02 0. -1.
       -2   -1    0    0    0  501  0.00000000000E+00  0.00000000000E+00 -0.65804033094E+03  0.65804033095E+03  0.25500000920E-02 0.  1.
    10030    2    1    2    0    0  0.00000000000E+00  0.00000000000E+00  0.10210555803E+04  0.23371362422E+04  0.21022966766E+04 0.  0.
        3    1    3    3  502    0  0.43015633954E+03  0.60624958349E+03  0.13367430076E+04  0.15295276762E+04  0.10100000352E+00 0. -1.
       -3    1    3    3    0  502 -0.43015633954E+03 -0.60624958349E+03 -0.31568742722E+03  0.80760856598E+03  0.10100000352E+00 0.  1.
</event>
<event>
 5   0  0.1646510E-06  0.2100538E+04  0.7818609E-02  0.8561006E-01
        1   -1    0    0  501    0  0.00000000000E+00  0.00000000000E+00  0.17151702608E+04  0.17151702608E+04  0.50400001928E-02 0. -1.
       -1   -1    0    0    0  501  0.00000000000E+00  0.00000000000E+00 -0.64312285534E+03  0.64312285536E+03  0.50400001928E-02 0.  1.
    10030    2    1    2    0    0  0.00000000000E+00  0.00000000000E+00  0.10720474055E+04  0.23582931162E+04  0.21005382125E+04 0.  0.
        4    1    3    3  502    0  0.38731407991E+03 -0.59151557125E+03  0.14079579190E+04  0.15755157829E+04  0.12699999809E+01 0. -1.
       -4    1    3    3    0  502 -0.38731407991E+03  0.59151557125E+03 -0.33591051352E+03  0.78277733330E+03  0.12699999809E+01 0.  1.
</event>
<event>
 5   0  0.1646510E-06  0.2100415E+04  0.7818609E-02  0.8561061E-01
        1   -1    0    0  501    0  0.00000000000E+00  0.00000000000E+00  0.12798771801E+04  0.12798771801E+04  0.50400001928E-02 0. -1.
       -1   -1    0    0    0  501  0.00000000000E+00  0.00000000000E+00 -0.86175114547E+03  0.86175114549E+03  0.50400001928E-02 0.  1.
    10030    2    1    2    0    0  0.00000000000E+00  0.00000000000E+00  0.41812603465E+03  0.21416283256E+04  0.21004148410E+04 0.  0.
        4    1    3    3  502    0  0.41140572340E+03 -0.48739090485E+03  0.10597778941E+04  0.12369055587E+04  0.12699999809E+01 0. -1.
       -4    1    3    3    0  502 -0.41140572340E+03  0.48739090485E+03 -0.64165185945E+03  0.90472276694E+03  0.12699999809E+01 0.  1.
</event>
<event>
 5   0  0.1615098E-06  0.2099722E+04  0.7818609E-02  0.8561366E-01
       -1   -1    0    0    0  501  0.00000000000E+00  0.00000000000E+00  0.12895315040E+04  0.12895315040E+04  0.50400001928E-02 0.  1.
        1   -1    0    0  501    0  0.00000000000E+00  0.00000000000E+00 -0.85473515986E+03  0.85473515988E+03  0.50400001928E-02 0. -1.
    10030    2    1    2    0    0  0.00000000000E+00  0.00000000000E+00  0.43479634414E+03  0.21442666639E+04  0.20997218066E+04 0.  0.
        1    1    3    3  502    0 -0.72755093779E+02  0.55869652254E+03 -0.68726936940E+03  0.88869246318E+03  0.50400001928E-02 0. -1.
       -1    1    3    3    0  502  0.72755093779E+02 -0.55869652254E+03  0.11220657135E+04  0.12555742007E+04  0.50400001928E-02 0.  1.
</event>
<event>
 5   0  0.3705828E-06  0.2100281E+04  0.7818609E-02  0.8561120E-01
        2   -1    0    0  501    0  0.00000000000E+00  0.00000000000E+00  0.10731579434E+04  0.10731579434E+04  0.25500000920E-02 0. -1.
       -2   -1    0    0    0  501  0.00000000000E+00  0.00000000000E+00 -0.10276168741E+04  0.10276168741E+04  0.25500000920E-02 0.  1.
    10030    2    1    2    0    0  0.00000000000E+00  0.00000000000E+00  0.45541069323E+02  0.21007748176E+04  0.21002811348E+04 0.  0.
        5    1    3    3  502    0 -0.74312598576E+02  0.94905328465E+03  0.46621278844E+03  0.10600004498E+04  0.46999998093E+01 0. -1.
       -5    1    3    3    0  502  0.74312598576E+02 -0.94905328465E+03 -0.42067171912E+03  0.10407743678E+04  0.46999998093E+01 0.  1.
</event>
<event>
 5   0  0.1615098E-06  0.2100254E+04  0.7818609E-02  0.8561131E-01
       -1   -1    0    0    0  501  0.00000000000E+00  0.00000000000E+00  0.18801659536E+04  0.18801659536E+04  0.50400001928E-02 0.  1.
        1   -1    0    0  501    0  0.00000000000E+00  0.00000000000E+00 -0.58652629544E+03  0.58652629546E+03  0.50400001928E-02 0. -1.
    10030    2    1    2    0    0  0.00000000000E+00  0.00000000000E+00  0.12936396582E+04  0.24666922491E+04  0.21002540528E+04 0.  0.
        1    1    3    3  502    0  0.48485154380E+03 -0.65711897324E+03  0.14222216413E+04  0.16400002321E+04  0.50400001928E-02 0.  1.
       -1    1    3    3    0  502 -0.48485154380E+03  0.65711897324E+03 -0.12858198307E+03  0.82669201696E+03  0.50400001928E-02 0. -1.
</event>
<event>
 5   0  0.3705828E-06  0.2100211E+04  0.7818609E-02  0.8561151E-01
       -2   -1    0    0    0  501  0.00000000000E+00  0.00000000000E+00  0.11041515665E+04  0.11041515665E+04  0.25500000920E-02 0. -1.
        2   -1    0    0  501    0  0.00000000000E+00  0.00000000000E+00 -0.99870456748E+03  0.99870456748E+03  0.25500000920E-02 0.  1.
    10030    2    1    2    0    0  0.00000000000E+00  0.00000000000E+00  0.10544699905E+03  0.21028561340E+04  0.21002106682E+04 0.  0.
        5    1    3    3  502    0  0.61176258492E+02  0.91990112218E+03  0.55608780409E+03  0.10766690973E+04  0.46999998093E+01 0. -1.
       -5    1    3    3    0  502 -0.61176258492E+02 -0.91990112218E+03 -0.45064080503E+03  0.10261870367E+04  0.46999998093E+01 0.  1.
</event>
<event>
 5   0  0.3480134E-06  0.2104159E+04  0.7818609E-02  0.8559414E-01
       -2   -1    0    0    0  501  0.00000000000E+00  0.00000000000E+00  0.10466854621E+04  0.10466854621E+04  0.25500000920E-02 0.  1.
        2   -1    0    0  501    0  0.00000000000E+00  0.00000000000E+00 -0.10575009622E+04  0.10575009622E+04  0.25500000920E-02 0. -1.
    10030    2    1    2    0    0  0.00000000000E+00  0.00000000000E+00 -0.10815500056E+02  0.21041864243E+04  0.21041586284E+04 0.  0.
        1    1    3    3  502    0  0.10450342337E+04 -0.10643220340E+03 -0.64115593034E+02  0.10523949700E+04  0.50400001928E-02 0.  1.
       -1    1    3    3    0  502 -0.10450342337E+04  0.10643220340E+03  0.53300092978E+02  0.10517914544E+04  0.50400001928E-02 0. -1.
</event>
<event>
 5   0  0.3636435E-06  0.2100363E+04  0.7818609E-02  0.8561084E-01
        2   -1    0    0  501    0  0.00000000000E+00  0.00000000000E+00  0.17628477298E+04  0.17628477298E+04  0.25500000920E-02 0.  1.
       -2   -1    0    0    0  501  0.00000000000E+00  0.00000000000E+00 -0.62562447465E+03  0.62562447465E+03  0.25500000920E-02 0. -1.
    10030    2    1    2    0    0  0.00000000000E+00  0.00000000000E+00  0.11372232552E+04  0.23884722045E+04  0.21003625257E+04 0.  0.
        4    1    3    3  502    0  0.58510071897E+03 -0.49993094843E+03 -0.24397295088E+03  0.80734021218E+03  0.12699999809E+01 0. -1.
       -4    1    3    3    0  502 -0.58510071897E+03  0.49993094843E+03  0.13811962060E+04  0.15811319923E+04  0.12699999809E+01 0.  1.
</event>
<event>
 5   0  0.3705828E-06  0.2099891E+04  0.7818609E-02  0.8561291E-01
       -2   -1    0    0    0  501  0.00000000000E+00  0.00000000000E+00  0.10088003420E+04  0.10088003420E+04  0.25500000920E-02 0. -1.
        2   -1    0    0  501    0  0.00000000000E+00  0.00000000000E+00 -0.10927688475E+04  0.10927688475E+04  0.25500000920E-02 0.  1.
    10030    2    1    2    0    0  0.00000000000E+00  0.00000000000E+00 -0.83968505501E+02  0.21015691895E+04  0.20998910325E+04 0.  0.
        5    1    3    3  502    0  0.99501217553E+03  0.18697934321E+03  0.23636207418E+03  0.10396632264E+04  0.46999998093E+01 0. -1.
       -5    1    3    3    0  502 -0.99501217553E+03 -0.18697934321E+03 -0.32033057968E+03  0.10619059631E+04  0.46999998093E+01 0.  1.
</event>
<event>
 5   0  0.1646510E-06  0.2098943E+04  0.7818609E-02  0.8561709E-01
       -1   -1    0    0    0  501  0.00000000000E+00  0.00000000000E+00  0.49147975102E+03  0.49147975105E+03  0.50400001928E-02 0. -1.
        1   -1    0    0  501    0  0.00000000000E+00  0.00000000000E+00 -0.22409678285E+04  0.22409678285E+04  0.50400001928E-02 0.  1.
    10030    2    1    2    0    0  0.00000000000E+00  0.00000000000E+00 -0.17494880774E+04  0.27324475795E+04  0.20989428867E+04 0.  0.
        4    1    3    3  502    0 -0.15961708127E+03 -0.15180539782E+03  0.46104480133E+03  0.51096615658E+03  0.12699999809E+01 0. -1.
       -4    1    3    3    0  502  0.15961708127E+03  0.15180539782E+03 -0.22105328788E+04  0.22214814229E+04  0.12699999809E+01 0.  1.
</event>
<event>
 5   0  0.3480134E-06  0.2099274E+04  0.7818609E-02  0.8561563E-01
       -2   -1    0    0    0  501  0.00000000000E+00  0.00000000000E+00  0.62175054688E+03  0.62175054688E+03  0.25500000920E-02 0.  1.
        2   -1    0    0  501    0  0.00000000000E+00  0.00000000000E+00 -0.17719939944E+04  0.17719939944E+04  0.25500000920E-02 0. -1.
    10030    2    1    2    0    0  0.00000000000E+00  0.00000000000E+00 -0.11502434475E+04  0.23937445413E+04  0.20992743842E+04 0.  0.
        1    1    3    3  502    0  0.32755064223E+03  0.94691009787E+03 -0.93173737360E+03  0.13682334194E+04  0.50400001928E-02 0. -1.
       -1    1    3    3    0  502 -0.32755064223E+03 -0.94691009787E+03 -0.21850607393E+03  0.10255111218E+04  0.50400001928E-02 0.  1.
</event>
<event>
 5   0  0.1646510E-06  0.2100029E+04  0.7818609E-02  0.8561231E-01
        1   -1    0    0  501    0  0.00000000000E+00  0.00000000000E+00  0.84052195825E+03  0.84052195826E+03  0.50400001928E-02 0. -1.
       -1   -1    0    0    0  501  0.00000000000E+00  0.00000000000E+00 -0.13117205510E+04  0.13117205511E+04  0.50400001928E-02 0.  1.
    10030    2    1    2    0    0  0.00000000000E+00  0.00000000000E+00 -0.47119859280E+03  0.21522425093E+04  0.21000285010E+04 0.  0.
        4    1    3    3  502    0 -0.69597441482E+03  0.75124537572E+03 -0.47326668933E+03  0.11281546759E+04  0.12699999809E+01 0. -1.
       -4    1    3    3    0  502  0.69597441482E+03 -0.75124537572E+03  0.20680965309E+01  0.10240878334E+04  0.12699999809E+01 0.  1.
</event>
<event>
 5   0  0.1579820E-06  0.2098766E+04  0.7818609E-02  0.8561787E-01
        1   -1    0    0  501    0  0.00000000000E+00  0.00000000000E+00  0.15799867068E+04  0.15799867068E+04  0.50400001928E-02 0. -1.
       -1   -1    0    0    0  501  0.00000000000E+00  0.00000000000E+00 -0.69697067263E+03  0.69697067264E+03  0.50400001928E-02 0.  1.
    10030    2    1    2    0    0  0.00000000000E+00  0.00000000000E+00  0.88301603416E+03  0.22769573794E+04  0.20987657304E+04 0.  0.
        2    1    3    3  502    0 -0.69918911006E+03 -0.21284285511E+03 -0.37544409524E+03  0.82166036856E+03  0.25500000920E-02 0.  1.
       -2    1    3    3    0  502  0.69918911006E+03  0.21284285511E+03  0.12584601294E+04  0.14552970109E+04  0.25500000920E-02 0. -1.
</event>
<event>
 5   0  0.1579820E-06  0.2099749E+04  0.7818609E-02  0.8561354E-01
        1   -1    0    0  501    0  0.00000000000E+00  0.00000000000E+00  0.11416293249E+04  0.11416293249E+04  0.50400001928E-02 0.  1.
       -1   -1    0    0    0  501  0.00000000000E+00  0.00000000000E+00 -0.96549411544E+03  0.96549411546E+03  0.50400001928E-02 0. -1.
    10030    2    1    2    0    0  0.00000000000E+00  0.00000000000E+00  0.17613520941E+03  0.21071234403E+04  0.20997489328E+04 0.  0.
        2    1    3    3  502    0 -0.57141682042E+03  0.18769875799E+03 -0.77547095638E+03  0.98137821995E+03  0.25500000920E-02 0. -1.
       -2    1    3    3    0  502  0.57141682042E+03 -0.18769875799E+03  0.95160616579E+03  0.11257452204E+04  0.25500000920E-02 0.  1.
</event>
<event>
 5   0  0.1615098E-06  0.2099763E+04  0.7818609E-02  0.8561348E-01
       -1   -1    0    0    0  501  0.00000000000E+00  0.00000000000E+00  0.66286765998E+03  0.66286765999E+03  0.50400001928E-02 0. -1.
        1   -1    0    0  501    0  0.00000000000E+00  0.00000000000E+00 -0.16628518434E+04  0.16628518434E+04  0.50400001928E-02 0.  1.
    10030    2    1    2    0    0  0.00000000000E+00  0.00000000000E+00 -0.99998418341E+03  0.23257195034E+04  0.20997625679E+04 0.  0.
        1    1    3    3  502    0 -0.96951442997E+03 -0.33710392507E+03 -0.25568062519E+03  0.10578137210E+04  0.50400001928E-02 0. -1.
       -1    1    3    3    0  502  0.96951442997E+03  0.33710392507E+03 -0.74430355821E+03  0.12679057824E+04  0.50400001928E-02 0.  1.
</event>
<event>
 5   0  0.1646510E-06  0.2100156E+04  0.7818609E-02  0.8561175E-01
       -1   -1    0    0    0  501  0.00000000000E+00  0.00000000000E+00  0.66549968892E+03  0.66549968893E+03  0.50400001928E-02 0. -1.
        1   -1    0    0  501    0  0.00000000000E+00  0.00000000000E+00 -0.16568956361E+04  0.16568956361E+04  0.50400001928E-02 0.  1.
    10030    2    1    2    0    0  0.00000000000E+00  0.00000000000E+00 -0.99139594714E+03  0.23223953250E+04  0.21001557375E+04 0.  0.
        4    1    3    3  502    0 -0.47555732305E+03 -0.89913564606E+03 -0.78419262531E+03  0.12843517291E+04  0.12699999809E+01 0.  1.
       -4    1    3    3    0  502  0.47555732305E+03  0.89913564606E+03 -0.20720332183E+03  0.10380435959E+04  0.12699999809E+01 0. -1.
</event>
<event>
 5   0  0.3636435E-06  0.2100505E+04  0.7818609E-02  0.8561021E-01
       -2   -1    0    0    0  501  0.00000000000E+00  0.00000000000E+00  0.75136144443E+03  0.75136144444E+03  0.25500000920E-02 0.  1.
        2   -1    0    0  501    0  0.00000000000E+00  0.00000000000E+00 -0.14680420378E+04  0.14680420378E+04  0.25500000920E-02 0. -1.
    10030    2    1    2    0    0  0.00000000000E+00  0.00000000000E+00 -0.71668059334E+03  0.22194034822E+04  0.21005048783E+04 0.  0.
        4    1    3    3  502    0 -0.90317275846E+03  0.40456736491E+03 -0.72985790420E+03  0.12296706704E+04  0.12699999809E+01 0. -1.
       -4    1    3    3    0  502  0.90317275846E+03 -0.40456736491E+03  0.13177310865E+02  0.98973281182E+03  0.12699999809E+01 0.  1.
</event>
<event>
 5   0  0.3636435E-06  0.2100106E+04  0.7818609E-02  0.8561197E-01
       -2   -1    0    0    0  501  0.00000000000E+00  0.00000000000E+00  0.69954258785E+03  0.69954258785E+03  0.25500000920E-02 0. -1.
        2   -1    0    0  501    0  0.00000000000E+00  0.00000000000E+00 -0.15761888137E+04  0.15761888137E+04  0.25500000920E-02 0.  1.
    10030    2    1    2    0    0  0.00000000000E+00  0.00000000000E+00 -0.87664622590E+03  0.22757314016E+04  0.21001059037E+04 0.  0.
        4    1    3    3  502    0 -0.98248352818E+02 -0.86285316514E+03 -0.10779763433E+04  0.13842698194E+04  0.12699999809E+01 0.  1.
       -4    1    3    3    0  502  0.98248352818E+02  0.86285316514E+03  0.20133011737E+03  0.89146158217E+03  0.12699999809E+01 0. -1.
</event>
<event>
 5   0  0.1590067E-06  0.2101150E+04  0.7818609E-02  0.8560737E-01
       -1   -1    0    0    0  501  0.00000000000E+00  0.00000000000E+00  0.59714648403E+03  0.59714648405E+03  0.50400001928E-02 0.  1.
        1   -1    0    0  501    0  0.00000000000E+00  0.00000000000E+00 -0.18483037356E+04  0.18483037356E+04  0.50400001928E-02 0. -1.
    10030    2    1    2    0    0  0.00000000000E+00  0.00000000000E+00 -0.12511572515E+04  0.24454502196E+04  0.21011502347E+04 0.  0.
        5    1    3    3  502    0  0.22222757960E+03  0.96112634749E+03 -0.20507611705E+03  0.10075848633E+04  0.46999998093E+01 0. -1.
       -5    1    3    3    0  502 -0.22222757960E+03 -0.96112634749E+03 -0.10460811345E+04  0.14378653563E+04  0.46999998093E+01 0.  1.
</event>
<event>
 5   0  0.3547583E-06  0.2102108E+04  0.7818609E-02  0.8560315E-01
        2   -1    0    0  501    0  0.00000000000E+00  0.00000000000E+00  0.14080426275E+04  0.14080426275E+04  0.25500000920E-02 0.  1.
       -2   -1    0    0    0  501  0.00000000000E+00  0.00000000000E+00 -0.78457474038E+03  0.78457474039E+03  0.25500000920E-02 0. -1.
    10030    2    1    2    0    0  0.00000000000E+00  0.00000000000E+00  0.62346788715E+03  0.21926173679E+04  0.21021081599E+04 0.  0.
        2    1    3    3  502    0  0.92964798543E+03 -0.39992563311E+03  0.15739622418E+02  0.10121430850E+04  0.25500000920E-02 0. -1.
       -2    1    3    3    0  502 -0.92964798543E+03  0.39992563311E+03  0.60772826473E+03  0.11804742829E+04  0.25500000920E-02 0.  1.
</event>
<event>
 5   0  0.1590067E-06  0.2097901E+04  0.7818609E-02  0.8562168E-01
        1   -1    0    0  501    0  0.00000000000E+00  0.00000000000E+00  0.14325912349E+04  0.14325912349E+04  0.50400001928E-02 0. -1.
       -1   -1    0    0    0  501  0.00000000000E+00  0.00000000000E+00 -0.76804715021E+03  0.76804715023E+03  0.50400001928E-02 0.  1.
    10030    2    1    2    0    0  0.00000000000E+00  0.00000000000E+00  0.66454408470E+03  0.22006383851E+04  0.20979014423E+04 0.  0.
        5    1    3    3  502    0 -0.22502373987E+02 -0.95847597045E+03 -0.11411791274E+03  0.96551930627E+03  0.46999998093E+01 0. -1.
       -5    1    3    3    0  502  0.22502373987E+02  0.95847597045E+03  0.77866199744E+03  0.12351190789E+04  0.46999998093E+01 0.  1.
</event>
<event>
 5   0  0.3480134E-06  0.2100540E+04  0.7818609E-02  0.8561006E-01
       -2   -1    0    0    0  501  0.00000000000E+00  0.00000000000E+00  0.13403290407E+04  0.13403290407E+04  0.25500000920E-02 0.  1.
        2   -1    0    0  501    0  0.00000000000E+00  0.00000000000E+00 -0.82298224260E+03  0.82298224260E+03  0.25500000920E-02 0. -1.
    10030    2    1    2    0    0  0.00000000000E+00  0.00000000000E+00  0.51734679809E+03  0.21633112833E+04  0.21005399303E+04 0.  0.
        1    1    3    3  502    0 -0.70589138893E+03  0.30675368591E+03  0.99465214420E+03  0.12576618642E+04  0.50400001928E-02 0.  1.
       -1    1    3    3    0  502  0.70589138893E+03 -0.30675368591E+03 -0.47730534611E+03  0.90564941905E+03  0.50400001928E-02 0. -1.
</event>
<event>
 5   0  0.3636435E-06  0.2099246E+04  0.7818609E-02  0.8561575E-01
       -2   -1    0    0    0  501  0.00000000000E+00  0.00000000000E+00  0.81073092182E+03  0.81073092182E+03  0.25500000920E-02 0.  1.
        2   -1    0    0  501    0  0.00000000000E+00  0.00000000000E+00 -0.13589081928E+04  0.13589081928E+04  0.25500000920E-02 0. -1.
    10030    2    1    2    0    0  0.00000000000E+00  0.00000000000E+00 -0.54817727098E+03  0.21696391146E+04  0.20992464284E+04 0.  0.
        4    1    3    3  502    0  0.68916438027E+03  0.71196373942E+03 -0.63191683770E+03  0.11752278128E+04  0.12699999809E+01 0.  1.
       -4    1    3    3    0  502 -0.68916438027E+03 -0.71196373942E+03  0.83739566718E+02  0.99441130184E+03  0.12699999809E+01 0. -1.
</event>
<event>
 5   0  0.1590067E-06  0.2101049E+04  0.7818609E-02  0.8560781E-01
        1   -1    0    0  501    0  0.00000000000E+00  0.00000000000E+00  0.13475498502E+04  0.13475498502E+04  0.50400001928E-02 0.  1.
       -1   -1    0    0    0  501  0.00000000000E+00  0.00000000000E+00 -0.81896948588E+03  0.81896948589E+03  0.50400001928E-02 0. -1.
    10030    2    1    2    0    0  0.00000000000E+00  0.00000000000E+00  0.52858036434E+03  0.21665193361E+04  0.21010494597E+04 0.  0.
        5    1    3    3  502    0 -0.12548080466E+03  0.41381256920E+03 -0.72293167319E+03  0.84240048010E+03  0.46999998093E+01 0. -1.
       -5    1    3    3    0  502  0.12548080466E+03 -0.41381256920E+03  0.12515120375E+04  0.13241188560E+04  0.46999998093E+01 0.  1.
</event>
<event>
 5   0  0.3636435E-06  0.2099549E+04  0.7818609E-02  0.8561442E-01
       -2   -1    0    0    0  501  0.00000000000E+00  0.00000000000E+00  0.55514266525E+03  0.55514266526E+03  0.25500000920E-02 0. -1.
        2   -1    0    0  501    0  0.00000000000E+00  0.00000000000E+00 -0.19851228489E+04  0.19851228489E+04  0.25500000920E-02 0.  1.
    10030    2    1    2    0    0  0.00000000000E+00  0.00000000000E+00 -0.14299801836E+04  0.25402655141E+04  0.20995488936E+04 0.  0.
        4    1    3    3  502    0 -0.62547051128E+03  0.39497943934E+03  0.18621240495E+03  0.76282290909E+03  0.12699999809E+01 0. -1.
       -4    1    3    3    0  502  0.62547051128E+03 -0.39497943934E+03 -0.16161925886E+04  0.17774426050E+04  0.12699999809E+01 0.  1.
</event>
<event>
 5   0  0.3705828E-06  0.2100039E+04  0.7818609E-02  0.8561226E-01
        2   -1    0    0  501    0  0.00000000000E+00  0.00000000000E+00  0.12872727370E+04  0.12872727370E+04  0.25500000920E-02 0.  1.
       -2   -1    0    0    0  501  0.00000000000E+00  0.00000000000E+00 -0.85649395211E+03  0.85649395212E+03  0.25500000920E-02 0. -1.
    10030    2    1    2    0    0  0.00000000000E+00  0.00000000000E+00  0.43077878485E+03  0.21437666891E+04  0.21000393462E+04 0.  0.
        5    1    3    3  502    0  0.82125567972E+02 -0.98171664973E+03 -0.15550359693E+03  0.99735432416E+03  0.46999998093E+01 0.  1.
       -5    1    3    3    0  502 -0.82125567972E+02  0.98171664973E+03  0.58628238178E+03  0.11464123649E+04  0.46999998093E+01 0. -1.
</event>
<event>
 5   0  0.3480134E-06  0.2099708E+04  0.7818609E-02  0.8561372E-01
        2   -1    0    0  501    0  0.00000000000E+00  0.00000000000E+00  0.11095224307E+04  0.11095224307E+04  0.25500000920E-02 0.  1.
       -2   -1    0    0    0  501  0.00000000000E+00  0.00000000000E+00 -0.99339451536E+03  0.99339451536E+03  0.25500000920E-02 0. -1.
    10030    2    1    2    0    0  0.00000000000E+00  0.00000000000E+00  0.11612791534E+03  0.21029169461E+04  0.20997080724E+04 0.  0.
        1    1    3    3  502    0 -0.98284282970E+03  0.22935597350E+03 -0.23153067891E+03  0.10354663905E+04  0.50400001928E-02 0. -1.
       -1    1    3    3    0  502  0.98284282970E+03 -0.22935597350E+03  0.34765859425E+03  0.10674505556E+04  0.50400001928E-02 0.  1.
</event>
<event>
 5   0  0.1646510E-06  0.2102524E+04  0.7818609E-02  0.8560132E-01
        1   -1    0    0  501    0  0.00000000000E+00  0.00000000000E+00  0.82971935036E+03  0.82971935038E+03  0.50400001928E-02 0.  1.
       -1   -1    0    0    0  501  0.00000000000E+00  0.00000000000E+00 -0.13319589639E+04  0.13319589639E+04  0.50400001928E-02 0. -1.
    10030    2    1    2    0    0  0.00000000000E+00  0.00000000000E+00 -0.50223961349E+03  0.21616783142E+04  0.21025243173E+04 0.  0.
        4    1    3    3  502    0  0.24060022777E+03 -0.78716859259E+03  0.42121087063E+03  0.92463131744E+03  0.12699999809E+01 0.  1.
       -4    1    3    3    0  502 -0.24060022777E+03  0.78716859259E+03 -0.92345048413E+03  0.12370469968E+04  0.12699999809E+01 0. -1.
</event>
<event>
 5   0  0.3480134E-06  0.2100912E+04  0.7818609E-02  0.8560842E-01
        2   -1    0    0  501    0  0.00000000000E+00  0.00000000000E+00  0.11621895584E+04  0.11621895585E+04  0.25500000920E-02 0. -1.
       -2   -1    0    0    0  501  0.00000000000E+00  0.00000000000E+00 -0.94946461855E+03  0.94946461856E+03  0.25500000920E-02 0.  1.
    10030    2    1    2    0    0  0.00000000000E+00  0.00000000000E+00  0.21272493990E+03  0.21116541770E+04  0.21009120551E+04 0.  0.
        1    1    3    3  502    0  0.76831105798E+03 -0.43339392073E+03  0.67965212471E+03  0.11135794462E+04  0.50400001928E-02 0. -1.
       -1    1    3    3    0  502 -0.76831105798E+03  0.43339392073E+03 -0.46692718481E+03  0.99807473081E+03  0.50400001928E-02 0.  1.
</event>
<event>
 5   0  0.1579820E-06  0.2099572E+04  0.7818609E-02  0.8561432E-01
        1   -1    0    0  501    0  0.00000000000E+00  0.00000000000E+00  0.85638992674E+03  0.85638992675E+03  0.50400001928E-02 0. -1.
       -1   -1    0    0    0  501  0.00000000000E+00  0.00000000000E+00 -0.12868557360E+04  0.12868557360E+04  0.50400001928E-02 0.  1.
    10030    2    1    2    0    0  0.00000000000E+00  0.00000000000E+00 -0.43046580928E+03  0.21432456628E+04  0.20995716606E+04 0.  0.
        2    1    3    3  502    0  0.74042084118E+03  0.51331122684E+03  0.33480653242E+03  0.96114871472E+03  0.25500000920E-02 0. -1.
       -2    1    3    3    0  502 -0.74042084118E+03 -0.51331122684E+03 -0.76527234170E+03  0.11820969481E+04  0.25500000920E-02 0.  1.
</event>
<event>
 5   0  0.3574927E-06  0.2099109E+04  0.7818609E-02  0.8561636E-01
        2   -1    0    0  501    0  0.00000000000E+00  0.00000000000E+00  0.11090107226E+04  0.11090107226E+04  0.25500000920E-02 0. -1.
       -2   -1    0    0    0  501  0.00000000000E+00  0.00000000000E+00 -0.99328578132E+03  0.99328578132E+03  0.25500000920E-02 0.  1.
    10030    2    1    2    0    0  0.00000000000E+00  0.00000000000E+00  0.11572494131E+03  0.21022965039E+04  0.20991089368E+04 0.  0.
        3    1    3    3  502    0  0.53890078756E+03  0.69491592885E+03  0.63165687272E+03  0.10827338648E+04  0.10100000352E+00 0. -1.
       -3    1    3    3    0  502 -0.53890078756E+03 -0.69491592885E+03 -0.51593193142E+03  0.10195626391E+04  0.10100000352E+00 0.  1.
</event>
<event>
 5   0  0.1646510E-06  0.2106108E+04  0.7818609E-02  0.8558558E-01
       -1   -1    0    0    0  501  0.00000000000E+00  0.00000000000E+00  0.99368852470E+03  0.99368852471E+03  0.50400001928E-02 0.  1.
        1   -1    0    0  501    0  0.00000000000E+00  0.00000000000E+00 -0.11159661327E+04  0.11159661328E+04  0.50400001928E-02 0. -1.
    10030    2    1    2    0    0  0.00000000000E+00  0.00000000000E+00 -0.12227760804E+03  0.21096546575E+04  0.21061080125E+04 0.  0.
        4    1    3    3  502    0 -0.19555751171E+03 -0.44321168355E+03  0.87544471169E+03  0.10005420496E+04  0.12699999809E+01 0.  1.
       -4    1    3    3    0  502  0.19555751171E+03  0.44321168355E+03 -0.99772231973E+03  0.11091126079E+04  0.12699999809E+01 0. -1.
</event>
<event>
 5   0  0.1615098E-06  0.2100370E+04  0.7818609E-02  0.8561080E-01
        1   -1    0    0  501    0  0.00000000000E+00  0.00000000000E+00  0.11933528735E+04  0.11933528735E+04  0.50400001928E-02 0. -1.
       -1   -1    0    0    0  501  0.00000000000E+00  0.00000000000E+00 -0.92419341772E+03  0.92419341773E+03  0.50400001928E-02 0.  1.
    10030    2    1    2    0    0  0.00000000000E+00  0.00000000000E+00  0.26915945576E+03  0.21175462912E+04  0.21003703204E+04 0.  0.
        1    1    3    3  502    0  0.30345068832E+03  0.72870453239E+03  0.83291739408E+03  0.11475382352E+04  0.50400001928E-02 0. -1.
       -1    1    3    3    0  502 -0.30345068832E+03 -0.72870453239E+03 -0.56375793832E+03  0.97000805606E+03  0.50400001928E-02 0.  1.
</event>
<event>
 5   0  0.3480134E-06  0.2100054E+04  0.7818609E-02  0.8561220E-01
       -2   -1    0    0    0  501  0.00000000000E+00  0.00000000000E+00  0.12433963019E+04  0.12433963019E+04  0.25500000920E-02 0.  1.
        2   -1    0    0  501    0  0.00000000000E+00  0.00000000000E+00 -0.88672961128E+03  0.88672961129E+03  0.25500000920E-02 0. -1.
    10030    2    1    2    0    0  0.00000000000E+00  0.00000000000E+00  0.35666669060E+03  0.21301259132E+04  0.21000536369E+04 0.  0.
        1    1    3    3  502    0  0.84660504313E+03  0.39037705932E+03  0.66838939556E+03  0.11471175753E+04  0.50400001928E-02 0. -1.
       -1    1    3    3    0  502 -0.84660504313E+03 -0.39037705932E+03 -0.31172270495E+03  0.98300833786E+03  0.50400001928E-02 0.  1.
</event>
<event>
 5   0  0.3636435E-06  0.2096742E+04  0.7818609E-02  0.8562680E-01
       -2   -1    0    0    0  501  0.00000000000E+00  0.00000000000E+00  0.59381946058E+03  0.59381946058E+03  0.25500000920E-02 0. -1.
        2   -1    0    0  501    0  0.00000000000E+00  0.00000000000E+00 -0.18508693165E+04  0.18508693165E+04  0.25500000920E-02 0.  1.
    10030    2    1    2    0    0  0.00000000000E+00  0.00000000000E+00 -0.12570498560E+04  0.24446887771E+04  0.20967424440E+04 0.  0.
        4    1    3    3  502    0  0.32887539213E+03 -0.99434809397E+03 -0.68313118788E+03  0.12504227238E+04  0.12699999809E+01 0.  1.
       -4    1    3    3    0  502 -0.32887539213E+03  0.99434809397E+03 -0.57391866807E+03  0.11942660533E+04  0.12699999809E+01 0. -1.
</event>
<event>
 5   0  0.1590067E-06  0.2101275E+04  0.7818609E-02  0.8560682E-01
        1   -1    0    0  501    0  0.00000000000E+00  0.00000000000E+00  0.82995979945E+03  0.82995979947E+03  0.50400001928E-02 0. -1.
       -1   -1    0    0    0  501  0.00000000000E+00  0.00000000000E+00 -0.13299916653E+04  0.13299916653E+04  0.50400001928E-02 0.  1.
    10030    2    1    2    0    0  0.00000000000E+00  0.00000000000E+00 -0.50003186581E+03  0.21599514647E+04  0.21012754373E+04 0.  0.
        5    1    3    3  502    0 -0.69421112721E+03 -0.30025597209E+03  0.49954776602E+03  0.90645065969E+03  0.46999998093E+01 0. -1.
       -5    1    3    3    0  502  0.69421112721E+03  0.30025597209E+03 -0.99957963183E+03  0.12535008051E+04  0.46999998093E+01 0.  1.
</event>
<event>
 5   0  0.3480134E-06  0.2100062E+04  0.7818609E-02  0.8561216E-01
        2   -1    0    0  501    0  0.00000000000E+00  0.00000000000E+00  0.16653047928E+04  0.16653047928E+04  0.25500000920E-02 0. -1.
       -2   -1    0    0    0  501  0.00000000000E+00  0.00000000000E+00 -0.66208024790E+03  0.66208024791E+03  0.25500000920E-02 0.  1.
    10030    2    1    2    0    0  0.00000000000E+00  0.00000000000E+00  0.10032245449E+04  0.23273850407E+04  0.21000622943E+04 0.  0.
        1    1    3    3  502    0  0.66508816393E+03 -0.21095631009E+03  0.13712290215E+04  0.15385427716E+04  0.50400001928E-02 0. -1.
       -1    1    3    3    0  502 -0.66508816393E+03  0.21095631009E+03 -0.36800447667E+03  0.78884226905E+03  0.50400001928E-02 0.  1.
</event>
<event>
 5   0  0.3574927E-06  0.2099474E+04  0.7818609E-02  0.8561475E-01
        2   -1    0    0  501    0  0.00000000000E+00  0.00000000000E+00  0.13152248886E+04  0.13152248886E+04  0.25500000920E-02 0.  1.
       -2   -1    0    0    0  501  0.00000000000E+00  0.00000000000E+00 -0.83783973020E+03  0.83783973021E+03  0.25500000920E-02 0. -1.
    10030    2    1    2    0    0  0.00000000000E+00  0.00000000000E+00  0.47738515837E+03  0.21530646188E+04  0.20994739015E+04 0.  0.
        3    1    3    3  502    0 -0.38747594246E+03  0.77460581025E+03  0.84695636912E+03  0.12113987241E+04  0.10100000352E+00 0.  1.
       -3    1    3    3    0  502  0.38747594246E+03 -0.77460581025E+03 -0.36957121075E+03  0.94166589472E+03  0.10100000352E+00 0. -1.
</event>
<event>
 5   0  0.1615098E-06  0.2106356E+04  0.7818609E-02  0.8558449E-01
        1   -1    0    0  501    0  0.00000000000E+00  0.00000000000E+00  0.12222938876E+04  0.12222938876E+04  0.50400001928E-02 0.  1.
       -1   -1    0    0    0  501  0.00000000000E+00  0.00000000000E+00 -0.90746121500E+03  0.90746121501E+03  0.50400001928E-02 0. -1.
    10030    2    1    2    0    0  0.00000000000E+00  0.00000000000E+00  0.31483267255E+03  0.21297551026E+04  0.21063563766E+04 0.  0.
        1    1    3    3  502    0  0.50560646792E+03  0.54711106046E+02  0.10899156678E+04  0.12027249763E+04  0.50400001928E-02 0.  1.
       -1    1    3    3    0  502 -0.50560646792E+03 -0.54711106046E+02 -0.77508299527E+03  0.92703012632E+03  0.50400001928E-02 0. -1.
</event>
<event>
 5   0  0.1615098E-06  0.2098541E+04  0.7818609E-02  0.8561886E-01
       -1   -1    0    0    0  501  0.00000000000E+00  0.00000000000E+00  0.73224528281E+03  0.73224528283E+03  0.50400001928E-02 0.  1.
        1   -1    0    0  501    0  0.00000000000E+00  0.00000000000E+00 -0.15035521455E+04  0.15035521455E+04  0.50400001928E-02 0. -1.
    10030    2    1    2    0    0  0.00000000000E+00  0.00000000000E+00 -0.77130686270E+03  0.22357974284E+04  0.20985413658E+04 0.  0.
        1    1    3    3  502    0 -0.23377297569E+03 -0.51805815495E+03 -0.13253476360E+04  0.14420750370E+04  0.50400001928E-02 0. -1.
       -1    1    3    3    0  502  0.23377297569E+03  0.51805815495E+03  0.55404077328E+03  0.79372239137E+03  0.50400001928E-02 0.  1.
</event>
<event>
 5   0  0.1653260E-06  0.2094126E+04  0.7818609E-02  0.8563835E-01
       -1   -1    0    0    0  501  0.00000000000E+00  0.00000000000E+00  0.69907969199E+03  0.69907969201E+03  0.50400001928E-02 0. -1.
        1   -1    0    0  501    0  0.00000000000E+00  0.00000000000E+00 -0.15682632194E+04  0.15682632194E+04  0.50400001928E-02 0.  1.
    10030    2    1    2    0    0  0.00000000000E+00  0.00000000000E+00 -0.86918352745E+03  0.22673429114E+04  0.20941260406E+04 0.  0.
        3    1    3    3  502    0  0.39634271476E+00  0.12234568243E+03 -0.15604974632E+04  0.15652862249E+04  0.10100000352E+00 0.  1.
       -3    1    3    3    0  502 -0.39634271476E+00 -0.12234568243E+03  0.69131393576E+03  0.70205668651E+03  0.10100000352E+00 0. -1.
</event>
<event>
 5   0  0.1590067E-06  0.2101985E+04  0.7818609E-02  0.8560370E-01
        1   -1    0    0  501    0  0.00000000000E+00  0.00000000000E+00  0.11418781124E+04  0.11418781125E+04  0.50400001928E-02 0.  1.
       -1   -1    0    0    0  501  0.00000000000E+00  0.00000000000E+00 -0.96734059202E+03  0.96734059203E+03  0.50400001928E-02 0. -1.
    10030    2    1    2    0    0  0.00000000000E+00  0.00000000000E+00  0.17453752043E+03  0.21092187045E+04  0.21019848233E+04 0.  0.
        5    1    3    3  502    0 -0.12002803972E+02 -0.47124401537E+03  0.10298352235E+04  0.11326065808E+04  0.46999998093E+01 0.  1.
       -5    1    3    3    0  502  0.12002803972E+02  0.47124401537E+03 -0.85529770305E+03  0.97661212370E+03  0.46999998093E+01 0. -1.
</event>
<event>
 5   0  0.1653260E-06  0.2101590E+04  0.7818609E-02  0.8560543E-01
        1   -1    0    0  501    0  0.00000000000E+00  0.00000000000E+00  0.15348027213E+04  0.15348027213E+04  0.50400001928E-02 0.  1.
       -1   -1    0    0    0  501  0.00000000000E+00  0.00000000000E+00 -0.71942184564E+03  0.71942184566E+03  0.50400001928E-02 0. -1.
    10030    2    1    2    0    0  0.00000000000E+00  0.00000000000E+00  0.81538087562E+03  0.22542245669E+04  0.21015904515E+04 0.  0.
        3    1    3    3  502    0  0.11567279563E+03  0.24404596641E+02  0.15276469213E+04  0.15322143800E+04  0.10100000352E+00 0.  1.
       -3    1    3    3    0  502 -0.11567279563E+03 -0.24404596641E+02 -0.71226604567E+03  0.72201018691E+03  0.10100000352E+00 0. -1.
</event>
<event>
 5   0  0.3636435E-06  0.2099859E+04  0.7818609E-02  0.8561305E-01
       -2   -1    0    0    0  501  0.00000000000E+00  0.00000000000E+00  0.62683194458E+03  0.62683194458E+03  0.25500000920E-02 0. -1.
        2   -1    0    0  501    0  0.00000000000E+00  0.00000000000E+00 -0.17586085611E+04  0.17586085611E+04  0.25500000920E-02 0.  1.
    10030    2    1    2    0    0  0.00000000000E+00  0.00000000000E+00 -0.11317766166E+04  0.23854405057E+04  0.20998590659E+04 0.  0.
        4    1    3    3  502    0 -0.11171974651E+03  0.91996882938E+03 -0.11264862797E+04  0.14586969871E+04  0.12699999809E+01 0.  1.
       -4    1    3    3    0  502  0.11171974651E+03 -0.91996882938E+03 -0.52903368220E+01  0.92674351864E+03  0.12699999809E+01 0. -1.
</event>
<event>
 5   0  0.3480134E-06  0.2099558E+04  0.7818609E-02  0.8561438E-01
       -2   -1    0    0    0  501  0.00000000000E+00  0.00000000000E+00  0.53344461019E+03  0.53344461020E+03  0.25500000920E-02 0. -1.
        2   -1    0    0  501    0  0.00000000000E+00  0.00000000000E+00 -0.20658857475E+04  0.20658857475E+04  0.25500000920E-02 0.  1.
    10030    2    1    2    0    0  0.00000000000E+00  0.00000000000E+00 -0.15324411374E+04  0.25993303577E+04  0.20995576842E+04 0.  0.
        1    1    3    3  502    0 -0.18450984953E+03 -0.30496350962E+03 -0.19886773772E+04  0.20203673768E+04  0.50400001928E-02 0.  1.
       -1    1    3    3    0  502  0.18450984953E+03  0.30496350962E+03  0.45623623980E+03  0.57896298095E+03  0.50400001928E-02 0. -1.
</event>
<event>
 5   0  0.1579820E-06  0.2100139E+04  0.7818609E-02  0.8561182E-01
       -1   -1    0    0    0  501  0.00000000000E+00  0.00000000000E+00  0.10857276895E+04  0.10857276895E+04  0.50400001928E-02 0.  1.
        1   -1    0    0  501    0  0.00000000000E+00  0.00000000000E+00 -0.10155823607E+04  0.10155823607E+04  0.50400001928E-02 0. -1.
    10030    2    1    2    0    0  0.00000000000E+00  0.00000000000E+00  0.70145328833E+02  0.21013100502E+04  0.21001389383E+04 0.  0.
        2    1    3    3  502    0 -0.68275269141E+03 -0.33257069451E+03 -0.69051541462E+03  0.10264336522E+04  0.25500000920E-02 0. -1.
       -2    1    3    3    0  502  0.68275269141E+03  0.33257069451E+03  0.76066074345E+03  0.10748763981E+04  0.25500000920E-02 0.  1.
</event>
<event>
 5   0  0.3705828E-06  0.2100638E+04  0.7818609E-02  0.8560962E-01
        2   -1    0    0  501    0  0.00000000000E+00  0.00000000000E+00  0.97600502788E+03  0.97600502789E+03  0.25500000920E-02 0.  1.
       -2   -1    0    0    0  501  0.00000000000E+00  0.00000000000E+00 -0.11302917893E+04  0.11302917893E+04  0.25500000920E-02 0. -1.
    10030    2    1    2    0    0  0.00000000000E+00  0.00000000000E+00 -0.15428676138E+03  0.21062968172E+04  0.21006384451E+04 0.  0.
        5    1    3    3  502    0 -0.48489886862E+02 -0.54684221223E+03 -0.97496621298E+03  0.11189141525E+04  0.46999998093E+01 0. -1.
       -5    1    3    3    0  502  0.48489886862E+02  0.54684221223E+03  0.82067945160E+03  0.98738266466E+03  0.46999998093E+01 0.  1.
</event>
<event>
 5   0  0.1579820E-06  0.2101294E+04  0.7818609E-02  0.8560674E-01
        1   -1    0    0  501    0  0.00000000000E+00  0.00000000000E+00  0.82089886728E+03  0.82089886729E+03  0.50400001928E-02 0. -1.
       -1   -1    0    0    0  501  0.00000000000E+00  0.00000000000E+00 -0.13446953777E+04  0.13446953777E+04  0.50400001928E-02 0.  1.
    10030    2    1    2    0    0  0.00000000000E+00  0.00000000000E+00 -0.52379651045E+03  0.21655942450E+04  0.21012938038E+04 0.  0.
        2    1    3    3  502    0  0.51734265123E+03  0.11860601211E+03  0.67257169321E+03  0.85677505064E+03  0.25500000920E-02 0. -1.
       -2    1    3    3    0  502 -0.51734265123E+03 -0.11860601211E+03 -0.11963682037E+04  0.13088191944E+04  0.25500000920E-02 0.  1.
</event>
<event>
 5   0  0.3547583E-06  0.2099055E+04  0.7818609E-02  0.8561660E-01
        2   -1    0    0  501    0  0.00000000000E+00  0.00000000000E+00  0.57988646182E+03  0.57988646183E+03  0.25500000920E-02 0. -1.
       -2   -1    0    0    0  501  0.00000000000E+00  0.00000000000E+00 -0.18995239842E+04  0.18995239842E+04  0.25500000920E-02 0.  1.
    10030    2    1    2    0    0  0.00000000000E+00  0.00000000000E+00 -0.13196375224E+04  0.24794104460E+04  0.20990552564E+04 0.  0.
        2    1    3    3  502    0 -0.47830152239E+03 -0.57514571955E+02 -0.17612093447E+04  0.18259076177E+04  0.25500000920E-02 0.  1.
       -2    1    3    3    0  502  0.47830152239E+03  0.57514571955E+02  0.44157182238E+03  0.65350282833E+03  0.25500000920E-02 0. -1.
</event>
<event>
 5   0  0.3574927E-06  0.2112362E+04  0.7818609E-02  0.8555817E-01
        2   -1    0    0  501    0  0.00000000000E+00  0.00000000000E+00  0.86402631249E+03  0.86402631249E+03  0.25500000920E-02 0.  1.
       -2   -1    0    0    0  501  0.00000000000E+00  0.00000000000E+00 -0.12910703621E+04  0.12910703621E+04  0.25500000920E-02 0. -1.
    10030    2    1    2    0    0  0.00000000000E+00  0.00000000000E+00 -0.42704404956E+03  0.21550966746E+04  0.21123624349E+04 0.  0.
        3    1    3    3  502    0  0.81298624480E+01 -0.80997044640E+03  0.47798097674E+03  0.94052328149E+03  0.10100000352E+00 0.  1.
       -3    1    3    3    0  502 -0.81298624480E+01  0.80997044640E+03 -0.90502502630E+03  0.12145733931E+04  0.10100000352E+00 0. -1.
</event>
<event>
 5   0  0.1257125E-06  0.2098681E+04  0.7818609E-02  0.8561825E-01
       -3   -1    0    0    0  501  0.00000000000E+00  0.00000000000E+00  0.10631926646E+04  0.10631926694E+04  0.10100000352E+00 0.  1.
        3   -1    0    0  501    0  0.00000000000E+00  0.00000000000E+00 -0.10356688469E+04  0.10356688518E+04  0.10100000352E+00 0. -1.
    10030    2    1    2    0    0  0.00000000000E+00  0.00000000000E+00  0.27523817670E+02  0.20988615212E+04  0.20986810441E+04 0.  0.
        5    1    3    3  502    0  0.21400997768E+00 -0.34655804986E+02  0.10626096339E+04  0.10631850237E+04  0.46999998093E+01 0.  1.
       -5    1    3    3    0  502 -0.21400997768E+00  0.34655804986E+02 -0.10350858162E+04  0.10356764975E+04  0.46999998093E+01 0. -1.
</event>
<event>
 5   0  0.3480134E-06  0.2096098E+04  0.7818609E-02  0.8562964E-01
       -2   -1    0    0    0  501  0.00000000000E+00  0.00000000000E+00  0.95754670997E+03  0.95754670997E+03  0.25500000920E-02 0.  1.
        2   -1    0    0  501    0  0.00000000000E+00  0.00000000000E+00 -0.11471055441E+04  0.11471055441E+04  0.25500000920E-02 0. -1.
    10030    2    1    2    0    0  0.00000000000E+00  0.00000000000E+00 -0.18955883410E+03  0.21046522540E+04  0.20960984135E+04 0.  0.
        1    1    3    3  502    0 -0.55969648117E+03 -0.66743067226E+03 -0.67998137276E+03  0.11050332668E+04  0.50400001928E-02 0. -1.
       -1    1    3    3    0  502  0.55969648117E+03  0.66743067226E+03  0.49042253866E+03  0.99961898729E+03  0.50400001928E-02 0.  1.
</event>
<event>
 5   0  0.3636435E-06  0.2099972E+04  0.7818609E-02  0.8561256E-01
       -2   -1    0    0    0  501  0.00000000000E+00  0.00000000000E+00  0.75252002593E+03  0.75252002593E+03  0.25500000920E-02 0.  1.
        2   -1    0    0  501    0  0.00000000000E+00  0.00000000000E+00 -0.14650376288E+04  0.14650376288E+04  0.25500000920E-02 0. -1.
    10030    2    1    2    0    0  0.00000000000E+00  0.00000000000E+00 -0.71251760290E+03  0.22175576548E+04  0.20999715755E+04 0.  0.
        4    1    3    3  502    0 -0.82342940558E+03 -0.39157445613E+03 -0.90608808343E+03  0.12854430242E+04  0.12699999809E+01 0.  1.
       -4    1    3    3    0  502  0.82342940558E+03  0.39157445613E+03  0.19357048053E+03  0.93211463055E+03  0.12699999809E+01 0. -1.
</event>
<event>
 5   0  0.1590067E-06  0.2100289E+04  0.7818609E-02  0.8561116E-01
        1   -1    0    0  501    0  0.00000000000E+00  0.00000000000E+00  0.10503259987E+04  0.10503259987E+04  0.50400001928E-02 0.  1.
       -1   -1    0    0    0  501  0.00000000000E+00  0.00000000000E+00 -0.10499635063E+04  0.10499635064E+04  0.50400001928E-02 0. -1.
    10030    2    1    2    0    0  0.00000000000E+00  0.00000000000E+00  0.36249234348E+00  0.21002895051E+04  0.21002894738E+04 0.  0.
        5    1    3    3  502    0  0.26300472235E+03  0.99763544306E+03  0.19597174219E+03  0.10501785443E+04  0.46999998093E+01 0.  1.
       -5    1    3    3    0  502 -0.26300472235E+03 -0.99763544306E+03 -0.19560924984E+03  0.10501109607E+04  0.46999998093E+01 0. -1.
</event>
<event>
 5   0  0.1646510E-06  0.2100327E+04  0.7818609E-02  0.8561099E-01
        1   -1    0    0  501    0  0.00000000000E+00  0.00000000000E+00  0.13964331732E+04  0.13964331732E+04  0.50400001928E-02 0.  1.
       -1   -1    0    0    0  501  0.00000000000E+00  0.00000000000E+00 -0.78975745575E+03  0.78975745576E+03  0.50400001928E-02 0. -1.
    10030    2    1    2    0    0  0.00000000000E+00  0.00000000000E+00  0.60667571745E+03  0.21861906290E+04  0.21003271269E+04 0.  0.
        4    1    3    3  502    0 -0.48996537669E+03  0.92154114740E+03  0.42444623397E+03  0.11267033217E+04  0.12699999809E+01 0.  1.
       -4    1    3    3    0  502  0.48996537669E+03 -0.92154114740E+03  0.18222948347E+03  0.10594873073E+04  0.12699999809E+01 0. -1.
</event>
<event>
 5   0  0.1590067E-06  0.2098014E+04  0.7818609E-02  0.8562119E-01
       -1   -1    0    0    0  501  0.00000000000E+00  0.00000000000E+00  0.89716561750E+03  0.89716561752E+03  0.50400001928E-02 0. -1.
        1   -1    0    0  501    0  0.00000000000E+00  0.00000000000E+00 -0.12265472927E+04  0.12265472927E+04  0.50400001928E-02 0.  1.
    10030    2    1    2    0    0  0.00000000000E+00  0.00000000000E+00 -0.32938167515E+03  0.21237129102E+04  0.20980143558E+04 0.  0.
        5    1    3    3  502    0 -0.75298203622E+02 -0.10406867604E+04 -0.27415992198E+03  0.10788347906E+04  0.46999998093E+01 0. -1.
       -5    1    3    3    0  502  0.75298203622E+02  0.10406867604E+04 -0.55221753167E+02  0.10448781195E+04  0.46999998093E+01 0.  1.
</event>
<event>
 5   0  0.3574927E-06  0.2097886E+04  0.7818609E-02  0.8562175E-01
        2   -1    0    0  501    0  0.00000000000E+00  0.00000000000E+00  0.14876029127E+04  0.14876029127E+04  0.25500000920E-02 0. -1.
       -2   -1    0    0    0  501  0.00000000000E+00  0.00000000000E+00 -0.73963354421E+03  0.73963354421E+03  0.25500000920E-02 0.  1.
    10030    2    1    2    0    0  0.00000000000E+00  0.00000000000E+00  0.74796936853E+03  0.22272364570E+04  0.20978856163E+04 0.  0.
        3    1    3    3  502    0  0.57434394829E+03  0.85154744685E+03  0.14808103629E+03  0.10377533564E+04  0.10100000352E+00 0.  1.
       -3    1    3    3    0  502 -0.57434394829E+03 -0.85154744685E+03  0.59988833225E+03  0.11894831006E+04  0.10100000352E+00 0. -1.
</event>
<event>
 5   0  0.3547583E-06  0.2100975E+04  0.7818609E-02  0.8560814E-01
        2   -1    0    0  501    0  0.00000000000E+00  0.00000000000E+00  0.17909262819E+04  0.17909262819E+04  0.25500000920E-02 0. -1.
       -2   -1    0    0    0  501  0.00000000000E+00  0.00000000000E+00 -0.61617525685E+03  0.61617525685E+03  0.25500000920E-02 0.  1.
    10030    2    1    2    0    0  0.00000000000E+00  0.00000000000E+00  0.11747510250E+04  0.24071015387E+04  0.21009754513E+04 0.  0.
        2    1    3    3  502    0 -0.58724816058E+03 -0.38287828061E+03  0.14837167346E+04  0.16409971140E+04  0.25500000920E-02 0. -1.
       -2    1    3    3    0  502  0.58724816058E+03  0.38287828061E+03 -0.30896570953E+03  0.76610442469E+03  0.25500000920E-02 0.  1.
</event>
<event>
 5   0  0.3705828E-06  0.2099806E+04  0.7818609E-02  0.8561329E-01
       -2   -1    0    0    0  501  0.00000000000E+00  0.00000000000E+00  0.81745584625E+03  0.81745584625E+03  0.25500000920E-02 0.  1.
        2   -1    0    0  501    0  0.00000000000E+00  0.00000000000E+00 -0.13484477345E+04  0.13484477345E+04  0.25500000920E-02 0. -1.
    10030    2    1    2    0    0  0.00000000000E+00  0.00000000000E+00 -0.53099188824E+03  0.21659035807E+04  0.20998061662E+04 0.  0.
        5    1    3    3  502    0 -0.73485830767E+03  0.38481609443E+03  0.39832576626E+03  0.92020957665E+03  0.46999998093E+01 0.  1.
       -5    1    3    3    0  502  0.73485830767E+03 -0.38481609443E+03 -0.92931765450E+03  0.12456940041E+04  0.46999998093E+01 0. -1.
</event>
<event>
 5   0  0.1646510E-06  0.2099648E+04  0.7818609E-02  0.8561399E-01
        1   -1    0    0  501    0  0.00000000000E+00  0.00000000000E+00  0.14570426212E+04  0.14570426212E+04  0.50400001928E-02 0. -1.
       -1   -1    0    0    0  501  0.00000000000E+00  0.00000000000E+00 -0.75641576508E+03  0.75641576510E+03  0.50400001928E-02 0.  1.
    10030    2    1    2    0    0  0.00000000000E+00  0.00000000000E+00  0.70062685607E+03  0.22134583863E+04  0.20996475981E+04 0.  0.
        4    1    3    3  502    0  0.15587462633E+03  0.23569367584E+03  0.14161972774E+04  0.14441138284E+04  0.12699999809E+01 0. -1.
       -4    1    3    3    0  502 -0.15587462633E+03 -0.23569367584E+03 -0.71557042132E+03  0.76934455787E+03  0.12699999809E+01 0.  1.
</event>
<event>
 5   0  0.1615098E-06  0.2099813E+04  0.7818609E-02  0.8561326E-01
       -1   -1    0    0    0  501  0.00000000000E+00  0.00000000000E+00  0.92524600629E+03  0.92524600630E+03  0.50400001928E-02 0. -1.
        1   -1    0    0  501    0  0.00000000000E+00  0.00000000000E+00 -0.11913631582E+04  0.11913631582E+04  0.50400001928E-02 0.  1.
    10030    2    1    2    0    0  0.00000000000E+00  0.00000000000E+00 -0.26611715192E+03  0.21166091645E+04  0.20998133290E+04 0.  0.
        1    1    3    3  502    0 -0.46161220427E+03 -0.76497665484E+03 -0.68885713215E+03  0.11281840533E+04  0.50400001928E-02 0.  1.
       -1    1    3    3    0  502  0.46161220427E+03  0.76497665484E+03  0.42273998023E+03  0.98842511122E+03  0.50400001928E-02 0. -1.
</event>
<event>
 5   0  0.3547583E-06  0.2103175E+04  0.7818609E-02  0.8559846E-01
        2   -1    0    0  501    0  0.00000000000E+00  0.00000000000E+00  0.80759371635E+03  0.80759371635E+03  0.25500000920E-02 0.  1.
       -2   -1    0    0    0  501  0.00000000000E+00  0.00000000000E+00 -0.13692979204E+04  0.13692979204E+04  0.25500000920E-02 0. -1.
    10030    2    1    2    0    0  0.00000000000E+00  0.00000000000E+00 -0.56170420409E+03  0.21768916368E+04  0.21031751200E+04 0.  0.
        2    1    3    3  502    0 -0.17061965392E+03 -0.10216838933E+03  0.78795276406E+03  0.81266167898E+03  0.25500000920E-02 0.  1.
       -2    1    3    3    0  502  0.17061965392E+03  0.10216838933E+03 -0.13496569682E+04  0.13642299578E+04  0.25500000920E-02 0. -1.
</event>
<event>
 5   0  0.1257125E-06  0.2100248E+04  0.7818609E-02  0.8561134E-01
        3   -1    0    0  501    0  0.00000000000E+00  0.00000000000E+00  0.73129819179E+03  0.73129819877E+03  0.10100000352E+00 0. -1.
       -3   -1    0    0    0  501  0.00000000000E+00  0.00000000000E+00 -0.15079489485E+04  0.15079489519E+04  0.10100000352E+00 0.  1.
    10030    2    1    2    0    0  0.00000000000E+00  0.00000000000E+00 -0.77665075668E+03  0.22392471506E+04  0.21002479386E+04 0.  0.
        3    1    3    3  502    0  0.63697626836E+03  0.28460760783E+03  0.44848854749E+03  0.82938666756E+03  0.10100000352E+00 0. -1.
       -3    1    3    3    0  502 -0.63697626836E+03 -0.28460760783E+03 -0.12251393042E+04  0.14098604831E+04  0.10100000352E+00 0.  1.
</event>
<event>
 5   0  0.1646510E-06  0.2099883E+04  0.7818609E-02  0.8561295E-01
        1   -1    0    0  501    0  0.00000000000E+00  0.00000000000E+00  0.11863615761E+04  0.11863615762E+04  0.50400001928E-02 0.  1.
       -1   -1    0    0    0  501  0.00000000000E+00  0.00000000000E+00 -0.92920801030E+03  0.92920801032E+03  0.50400001928E-02 0. -1.
    10030    2    1    2    0    0  0.00000000000E+00  0.00000000000E+00  0.25715356585E+03  0.21155695865E+04  0.20998825488E+04 0.  0.
        4    1    3    3  502    0  0.52204066763E+03 -0.21384505627E+03  0.10206967745E+04  0.11662245432E+04  0.12699999809E+01 0.  1.
       -4    1    3    3    0  502 -0.52204066763E+03  0.21384505627E+03 -0.76354320868E+03  0.94934504327E+03  0.12699999809E+01 0. -1.
</event>
<event>
 5   0  0.3636435E-06  0.2099197E+04  0.7818609E-02  0.8561597E-01
        2   -1    0    0  501    0  0.00000000000E+00  0.00000000000E+00  0.11418295368E+04  0.11418295368E+04  0.25500000920E-02 0.  1.
       -2   -1    0    0    0  501  0.00000000000E+00  0.00000000000E+00 -0.96481713106E+03  0.96481713107E+03  0.25500000920E-02 0. -1.
    10030    2    1    2    0    0  0.00000000000E+00  0.00000000000E+00  0.17701240576E+03  0.21066466679E+04  0.20991967015E+04 0.  0.
        4    1    3    3  502    0 -0.26313812123E+03 -0.62799896254E+03 -0.71309684416E+03  0.98596809779E+03  0.12699999809E+01 0. -1.
       -4    1    3    3    0  502  0.26313812123E+03  0.62799896254E+03  0.89010924992E+03  0.11206785701E+04  0.12699999809E+01 0.  1.
</event>
<event>
 5   0  0.1590067E-06  0.2099920E+04  0.7818609E-02  0.8561279E-01
        1   -1    0    0  501    0  0.00000000000E+00  0.00000000000E+00  0.23243189940E+04  0.23243189940E+04  0.50400001928E-02 0.  1.
       -1   -1    0    0    0  501  0.00000000000E+00  0.00000000000E+00 -0.47429622211E+03  0.47429622214E+03  0.50400001928E-02 0. -1.
    10030    2    1    2    0    0  0.00000000000E+00  0.00000000000E+00  0.18500227719E+04  0.27986152162E+04  0.20999197298E+04 0.  0.
        5    1    3    3  502    0 -0.57365611917E+03  0.64509418098E+03  0.12853038656E+03  0.87279436047E+03  0.46999998093E+01 0. -1.
       -5    1    3    3    0  502  0.57365611917E+03 -0.64509418098E+03  0.17214923854E+04  0.19258208557E+04  0.46999998093E+01 0.  1.
</event>
<event>
 5   0  0.3705828E-06  0.2097330E+04  0.7818609E-02  0.8562421E-01
        2   -1    0    0  501    0  0.00000000000E+00  0.00000000000E+00  0.18447991840E+04  0.18447991840E+04  0.25500000920E-02 0. -1.
       -2   -1    0    0    0  501  0.00000000000E+00  0.00000000000E+00 -0.59610709212E+03  0.59610709213E+03  0.25500000920E-02 0.  1.
    10030    2    1    2    0    0  0.00000000000E+00  0.00000000000E+00  0.12486920919E+04  0.24409062761E+04  0.20973296137E+04 0.  0.
        5    1    3    3  502    0 -0.98293331930E+03 -0.28682622096E+03  0.36087954682E+03  0.10856718328E+04  0.46999998093E+01 0.  1.
       -5    1    3    3    0  502  0.98293331930E+03  0.28682622096E+03  0.88781254506E+03  0.13552344433E+04  0.46999998093E+01 0. -1.
</event>
<event>
 5   0  0.3480134E-06  0.2099760E+04  0.7818609E-02  0.8561349E-01
        2   -1    0    0  501    0  0.00000000000E+00  0.00000000000E+00  0.14594690166E+04  0.14594690167E+04  0.25500000920E-02 0. -1.
       -2   -1    0    0    0  501  0.00000000000E+00  0.00000000000E+00 -0.75523925985E+03  0.75523925985E+03  0.25500000920E-02 0.  1.
    10030    2    1    2    0    0  0.00000000000E+00  0.00000000000E+00  0.70422975680E+03  0.22147082765E+04  0.20997602719E+04 0.  0.
        1    1    3    3  502    0  0.10051020834E+04  0.29648874598E+03  0.41975449087E+03  0.11288620851E+04  0.50400001928E-02 0.  1.
       -1    1    3    3    0  502 -0.10051020834E+04 -0.29648874598E+03  0.28447526594E+03  0.10858461914E+04  0.50400001928E-02 0. -1.
</event>
<event>
 5   0  0.1653260E-06  0.2100478E+04  0.7818609E-02  0.8561033E-01
       -1   -1    0    0    0  501  0.00000000000E+00  0.00000000000E+00  0.83823581966E+03  0.83823581967E+03  0.50400001928E-02 0.  1.
        1   -1    0    0  501    0  0.00000000000E+00  0.00000000000E+00 -0.13158608212E+04  0.13158608212E+04  0.50400001928E-02 0. -1.
    10030    2    1    2    0    0  0.00000000000E+00  0.00000000000E+00 -0.47762500153E+03  0.21540966409E+04  0.21004777305E+04 0.  0.
        3    1    3    3  502    0  0.57479084867E+03 -0.68458340906E+03 -0.80421438168E+03  0.12024141323E+04  0.10100000352E+00 0. -1.
       -3    1    3    3    0  502 -0.57479084867E+03  0.68458340906E+03  0.32658938015E+03  0.95168250856E+03  0.10100000352E+00 0.  1.
</event>
<event>
 5   0  0.1646510E-06  0.2099984E+04  0.7818609E-02  0.8561250E-01
        1   -1    0    0  501    0  0.00000000000E+00  0.00000000000E+00  0.71815012283E+03  0.71815012285E+03  0.50400001928E-02 0.  1.
       -1   -1    0    0    0  501  0.00000000000E+00  0.00000000000E+00 -0.15351716053E+04  0.15351716053E+04  0.50400001928E-02 0. -1.
    10030    2    1    2    0    0  0.00000000000E+00  0.00000000000E+00 -0.81702148244E+03  0.22533217281E+04  0.20999844542E+04 0.  0.
        4    1    3    3  502    0 -0.54913494376E+03 -0.56130643351E+03 -0.11564498760E+04  0.13978526486E+04  0.12699999809E+01 0. -1.
       -4    1    3    3    0  502  0.54913494376E+03  0.56130643351E+03  0.33942839352E+03  0.85546907950E+03  0.12699999809E+01 0.  1.
</event>
<event>
 5   0  0.1646510E-06  0.2099981E+04  0.7818609E-02  0.8561252E-01
        1   -1    0    0  501    0  0.00000000000E+00  0.00000000000E+00  0.12749606827E+04  0.12749606827E+04  0.50400001928E-02 0.  1.
       -1   -1    0    0    0  501  0.00000000000E+00  0.00000000000E+00 -0.86471691247E+03  0.86471691249E+03  0.50400001928E-02 0. -1.
    10030    2    1    2    0    0  0.00000000000E+00  0.00000000000E+00  0.41024377024E+03  0.21396775952E+04  0.20999810143E+04 0.  0.
        4    1    3    3  502    0 -0.10458826495E+04 -0.91757104984E+02  0.19113024832E+03  0.10671561589E+04  0.12699999809E+01 0.  1.
       -4    1    3    3    0  502  0.10458826495E+04  0.91757104984E+02  0.21911352192E+03  0.10725214363E+04  0.12699999809E+01 0. -1.
</event>
<event>
 5   0  0.1646510E-06  0.2097936E+04  0.7818609E-02  0.8562153E-01
        1   -1    0    0  501    0  0.00000000000E+00  0.00000000000E+00  0.12960302899E+04  0.12960302899E+04  0.50400001928E-02 0. -1.
       -1   -1    0    0    0  501  0.00000000000E+00  0.00000000000E+00 -0.84900315271E+03  0.84900315273E+03  0.50400001928E-02 0.  1.
    10030    2    1    2    0    0  0.00000000000E+00  0.00000000000E+00  0.44702713720E+03  0.21450334426E+04  0.20979359401E+04 0.  0.
        4    1    3    3  502    0  0.44012941025E+03 -0.79954668797E+03  0.75217370793E+03  0.11826900286E+04  0.12699999809E+01 0. -1.
       -4    1    3    3    0  502 -0.44012941025E+03  0.79954668797E+03 -0.30514657073E+03  0.96234341403E+03  0.12699999809E+01 0.  1.
</event>
<event>
 5   0  0.1653260E-06  0.2100023E+04  0.7818609E-02  0.8561233E-01
       -1   -1    0    0    0  501  0.00000000000E+00  0.00000000000E+00  0.11646434410E+04  0.11646434410E+04  0.50400001928E-02 0. -1.
        1   -1    0    0  501    0  0.00000000000E+00  0.00000000000E+00 -0.94666247842E+03  0.94666247843E+03  0.50400001928E-02 0.  1.
    10030    2    1    2    0    0  0.00000000000E+00  0.00000000000E+00  0.21798096256E+03  0.21113059194E+04  0.21000230916E+04 0.  0.
        3    1    3    3  502    0  0.31407374510E+03 -0.99923875890E+03  0.18289612294E+03  0.10632833191E+04  0.10100000352E+00 0.  1.
       -3    1    3    3    0  502 -0.31407374510E+03  0.99923875890E+03  0.35084839625E+02  0.10480226003E+04  0.10100000352E+00 0. -1.
</event>
<event>
 5   0  0.3705828E-06  0.2102910E+04  0.7818609E-02  0.8559963E-01
       -2   -1    0    0    0  501  0.00000000000E+00  0.00000000000E+00  0.17991249044E+04  0.17991249044E+04  0.25500000920E-02 0.  1.
        2   -1    0    0  501    0  0.00000000000E+00  0.00000000000E+00 -0.61449728617E+03  0.61449728617E+03  0.25500000920E-02 0. -1.
    10030    2    1    2    0    0  0.00000000000E+00  0.00000000000E+00  0.11846276182E+04  0.24136221906E+04  0.21029097662E+04 0.  0.
        5    1    3    3  502    0  0.28742266528E+03 -0.10016458307E+04  0.43150897703E+03  0.11278866282E+04  0.46999998093E+01 0. -1.
       -5    1    3    3    0  502 -0.28742266528E+03  0.10016458307E+04  0.75311864121E+03  0.12857355624E+04  0.46999998093E+01 0.  1.
</event>
<event>
 5   0  0.3547583E-06  0.2103688E+04  0.7818609E-02  0.8559621E-01
       -2   -1    0    0    0  501  0.00000000000E+00  0.00000000000E+00  0.89287497608E+03  0.89287497609E+03  0.25500000920E-02 0.  1.
        2   -1    0    0  501    0  0.00000000000E+00  0.00000000000E+00 -0.12391157763E+04  0.12391157763E+04  0.25500000920E-02 0. -1.
    10030    2    1    2    0    0  0.00000000000E+00  0.00000000000E+00 -0.34624080023E+03  0.21319907524E+04  0.21036876851E+04 0.  0.
        2    1    3    3  502    0  0.10501483970E+04 -0.35937886494E+02 -0.22143018968E+03  0.10738410107E+04  0.25500000920E-02 0.  1.
       -2    1    3    3    0  502 -0.10501483970E+04  0.35937886494E+02 -0.12481061055E+03  0.10581497417E+04  0.25500000920E-02 0. -1.
</event>
<event>
 5   0  0.1579820E-06  0.2100201E+04  0.7818609E-02  0.8561155E-01
        1   -1    0    0  501    0  0.00000000000E+00  0.00000000000E+00  0.14483147376E+04  0.14483147376E+04  0.50400001928E-02 0. -1.
       -1   -1    0    0    0  501  0.00000000000E+00  0.00000000000E+00 -0.76137529174E+03  0.76137529175E+03  0.50400001928E-02 0.  1.
    10030    2    1    2    0    0  0.00000000000E+00  0.00000000000E+00  0.68693944584E+03  0.22096900293E+04  0.21002009960E+04 0.  0.
        2    1    3    3  502    0  0.28180095796E+03 -0.27778792730E+03 -0.67993313179E+03  0.78669369908E+03  0.25500000920E-02 0.  1.
       -2    1    3    3    0  502 -0.28180095796E+03  0.27778792730E+03  0.13668725776E+04  0.14229963303E+04  0.25500000920E-02 0. -1.
</event>
<event>
 5   0  0.1615098E-06  0.2099653E+04  0.7818609E-02  0.8561396E-01
        1   -1    0    0  501    0  0.00000000000E+00  0.00000000000E+00  0.20044634719E+04  0.20044634719E+04  0.50400001928E-02 0. -1.
       -1   -1    0    0    0  501  0.00000000000E+00  0.00000000000E+00 -0.54984061912E+03  0.54984061914E+03  0.50400001928E-02 0.  1.
    10030    2    1    2    0    0  0.00000000000E+00  0.00000000000E+00  0.14546228528E+04  0.25543040910E+04  0.20996527679E+04 0.  0.
        1    1    3    3  502    0 -0.84260938297E+03  0.61093507024E+03  0.56005114170E+03  0.11819008053E+04  0.50400001928E-02 0.  1.
       -1    1    3    3    0  502  0.84260938297E+03 -0.61093507024E+03  0.89457171105E+03  0.13724032857E+04  0.50400001928E-02 0. -1.
</event>
<event>
 5   0  0.1653260E-06  0.2100024E+04  0.7818609E-02  0.8561233E-01
       -1   -1    0    0    0  501  0.00000000000E+00  0.00000000000E+00  0.40024228770E+03  0.40024228773E+03  0.50400001928E-02 0. -1.
        1   -1    0    0  501    0  0.00000000000E+00  0.00000000000E+00 -0.27546440932E+04  0.27546440933E+04  0.50400001928E-02 0.  1.
    10030    2    1    2    0    0  0.00000000000E+00  0.00000000000E+00 -0.23544018055E+04  0.31548863810E+04  0.21000238606E+04 0.  0.
        3    1    3    3  502    0 -0.10122161092E+04  0.13346293924E+03 -0.80880943905E+03  0.13025231387E+04  0.10100000352E+00 0.  1.
       -3    1    3    3    0  502  0.10122161092E+04 -0.13346293924E+03 -0.15455923665E+04  0.18523632423E+04  0.10100000352E+00 0. -1.
</event>
<event>
 5   0  0.1615098E-06  0.2100594E+04  0.7818609E-02  0.8560982E-01
        1   -1    0    0  501    0  0.00000000000E+00  0.00000000000E+00  0.94455376579E+03  0.94455376581E+03  0.50400001928E-02 0.  1.
       -1   -1    0    0    0  501  0.00000000000E+00  0.00000000000E+00 -0.11678780922E+04  0.11678780922E+04  0.50400001928E-02 0. -1.
    10030    2    1    2    0    0  0.00000000000E+00  0.00000000000E+00 -0.22332432638E+03  0.21124318580E+04  0.21005938684E+04 0.  0.
        1    1    3    3  502    0  0.48747789497E+02 -0.10322143238E+04  0.77228459438E+02  0.10362465885E+04  0.50400001928E-02 0. -1.
       -1    1    3    3    0  502 -0.48747789497E+02  0.10322143238E+04 -0.30055278582E+03  0.10761852695E+04  0.50400001928E-02 0.  1.
</event>
<event>
 5   0  0.1646510E-06  0.2098445E+04  0.7818609E-02  0.8561929E-01
       -1   -1    0    0    0  501  0.00000000000E+00  0.00000000000E+00  0.62639408455E+03  0.62639408457E+03  0.50400001928E-02 0. -1.
        1   -1    0    0  501    0  0.00000000000E+00  0.00000000000E+00 -0.17574689945E+04  0.17574689945E+04  0.50400001928E-02 0.  1.
    10030    2    1    2    0    0  0.00000000000E+00  0.00000000000E+00 -0.11310749099E+04  0.23838630791E+04  0.20984453121E+04 0.  0.
        4    1    3    3  502    0  0.95487226010E+03  0.12113454002E+03 -0.10399670605E+04  0.14170348301E+04  0.12699999809E+01 0.  1.
       -4    1    3    3    0  502 -0.95487226010E+03 -0.12113454002E+03 -0.91107849464E+02  0.96682824898E+03  0.12699999809E+01 0. -1.
</event>
<event>
 5   0  0.1646510E-06  0.2110444E+04  0.7818609E-02  0.8556657E-01
       -1   -1    0    0    0  501  0.00000000000E+00  0.00000000000E+00  0.10492927149E+04  0.10492927149E+04  0.50400001928E-02 0.  1.
        1   -1    0    0  501    0  0.00000000000E+00  0.00000000000E+00 -0.10611846558E+04  0.10611846558E+04  0.50400001928E-02 0. -1.
    10030    2    1    2    0    0  0.00000000000E+00  0.00000000000E+00 -0.11891940902E+02  0.21104773707E+04  0.21104438665E+04 0.  0.
        4    1    3    3  502    0 -0.84006050719E+03  0.38169552821E+03  0.50601780312E+03  0.10523539148E+04  0.12699999809E+01 0.  1.
       -4    1    3    3    0  502  0.84006050719E+03 -0.38169552821E+03 -0.51790974403E+03  0.10581234559E+04  0.12699999809E+01 0. -1.
</event>
<event>
 5   0  0.1653260E-06  0.2099731E+04  0.7818609E-02  0.8561362E-01
       -1   -1    0    0    0  501  0.00000000000E+00  0.00000000000E+00  0.55901585900E+03  0.55901585903E+03  0.50400001928E-02 0.  1.
        1   -1    0    0  501    0  0.00000000000E+00  0.00000000000E+00 -0.19717107651E+04  0.19717107651E+04  0.50400001928E-02 0. -1.
    10030    2    1    2    0    0  0.00000000000E+00  0.00000000000E+00 -0.14126949061E+04  0.25307266241E+04  0.20997310181E+04 0.  0.
        3    1    3    3  502    0 -0.45074547695E+03 -0.20563659257E+03 -0.18219540689E+04  0.18881140147E+04  0.10100000352E+00 0. -1.
       -3    1    3    3    0  502  0.45074547695E+03  0.20563659257E+03  0.40925916283E+03  0.64261260939E+03  0.10100000352E+00 0.  1.
</event>
<event>
 5   0  0.3547583E-06  0.2100107E+04  0.7818609E-02  0.8561196E-01
        2   -1    0    0  501    0  0.00000000000E+00  0.00000000000E+00  0.13759119868E+04  0.13759119868E+04  0.25500000920E-02 0.  1.
       -2   -1    0    0    0  501  0.00000000000E+00  0.00000000000E+00 -0.80136861266E+03  0.80136861267E+03  0.25500000920E-02 0. -1.
    10030    2    1    2    0    0  0.00000000000E+00  0.00000000000E+00  0.57454337418E+03  0.21772805995E+04  0.21001073116E+04 0.  0.
        2    1    3    3  502    0 -0.25609534615E+03  0.28859854142E+03 -0.72521104890E+03  0.82146516047E+03  0.25500000920E-02 0. -1.
       -2    1    3    3    0  502  0.25609534615E+03 -0.28859854142E+03  0.12997544231E+04  0.13558154390E+04  0.25500000920E-02 0.  1.
</event>
<event>
 5   0  0.1590067E-06  0.2100348E+04  0.7818609E-02  0.8561090E-01
        1   -1    0    0  501    0  0.00000000000E+00  0.00000000000E+00  0.41387977347E+03  0.41387977350E+03  0.50400001928E-02 0.  1.
       -1   -1    0    0    0  501  0.00000000000E+00  0.00000000000E+00 -0.26646990290E+04  0.26646990290E+04  0.50400001928E-02 0. -1.
    10030    2    1    2    0    0  0.00000000000E+00  0.00000000000E+00 -0.22508192555E+04  0.30785788025E+04  0.21003476194E+04 0.  0.
        5    1    3    3  502    0  0.79542892325E+03  0.65269312720E+03 -0.81750691653E+03  0.13141746987E+04  0.46999998093E+01 0.  1.
       -5    1    3    3    0  502 -0.79542892325E+03 -0.65269312720E+03 -0.14333123390E+04  0.17644041038E+04  0.46999998093E+01 0. -1.
</event>
<event>
 5   0  0.3480134E-06  0.2099514E+04  0.7818609E-02  0.8561458E-01
        2   -1    0    0  501    0  0.00000000000E+00  0.00000000000E+00  0.22447688605E+04  0.22447688605E+04  0.25500000920E-02 0. -1.
       -2   -1    0    0    0  501  0.00000000000E+00  0.00000000000E+00 -0.49091442114E+03  0.49091442115E+03  0.25500000920E-02 0.  1.
    10030    2    1    2    0    0  0.00000000000E+00  0.00000000000E+00  0.17538544393E+04  0.27356832816E+04  0.20995136634E+04 0.  0.
        1    1    3    3  502    0 -0.67620400803E+03 -0.73994219919E+03  0.12832131795E+04  0.16283127411E+04  0.50400001928E-02 0. -1.
       -1    1    3    3    0  502  0.67620400803E+03  0.73994219919E+03  0.47064125982E+03  0.11073705406E+04  0.50400001928E-02 0.  1.
</event>
<event>
 5   0  0.1653260E-06  0.2104348E+04  0.7818609E-02  0.8559330E-01
       -1   -1    0    0    0  501  0.00000000000E+00  0.00000000000E+00  0.13199707938E+04  0.13199707938E+04  0.50400001928E-02 0.  1.
        1   -1    0    0  501    0  0.00000000000E+00  0.00000000000E+00 -0.83870843539E+03  0.83870843540E+03  0.50400001928E-02 0. -1.
    10030    2    1    2    0    0  0.00000000000E+00  0.00000000000E+00  0.48126235841E+03  0.21586792292E+04  0.21043484875E+04 0.  0.
        3    1    3    3  502    0  0.68436346668E+03  0.52212756814E+03  0.86131490841E+03  0.12177166886E+04  0.10100000352E+00 0.  1.
       -3    1    3    3    0  502 -0.68436346668E+03 -0.52212756814E+03 -0.38005255000E+03  0.94096254065E+03  0.10100000352E+00 0. -1.
</event>
<event>
 5   0  0.3480134E-06  0.2102480E+04  0.7818609E-02  0.8560152E-01
       -2   -1    0    0    0  501  0.00000000000E+00  0.00000000000E+00  0.10806685788E+04  0.10806685788E+04  0.25500000920E-02 0. -1.
        2   -1    0    0  501    0  0.00000000000E+00  0.00000000000E+00 -0.10226125414E+04  0.10226125414E+04  0.25500000920E-02 0.  1.
    10030    2    1    2    0    0  0.00000000000E+00  0.00000000000E+00  0.58056037366E+02  0.21032811202E+04  0.21024797186E+04 0.  0.
        1    1    3    3  502    0 -0.11746007736E+03  0.10432987383E+04 -0.24247464951E+02  0.10501700180E+04  0.50400001928E-02 0. -1.
       -1    1    3    3    0  502  0.11746007736E+03 -0.10432987383E+04  0.82303502317E+02  0.10531111022E+04  0.50400001928E-02 0.  1.
</event>
<event>
 5   0  0.1615098E-06  0.2099570E+04  0.7818609E-02  0.8561433E-01
        1   -1    0    0  501    0  0.00000000000E+00  0.00000000000E+00  0.13913542130E+04  0.13913542130E+04  0.50400001928E-02 0. -1.
       -1   -1    0    0    0  501  0.00000000000E+00  0.00000000000E+00 -0.79206935051E+03  0.79206935053E+03  0.50400001928E-02 0.  1.
    10030    2    1    2    0    0  0.00000000000E+00  0.00000000000E+00  0.59928486250E+03  0.21834235636E+04  0.20995704588E+04 0.  0.
        1    1    3    3  502    0  0.35195625596E+03 -0.18077404048E+03  0.13108434948E+04  0.13692564142E+04  0.50400001928E-02 0. -1.
       -1    1    3    3    0  502 -0.35195625596E+03  0.18077404048E+03 -0.71155863233E+03  0.81416714936E+03  0.50400001928E-02 0.  1.
</event>
<event>
 5   0  0.3705828E-06  0.2100407E+04  0.7818609E-02  0.8561064E-01
       -2   -1    0    0    0  501  0.00000000000E+00  0.00000000000E+00  0.52583898161E+03  0.52583898161E+03  0.25500000920E-02 0.  1.
        2   -1    0    0  501    0  0.00000000000E+00  0.00000000000E+00 -0.20974620253E+04  0.20974620253E+04  0.25500000920E-02 0. -1.
    10030    2    1    2    0    0  0.00000000000E+00  0.00000000000E+00 -0.15716230437E+04  0.26233010069E+04  0.21004069085E+04 0.  0.
        5    1    3    3  502    0 -0.32999736879E+03 -0.81354325056E+03 -0.66006882602E+02  0.88041460829E+03  0.46999998093E+01 0.  1.
       -5    1    3    3    0  502  0.32999736879E+03  0.81354325056E+03 -0.15056161611E+04  0.17428863986E+04  0.46999998093E+01 0. -1.
</event>
<event>
 5   0  0.1579820E-06  0.2100172E+04  0.7818609E-02  0.8561168E-01
       -1   -1    0    0    0  501  0.00000000000E+00  0.00000000000E+00  0.12584815349E+04  0.12584815349E+04  0.50400001928E-02 0. -1.
        1   -1    0    0  501    0  0.00000000000E+00  0.00000000000E+00 -0.87619909042E+03  0.87619909043E+03  0.50400001928E-02 0.  1.
    10030    2    1    2    0    0  0.00000000000E+00  0.00000000000E+00  0.38228244450E+03  0.21346806254E+04  0.21001717799E+04 0.  0.
        2    1    3    3  502    0  0.16774007723E+03 -0.85771176789E+03 -0.40055298933E+03  0.96137864942E+03  0.25500000920E-02 0.  1.
       -2    1    3    3    0  502 -0.16774007723E+03  0.85771176789E+03  0.78283543382E+03  0.11733019759E+04  0.25500000920E-02 0. -1.
</event>
<event>
 5   0  0.3574927E-06  0.2101147E+04  0.7818609E-02  0.8560738E-01
        2   -1    0    0  501    0  0.00000000000E+00  0.00000000000E+00  0.10187844717E+04  0.10187844717E+04  0.25500000920E-02 0. -1.
       -2   -1    0    0    0  501  0.00000000000E+00  0.00000000000E+00 -0.10833546163E+04  0.10833546163E+04  0.25500000920E-02 0.  1.
    10030    2    1    2    0    0  0.00000000000E+00  0.00000000000E+00 -0.64570144606E+02  0.21021390880E+04  0.21011471728E+04 0.  0.
        3    1    3    3  502    0 -0.22591116328E+02 -0.67136461965E+03 -0.84041885981E+03  0.10758925045E+04  0.10100000352E+00 0.  1.
       -3    1    3    3    0  502  0.22591116328E+02  0.67136461965E+03  0.77584871520E+03  0.10262465835E+04  0.10100000352E+00 0. -1.
</event>
<event>
 5   0  0.3547583E-06  0.2102313E+04  0.7818609E-02  0.8560225E-01
        2   -1    0    0  501    0  0.00000000000E+00  0.00000000000E+00  0.91687677545E+03  0.91687677545E+03  0.25500000920E-02 0.  1.
       -2   -1    0    0    0  501  0.00000000000E+00  0.00000000000E+00 -0.12051016820E+04  0.12051016820E+04  0.25500000920E-02 0. -1.
    10030    2    1    2    0    0  0.00000000000E+00  0.00000000000E+00 -0.28822490652E+03  0.21219784574E+04  0.21023127686E+04 0.  0.
        2    1    3    3  502    0 -0.93856511702E+02 -0.56364846765E+03 -0.10346473520E+04  0.11819491456E+04  0.25500000920E-02 0. -1.
       -2    1    3    3    0  502  0.93856511702E+02  0.56364846765E+03  0.74642244548E+03  0.94002931178E+03  0.25500000920E-02 0.  1.
</event>
<event>
 5   0  0.1579820E-06  0.2100812E+04  0.7818609E-02  0.8560886E-01
        1   -1    0    0  501    0  0.00000000000E+00  0.00000000000E+00  0.74133514627E+03  0.74133514629E+03  0.50400001928E-02 0.  1.
       -1   -1    0    0    0  501  0.00000000000E+00  0.00000000000E+00 -0.14883312966E+04  0.14883312966E+04  0.50400001928E-02 0. -1.
    10030    2    1    2    0    0  0.00000000000E+00  0.00000000000E+00 -0.74699615028E+03  0.22296664429E+04  0.21008115570E+04 0.  0.
        2    1    3    3  502    0 -0.30406583452E+03  0.40880932921E+03 -0.13484094748E+04  0.14414538533E+04  0.25500000920E-02 0. -1.
       -2    1    3    3    0  502  0.30406583452E+03 -0.40880932921E+03  0.60141332455E+03  0.78821258955E+03  0.25500000920E-02 0.  1.
</event>
<event>
 5   0  0.3705828E-06  0.2099880E+04  0.7818609E-02  0.8561296E-01
        2   -1    0    0  501    0  0.00000000000E+00  0.00000000000E+00  0.11800785854E+04  0.11800785854E+04  0.25500000920E-02 0. -1.
       -2   -1    0    0    0  501  0.00000000000E+00  0.00000000000E+00 -0.93415323153E+03  0.93415323154E+03  0.25500000920E-02 0.  1.
    10030    2    1    2    0    0  0.00000000000E+00  0.00000000000E+00  0.24592535391E+03  0.21142318170E+04  0.20998802100E+04 0.  0.
        5    1    3    3  502    0  0.71612453627E+03  0.31546555907E+02 -0.64943268115E+03  0.96727164436E+03  0.46999998093E+01 0.  1.
       -5    1    3    3    0  502 -0.71612453627E+03 -0.31546555907E+02  0.89535803506E+03  0.11469601726E+04  0.46999998093E+01 0. -1.
</event>
<event>
 5   0  0.3705828E-06  0.2099725E+04  0.7818609E-02  0.8561365E-01
       -2   -1    0    0    0  501  0.00000000000E+00  0.00000000000E+00  0.77641764761E+03  0.77641764761E+03  0.25500000920E-02 0. -1.
        2   -1    0    0  501    0  0.00000000000E+00  0.00000000000E+00 -0.14196112758E+04  0.14196112758E+04  0.25500000920E-02 0.  1.
    10030    2    1    2    0    0  0.00000000000E+00  0.00000000000E+00 -0.64319362817E+03  0.21960289234E+04  0.20997249794E+04 0.  0.
        5    1    3    3  502    0  0.86803941114E+03  0.52271495853E+03 -0.34286802153E+02  0.10138644002E+04  0.46999998093E+01 0. -1.
       -5    1    3    3    0  502 -0.86803941114E+03 -0.52271495853E+03 -0.60890682602E+03  0.11821645232E+04  0.46999998093E+01 0.  1.
</event>
<event>
 5   0  0.3574927E-06  0.2099869E+04  0.7818609E-02  0.8561301E-01
        2   -1    0    0  501    0  0.00000000000E+00  0.00000000000E+00  0.85622897291E+03  0.85622897291E+03  0.25500000920E-02 0. -1.
       -2   -1    0    0    0  501  0.00000000000E+00  0.00000000000E+00 -0.12874626472E+04  0.12874626472E+04  0.25500000920E-02 0.  1.
    10030    2    1    2    0    0  0.00000000000E+00  0.00000000000E+00 -0.43123367429E+03  0.21436916201E+04  0.20998693484E+04 0.  0.
        3    1    3    3  502    0 -0.91946657286E+03 -0.33125620702E+03 -0.60730788296E+03  0.11506399646E+04  0.10100000352E+00 0. -1.
       -3    1    3    3    0  502  0.91946657286E+03  0.33125620702E+03  0.17607420867E+03  0.99305165548E+03  0.10100000352E+00 0.  1.
</event>
<event>
 5   0  0.3480134E-06  0.2100578E+04  0.7818609E-02  0.8560989E-01
       -2   -1    0    0    0  501  0.00000000000E+00  0.00000000000E+00  0.10979141085E+04  0.10979141085E+04  0.25500000920E-02 0.  1.
        2   -1    0    0  501    0  0.00000000000E+00  0.00000000000E+00 -0.10047294513E+04  0.10047294513E+04  0.25500000920E-02 0. -1.
    10030    2    1    2    0    0  0.00000000000E+00  0.00000000000E+00  0.93184657186E+02  0.21026435598E+04  0.21005776727E+04 0.  0.
        1    1    3    3  502    0 -0.95253312332E+03  0.43745796571E+03  0.11312435809E+03  0.10542703369E+04  0.50400001928E-02 0.  1.
       -1    1    3    3    0  502  0.95253312332E+03 -0.43745796571E+03 -0.19939700907E+02  0.10483732229E+04  0.50400001928E-02 0. -1.
</event>
<event>
 5   0  0.1590067E-06  0.2102423E+04  0.7818609E-02  0.8560177E-01
        1   -1    0    0  501    0  0.00000000000E+00  0.00000000000E+00  0.12019612802E+04  0.12019612802E+04  0.50400001928E-02 0.  1.
       -1   -1    0    0    0  501  0.00000000000E+00  0.00000000000E+00 -0.91936891926E+03  0.91936891928E+03  0.50400001928E-02 0. -1.
    10030    2    1    2    0    0  0.00000000000E+00  0.00000000000E+00  0.28259236095E+03  0.21213301995E+04  0.21024232145E+04 0.  0.
        5    1    3    3  502    0  0.10349586913E+04  0.12110605607E+03  0.14220106418E+01  0.10420318045E+04  0.46999998093E+01 0. -1.
       -5    1    3    3    0  502 -0.10349586913E+04 -0.12110605607E+03  0.28117035031E+03  0.10792983950E+04  0.46999998093E+01 0.  1.
</event>
<event>
 5   0  0.1615098E-06  0.2100726E+04  0.7818609E-02  0.8560924E-01
        1   -1    0    0  501    0  0.00000000000E+00  0.00000000000E+00  0.17832449438E+04  0.17832449438E+04  0.50400001928E-02 0.  1.
       -1   -1    0    0    0  501  0.00000000000E+00  0.00000000000E+00 -0.61868259878E+03  0.61868259880E+03  0.50400001928E-02 0. -1.
    10030    2    1    2    0    0  0.00000000000E+00  0.00000000000E+00  0.11645623451E+04  0.24019275426E+04  0.21007261755E+04 0.  0.
        1    1    3    3  502    0 -0.43286491093E+03  0.85546644334E+03  0.91735660972E+02  0.96312527655E+03  0.50400001928E-02 0. -1.
       -1    1    3    3    0  502  0.43286491093E+03 -0.85546644334E+03  0.10728266841E+04  0.14388022661E+04  0.50400001928E-02 0.  1.
</event>
<event>
 5   0  0.3547583E-06  0.2101327E+04  0.7818609E-02  0.8560659E-01
       -2   -1    0    0    0  501  0.00000000000E+00  0.00000000000E+00  0.85380295310E+03  0.85380295310E+03  0.25500000920E-02 0.  1.
        2   -1    0    0  501    0  0.00000000000E+00  0.00000000000E+00 -0.12929139836E+04  0.12929139836E+04  0.25500000920E-02 0. -1.
    10030    2    1    2    0    0  0.00000000000E+00  0.00000000000E+00 -0.43911103052E+03  0.21467169367E+04  0.21013269877E+04 0.  0.
        2    1    3    3  502    0  0.33839409500E+02 -0.91916941503E+03  0.29922878454E+03  0.96724112023E+03  0.25500000920E-02 0.  1.
       -2    1    3    3    0  502 -0.33839409500E+02  0.91916941503E+03 -0.73833981506E+03  0.11794758165E+04  0.25500000920E-02 0. -1.
</event>
<event>
 5   0  0.1579820E-06  0.2098366E+04  0.7818609E-02  0.8561964E-01
        1   -1    0    0  501    0  0.00000000000E+00  0.00000000000E+00  0.16851569618E+04  0.16851569618E+04  0.50400001928E-02 0.  1.
       -1   -1    0    0    0  501  0.00000000000E+00  0.00000000000E+00 -0.65322371847E+03  0.65322371849E+03  0.50400001928E-02 0. -1.
    10030    2    1    2    0    0  0.00000000000E+00  0.00000000000E+00  0.10319332433E+04  0.23383806803E+04  0.20983655514E+04 0.  0.
        2    1    3    3  502    0 -0.42979074910E+03 -0.29478361337E+03 -0.49877407629E+03  0.72138273192E+03  0.25500000920E-02 0. -1.
       -2    1    3    3    0  502  0.42979074910E+03  0.29478361337E+03  0.15307073196E+04  0.16169979484E+04  0.25500000920E-02 0.  1.
</event>
<event>
 5   0  0.3480134E-06  0.2100337E+04  0.7818609E-02  0.8561095E-01
        2   -1    0    0  501    0  0.00000000000E+00  0.00000000000E+00  0.18069038492E+04  0.18069038492E+04  0.25500000920E-02 0. -1.
       -2   -1    0    0    0  501  0.00000000000E+00  0.00000000000E+00 -0.61035544660E+03  0.61035544660E+03  0.25500000920E-02 0.  1.
    10030    2    1    2    0    0  0.00000000000E+00  0.00000000000E+00  0.11965484026E+04  0.24172592958E+04  0.21003367405E+04 0.  0.
        1    1    3    3  502    0  0.67674031841E+03 -0.47798168610E+03  0.13409421902E+04  0.15762518543E+04  0.50400001928E-02 0. -1.
       -1    1    3    3    0  502 -0.67674031841E+03  0.47798168610E+03 -0.14439378753E+03  0.84100744153E+03  0.50400001928E-02 0.  1.
</event>
<event>
 5   0  0.3705828E-06  0.2100422E+04  0.7818609E-02  0.8561057E-01
        2   -1    0    0  501    0  0.00000000000E+00  0.00000000000E+00  0.13224880053E+04  0.13224880053E+04  0.25500000920E-02 0. -1.
       -2   -1    0    0    0  501  0.00000000000E+00  0.00000000000E+00 -0.83399107179E+03  0.83399107179E+03  0.25500000920E-02 0.  1.
    10030    2    1    2    0    0  0.00000000000E+00  0.00000000000E+00  0.48849693348E+03  0.21564790771E+04  0.21004220423E+04 0.  0.
        5    1    3    3  502    0 -0.96789235192E+02  0.76007951919E+03 -0.49313407353E+03  0.91120378402E+03  0.46999998093E+01 0.  1.
       -5    1    3    3    0  502  0.96789235192E+02 -0.76007951919E+03  0.98163100701E+03  0.12452752930E+04  0.46999998093E+01 0. -1.
</event>
<event>
 5   0  0.1653260E-06  0.2100093E+04  0.7818609E-02  0.8561203E-01
       -1   -1    0    0    0  501  0.00000000000E+00  0.00000000000E+00  0.77522944325E+03  0.77522944326E+03  0.50400001928E-02 0.  1.
        1   -1    0    0  501    0  0.00000000000E+00  0.00000000000E+00 -0.14222852219E+04  0.14222852219E+04  0.50400001928E-02 0. -1.
    10030    2    1    2    0    0  0.00000000000E+00  0.00000000000E+00 -0.64705577862E+03  0.21975146651E+04  0.21000927415E+04 0.  0.
        3    1    3    3  502    0 -0.17203049275E+03 -0.79434129907E+03  0.37216348197E+03  0.89391177269E+03  0.10100000352E+00 0.  1.
       -3    1    3    3    0  502  0.17203049275E+03  0.79434129907E+03 -0.10192192606E+04  0.13036028924E+04  0.10100000352E+00 0. -1.
</event>
<event>
 5   0  0.1590067E-06  0.2099900E+04  0.7818609E-02  0.8561287E-01
        1   -1    0    0  501    0  0.00000000000E+00  0.00000000000E+00  0.98580963885E+03  0.98580963886E+03  0.50400001928E-02 0.  1.
       -1   -1    0    0    0  501  0.00000000000E+00  0.00000000000E+00 -0.11182637947E+04  0.11182637947E+04  0.50400001928E-02 0. -1.
    10030    2    1    2    0    0  0.00000000000E+00  0.00000000000E+00 -0.13245415585E+03  0.21040734336E+04  0.20999002144E+04 0.  0.
        5    1    3    3  502    0 -0.10222349590E+04  0.66747326795E+02 -0.29680093490E+03  0.10665516406E+04  0.46999998093E+01 0. -1.
       -5    1    3    3    0  502  0.10222349590E+04 -0.66747326795E+02  0.16434677904E+03  0.10375217930E+04  0.46999998093E+01 0.  1.
</event>
<event>
 5   0  0.3480134E-06  0.2100099E+04  0.7818609E-02  0.8561200E-01
        2   -1    0    0  501    0  0.00000000000E+00  0.00000000000E+00  0.13443548431E+04  0.13443548431E+04  0.25500000920E-02 0.  1.
       -2   -1    0    0    0  501  0.00000000000E+00  0.00000000000E+00 -0.82017366225E+03  0.82017366225E+03  0.25500000920E-02 0. -1.
    10030    2    1    2    0    0  0.00000000000E+00  0.00000000000E+00  0.52418118089E+03  0.21645285054E+04  0.21000994596E+04 0.  0.
        1    1    3    3  502    0  0.68300306698E+03 -0.71400565626E+03  0.62839103509E+03  0.11709707766E+04  0.50400001928E-02 0.  1.
       -1    1    3    3    0  502 -0.68300306698E+03  0.71400565626E+03 -0.10420985420E+03  0.99355772878E+03  0.50400001928E-02 0. -1.
</event>
<event>
 5   0  0.3636435E-06  0.2100272E+04  0.7818609E-02  0.8561123E-01
       -2   -1    0    0    0  501  0.00000000000E+00  0.00000000000E+00  0.71107438156E+03  0.71107438156E+03  0.25500000920E-02 0. -1.
        2   -1    0    0  501    0  0.00000000000E+00  0.00000000000E+00 -0.15508727985E+04  0.15508727985E+04  0.25500000920E-02 0.  1.
    10030    2    1    2    0    0  0.00000000000E+00  0.00000000000E+00 -0.83979841695E+03  0.22619471801E+04  0.21002722834E+04 0.  0.
        4    1    3    3  502    0  0.10394026397E+04  0.33859334235E+02 -0.57700517660E+03  0.11893026901E+04  0.12699999809E+01 0.  1.
       -4    1    3    3    0  502 -0.10394026397E+04 -0.33859334235E+02 -0.26279324034E+03  0.10726444900E+04  0.12699999809E+01 0. -1.
</event>
<event>
 5   0  0.1579820E-06  0.2100855E+04  0.7818609E-02  0.8560867E-01
        1   -1    0    0  501    0  0.00000000000E+00  0.00000000000E+00  0.11043263662E+04  0.11043263662E+04  0.50400001928E-02 0. -1.
       -1   -1    0    0    0  501  0.00000000000E+00  0.00000000000E+00 -0.99915898078E+03  0.99915898079E+03  0.50400001928E-02 0.  1.
    10030    2    1    2    0    0  0.00000000000E+00  0.00000000000E+00  0.10516738539E+03  0.21034853470E+04  0.21008546894E+04 0.  0.
        2    1    3    3  502    0 -0.19874749766E+03 -0.77143627536E+03  0.73811841290E+03  0.10860171666E+04  0.25500000920E-02 0. -1.
       -2    1    3    3    0  502  0.19874749766E+03  0.77143627536E+03 -0.63295102751E+03  0.10174681803E+04  0.25500000920E-02 0.  1.
</event>
<event>
 5   0  0.1646510E-06  0.2099999E+04  0.7818609E-02  0.8561244E-01
       -1   -1    0    0    0  501  0.00000000000E+00  0.00000000000E+00  0.10771353717E+04  0.10771353717E+04  0.50400001928E-02 0. -1.
        1   -1    0    0  501    0  0.00000000000E+00  0.00000000000E+00 -0.10235470439E+04  0.10235470439E+04  0.50400001928E-02 0.  1.
    10030    2    1    2    0    0  0.00000000000E+00  0.00000000000E+00  0.53588327829E+02  0.21006824157E+04  0.20999987863E+04 0.  0.
        4    1    3    3  502    0 -0.72992814890E+03  0.27183477516E+03  0.73115964172E+03  0.10683095441E+04  0.12699999809E+01 0. -1.
       -4    1    3    3    0  502  0.72992814890E+03 -0.27183477516E+03 -0.67757131389E+03  0.10323728715E+04  0.12699999809E+01 0.  1.
</event>
<event>
 5   0  0.3574927E-06  0.2100488E+04  0.7818609E-02  0.8561028E-01
       -2   -1    0    0    0  501  0.00000000000E+00  0.00000000000E+00  0.73049654412E+03  0.73049654412E+03  0.25500000920E-02 0. -1.
        2   -1    0    0  501    0  0.00000000000E+00  0.00000000000E+00 -0.15099493630E+04  0.15099493630E+04  0.25500000920E-02 0.  1.
    10030    2    1    2    0    0  0.00000000000E+00  0.00000000000E+00 -0.77945281892E+03  0.22404459072E+04  0.21004883161E+04 0.  0.
        3    1    3    3  502    0  0.10929034612E+03  0.84305583728E+03  0.26807042065E+03  0.89137494084E+03  0.10100000352E+00 0. -1.
       -3    1    3    3    0  502 -0.10929034612E+03 -0.84305583728E+03 -0.10475232396E+04  0.13490709663E+04  0.10100000352E+00 0.  1.
</event>
<event>
 5   0  0.1615098E-06  0.2100333E+04  0.7818609E-02  0.8561097E-01
       -1   -1    0    0    0  501  0.00000000000E+00  0.00000000000E+00  0.88970024859E+03  0.88970024861E+03  0.50400001928E-02 0. -1.
        1   -1    0    0  501    0  0.00000000000E+00  0.00000000000E+00 -0.12395748382E+04  0.12395748382E+04  0.50400001928E-02 0.  1.
    10030    2    1    2    0    0  0.00000000000E+00  0.00000000000E+00 -0.34987458961E+03  0.21292750868E+04  0.21003333466E+04 0.  0.
        1    1    3    3  502    0 -0.78527438769E+03  0.34533950235E+03  0.43916115293E+03  0.96373116278E+03  0.50400001928E-02 0. -1.
       -1    1    3    3    0  502  0.78527438769E+03 -0.34533950235E+03 -0.78903574254E+03  0.11655439240E+04  0.50400001928E-02 0.  1.
</event>
<event>
 5   0  0.3705828E-06  0.2099283E+04  0.7818609E-02  0.8561559E-01
        2   -1    0    0  501    0  0.00000000000E+00  0.00000000000E+00  0.82432561251E+03  0.82432561252E+03  0.25500000920E-02 0.  1.
       -2   -1    0    0    0  501  0.00000000000E+00  0.00000000000E+00 -0.13365441261E+04  0.13365441261E+04  0.25500000920E-02 0. -1.
    10030    2    1    2    0    0  0.00000000000E+00  0.00000000000E+00 -0.51221851358E+03  0.21608697386E+04  0.20992832638E+04 0.  0.
        5    1    3    3  502    0 -0.96942769495E+03  0.32371211154E+03 -0.50217434535E+03  0.11387628155E+04  0.46999998093E+01 0.  1.
       -5    1    3    3    0  502  0.96942769495E+03 -0.32371211154E+03 -0.10044168235E+02  0.10221069231E+04  0.46999998093E+01 0. -1.
</event>
<event>
 5   0  0.1579820E-06  0.2098657E+04  0.7818609E-02  0.8561835E-01
       -1   -1    0    0    0  501  0.00000000000E+00  0.00000000000E+00  0.51517535100E+03  0.51517535103E+03  0.50400001928E-02 0.  1.
        1   -1    0    0  501    0  0.00000000000E+00  0.00000000000E+00 -0.21373125347E+04  0.21373125347E+04  0.50400001928E-02 0. -1.
    10030    2    1    2    0    0  0.00000000000E+00  0.00000000000E+00 -0.16221371837E+04  0.26524878857E+04  0.20986574140E+04 0.  0.
        2    1    3    3  502    0 -0.10483775888E+04  0.43946585291E+02 -0.80096814740E+03  0.13200669848E+04  0.25500000920E-02 0.  1.
       -2    1    3    3    0  502  0.10483775888E+04 -0.43946585291E+02 -0.82116903627E+03  0.13324209009E+04  0.25500000920E-02 0. -1.
</event>
<event>
 5   0  0.3480134E-06  0.2099139E+04  0.7818609E-02  0.8561623E-01
       -2   -1    0    0    0  501  0.00000000000E+00  0.00000000000E+00  0.98488128221E+03  0.98488128222E+03  0.25500000920E-02 0. -1.
        2   -1    0    0  501    0  0.00000000000E+00  0.00000000000E+00 -0.11185065634E+04  0.11185065634E+04  0.25500000920E-02 0.  1.
    10030    2    1    2    0    0  0.00000000000E+00  0.00000000000E+00 -0.13362528116E+03  0.21033878456E+04  0.20991390409E+04 0.  0.
        1    1    3    3  502    0  0.78939224253E+03 -0.91820997966E+02  0.62015869993E+03  0.10080515966E+04  0.50400001928E-02 0. -1.
       -1    1    3    3    0  502 -0.78939224253E+03  0.91820997966E+02 -0.75378398109E+03  0.10953362490E+04  0.50400001928E-02 0.  1.
</event>
<event>
 5   0  0.3547583E-06  0.2100199E+04  0.7818609E-02  0.8561156E-01
       -2   -1    0    0    0  501  0.00000000000E+00  0.00000000000E+00  0.11384942899E+04  0.11384942899E+04  0.25500000920E-02 0. -1.
        2   -1    0    0  501    0  0.00000000000E+00  0.00000000000E+00 -0.96856784848E+03  0.96856784848E+03  0.25500000920E-02 0.  1.
    10030    2    1    2    0    0  0.00000000000E+00  0.00000000000E+00  0.16992644141E+03  0.21070621384E+04  0.21001990047E+04 0.  0.
        2    1    3    3  502    0 -0.58696204464E+02 -0.47880324617E+03  0.10207551812E+04  0.11289990845E+04  0.25500000920E-02 0. -1.
       -2    1    3    3    0  502  0.58696204464E+02  0.47880324617E+03 -0.85082873975E+03  0.97806305387E+03  0.25500000920E-02 0.  1.
</event>
<event>
 5   0  0.1257125E-06  0.2100500E+04  0.7818609E-02  0.8561023E-01
       -3   -1    0    0    0  501  0.00000000000E+00  0.00000000000E+00  0.14789358063E+04  0.14789358097E+04  0.10100000352E+00 0.  1.
        3   -1    0    0  501    0  0.00000000000E+00  0.00000000000E+00 -0.74582360806E+03  0.74582361490E+03  0.10100000352E+00 0. -1.
    10030    2    1    2    0    0  0.00000000000E+00  0.00000000000E+00  0.73311219822E+03  0.22247594246E+04  0.21005001791E+04 0.  0.
        4    1    3    3  502    0 -0.45414668657E+03  0.89400941059E+03  0.69731438916E+03  0.12213725924E+04  0.12699999809E+01 0.  1.
       -4    1    3    3    0  502  0.45414668657E+03 -0.89400941059E+03  0.35797809059E+02  0.10033868323E+04  0.12699999809E+01 0. -1.
</event>
<event>
 5   0  0.1646510E-06  0.2101232E+04  0.7818609E-02  0.8560701E-01
       -1   -1    0    0    0  501  0.00000000000E+00  0.00000000000E+00  0.56178386965E+03  0.56178386967E+03  0.50400001928E-02 0.  1.
        1   -1    0    0  501    0  0.00000000000E+00  0.00000000000E+00 -0.19648022431E+04  0.19648022431E+04  0.50400001928E-02 0. -1.
    10030    2    1    2    0    0  0.00000000000E+00  0.00000000000E+00 -0.14030183735E+04  0.25265861128E+04  0.21012322169E+04 0.  0.
        4    1    3    3  502    0 -0.42414126191E+03  0.32209566962E+03 -0.17904568482E+04  0.18679878931E+04  0.12699999809E+01 0. -1.
       -4    1    3    3    0  502  0.42414126191E+03 -0.32209566962E+03  0.38743847473E+03  0.65859821974E+03  0.12699999809E+01 0.  1.
</event>
<event>
 5   0  0.3636435E-06  0.2097694E+04  0.7818609E-02  0.8562260E-01
        2   -1    0    0  501    0  0.00000000000E+00  0.00000000000E+00  0.84883558249E+03  0.84883558250E+03  0.25500000920E-02 0.  1.
       -2   -1    0    0    0  501  0.00000000000E+00  0.00000000000E+00 -0.12959869543E+04  0.12959869543E+04  0.25500000920E-02 0. -1.
    10030    2    1    2    0    0  0.00000000000E+00  0.00000000000E+00 -0.44715137178E+03  0.21448225368E+04  0.20976938206E+04 0.  0.
        4    1    3    3  502    0 -0.72950558319E+03 -0.34884500509E+03  0.45941920120E+03  0.93002088622E+03  0.12699999809E+01 0.  1.
       -4    1    3    3    0  502  0.72950558319E+03  0.34884500509E+03 -0.90657057299E+03  0.12148016506E+04  0.12699999809E+01 0. -1.
</event>
<event>
 5   0  0.3705828E-06  0.2100986E+04  0.7818609E-02  0.8560809E-01
        2   -1    0    0  501    0  0.00000000000E+00  0.00000000000E+00  0.12967918251E+04  0.12967918251E+04  0.25500000920E-02 0. -1.
       -2   -1    0    0    0  501  0.00000000000E+00  0.00000000000E+00 -0.85097362876E+03  0.85097362876E+03  0.25500000920E-02 0.  1.
    10030    2    1    2    0    0  0.00000000000E+00  0.00000000000E+00  0.44581819632E+03  0.21477654538E+04  0.21009860972E+04 0.  0.
        5    1    3    3  502    0 -0.75716538640E+03  0.35306067252E+03  0.87392629334E+03  0.12090163428E+04  0.46999998093E+01 0. -1.
       -5    1    3    3    0  502  0.75716538640E+03 -0.35306067252E+03 -0.42810809702E+03  0.93874911109E+03  0.46999998093E+01 0.  1.
</event>
<event>
 5   0  0.1615098E-06  0.2099891E+04  0.7818609E-02  0.8561291E-01
        1   -1    0    0  501    0  0.00000000000E+00  0.00000000000E+00  0.63019023271E+03  0.63019023273E+03  0.50400001928E-02 0. -1.
       -1   -1    0    0    0  501  0.00000000000E+00  0.00000000000E+00 -0.17492899121E+04  0.17492899121E+04  0.50400001928E-02 0.  1.
    10030    2    1    2    0    0  0.00000000000E+00  0.00000000000E+00 -0.11190996794E+04  0.23794801448E+04  0.20998908703E+04 0.  0.
        1    1    3    3  502    0 -0.37024666973E+03 -0.98008837834E+03 -0.48162118993E+03  0.11530892404E+04  0.50400001928E-02 0.  1.
       -1    1    3    3    0  502  0.37024666973E+03  0.98008837834E+03 -0.63747848944E+03  0.12263909044E+04  0.50400001928E-02 0. -1.
</event>
<event>
 5   0  0.3636435E-06  0.2100606E+04  0.7818609E-02  0.8560976E-01
        2   -1    0    0  501    0  0.00000000000E+00  0.00000000000E+00  0.21155744107E+04  0.21155744107E+04  0.25500000920E-02 0.  1.
       -2   -1    0    0    0  501  0.00000000000E+00  0.00000000000E+00 -0.52143591559E+03  0.52143591560E+03  0.25500000920E-02 0. -1.
    10030    2    1    2    0    0  0.00000000000E+00  0.00000000000E+00  0.15941384951E+04  0.26370103263E+04  0.21006060838E+04 0.  0.
        4    1    3    3  502    0  0.35994869322E+02  0.51743636277E+03  0.19435742972E+04  0.20115960533E+04  0.12699999809E+01 0.  1.
       -4    1    3    3    0  502 -0.35994869322E+02 -0.51743636277E+03 -0.34943580210E+03  0.62541427296E+03  0.12699999809E+01 0. -1.
</event>
<event>
 5   0  0.1257125E-06  0.2099934E+04  0.7818609E-02  0.8561272E-01
       -3   -1    0    0    0  501  0.00000000000E+00  0.00000000000E+00  0.81398023302E+03  0.81398023929E+03  0.10100000352E+00 0.  1.
        3   -1    0    0  501    0  0.00000000000E+00  0.00000000000E+00 -0.13543703306E+04  0.13543703343E+04  0.10100000352E+00 0. -1.
    10030    2    1    2    0    0  0.00000000000E+00  0.00000000000E+00 -0.54039009755E+03  0.21683505736E+04  0.20999339877E+04 0.  0.
        5    1    3    3  502    0  0.22954591129E+03 -0.22035423361E+03 -0.13033747854E+04  0.13416613711E+04  0.46999998093E+01 0. -1.
       -5    1    3    3    0  502 -0.22954591129E+03  0.22035423361E+03  0.76298468782E+03  0.82668920249E+03  0.46999998093E+01 0.  1.
</event>
<event>
 5   0  0.1653260E-06  0.2099545E+04  0.7818609E-02  0.8561444E-01
       -1   -1    0    0    0  501  0.00000000000E+00  0.00000000000E+00  0.49892969801E+03  0.49892969803E+03  0.50400001928E-02 0. -1.
        1   -1    0    0  501    0  0.00000000000E+00  0.00000000000E+00 -0.22087723028E+04  0.22087723028E+04  0.50400001928E-02 0.  1.
    10030    2    1    2    0    0  0.00000000000E+00  0.00000000000E+00 -0.17098426048E+04  0.27077020008E+04  0.20995448060E+04 0.  0.
        3    1    3    3  502    0  0.55644423924E+03 -0.82165242215E+03 -0.12965794069E+04  0.16327464785E+04  0.10100000352E+00 0.  1.
       -3    1    3    3    0  502 -0.55644423924E+03  0.82165242215E+03 -0.41326319785E+03  0.10749555224E+04  0.10100000352E+00 0. -1.
</event>
<event>
 5   0  0.1579820E-06  0.2099971E+04  0.7818609E-02  0.8561256E-01
       -1   -1    0    0    0  501  0.00000000000E+00  0.00000000000E+00  0.10954531089E+04  0.10954531089E+04  0.50400001928E-02 0. -1.
        1   -1    0    0  501    0  0.00000000000E+00  0.00000000000E+00 -0.10064052597E+04  0.10064052597E+04  0.50400001928E-02 0.  1.
    10030    2    1    2    0    0  0.00000000000E+00  0.00000000000E+00  0.89047849200E+02  0.21018583686E+04  0.20999712099E+04 0.  0.
        2    1    3    3  502    0  0.42052263375E+03  0.20434377575E+03  0.98551458536E+03  0.10907954264E+04  0.25500000920E-02 0. -1.
       -2    1    3    3    0  502 -0.42052263375E+03 -0.20434377575E+03 -0.89646673616E+03  0.10110629423E+04  0.25500000920E-02 0.  1.
</event>
<event>
 5   0  0.1579820E-06  0.2097618E+04  0.7818609E-02  0.8562294E-01
       -1   -1    0    0    0  501  0.00000000000E+00  0.00000000000E+00  0.81066449806E+03  0.81066449808E+03  0.50400001928E-02 0.  1.
        1   -1    0    0  501    0  0.00000000000E+00  0.00000000000E+00 -0.13569113331E+04  0.13569113331E+04  0.50400001928E-02 0. -1.
    10030    2    1    2    0    0  0.00000000000E+00  0.00000000000E+00 -0.54624683501E+03  0.21675758312E+04  0.20976175483E+04 0.  0.
        2    1    3    3  502    0  0.28772934861E+03 -0.31500614057E+02  0.76857433788E+03  0.82127156264E+03  0.25500000920E-02 0.  1.
       -2    1    3    3    0  502 -0.28772934861E+03  0.31500614057E+02 -0.13148211729E+04  0.13463042685E+04  0.25500000920E-02 0. -1.
</event>
<event>
 5   0  0.1615098E-06  0.2100502E+04  0.7818609E-02  0.8561022E-01
        1   -1    0    0  501    0  0.00000000000E+00  0.00000000000E+00  0.97237339881E+03  0.97237339882E+03  0.50400001928E-02 0. -1.
       -1   -1    0    0    0  501  0.00000000000E+00  0.00000000000E+00 -0.11343661474E+04  0.11343661475E+04  0.50400001928E-02 0.  1.
    10030    2    1    2    0    0  0.00000000000E+00  0.00000000000E+00 -0.16199274863E+03  0.21067395463E+04  0.21005022888E+04 0.  0.
        1    1    3    3  502    0 -0.42880262812E+03 -0.33951742517E+03  0.81826159920E+03  0.98422346072E+03  0.50400001928E-02 0. -1.
       -1    1    3    3    0  502  0.42880262812E+03  0.33951742517E+03 -0.98025434782E+03  0.11225160856E+04  0.50400001928E-02 0.  1.
</event>
<event>
 5   0  0.1590067E-06  0.2100250E+04  0.7818609E-02  0.8561133E-01
        1   -1    0    0  501    0  0.00000000000E+00  0.00000000000E+00  0.12786292526E+04  0.12786292526E+04  0.50400001928E-02 0. -1.
       -1   -1    0    0    0  501  0.00000000000E+00  0.00000000000E+00 -0.86245719585E+03  0.86245719586E+03  0.50400001928E-02 0.  1.
    10030    2    1    2    0    0  0.00000000000E+00  0.00000000000E+00  0.41617205671E+03  0.21410864484E+04  0.21002504610E+04 0.  0.
        5    1    3    3  502    0  0.34781453071E+03  0.77832529451E+03 -0.41700461908E+03  0.94904170308E+03  0.46999998093E+01 0.  1.
       -5    1    3    3    0  502 -0.34781453071E+03 -0.77832529451E+03  0.83317667580E+03  0.11920447454E+04  0.46999998093E+01 0. -1.
</event>
<event>
 5   0  0.1579820E-06  0.2099824E+04  0.7818609E-02  0.8561321E-01
        1   -1    0    0  501    0  0.00000000000E+00  0.00000000000E+00  0.24536539421E+04  0.24536539421E+04  0.50400001928E-02 0. -1.
       -1   -1    0    0    0  501  0.00000000000E+00  0.00000000000E+00 -0.44925464277E+03  0.44925464280E+03  0.50400001928E-02 0.  1.
    10030    2    1    2    0    0  0.00000000000E+00  0.00000000000E+00  0.20043992993E+04  0.29029085849E+04  0.20998242072E+04 0.  0.
        2    1    3    3  502    0 -0.23503436808E+03  0.60833057040E+03 -0.13528981352E+03  0.66604096774E+03  0.25500000920E-02 0.  1.
       -2    1    3    3    0  502  0.23503436808E+03 -0.60833057040E+03  0.21396891128E+04  0.22368676171E+04  0.25500000920E-02 0. -1.
</event>
<event>
 5   0  0.3636435E-06  0.2099727E+04  0.7818609E-02  0.8561364E-01
       -2   -1    0    0    0  501  0.00000000000E+00  0.00000000000E+00  0.14875211101E+04  0.14875211101E+04  0.25500000920E-02 0.  1.
        2   -1    0    0  501    0  0.00000000000E+00  0.00000000000E+00 -0.74097313390E+03  0.74097313391E+03  0.25500000920E-02 0. -1.
    10030    2    1    2    0    0  0.00000000000E+00  0.00000000000E+00  0.74654797623E+03  0.22284942440E+04  0.20997268191E+04 0.  0.
        4    1    3    3  502    0  0.18563823986E+03  0.23197645695E+03  0.14419700098E+04  0.14722614424E+04  0.12699999809E+01 0.  1.
       -4    1    3    3    0  502 -0.18563823986E+03 -0.23197645695E+03 -0.69542203355E+03  0.75623280167E+03  0.12699999809E+01 0. -1.
</event>
<event>
 5   0  0.3636435E-06  0.2100287E+04  0.7818609E-02  0.8561117E-01
        2   -1    0    0  501    0  0.00000000000E+00  0.00000000000E+00  0.18082099707E+04  0.18082099707E+04  0.25500000920E-02 0.  1.
       -2   -1    0    0    0  501  0.00000000000E+00  0.00000000000E+00 -0.60988581604E+03  0.60988581605E+03  0.25500000920E-02 0. -1.
    10030    2    1    2    0    0  0.00000000000E+00  0.00000000000E+00  0.11983241546E+04  0.24180957867E+04  0.21002872313E+04 0.  0.
        4    1    3    3  502    0  0.71502064123E+03 -0.33949189610E+03 -0.19540556557E+03  0.81528780983E+03  0.12699999809E+01 0. -1.
       -4    1    3    3    0  502 -0.71502064123E+03  0.33949189610E+03  0.13937297202E+04  0.16028079769E+04  0.12699999809E+01 0.  1.
</event>
<event>
 5   0  0.3480134E-06  0.2100421E+04  0.7818609E-02  0.8561058E-01
       -2   -1    0    0    0  501  0.00000000000E+00  0.00000000000E+00  0.12424167639E+04  0.12424167639E+04  0.25500000920E-02 0. -1.
        2   -1    0    0  501    0  0.00000000000E+00  0.00000000000E+00 -0.88773909497E+03  0.88773909497E+03  0.25500000920E-02 0.  1.
    10030    2    1    2    0    0  0.00000000000E+00  0.00000000000E+00  0.35467766888E+03  0.21301558588E+04  0.21004208469E+04 0.  0.
        1    1    3    3  502    0  0.14401522973E+03 -0.49760108598E+03 -0.74915572583E+03  0.91081366302E+03  0.50400001928E-02 0.  1.
       -1    1    3    3    0  502 -0.14401522973E+03  0.49760108598E+03  0.11038333947E+04  0.12193421958E+04  0.50400001928E-02 0. -1.
</event>
<event>
 5   0  0.1646510E-06  0.2098892E+04  0.7818609E-02  0.8561732E-01
       -1   -1    0    0    0  501  0.00000000000E+00  0.00000000000E+00  0.49167628371E+03  0.49167628374E+03  0.50400001928E-02 0.  1.
        1   -1    0    0  501    0  0.00000000000E+00  0.00000000000E+00 -0.22399637226E+04  0.22399637226E+04  0.50400001928E-02 0. -1.
    10030    2    1    2    0    0  0.00000000000E+00  0.00000000000E+00 -0.17482874389E+04  0.27316400063E+04  0.20988921257E+04 0.  0.
        4    1    3    3  502    0  0.50296299030E+02  0.10383921339E+04 -0.68758623475E+03  0.12464206290E+04  0.12699999809E+01 0. -1.
       -4    1    3    3    0  502 -0.50296299030E+02 -0.10383921339E+04 -0.10607012041E+04  0.14852193773E+04  0.12699999809E+01 0.  1.
</event>
<event>
 5   0  0.1646510E-06  0.2099842E+04  0.7818609E-02  0.8561313E-01
        1   -1    0    0  501    0  0.00000000000E+00  0.00000000000E+00  0.14969861174E+04  0.14969861174E+04  0.50400001928E-02 0. -1.
       -1   -1    0    0    0  501  0.00000000000E+00  0.00000000000E+00 -0.73636903352E+03  0.73636903353E+03  0.50400001928E-02 0.  1.
    10030    2    1    2    0    0  0.00000000000E+00  0.00000000000E+00  0.76061708384E+03  0.22333551509E+04  0.20998421088E+04 0.  0.
        4    1    3    3  502    0 -0.17087528014E+03  0.89704687353E+03  0.93136449412E+03  0.13043515203E+04  0.12699999809E+01 0. -1.
       -4    1    3    3    0  502  0.17087528014E+03 -0.89704687353E+03 -0.17074741028E+03  0.92900363061E+03  0.12699999809E+01 0.  1.
</event>
<event>
 5   0  0.3705828E-06  0.2099588E+04  0.7818609E-02  0.8561425E-01
        2   -1    0    0  501    0  0.00000000000E+00  0.00000000000E+00  0.21843604964E+04  0.21843604964E+04  0.25500000920E-02 0. -1.
       -2   -1    0    0    0  501  0.00000000000E+00  0.00000000000E+00 -0.50452643571E+03  0.50452643571E+03  0.25500000920E-02 0.  1.
    10030    2    1    2    0    0  0.00000000000E+00  0.00000000000E+00  0.16798340607E+04  0.26888869321E+04  0.20995881649E+04 0.  0.
        5    1    3    3  502    0 -0.60354526579E+03 -0.85587743595E+03  0.74710174932E+03  0.12864587778E+04  0.46999998093E+01 0.  1.
       -5    1    3    3    0  502  0.60354526579E+03  0.85587743595E+03  0.93273231136E+03  0.14024281543E+04  0.46999998093E+01 0. -1.
</event>
<event>
 5   0  0.1590067E-06  0.2100400E+04  0.7818609E-02  0.8561067E-01
       -1   -1    0    0    0  501  0.00000000000E+00  0.00000000000E+00  0.83470650281E+03  0.83470650282E+03  0.50400001928E-02 0. -1.
        1   -1    0    0  501    0  0.00000000000E+00  0.00000000000E+00 -0.13213265608E+04  0.13213265608E+04  0.50400001928E-02 0.  1.
    10030    2    1    2    0    0  0.00000000000E+00  0.00000000000E+00 -0.48662005796E+03  0.21560330636E+04  0.21003998406E+04 0.  0.
        5    1    3    3  502    0  0.20809895585E+03 -0.47283484585E+03  0.69524928895E+03  0.86618221562E+03  0.46999998093E+01 0. -1.
       -5    1    3    3    0  502 -0.20809895585E+03  0.47283484585E+03 -0.11818693469E+04  0.12898508480E+04  0.46999998093E+01 0.  1.
</event>
<event>
 5   0  0.1590067E-06  0.2102054E+04  0.7818609E-02  0.8560339E-01
       -1   -1    0    0    0  501  0.00000000000E+00  0.00000000000E+00  0.82325681364E+03  0.82325681365E+03  0.50400001928E-02 0. -1.
        1   -1    0    0  501    0  0.00000000000E+00  0.00000000000E+00 -0.13418138081E+04  0.13418138081E+04  0.50400001928E-02 0.  1.
    10030    2    1    2    0    0  0.00000000000E+00  0.00000000000E+00 -0.51855699443E+03  0.21650706217E+04  0.21020536246E+04 0.  0.
        5    1    3    3  502    0 -0.73727719810E+03 -0.20580828926E+03  0.48252116447E+03  0.90486655532E+03  0.46999998093E+01 0. -1.
       -5    1    3    3    0  502  0.73727719810E+03  0.20580828926E+03 -0.10010781589E+04  0.12602040664E+04  0.46999998093E+01 0.  1.
</event>
<event>
 5   0  0.3547583E-06  0.2099929E+04  0.7818609E-02  0.8561275E-01
       -2   -1    0    0    0  501  0.00000000000E+00  0.00000000000E+00  0.74272690839E+03  0.74272690839E+03  0.25500000920E-02 0. -1.
        2   -1    0    0  501    0  0.00000000000E+00  0.00000000000E+00 -0.14842945293E+04  0.14842945293E+04  0.25500000920E-02 0.  1.
    10030    2    1    2    0    0  0.00000000000E+00  0.00000000000E+00 -0.74156762089E+03  0.22270214377E+04  0.20999290339E+04 0.  0.
        2    1    3    3  502    0  0.29484178370E+03 -0.82322168143E+03  0.24559758285E+03  0.90826416141E+03  0.25500000920E-02 0. -1.
       -2    1    3    3    0  502 -0.29484178370E+03  0.82322168143E+03 -0.98716520374E+03  0.13187572763E+04  0.25500000920E-02 0.  1.
</event>
<event>
 5   0  0.1653260E-06  0.2100776E+04  0.7818609E-02  0.8560902E-01
       -1   -1    0    0    0  501  0.00000000000E+00  0.00000000000E+00  0.58095528772E+03  0.58095528775E+03  0.50400001928E-02 0. -1.
        1   -1    0    0  501    0  0.00000000000E+00  0.00000000000E+00 -0.18991389532E+04  0.18991389532E+04  0.50400001928E-02 0.  1.
    10030    2    1    2    0    0  0.00000000000E+00  0.00000000000E+00 -0.13181836655E+04  0.24800942410E+04  0.21007758729E+04 0.  0.
        3    1    3    3  502    0  0.34438899222E+03  0.14864989597E+03  0.49919095647E+03  0.62441347740E+03  0.10100000352E+00 0. -1.
       -3    1    3    3    0  502 -0.34438899222E+03 -0.14864989597E+03 -0.18173746220E+04  0.18556807636E+04  0.10100000352E+00 0.  1.
</event>
<event>
 5   0  0.3574927E-06  0.2099049E+04  0.7818609E-02  0.8561662E-01
       -2   -1    0    0    0  501  0.00000000000E+00  0.00000000000E+00  0.49618928299E+03  0.49618928300E+03  0.25500000920E-02 0. -1.
        2   -1    0    0  501    0  0.00000000000E+00  0.00000000000E+00 -0.22199224284E+04  0.22199224284E+04  0.25500000920E-02 0.  1.
    10030    2    1    2    0    0  0.00000000000E+00  0.00000000000E+00 -0.17237331454E+04  0.27161117114E+04  0.20990490400E+04 0.  0.
        3    1    3    3  502    0 -0.18119824791E+03  0.34662932765E+03  0.39835701858E+03  0.55827683122E+03  0.10100000352E+00 0. -1.
       -3    1    3    3    0  502  0.18119824791E+03 -0.34662932765E+03 -0.21220901640E+04  0.21578348802E+04  0.10100000352E+00 0.  1.
</event>
<event>
 5   0  0.3636435E-06  0.2100206E+04  0.7818609E-02  0.8561153E-01
       -2   -1    0    0    0  501  0.00000000000E+00  0.00000000000E+00  0.89754406576E+03  0.89754406577E+03  0.25500000920E-02 0. -1.
        2   -1    0    0  501    0  0.00000000000E+00  0.00000000000E+00 -0.12285931734E+04  0.12285931734E+04  0.25500000920E-02 0.  1.
    10030    2    1    2    0    0  0.00000000000E+00  0.00000000000E+00 -0.33104910762E+03  0.21261372392E+04  0.21002061918E+04 0.  0.
        4    1    3    3  502    0 -0.14284820629E+03 -0.75047027337E+03  0.56385973502E+03  0.94950021323E+03  0.12699999809E+01 0. -1.
       -4    1    3    3    0  502  0.14284820629E+03  0.75047027337E+03 -0.89490884264E+03  0.11766370259E+04  0.12699999809E+01 0.  1.
</event>
<event>
 5   0  0.3636435E-06  0.2101377E+04  0.7818609E-02  0.8560637E-01
        2   -1    0    0  501    0  0.00000000000E+00  0.00000000000E+00  0.14482296440E+04  0.14482296440E+04  0.25500000920E-02 0. -1.
       -2   -1    0    0    0  501  0.00000000000E+00  0.00000000000E+00 -0.76227318663E+03  0.76227318664E+03  0.25500000920E-02 0.  1.
    10030    2    1    2    0    0  0.00000000000E+00  0.00000000000E+00  0.68595645736E+03  0.22105028306E+04  0.21013772871E+04 0.  0.
        4    1    3    3  502    0 -0.18021293745E+03 -0.33930058471E+02 -0.74530833093E+03  0.76753766861E+03  0.12699999809E+01 0.  1.
       -4    1    3    3    0  502  0.18021293745E+03  0.33930058471E+02  0.14312647883E+04  0.14429651620E+04  0.12699999809E+01 0. -1.
</event>
<event>
 5   0  0.1579820E-06  0.2101238E+04  0.7818609E-02  0.8560698E-01
        1   -1    0    0  501    0  0.00000000000E+00  0.00000000000E+00  0.12762295215E+04  0.12762295215E+04  0.50400001928E-02 0. -1.
       -1   -1    0    0    0  501  0.00000000000E+00  0.00000000000E+00 -0.86489135149E+03  0.86489135150E+03  0.50400001928E-02 0.  1.
    10030    2    1    2    0    0  0.00000000000E+00  0.00000000000E+00  0.41133817002E+03  0.21411208730E+04  0.21012376122E+04 0.  0.
        2    1    3    3  502    0  0.19897357520E+03 -0.17457169861E+03  0.12416945815E+04  0.12695948942E+04  0.25500000920E-02 0. -1.
       -2    1    3    3    0  502 -0.19897357520E+03  0.17457169861E+03 -0.83035641152E+03  0.87152597881E+03  0.25500000920E-02 0.  1.
</event>
<event>
 5   0  0.3480134E-06  0.2100763E+04  0.7818609E-02  0.8560907E-01
        2   -1    0    0  501    0  0.00000000000E+00  0.00000000000E+00  0.10737720509E+04  0.10737720509E+04  0.25500000920E-02 0. -1.
       -2   -1    0    0    0  501  0.00000000000E+00  0.00000000000E+00 -0.10275006193E+04  0.10275006193E+04  0.25500000920E-02 0.  1.
    10030    2    1    2    0    0  0.00000000000E+00  0.00000000000E+00  0.46271431582E+02  0.21012726702E+04  0.21007631445E+04 0.  0.
        1    1    3    3  502    0  0.34783859383E+03  0.20603644347E+03 -0.94656254232E+03  0.10292829300E+04  0.50400001928E-02 0.  1.
       -1    1    3    3    0  502 -0.34783859383E+03 -0.20603644347E+03  0.99283397390E+03  0.10719897402E+04  0.50400001928E-02 0. -1.
</event>
<event>
 5   0  0.1615098E-06  0.2099909E+04  0.7818609E-02  0.8561283E-01
        1   -1    0    0  501    0  0.00000000000E+00  0.00000000000E+00  0.11525270593E+04  0.11525270593E+04  0.50400001928E-02 0.  1.
       -1   -1    0    0    0  501  0.00000000000E+00  0.00000000000E+00 -0.95651077987E+03  0.95651077988E+03  0.50400001928E-02 0. -1.
    10030    2    1    2    0    0  0.00000000000E+00  0.00000000000E+00  0.19601627941E+03  0.21090378392E+04  0.20999090993E+04 0.  0.
        1    1    3    3  502    0 -0.18614464689E+03  0.81600018672E+03 -0.53870238209E+03  0.99534234853E+03  0.50400001928E-02 0. -1.
       -1    1    3    3    0  502  0.18614464689E+03 -0.81600018672E+03  0.73471866151E+03  0.11136954906E+04  0.50400001928E-02 0.  1.
</event>
<event>
 5   0  0.1590067E-06  0.2100113E+04  0.7818609E-02  0.8561194E-01
       -1   -1    0    0    0  501  0.00000000000E+00  0.00000000000E+00  0.81829450536E+03  0.81829450537E+03  0.50400001928E-02 0. -1.
        1   -1    0    0  501    0  0.00000000000E+00  0.00000000000E+00 -0.13474588108E+04  0.13474588108E+04  0.50400001928E-02 0.  1.
    10030    2    1    2    0    0  0.00000000000E+00  0.00000000000E+00 -0.52916430546E+03  0.21657533162E+04  0.21001125123E+04 0.  0.
        5    1    3    3  502    0  0.24268169912E+03 -0.92919521888E+03 -0.70246884502E+03  0.11898666858E+04  0.46999998093E+01 0.  1.
       -5    1    3    3    0  502 -0.24268169912E+03  0.92919521888E+03  0.17330453956E+03  0.97588663035E+03  0.46999998093E+01 0. -1.
</event>
<event>
 5   0  0.3480134E-06  0.2099420E+04  0.7818609E-02  0.8561499E-01
       -2   -1    0    0    0  501  0.00000000000E+00  0.00000000000E+00  0.50235520204E+03  0.50235520204E+03  0.25500000920E-02 0.  1.
        2   -1    0    0  501    0  0.00000000000E+00  0.00000000000E+00 -0.21934498495E+04  0.21934498495E+04  0.25500000920E-02 0. -1.
    10030    2    1    2    0    0  0.00000000000E+00  0.00000000000E+00 -0.16910946475E+04  0.26958050516E+04  0.20994198649E+04 0.  0.
        1    1    3    3  502    0  0.27294161613E+03  0.17644169290E+03 -0.21272166630E+04  0.21519013751E+04  0.50400001928E-02 0. -1.
       -1    1    3    3    0  502 -0.27294161613E+03 -0.17644169290E+03  0.43612201553E+03  0.54390367645E+03  0.50400001928E-02 0.  1.
</event>
<event>
 5   0  0.1590067E-06  0.2099069E+04  0.7818609E-02  0.8561654E-01
        1   -1    0    0  501    0  0.00000000000E+00  0.00000000000E+00  0.13680790251E+04  0.13680790251E+04  0.50400001928E-02 0. -1.
       -1   -1    0    0    0  501  0.00000000000E+00  0.00000000000E+00 -0.80515995557E+03  0.80515995559E+03  0.50400001928E-02 0.  1.
    10030    2    1    2    0    0  0.00000000000E+00  0.00000000000E+00  0.56291906950E+03  0.21732389807E+04  0.20990687907E+04 0.  0.
        5    1    3    3  502    0 -0.37772562227E+03 -0.96802488372E+03  0.43415487302E+03  0.11261711082E+04  0.46999998093E+01 0.  1.
       -5    1    3    3    0  502  0.37772562227E+03  0.96802488372E+03  0.12876419647E+03  0.10470678724E+04  0.46999998093E+01 0. -1.
</event>
<event>
 5   0  0.1653260E-06  0.2103219E+04  0.7818609E-02  0.8559827E-01
        1   -1    0    0  501    0  0.00000000000E+00  0.00000000000E+00  0.13962886420E+04  0.13962886420E+04  0.50400001928E-02 0. -1.
       -1   -1    0    0    0  501  0.00000000000E+00  0.00000000000E+00 -0.79201583701E+03  0.79201583703E+03  0.50400001928E-02 0.  1.
    10030    2    1    2    0    0  0.00000000000E+00  0.00000000000E+00  0.60427280495E+03  0.21883044790E+04  0.21032191683E+04 0.  0.
        3    1    3    3  502    0  0.87132455404E+02  0.82570556408E+03 -0.36934072444E+03  0.90873226215E+03  0.10100000352E+00 0.  1.
       -3    1    3    3    0  502 -0.87132455404E+02 -0.82570556408E+03  0.97361352939E+03  0.12795722169E+04  0.10100000352E+00 0. -1.
</event>
<event>
 5   0  0.1646510E-06  0.2099257E+04  0.7818609E-02  0.8561571E-01
        1   -1    0    0  501    0  0.00000000000E+00  0.00000000000E+00  0.15739803264E+04  0.15739803264E+04  0.50400001928E-02 0. -1.
       -1   -1    0    0    0  501  0.00000000000E+00  0.00000000000E+00 -0.69995804757E+03  0.69995804759E+03  0.50400001928E-02 0.  1.
    10030    2    1    2    0    0  0.00000000000E+00  0.00000000000E+00  0.87402227885E+03  0.22739383740E+04  0.20992571984E+04 0.  0.
        4    1    3    3  502    0  0.13870281071E+02 -0.84311546600E+03  0.11140678144E+04  0.13972060627E+04  0.12699999809E+01 0. -1.
       -4    1    3    3    0  502 -0.13870281071E+02  0.84311546600E+03 -0.24004553551E+03  0.87673231133E+03  0.12699999809E+01 0.  1.
</event>
<event>
 5   0  0.3705828E-06  0.2098961E+04  0.7818609E-02  0.8561701E-01
       -2   -1    0    0    0  501  0.00000000000E+00  0.00000000000E+00  0.44190556914E+03  0.44190556914E+03  0.25500000920E-02 0.  1.
        2   -1    0    0  501    0  0.00000000000E+00  0.00000000000E+00 -0.24924090940E+04  0.24924090940E+04  0.25500000920E-02 0. -1.
    10030    2    1    2    0    0  0.00000000000E+00  0.00000000000E+00 -0.20505035249E+04  0.29343146632E+04  0.20989611328E+04 0.  0.
        5    1    3    3  502    0  0.67634029960E+03  0.80239194922E+03 -0.10100446623E+04  0.14565305870E+04  0.46999998093E+01 0.  1.
       -5    1    3    3    0  502 -0.67634029960E+03 -0.80239194922E+03 -0.10404588626E+04  0.14777840762E+04  0.46999998093E+01 0. -1.
</event>
<event>
 5   0  0.3480134E-06  0.2100087E+04  0.7818609E-02  0.8561205E-01
       -2   -1    0    0    0  501  0.00000000000E+00  0.00000000000E+00  0.14277999685E+04  0.14277999685E+04  0.25500000920E-02 0.  1.
        2   -1    0    0  501    0  0.00000000000E+00  0.00000000000E+00 -0.77223116873E+03  0.77223116873E+03  0.25500000920E-02 0. -1.
    10030    2    1    2    0    0  0.00000000000E+00  0.00000000000E+00  0.65556879982E+03  0.22000311373E+04  0.21000872729E+04 0.  0.
        1    1    3    3  502    0  0.26285986357E+03 -0.10085801454E+04  0.19419128298E+03  0.10602072778E+04  0.50400001928E-02 0. -1.
       -1    1    3    3    0  502 -0.26285986357E+03  0.10085801454E+04  0.46137751684E+03  0.11398238595E+04  0.50400001928E-02 0.  1.
</event>
<event>
 5   0  0.1579820E-06  0.2097801E+04  0.7818609E-02  0.8562212E-01
       -1   -1    0    0    0  501  0.00000000000E+00  0.00000000000E+00  0.76962765368E+03  0.76962765369E+03  0.50400001928E-02 0. -1.
        1   -1    0    0  501    0  0.00000000000E+00  0.00000000000E+00 -0.14295130168E+04  0.14295130168E+04  0.50400001928E-02 0.  1.
    10030    2    1    2    0    0  0.00000000000E+00  0.00000000000E+00 -0.65988536313E+03  0.21991406705E+04  0.20978014673E+04 0.  0.
        2    1    3    3  502    0 -0.37565376344E+03 -0.76376119624E+03 -0.97253527083E+03  0.12923899442E+04  0.25500000920E-02 0.  1.
       -2    1    3    3    0  502  0.37565376344E+03  0.76376119624E+03  0.31264990770E+03  0.90675072630E+03  0.25500000920E-02 0. -1.
</event>
<event>
 5   0  0.1590067E-06  0.2101242E+04  0.7818609E-02  0.8560697E-01
       -1   -1    0    0    0  501  0.00000000000E+00  0.00000000000E+00  0.13875138988E+04  0.13875138989E+04  0.50400001928E-02 0.  1.
        1   -1    0    0  501    0  0.00000000000E+00  0.00000000000E+00 -0.79552667797E+03  0.79552667798E+03  0.50400001928E-02 0. -1.
    10030    2    1    2    0    0  0.00000000000E+00  0.00000000000E+00  0.59198722088E+03  0.21830405768E+04  0.21012418448E+04 0.  0.
        5    1    3    3  502    0 -0.90014139144E+03  0.52718758572E+03  0.42575975271E+03  0.11267096929E+04  0.46999998093E+01 0. -1.
       -5    1    3    3    0  502  0.90014139144E+03 -0.52718758572E+03  0.16622746817E+03  0.10563308839E+04  0.46999998093E+01 0.  1.
</event>
<event>
 5   0  0.3574927E-06  0.2100304E+04  0.7818609E-02  0.8561109E-01
       -2   -1    0    0    0  501  0.00000000000E+00  0.00000000000E+00  0.50382324580E+03  0.50382324580E+03  0.25500000920E-02 0. -1.
        2   -1    0    0  501    0  0.00000000000E+00  0.00000000000E+00 -0.21889009006E+04  0.21889009006E+04  0.25500000920E-02 0.  1.
    10030    2    1    2    0    0  0.00000000000E+00  0.00000000000E+00 -0.16850776548E+04  0.26927241464E+04  0.21003039366E+04 0.  0.
        3    1    3    3  502    0 -0.10014225590E+04 -0.10615894803E+03 -0.12243750420E+04  0.15853110475E+04  0.10100000352E+00 0.  1.
       -3    1    3    3    0  502  0.10014225590E+04  0.10615894803E+03 -0.46070261284E+03  0.11074130989E+04  0.10100000352E+00 0. -1.
</event>
<event>
 5   0  0.3480134E-06  0.2100193E+04  0.7818609E-02  0.8561158E-01
        2   -1    0    0  501    0  0.00000000000E+00  0.00000000000E+00  0.25272681922E+04  0.25272681922E+04  0.25500000920E-02 0. -1.
       -2   -1    0    0    0  501  0.00000000000E+00  0.00000000000E+00 -0.43632217435E+03  0.43632217435E+03  0.25500000920E-02 0.  1.
    10030    2    1    2    0    0  0.00000000000E+00  0.00000000000E+00  0.20909460178E+04  0.29635903665E+04  0.21001934699E+04 0.  0.
        1    1    3    3  502    0 -0.48476887304E+03 -0.62433152784E+03  0.69960065021E+02  0.79352701759E+03  0.50400001928E-02 0.  1.
       -1    1    3    3    0  502  0.48476887304E+03  0.62433152784E+03  0.20209859528E+04  0.21700633489E+04  0.50400001928E-02 0. -1.
</event>
<event>
 5   0  0.1590067E-06  0.2103869E+04  0.7818609E-02  0.8559541E-01
       -1   -1    0    0    0  501  0.00000000000E+00  0.00000000000E+00  0.12888183385E+04  0.12888183385E+04  0.50400001928E-02 0.  1.
        1   -1    0    0  501    0  0.00000000000E+00  0.00000000000E+00 -0.85858992525E+03  0.85858992526E+03  0.50400001928E-02 0. -1.
    10030    2    1    2    0    0  0.00000000000E+00  0.00000000000E+00  0.43022841325E+03  0.21474082638E+04  0.21038692364E+04 0.  0.
        5    1    3    3  502    0  0.44196942695E+03  0.55405593254E+03  0.10085226235E+04  0.12326617228E+04  0.46999998093E+01 0.  1.
       -5    1    3    3    0  502 -0.44196942695E+03 -0.55405593254E+03 -0.57829421020E+03  0.91474654101E+03  0.46999998093E+01 0. -1.
</event>
<event>
 5   0  0.1579820E-06  0.2087963E+04  0.7818609E-02  0.8566564E-01
        1   -1    0    0  501    0  0.00000000000E+00  0.00000000000E+00  0.11603150846E+04  0.11603150846E+04  0.50400001928E-02 0.  1.
       -1   -1    0    0    0  501  0.00000000000E+00  0.00000000000E+00 -0.93931184137E+03  0.93931184138E+03  0.50400001928E-02 0. -1.
    10030    2    1    2    0    0  0.00000000000E+00  0.00000000000E+00  0.22100324319E+03  0.20996269259E+04  0.20879633126E+04 0.  0.
        2    1    3    3  502    0  0.55505459049E+01  0.48480496458E+03 -0.81923387223E+03  0.95195104899E+03  0.25500000920E-02 0. -1.
       -2    1    3    3    0  502 -0.55505459049E+01 -0.48480496458E+03  0.10402371154E+04  0.11476758770E+04  0.25500000920E-02 0.  1.
</event>
<event>
 5   0  0.1590067E-06  0.2100027E+04  0.7818609E-02  0.8561232E-01
        1   -1    0    0  501    0  0.00000000000E+00  0.00000000000E+00  0.98879449702E+03  0.98879449703E+03  0.50400001928E-02 0.  1.
       -1   -1    0    0    0  501  0.00000000000E+00  0.00000000000E+00 -0.11150223646E+04  0.11150223646E+04  0.50400001928E-02 0. -1.
    10030    2    1    2    0    0  0.00000000000E+00  0.00000000000E+00 -0.12622786761E+03  0.21038168617E+04  0.21000266458E+04 0.  0.
        5    1    3    3  502    0  0.34464016335E+03 -0.60922073730E+03 -0.84720088792E+03  0.10989532217E+04  0.46999998093E+01 0. -1.
       -5    1    3    3    0  502 -0.34464016335E+03  0.60922073730E+03  0.72097302031E+03  0.10048636400E+04  0.46999998093E+01 0.  1.
</event>
<event>
 5   0  0.1579820E-06  0.2099626E+04  0.7818609E-02  0.8561408E-01
        1   -1    0    0  501    0  0.00000000000E+00  0.00000000000E+00  0.23277830113E+04  0.23277830113E+04  0.50400001928E-02 0. -1.
       -1   -1    0    0    0  501  0.00000000000E+00  0.00000000000E+00 -0.47345797576E+03  0.47345797579E+03  0.50400001928E-02 0.  1.
    10030    2    1    2    0    0  0.00000000000E+00  0.00000000000E+00  0.18543250356E+04  0.28012409871E+04  0.20996260930E+04 0.  0.
        2    1    3    3  502    0 -0.84640150577E+03 -0.23237496347E+03  0.15875734351E+03  0.89196273843E+03  0.25500000920E-02 0.  1.
       -2    1    3    3    0  502  0.84640150577E+03  0.23237496347E+03  0.16955676921E+04  0.19092782487E+04  0.25500000920E-02 0. -1.
</event>
<event>
 5   0  0.1590067E-06  0.2099947E+04  0.7818609E-02  0.8561267E-01
       -1   -1    0    0    0  501  0.00000000000E+00  0.00000000000E+00  0.87995082234E+03  0.87995082235E+03  0.50400001928E-02 0.  1.
        1   -1    0    0  501    0  0.00000000000E+00  0.00000000000E+00 -0.12528480821E+04  0.12528480821E+04  0.50400001928E-02 0. -1.
    10030    2    1    2    0    0  0.00000000000E+00  0.00000000000E+00 -0.37289725977E+03  0.21327989045E+04  0.20999473328E+04 0.  0.
        5    1    3    3  502    0 -0.86996018232E+03  0.12916859474E+03  0.39602773252E+03  0.96455964025E+03  0.46999998093E+01 0. -1.
       -5    1    3    3    0  502  0.86996018232E+03 -0.12916859474E+03 -0.76892499229E+03  0.11682392642E+04  0.46999998093E+01 0.  1.
</event>
<event>
 5   0  0.1579820E-06  0.2099666E+04  0.7818609E-02  0.8561391E-01
        1   -1    0    0  501    0  0.00000000000E+00  0.00000000000E+00  0.12933982679E+04  0.12933982679E+04  0.50400001928E-02 0. -1.
       -1   -1    0    0    0  501  0.00000000000E+00  0.00000000000E+00 -0.85213435825E+03  0.85213435826E+03  0.50400001928E-02 0.  1.
    10030    2    1    2    0    0  0.00000000000E+00  0.00000000000E+00  0.44126390960E+03  0.21455326261E+04  0.20996657858E+04 0.  0.
        2    1    3    3  502    0  0.33407697165E+03 -0.49660057238E+03  0.11019869230E+04  0.12540313912E+04  0.25500000920E-02 0. -1.
       -2    1    3    3    0  502 -0.33407697165E+03  0.49660057238E+03 -0.66072301342E+03  0.89150123497E+03  0.25500000920E-02 0.  1.
</event>
<event>
 5   0  0.3574927E-06  0.2100270E+04  0.7818609E-02  0.8561124E-01
       -2   -1    0    0    0  501  0.00000000000E+00  0.00000000000E+00  0.70042403393E+03  0.70042403394E+03  0.25500000920E-02 0. -1.
        2   -1    0    0  501    0  0.00000000000E+00  0.00000000000E+00 -0.15744515805E+04  0.15744515805E+04  0.25500000920E-02 0.  1.
    10030    2    1    2    0    0  0.00000000000E+00  0.00000000000E+00 -0.87402754658E+03  0.22748756144E+04  0.21002701991E+04 0.  0.
        3    1    3    3  502    0  0.78943400474E+03  0.67490632666E+03 -0.60508864393E+03  0.12020136750E+04  0.10100000352E+00 0.  1.
       -3    1    3    3    0  502 -0.78943400474E+03 -0.67490632666E+03 -0.26893890264E+03  0.10728619395E+04  0.10100000352E+00 0. -1.
</event>
<event>
 5   0  0.3547583E-06  0.2098738E+04  0.7818609E-02  0.8561799E-01
       -2   -1    0    0    0  501  0.00000000000E+00  0.00000000000E+00  0.10235825245E+04  0.10235825245E+04  0.25500000920E-02 0.  1.
        2   -1    0    0  501    0  0.00000000000E+00  0.00000000000E+00 -0.10758051317E+04  0.10758051317E+04  0.25500000920E-02 0. -1.
    10030    2    1    2    0    0  0.00000000000E+00  0.00000000000E+00 -0.52222607194E+02  0.20993876563E+04  0.20987380329E+04 0.  0.
        2    1    3    3  502    0 -0.36095593410E+03  0.37044932501E+03 -0.93944016336E+03  0.10724130311E+04  0.25500000920E-02 0. -1.
       -2    1    3    3    0  502  0.36095593410E+03 -0.37044932501E+03  0.88721755616E+03  0.10269746252E+04  0.25500000920E-02 0.  1.
</event>
<event>
 5   0  0.3480134E-06  0.2102694E+04  0.7818609E-02  0.8560058E-01
       -2   -1    0    0    0  501  0.00000000000E+00  0.00000000000E+00  0.41283996552E+03  0.41283996553E+03  0.25500000920E-02 0.  1.
        2   -1    0    0  501    0  0.00000000000E+00  0.00000000000E+00 -0.26773819670E+04  0.26773819670E+04  0.25500000920E-02 0. -1.
    10030    2    1    2    0    0  0.00000000000E+00  0.00000000000E+00 -0.22645420014E+04  0.30902219325E+04  0.21026937760E+04 0.  0.
        1    1    3    3  502    0  0.45486988173E+03 -0.92695170091E+02  0.25406172186E+03  0.52919406875E+03  0.50400001928E-02 0.  1.
       -1    1    3    3    0  502 -0.45486988173E+03  0.92695170091E+02 -0.25186037233E+04  0.25610278637E+04  0.50400001928E-02 0. -1.
</event>
<event>
 5   0  0.1579820E-06  0.2100472E+04  0.7818609E-02  0.8561036E-01
       -1   -1    0    0    0  501  0.00000000000E+00  0.00000000000E+00  0.12334662990E+04  0.12334662990E+04  0.50400001928E-02 0. -1.
        1   -1    0    0  501    0  0.00000000000E+00  0.00000000000E+00 -0.89422403915E+03  0.89422403916E+03  0.50400001928E-02 0.  1.
    10030    2    1    2    0    0  0.00000000000E+00  0.00000000000E+00  0.33924225983E+03  0.21276903382E+04  0.21004715814E+04 0.  0.
        2    1    3    3  502    0  0.19828913985E+03 -0.79756102492E+03 -0.49274294686E+03  0.95823680953E+03  0.25500000920E-02 0.  1.
       -2    1    3    3    0  502 -0.19828913985E+03  0.79756102492E+03  0.83198520669E+03  0.11694535286E+04  0.25500000920E-02 0. -1.
</event>
<event>
 5   0  0.3636435E-06  0.2101492E+04  0.7818609E-02  0.8560587E-01
       -2   -1    0    0    0  501  0.00000000000E+00  0.00000000000E+00  0.55517634003E+03  0.55517634004E+03  0.25500000920E-02 0. -1.
        2   -1    0    0  501    0  0.00000000000E+00  0.00000000000E+00 -0.19886775138E+04  0.19886775139E+04  0.25500000920E-02 0.  1.
    10030    2    1    2    0    0  0.00000000000E+00  0.00000000000E+00 -0.14335011738E+04  0.25438538539E+04  0.21014915690E+04 0.  0.
        4    1    3    3  502    0  0.11970859277E+03  0.10882662223E+03 -0.19735097809E+04  0.19801302607E+04  0.12699999809E+01 0.  1.
       -4    1    3    3    0  502 -0.11970859277E+03 -0.10882662223E+03  0.54000860711E+03  0.56372359321E+03  0.12699999809E+01 0. -1.
</event>
<event>
 5   0  0.1615098E-06  0.2100448E+04  0.7818609E-02  0.8561046E-01
       -1   -1    0    0    0  501  0.00000000000E+00  0.00000000000E+00  0.73749109180E+03  0.73749109182E+03  0.50400001928E-02 0.  1.
        1   -1    0    0  501    0  0.00000000000E+00  0.00000000000E+00 -0.14955710296E+04  0.14955710297E+04  0.50400001928E-02 0. -1.
    10030    2    1    2    0    0  0.00000000000E+00  0.00000000000E+00 -0.75807993784E+03  0.22330621215E+04  0.21004478680E+04 0.  0.
        1    1    3    3  502    0  0.67791647964E+03 -0.58458003681E+03  0.20487807003E+03  0.91830256256E+03  0.50400001928E-02 0.  1.
       -1    1    3    3    0  502 -0.67791647964E+03  0.58458003681E+03 -0.96295800787E+03  0.13147595589E+04  0.50400001928E-02 0. -1.
</event>
<event>
 5   0  0.1646510E-06  0.2099444E+04  0.7818609E-02  0.8561489E-01
       -1   -1    0    0    0  501  0.00000000000E+00  0.00000000000E+00  0.76513922473E+03  0.76513922475E+03  0.50400001928E-02 0. -1.
        1   -1    0    0  501    0  0.00000000000E+00  0.00000000000E+00 -0.14401506633E+04  0.14401506633E+04  0.50400001928E-02 0.  1.
    10030    2    1    2    0    0  0.00000000000E+00  0.00000000000E+00 -0.67501143858E+03  0.22052898881E+04  0.20994435092E+04 0.  0.
        4    1    3    3  502    0 -0.73060614665E+03 -0.61657614566E+03  0.11789875047E+03  0.96325137590E+03  0.12699999809E+01 0. -1.
       -4    1    3    3    0  502  0.73060614665E+03  0.61657614566E+03 -0.79291018905E+03  0.12420385122E+04  0.12699999809E+01 0.  1.
</event>
<event>
 5   0  0.3574927E-06  0.2100675E+04  0.7818609E-02  0.8560946E-01
       -2   -1    0    0    0  501  0.00000000000E+00  0.00000000000E+00  0.73096780716E+03  0.73096780716E+03  0.25500000920E-02 0.  1.
        2   -1    0    0  501    0  0.00000000000E+00  0.00000000000E+00 -0.15092436299E+04  0.15092436299E+04  0.25500000920E-02 0. -1.
    10030    2    1    2    0    0  0.00000000000E+00  0.00000000000E+00 -0.77827582278E+03  0.22402114371E+04  0.21006746599E+04 0.  0.
        3    1    3    3  502    0  0.27444681460E+03  0.22121445901E+03  0.66600388085E+03  0.75353703985E+03  0.10100000352E+00 0.  1.
       -3    1    3    3    0  502 -0.27444681460E+03 -0.22121445901E+03 -0.14442797036E+04  0.14866743973E+04  0.10100000352E+00 0. -1.
</event>
<event>
 5   0  0.1590067E-06  0.2100301E+04  0.7818609E-02  0.8561111E-01
       -1   -1    0    0    0  501  0.00000000000E+00  0.00000000000E+00  0.67992211060E+03  0.67992211062E+03  0.50400001928E-02 0. -1.
        1   -1    0    0  501    0  0.00000000000E+00  0.00000000000E+00 -0.16219743834E+04  0.16219743834E+04  0.50400001928E-02 0.  1.
    10030    2    1    2    0    0  0.00000000000E+00  0.00000000000E+00 -0.94205227281E+03  0.23018964940E+04  0.21003011652E+04 0.  0.
        5    1    3    3  502    0  0.62545821211E+03  0.49033225360E+03  0.28127764783E+03  0.84306755315E+03  0.46999998093E+01 0. -1.
       -5    1    3    3    0  502 -0.62545821211E+03 -0.49033225360E+03 -0.12233299206E+04  0.14588289409E+04  0.46999998093E+01 0.  1.
</event>
<event>
 5   0  0.3574927E-06  0.2098866E+04  0.7818609E-02  0.8561743E-01
        2   -1    0    0  501    0  0.00000000000E+00  0.00000000000E+00  0.86545523302E+03  0.86545523302E+03  0.25500000920E-02 0.  1.
       -2   -1    0    0    0  501  0.00000000000E+00  0.00000000000E+00 -0.12725201022E+04  0.12725201022E+04  0.25500000920E-02 0. -1.
    10030    2    1    2    0    0  0.00000000000E+00  0.00000000000E+00 -0.40706486920E+03  0.21379753352E+04  0.20988655808E+04 0.  0.
        3    1    3    3  502    0  0.28835424201E+03  0.29333003820E+03 -0.11869854738E+04  0.12562345344E+04  0.10100000352E+00 0. -1.
       -3    1    3    3    0  502 -0.28835424201E+03 -0.29333003820E+03  0.77992060460E+03  0.88174080085E+03  0.10100000352E+00 0.  1.
</event>
<event>
 5   0  0.1646510E-06  0.2100865E+04  0.7818609E-02  0.8560863E-01
       -1   -1    0    0    0  501  0.00000000000E+00  0.00000000000E+00  0.99834542014E+03  0.99834542015E+03  0.50400001928E-02 0.  1.
        1   -1    0    0  501    0  0.00000000000E+00  0.00000000000E+00 -0.11052366703E+04  0.11052366704E+04  0.50400001928E-02 0. -1.
    10030    2    1    2    0    0  0.00000000000E+00  0.00000000000E+00 -0.10689125020E+03  0.21035820905E+04  0.21008645535E+04 0.  0.
        4    1    3    3  502    0 -0.56344992480E+03 -0.88323114812E+03 -0.12992030840E+03  0.10556770236E+04  0.12699999809E+01 0. -1.
       -4    1    3    3    0  502  0.56344992480E+03  0.88323114812E+03  0.23029058195E+02  0.10479050669E+04  0.12699999809E+01 0.  1.
</event>
<event>
 5   0  0.1590067E-06  0.2100058E+04  0.7818609E-02  0.8561218E-01
        1   -1    0    0  501    0  0.00000000000E+00  0.00000000000E+00  0.14448603521E+04  0.14448603521E+04  0.50400001928E-02 0. -1.
       -1   -1    0    0    0  501  0.00000000000E+00  0.00000000000E+00 -0.76309170606E+03  0.76309170608E+03  0.50400001928E-02 0.  1.
    10030    2    1    2    0    0  0.00000000000E+00  0.00000000000E+00  0.68176864600E+03  0.22079520581E+04  0.21000580479E+04 0.  0.
        5    1    3    3  502    0 -0.42418981262E+03 -0.17047951121E+03  0.13347209521E+04  0.14108516473E+04  0.46999998093E+01 0. -1.
       -5    1    3    3    0  502  0.42418981262E+03  0.17047951121E+03 -0.65295230609E+03  0.79710041080E+03  0.46999998093E+01 0.  1.
</event>
<event>
 5   0  0.3705828E-06  0.2100473E+04  0.7818609E-02  0.8561035E-01
        2   -1    0    0  501    0  0.00000000000E+00  0.00000000000E+00  0.14187882428E+04  0.14187882428E+04  0.25500000920E-02 0.  1.
       -2   -1    0    0    0  501  0.00000000000E+00  0.00000000000E+00 -0.77742134657E+03  0.77742134657E+03  0.25500000920E-02 0. -1.
    10030    2    1    2    0    0  0.00000000000E+00  0.00000000000E+00  0.64136689627E+03  0.21962095894E+04  0.21004725814E+04 0.  0.
        5    1    3    3  502    0  0.76864368935E+02  0.78112571348E+03  0.10502762124E+04  0.13111703641E+04  0.46999998093E+01 0.  1.
       -5    1    3    3    0  502 -0.76864368935E+02 -0.78112571348E+03 -0.40890931613E+03  0.88503922528E+03  0.46999998093E+01 0. -1.
</event>
<event>
 5   0  0.1615098E-06  0.2100349E+04  0.7818609E-02  0.8561090E-01
       -1   -1    0    0    0  501  0.00000000000E+00  0.00000000000E+00  0.49916929659E+03  0.49916929662E+03  0.50400001928E-02 0. -1.
        1   -1    0    0  501    0  0.00000000000E+00  0.00000000000E+00 -0.22094032922E+04  0.22094032922E+04  0.50400001928E-02 0.  1.
    10030    2    1    2    0    0  0.00000000000E+00  0.00000000000E+00 -0.17102339956E+04  0.27085725888E+04  0.21003488161E+04 0.  0.
        1    1    3    3  502    0 -0.45906275101E+03  0.72872016669E+03 -0.80192219811E+02  0.86498698420E+03  0.50400001928E-02 0. -1.
       -1    1    3    3    0  502  0.45906275101E+03 -0.72872016669E+03 -0.16300417758E+04  0.18435856046E+04  0.50400001928E-02 0.  1.
</event>
<event>
 5   0  0.3705828E-06  0.2099671E+04  0.7818609E-02  0.8561388E-01
        2   -1    0    0  501    0  0.00000000000E+00  0.00000000000E+00  0.11422044495E+04  0.11422044495E+04  0.25500000920E-02 0. -1.
       -2   -1    0    0    0  501  0.00000000000E+00  0.00000000000E+00 -0.96493670429E+03  0.96493670429E+03  0.25500000920E-02 0.  1.
    10030    2    1    2    0    0  0.00000000000E+00  0.00000000000E+00  0.17726774524E+03  0.21071411538E+04  0.20996714002E+04 0.  0.
        5    1    3    3  502    0  0.45552543192E+03 -0.92095262098E+03 -0.12771544867E+03  0.10353697287E+04  0.46999998093E+01 0.  1.
       -5    1    3    3    0  502 -0.45552543192E+03  0.92095262098E+03  0.30498319391E+03  0.10717714252E+04  0.46999998093E+01 0. -1.
</event>
<event>
 5   0  0.1579820E-06  0.2100624E+04  0.7818609E-02  0.8560969E-01
       -1   -1    0    0    0  501  0.00000000000E+00  0.00000000000E+00  0.64701664504E+03  0.64701664506E+03  0.50400001928E-02 0.  1.
        1   -1    0    0  501    0  0.00000000000E+00  0.00000000000E+00 -0.17049872383E+04  0.17049872383E+04  0.50400001928E-02 0. -1.
    10030    2    1    2    0    0  0.00000000000E+00  0.00000000000E+00 -0.10579705933E+04  0.23520038834E+04  0.21006238338E+04 0.  0.
        2    1    3    3  502    0 -0.38007508008E+02 -0.19329743527E+03 -0.16841164461E+04  0.16955992077E+04  0.25500000920E-02 0. -1.
       -2    1    3    3    0  502  0.38007508008E+02  0.19329743527E+03  0.62614585286E+03  0.65640467564E+03  0.25500000920E-02 0.  1.
</event>
<event>
 5   0  0.1653260E-06  0.2099638E+04  0.7818609E-02  0.8561403E-01
       -1   -1    0    0    0  501  0.00000000000E+00  0.00000000000E+00  0.12900988407E+04  0.12900988407E+04  0.50400001928E-02 0.  1.
        1   -1    0    0  501    0  0.00000000000E+00  0.00000000000E+00 -0.85429121369E+03  0.85429121370E+03  0.50400001928E-02 0. -1.
    10030    2    1    2    0    0  0.00000000000E+00  0.00000000000E+00  0.43580762698E+03  0.21443900544E+04  0.20996381635E+04 0.  0.
        3    1    3    3  502    0 -0.37601313296E+03 -0.18241736817E+03  0.12014765468E+04  0.12720879981E+04  0.10100000352E+00 0.  1.
       -3    1    3    3    0  502  0.37601313296E+03  0.18241736817E+03 -0.76566891980E+03  0.87230205624E+03  0.10100000352E+00 0. -1.
</event>
<event>
 5   0  0.1590067E-06  0.2098347E+04  0.7818609E-02  0.8561972E-01
       -1   -1    0    0    0  501  0.00000000000E+00  0.00000000000E+00  0.46682780964E+03  0.46682780967E+03  0.50400001928E-02 0. -1.
        1   -1    0    0  501    0  0.00000000000E+00  0.00000000000E+00 -0.23579673403E+04  0.23579673403E+04  0.50400001928E-02 0.  1.
    10030    2    1    2    0    0  0.00000000000E+00  0.00000000000E+00 -0.18911395307E+04  0.28247951500E+04  0.20983467099E+04 0.  0.
        5    1    3    3  502    0 -0.10284094521E+04 -0.18354945124E+03 -0.81486877483E+03  0.13248960760E+04  0.46999998093E+01 0. -1.
       -5    1    3    3    0  502  0.10284094521E+04  0.18354945124E+03 -0.10762707558E+04  0.14998990739E+04  0.46999998093E+01 0.  1.
</event>
<event>
 5   0  0.3547583E-06  0.2101318E+04  0.7818609E-02  0.8560663E-01
        2   -1    0    0  501    0  0.00000000000E+00  0.00000000000E+00  0.22861859840E+04  0.22861859840E+04  0.25500000920E-02 0.  1.
       -2   -1    0    0    0  501  0.00000000000E+00  0.00000000000E+00 -0.48284954322E+03  0.48284954323E+03  0.25500000920E-02 0. -1.
    10030    2    1    2    0    0  0.00000000000E+00  0.00000000000E+00  0.18033364408E+04  0.27690355273E+04  0.21013175468E+04 0.  0.
        2    1    3    3  502    0 -0.47753060268E+03  0.21704921888E+03 -0.29795668080E+03  0.60326115701E+03  0.25500000920E-02 0. -1.
       -2    1    3    3    0  502  0.47753060268E+03 -0.21704921888E+03  0.21012931216E+04  0.21657743703E+04  0.25500000920E-02 0.  1.
</event>
<event>
 5   0  0.3480134E-06  0.2100439E+04  0.7818609E-02  0.8561050E-01
       -2   -1    0    0    0  501  0.00000000000E+00  0.00000000000E+00  0.80967518236E+03  0.80967518237E+03  0.25500000920E-02 0.  1.
        2   -1    0    0  501    0  0.00000000000E+00  0.00000000000E+00 -0.13622259873E+04  0.13622259873E+04  0.25500000920E-02 0. -1.
    10030    2    1    2    0    0  0.00000000000E+00  0.00000000000E+00 -0.55255080490E+03  0.21719011696E+04  0.21004385967E+04 0.  0.
        1    1    3    3  502    0 -0.38770664154E+03 -0.47748606129E+03  0.60395137426E+03  0.86201313280E+03  0.50400001928E-02 0.  1.
       -1    1    3    3    0  502  0.38770664154E+03  0.47748606129E+03 -0.11565021792E+04  0.13098880368E+04  0.50400001928E-02 0. -1.
</event>
<event>
 5   0  0.1615098E-06  0.2099563E+04  0.7818609E-02  0.8561436E-01
        1   -1    0    0  501    0  0.00000000000E+00  0.00000000000E+00  0.15141837542E+04  0.15141837543E+04  0.50400001928E-02 0.  1.
       -1   -1    0    0    0  501  0.00000000000E+00  0.00000000000E+00 -0.72781208555E+03  0.72781208556E+03  0.50400001928E-02 0. -1.
    10030    2    1    2    0    0  0.00000000000E+00  0.00000000000E+00  0.78637166870E+03  0.22419958398E+04  0.20995630365E+04 0.  0.
        1    1    3    3  502    0 -0.36197723394E+03 -0.84912430599E+03 -0.14073553761E+03  0.93372699248E+03  0.50400001928E-02 0. -1.
       -1    1    3    3    0  502  0.36197723394E+03  0.84912430599E+03  0.92710720631E+03  0.13082688473E+04  0.50400001928E-02 0.  1.
</event>
<event>
 5   0  0.1653260E-06  0.2097120E+04  0.7818609E-02  0.8562513E-01
        1   -1    0    0  501    0  0.00000000000E+00  0.00000000000E+00  0.11682576582E+04  0.11682576583E+04  0.50400001928E-02 0.  1.
       -1   -1    0    0    0  501  0.00000000000E+00  0.00000000000E+00 -0.94112668401E+03  0.94112668403E+03  0.50400001928E-02 0. -1.
    10030    2    1    2    0    0  0.00000000000E+00  0.00000000000E+00  0.22713097424E+03  0.21093843423E+04  0.20971203647E+04 0.  0.
        3    1    3    3  502    0  0.19545676701E+02 -0.80289997403E+01 -0.94091250208E+03  0.94114974637E+03  0.10100000352E+00 0. -1.
       -3    1    3    3    0  502 -0.19545676701E+02  0.80289997403E+01  0.11680434763E+04  0.11682345959E+04  0.10100000352E+00 0.  1.
</event>
<event>
 5   0  0.1653260E-06  0.2100607E+04  0.7818609E-02  0.8560976E-01
        1   -1    0    0  501    0  0.00000000000E+00  0.00000000000E+00  0.15068131504E+04  0.15068131504E+04  0.50400001928E-02 0. -1.
       -1   -1    0    0    0  501  0.00000000000E+00  0.00000000000E+00 -0.73209992479E+03  0.73209992481E+03  0.50400001928E-02 0.  1.
    10030    2    1    2    0    0  0.00000000000E+00  0.00000000000E+00  0.77471322562E+03  0.22389130752E+04  0.21006073351E+04 0.  0.
        3    1    3    3  502    0 -0.28508589094E+02 -0.52598515889E+03  0.13558445199E+04  0.14545746799E+04  0.10100000352E+00 0. -1.
       -3    1    3    3    0  502  0.28508589094E+02  0.52598515889E+03 -0.58113129428E+03  0.78433839535E+03  0.10100000352E+00 0.  1.
</event>
<event>
 5   0  0.1579820E-06  0.2099584E+04  0.7818609E-02  0.8561426E-01
       -1   -1    0    0    0  501  0.00000000000E+00  0.00000000000E+00  0.48608275166E+03  0.48608275169E+03  0.50400001928E-02 0.  1.
        1   -1    0    0  501    0  0.00000000000E+00  0.00000000000E+00 -0.22672346061E+04  0.22672346061E+04  0.50400001928E-02 0. -1.
    10030    2    1    2    0    0  0.00000000000E+00  0.00000000000E+00 -0.17811518544E+04  0.27533173578E+04  0.20995843741E+04 0.  0.
        2    1    3    3  502    0  0.61708672927E+03 -0.84562099591E+03 -0.99377224933E+03  0.14434175362E+04  0.25500000920E-02 0. -1.
       -2    1    3    3    0  502 -0.61708672927E+03  0.84562099591E+03 -0.78737960510E+03  0.13098998216E+04  0.25500000920E-02 0.  1.
</event>
<event>
 5   0  0.3480134E-06  0.2103695E+04  0.7818609E-02  0.8559617E-01
       -2   -1    0    0    0  501  0.00000000000E+00  0.00000000000E+00  0.86377929587E+03  0.86377929587E+03  0.25500000920E-02 0.  1.
        2   -1    0    0  501    0  0.00000000000E+00  0.00000000000E+00 -0.12808637910E+04  0.12808637910E+04  0.25500000920E-02 0. -1.
    10030    2    1    2    0    0  0.00000000000E+00  0.00000000000E+00 -0.41708449516E+03  0.21446430869E+04  0.21036954376E+04 0.  0.
        1    1    3    3  502    0  0.85535792882E+03  0.50594980832E+03  0.14278311463E+03  0.10039967195E+04  0.50400001928E-02 0.  1.
       -1    1    3    3    0  502 -0.85535792882E+03 -0.50594980832E+03 -0.55986760979E+03  0.11406463674E+04  0.50400001928E-02 0. -1.
</event>
<event>
 5   0  0.3574927E-06  0.2100195E+04  0.7818609E-02  0.8561157E-01
       -2   -1    0    0    0  501  0.00000000000E+00  0.00000000000E+00  0.13009153123E+04  0.13009153123E+04  0.25500000920E-02 0.  1.
        2   -1    0    0  501    0  0.00000000000E+00  0.00000000000E+00 -0.84763769113E+03  0.84763769114E+03  0.25500000920E-02 0. -1.
    10030    2    1    2    0    0  0.00000000000E+00  0.00000000000E+00  0.45327762112E+03  0.21485530034E+04  0.21001950877E+04 0.  0.
        3    1    3    3  502    0  0.10411063416E+01  0.62673990062E+03  0.10885951796E+04  0.12561223914E+04  0.10100000352E+00 0.  1.
       -3    1    3    3    0  502 -0.10411063416E+01 -0.62673990062E+03 -0.63531755847E+03  0.89243061200E+03  0.10100000352E+00 0. -1.
</event>
<event>
 5   0  0.1653260E-06  0.2100539E+04  0.7818609E-02  0.8561006E-01
       -1   -1    0    0    0  501  0.00000000000E+00  0.00000000000E+00  0.17019139696E+04  0.17019139696E+04  0.50400001928E-02 0.  1.
        1   -1    0    0  501    0  0.00000000000E+00  0.00000000000E+00 -0.64813288334E+03  0.64813288336E+03  0.50400001928E-02 0. -1.
    10030    2    1    2    0    0  0.00000000000E+00  0.00000000000E+00  0.10537810862E+04  0.23500468530E+04  0.21005393672E+04 0.  0.
        3    1    3    3  502    0 -0.20761515351E+03 -0.14662143773E+03 -0.61320572217E+03  0.66379452082E+03  0.10100000352E+00 0. -1.
       -3    1    3    3    0  502  0.20761515351E+03  0.14662143773E+03  0.16669868084E+04  0.16862523321E+04  0.10100000352E+00 0.  1.
</event>
<event>
 5   0  0.3636435E-06  0.2099914E+04  0.7818609E-02  0.8561281E-01
        2   -1    0    0  501    0  0.00000000000E+00  0.00000000000E+00  0.29984307189E+04  0.29984307189E+04  0.25500000920E-02 0. -1.
       -2   -1    0    0    0  501  0.00000000000E+00  0.00000000000E+00 -0.36766235083E+03  0.36766235084E+03  0.25500000920E-02 0.  1.
    10030    2    1    2    0    0  0.00000000000E+00  0.00000000000E+00  0.26307683681E+04  0.33660930697E+04  0.20999143667E+04 0.  0.
        4    1    3    3  502    0 -0.55828324708E+03 -0.58398576147E+03  0.24045308285E+03  0.84293466622E+03  0.12699999809E+01 0.  1.
       -4    1    3    3    0  502  0.55828324708E+03  0.58398576147E+03  0.23903152852E+04  0.25231584035E+04  0.12699999809E+01 0. -1.
</event>
<event>
 5   0  0.1653260E-06  0.2098317E+04  0.7818609E-02  0.8561985E-01
       -1   -1    0    0    0  501  0.00000000000E+00  0.00000000000E+00  0.11541767773E+04  0.11541767773E+04  0.50400001928E-02 0.  1.
        1   -1    0    0  501    0  0.00000000000E+00  0.00000000000E+00 -0.95369543261E+03  0.95369543262E+03  0.50400001928E-02 0. -1.
    10030    2    1    2    0    0  0.00000000000E+00  0.00000000000E+00  0.20048134467E+03  0.21078722099E+04  0.20983165833E+04 0.  0.
        3    1    3    3  502    0 -0.11873732195E+03  0.89534103590E+02 -0.94305435629E+03  0.95470751356E+03  0.10100000352E+00 0. -1.
       -3    1    3    3    0  502  0.11873732195E+03 -0.89534103590E+02  0.11435357010E+04  0.11531646964E+04  0.10100000352E+00 0.  1.
</event>
<event>
 5   0  0.1653260E-06  0.2101167E+04  0.7818609E-02  0.8560730E-01
       -1   -1    0    0    0  501  0.00000000000E+00  0.00000000000E+00  0.99016839242E+03  0.99016839243E+03  0.50400001928E-02 0. -1.
        1   -1    0    0  501    0  0.00000000000E+00  0.00000000000E+00 -0.11146844797E+04  0.11146844797E+04  0.50400001928E-02 0.  1.
    10030    2    1    2    0    0  0.00000000000E+00  0.00000000000E+00 -0.12451608729E+03  0.21048528722E+04  0.21011666658E+04 0.  0.
        3    1    3    3  502    0 -0.59089832522E+02  0.54196212524E+03  0.83737692743E+03  0.99920702674E+03  0.10100000352E+00 0. -1.
       -3    1    3    3    0  502  0.59089832522E+02 -0.54196212524E+03 -0.96189301472E+03  0.11056458454E+04  0.10100000352E+00 0.  1.
</event>
<event>
 5   0  0.3705828E-06  0.2097696E+04  0.7818609E-02  0.8562259E-01
       -2   -1    0    0    0  501  0.00000000000E+00  0.00000000000E+00  0.87914346889E+03  0.87914346889E+03  0.25500000920E-02 0.  1.
        2   -1    0    0  501    0  0.00000000000E+00  0.00000000000E+00 -0.12513116003E+04  0.12513116003E+04  0.25500000920E-02 0. -1.
    10030    2    1    2    0    0  0.00000000000E+00  0.00000000000E+00 -0.37216813144E+03  0.21304550692E+04  0.20976962802E+04 0.  0.
        5    1    3    3  502    0 -0.31339351400E+03  0.50300142711E+03  0.69278193716E+03  0.91169887175E+03  0.46999998093E+01 0.  1.
       -5    1    3    3    0  502  0.31339351400E+03 -0.50300142711E+03 -0.10649500686E+04  0.12187561975E+04  0.46999998093E+01 0. -1.
</event>
<event>
 5   0  0.1646510E-06  0.2100257E+04  0.7818609E-02  0.8561130E-01
        1   -1    0    0  501    0  0.00000000000E+00  0.00000000000E+00  0.99270958135E+03  0.99270958136E+03  0.50400001928E-02 0.  1.
       -1   -1    0    0    0  501  0.00000000000E+00  0.00000000000E+00 -0.11108688005E+04  0.11108688005E+04  0.50400001928E-02 0. -1.
    10030    2    1    2    0    0  0.00000000000E+00  0.00000000000E+00 -0.11815921911E+03  0.21035783818E+04  0.21002572241E+04 0.  0.
        4    1    3    3  502    0  0.24687249381E+03  0.47123995762E+03  0.84775553953E+03  0.10008517341E+04  0.12699999809E+01 0.  1.
       -4    1    3    3    0  502 -0.24687249381E+03 -0.47123995762E+03 -0.96591475864E+03  0.11027266478E+04  0.12699999809E+01 0. -1.
</event>
<event>
 5   0  0.1653260E-06  0.2099914E+04  0.7818609E-02  0.8561281E-01
        1   -1    0    0  501    0  0.00000000000E+00  0.00000000000E+00  0.13673384137E+04  0.13673384137E+04  0.50400001928E-02 0.  1.
       -1   -1    0    0    0  501  0.00000000000E+00  0.00000000000E+00 -0.80624459319E+03  0.80624459321E+03  0.50400001928E-02 0. -1.
    10030    2    1    2    0    0  0.00000000000E+00  0.00000000000E+00  0.56109382052E+03  0.21735830069E+04  0.20999135250E+04 0.  0.
        3    1    3    3  502    0  0.46990165133E+03  0.79043559203E+03 -0.24399898819E+03  0.95138399372E+03  0.10100000352E+00 0. -1.
       -3    1    3    3    0  502 -0.46990165133E+03 -0.79043559203E+03  0.80509280871E+03  0.12221990132E+04  0.10100000352E+00 0.  1.
</event>
<event>
 5   0  0.3547583E-06  0.2100983E+04  0.7818609E-02  0.8560811E-01
       -2   -1    0    0    0  501  0.00000000000E+00  0.00000000000E+00  0.12605557270E+04  0.12605557270E+04  0.25500000920E-02 0.  1.
        2   -1    0    0  501    0  0.00000000000E+00  0.00000000000E+00 -0.87543310181E+03  0.87543310182E+03  0.25500000920E-02 0. -1.
    10030    2    1    2    0    0  0.00000000000E+00  0.00000000000E+00  0.38512262514E+03  0.21359888288E+04  0.21009828272E+04 0.  0.
        2    1    3    3  502    0  0.10172284436E+04  0.24619157321E+03  0.10067728999E+03  0.10514275600E+04  0.25500000920E-02 0. -1.
       -2    1    3    3    0  502 -0.10172284436E+04 -0.24619157321E+03  0.28444533516E+03  0.10845612688E+04  0.25500000920E-02 0.  1.
</event>
<event>
 5   0  0.1646510E-06  0.2099950E+04  0.7818609E-02  0.8561265E-01
        1   -1    0    0  501    0  0.00000000000E+00  0.00000000000E+00  0.25546258033E+04  0.25546258033E+04  0.50400001928E-02 0. -1.
       -1   -1    0    0    0  501  0.00000000000E+00  0.00000000000E+00 -0.43154949907E+03  0.43154949910E+03  0.50400001928E-02 0.  1.
    10030    2    1    2    0    0  0.00000000000E+00  0.00000000000E+00  0.21230763042E+04  0.29861753024E+04  0.20999499859E+04 0.  0.
        4    1    3    3  502    0 -0.74718117862E+03  0.50684707934E+03  0.18237104260E+04  0.20349680603E+04  0.12699999809E+01 0. -1.
       -4    1    3    3    0  502  0.74718117862E+03 -0.50684707934E+03  0.29936587823E+03  0.95120724213E+03  0.12699999809E+01 0.  1.
</event>
<event>
 5   0  0.3480134E-06  0.2099832E+04  0.7818609E-02  0.8561317E-01
        2   -1    0    0  501    0  0.00000000000E+00  0.00000000000E+00  0.12037439273E+04  0.12037439273E+04  0.25500000920E-02 0. -1.
       -2   -1    0    0    0  501  0.00000000000E+00  0.00000000000E+00 -0.91574603383E+03  0.91574603383E+03  0.25500000920E-02 0.  1.
    10030    2    1    2    0    0  0.00000000000E+00  0.00000000000E+00  0.28799789346E+03  0.21194899611E+04  0.20998321144E+04 0.  0.
        1    1    3    3  502    0 -0.25009661862E+03  0.10142299855E+04  0.25040378446E+03  0.10742033501E+04  0.50400001928E-02 0.  1.
       -1    1    3    3    0  502  0.25009661862E+03 -0.10142299855E+04  0.37594109003E+02  0.10452866110E+04  0.50400001928E-02 0. -1.
</event>
<event>
 5   0  0.1579820E-06  0.2100090E+04  0.7818609E-02  0.8561204E-01
       -1   -1    0    0    0  501  0.00000000000E+00  0.00000000000E+00  0.83409479989E+03  0.83409479990E+03  0.50400001928E-02 0. -1.
        1   -1    0    0  501    0  0.00000000000E+00  0.00000000000E+00 -0.13219056650E+04  0.13219056650E+04  0.50400001928E-02 0.  1.
    10030    2    1    2    0    0  0.00000000000E+00  0.00000000000E+00 -0.48781086507E+03  0.21560004649E+04  0.21000901325E+04 0.  0.
        2    1    3    3  502    0 -0.92472523973E+03 -0.44968088478E+03 -0.25485608312E+02  0.10285811506E+04  0.25500000920E-02 0. -1.
       -2    1    3    3    0  502  0.92472523973E+03  0.44968088478E+03 -0.46232525676E+03  0.11274193143E+04  0.25500000920E-02 0.  1.
</event>
<event>
 5   0  0.1646510E-06  0.2098275E+04  0.7818609E-02  0.8562003E-01
        1   -1    0    0  501    0  0.00000000000E+00  0.00000000000E+00  0.23784973629E+04  0.23784973629E+04  0.50400001928E-02 0. -1.
       -1   -1    0    0    0  501  0.00000000000E+00  0.00000000000E+00 -0.46276695027E+03  0.46276695029E+03  0.50400001928E-02 0.  1.
    10030    2    1    2    0    0  0.00000000000E+00  0.00000000000E+00  0.19157304126E+04  0.28412643132E+04  0.20982754546E+04 0.  0.
        4    1    3    3  502    0 -0.47575734418E+03  0.64116863541E+03  0.18794918397E+04  0.20420414928E+04  0.12699999809E+01 0. -1.
       -4    1    3    3    0  502  0.47575734418E+03 -0.64116863541E+03  0.36238572842E+02  0.79922282039E+03  0.12699999809E+01 0.  1.
</event>
<event>
 5   0  0.3574927E-06  0.2114952E+04  0.7818609E-02  0.8554685E-01
       -2   -1    0    0    0  501  0.00000000000E+00  0.00000000000E+00  0.15131076845E+04  0.15131076845E+04  0.25500000920E-02 0.  1.
        2   -1    0    0  501    0  0.00000000000E+00  0.00000000000E+00 -0.73904539023E+03  0.73904539023E+03  0.25500000920E-02 0. -1.
    10030    2    1    2    0    0  0.00000000000E+00  0.00000000000E+00  0.77406229429E+03  0.22521530748E+04  0.21149517812E+04 0.  0.
        3    1    3    3  502    0  0.57916899907E+03  0.66355160229E+03  0.10102477318E+04  0.13402753255E+04  0.10100000352E+00 0.  1.
       -3    1    3    3    0  502 -0.57916899907E+03 -0.66355160229E+03 -0.23618543755E+03  0.91187774920E+03  0.10100000352E+00 0. -1.
</event>
<event>
 5   0  0.1653260E-06  0.2099851E+04  0.7818609E-02  0.8561309E-01
       -1   -1    0    0    0  501  0.00000000000E+00  0.00000000000E+00  0.14333660581E+04  0.14333660581E+04  0.50400001928E-02 0. -1.
        1   -1    0    0  501    0  0.00000000000E+00  0.00000000000E+00 -0.76905948269E+03  0.76905948271E+03  0.50400001928E-02 0.  1.
    10030    2    1    2    0    0  0.00000000000E+00  0.00000000000E+00  0.66430657536E+03  0.22024255408E+04  0.20998511939E+04 0.  0.
        3    1    3    3  502    0 -0.32452218395E+03  0.59850091838E+02 -0.71325293615E+03  0.78589213159E+03  0.10100000352E+00 0.  1.
       -3    1    3    3    0  502  0.32452218395E+03 -0.59850091838E+02  0.13775595115E+04  0.14165334092E+04  0.10100000352E+00 0. -1.
</event>
<event>
 5   0  0.3547583E-06  0.2100013E+04  0.7818609E-02  0.8561238E-01
       -2   -1    0    0    0  501  0.00000000000E+00  0.00000000000E+00  0.13163018158E+04  0.13163018158E+04  0.25500000920E-02 0.  1.
        2   -1    0    0  501    0  0.00000000000E+00  0.00000000000E+00 -0.83758417666E+03  0.83758417666E+03  0.25500000920E-02 0. -1.
    10030    2    1    2    0    0  0.00000000000E+00  0.00000000000E+00  0.47871763918E+03  0.21538859925E+04  0.21000129263E+04 0.  0.
        2    1    3    3  502    0 -0.94081642289E+03 -0.43557988777E+03  0.68815734163E+02  0.10390384909E+04  0.25500000920E-02 0. -1.
       -2    1    3    3    0  502  0.94081642289E+03  0.43557988777E+03  0.40990190502E+03  0.11148475017E+04  0.25500000920E-02 0.  1.
</event>
<event>
 5   0  0.3574927E-06  0.2099625E+04  0.7818609E-02  0.8561409E-01
       -2   -1    0    0    0  501  0.00000000000E+00  0.00000000000E+00  0.93063696117E+03  0.93063696117E+03  0.25500000920E-02 0.  1.
        2   -1    0    0  501    0  0.00000000000E+00  0.00000000000E+00 -0.11842493438E+04  0.11842493438E+04  0.25500000920E-02 0. -1.
    10030    2    1    2    0    0  0.00000000000E+00  0.00000000000E+00 -0.25361238261E+03  0.21148863050E+04  0.20996249289E+04 0.  0.
        3    1    3    3  502    0 -0.55709500696E+03 -0.88762921866E+03 -0.64179320331E+02  0.10499330797E+04  0.10100000352E+00 0. -1.
       -3    1    3    3    0  502  0.55709500696E+03  0.88762921866E+03 -0.18943306228E+03  0.10649532252E+04  0.10100000352E+00 0.  1.
</event>
<event>
 5   0  0.3547583E-06  0.2100149E+04  0.7818609E-02  0.8561178E-01
       -2   -1    0    0    0  501  0.00000000000E+00  0.00000000000E+00  0.51538673097E+03  0.51538673098E+03  0.25500000920E-02 0. -1.
        2   -1    0    0  501    0  0.00000000000E+00  0.00000000000E+00 -0.21394737201E+04  0.21394737201E+04  0.25500000920E-02 0.  1.
    10030    2    1    2    0    0  0.00000000000E+00  0.00000000000E+00 -0.16240869891E+04  0.26548604511E+04  0.21001489153E+04 0.  0.
        2    1    3    3  502    0  0.46909324495E+03  0.84920188906E+03 -0.30408348493E+03  0.10166902609E+04  0.25500000920E-02 0.  1.
       -2    1    3    3    0  502 -0.46909324495E+03 -0.84920188906E+03 -0.13200035042E+04  0.16381701901E+04  0.25500000920E-02 0. -1.
</event>
<event>
 5   0  0.3547583E-06  0.2099866E+04  0.7818609E-02  0.8561303E-01
       -2   -1    0    0    0  501  0.00000000000E+00  0.00000000000E+00  0.52532369616E+03  0.52532369617E+03  0.25500000920E-02 0. -1.
        2   -1    0    0  501    0  0.00000000000E+00  0.00000000000E+00 -0.20984372520E+04  0.20984372520E+04  0.25500000920E-02 0.  1.
    10030    2    1    2    0    0  0.00000000000E+00  0.00000000000E+00 -0.15731135558E+04  0.26237609482E+04  0.20998655323E+04 0.  0.
        2    1    3    3  502    0 -0.29433023519E+03  0.90122070141E+03 -0.13502551146E+04  0.16498539070E+04  0.25500000920E-02 0.  1.
       -2    1    3    3    0  502  0.29433023519E+03 -0.90122070141E+03 -0.22285844126E+03  0.97390704117E+03  0.25500000920E-02 0. -1.
</event>
<event>
 5   0  0.1590067E-06  0.2099398E+04  0.7818609E-02  0.8561509E-01
       -1   -1    0    0    0  501  0.00000000000E+00  0.00000000000E+00  0.12207449302E+04  0.12207449302E+04  0.50400001928E-02 0. -1.
        1   -1    0    0  501    0  0.00000000000E+00  0.00000000000E+00 -0.90261948317E+03  0.90261948318E+03  0.50400001928E-02 0.  1.
    10030    2    1    2    0    0  0.00000000000E+00  0.00000000000E+00  0.31812544705E+03  0.21233644134E+04  0.20993981595E+04 0.  0.
        5    1    3    3  502    0  0.16955735254E+03  0.10204642495E+04 -0.21154107373E+02  0.10346818673E+04  0.46999998093E+01 0. -1.
       -5    1    3    3    0  502 -0.16955735254E+03 -0.10204642495E+04  0.33927955442E+03  0.10886825461E+04  0.46999998093E+01 0.  1.
</event>
<event>
 5   0  0.1646510E-06  0.2100235E+04  0.7818609E-02  0.8561140E-01
       -1   -1    0    0    0  501  0.00000000000E+00  0.00000000000E+00  0.99736919857E+03  0.99736919859E+03  0.50400001928E-02 0. -1.
        1   -1    0    0  501    0  0.00000000000E+00  0.00000000000E+00 -0.11056552130E+04  0.11056552130E+04  0.50400001928E-02 0.  1.
    10030    2    1    2    0    0  0.00000000000E+00  0.00000000000E+00 -0.10828601444E+03  0.21030244116E+04  0.21002347047E+04 0.  0.
        4    1    3    3  502    0 -0.33718755009E+02  0.98200178198E+03  0.31686281928E+03  0.10324088887E+04  0.12699999809E+01 0.  1.
       -4    1    3    3    0  502  0.33718755009E+02 -0.98200178198E+03 -0.42514883372E+03  0.10706155229E+04  0.12699999809E+01 0. -1.
</event>
<event>
 5   0  0.3547583E-06  0.2100740E+04  0.7818609E-02  0.8560917E-01
       -2   -1    0    0    0  501  0.00000000000E+00  0.00000000000E+00  0.99651358162E+03  0.99651358162E+03  0.25500000920E-02 0.  1.
        2   -1    0    0  501    0  0.00000000000E+00  0.00000000000E+00 -0.11071374070E+04  0.11071374070E+04  0.25500000920E-02 0. -1.
    10030    2    1    2    0    0  0.00000000000E+00  0.00000000000E+00 -0.11062382539E+03  0.21036509886E+04  0.21007403103E+04 0.  0.
        2    1    3    3  502    0  0.91189479299E+03 -0.25153304172E+03 -0.51251485637E+03  0.10758682366E+04  0.25500000920E-02 0. -1.
       -2    1    3    3    0  502 -0.91189479299E+03  0.25153304172E+03  0.40189103098E+03  0.10277827520E+04  0.25500000920E-02 0.  1.
</event>
<event>
 5   0  0.3547583E-06  0.2099218E+04  0.7818609E-02  0.8561588E-01
       -2   -1    0    0    0  501  0.00000000000E+00  0.00000000000E+00  0.82741350215E+03  0.82741350216E+03  0.25500000920E-02 0.  1.
        2   -1    0    0  501    0  0.00000000000E+00  0.00000000000E+00 -0.13314728284E+04  0.13314728284E+04  0.25500000920E-02 0. -1.
    10030    2    1    2    0    0  0.00000000000E+00  0.00000000000E+00 -0.50405932623E+03  0.21588863305E+04  0.20992175647E+04 0.  0.
        2    1    3    3  502    0 -0.81603704822E+03  0.12141944952E+03  0.41527383931E+03  0.92364035664E+03  0.25500000920E-02 0.  1.
       -2    1    3    3    0  502  0.81603704822E+03 -0.12141944952E+03 -0.91933316555E+03  0.12352459739E+04  0.25500000920E-02 0. -1.
</event>
<event>
 5   0  0.1257125E-06  0.2100170E+04  0.7818609E-02  0.8561168E-01
       -3   -1    0    0    0  501  0.00000000000E+00  0.00000000000E+00  0.21631064808E+04  0.21631064832E+04  0.10100000352E+00 0. -1.
        3   -1    0    0  501    0  0.00000000000E+00  0.00000000000E+00 -0.50976618638E+03  0.50976619638E+03  0.10100000352E+00 0.  1.
    10030    2    1    2    0    0  0.00000000000E+00  0.00000000000E+00  0.16533402945E+04  0.26728726796E+04  0.21001700483E+04 0.  0.
        3    1    3    3  502    0 -0.50219809369E+03  0.38897901432E+03  0.18908511426E+04  0.19946993890E+04  0.10100000352E+00 0. -1.
       -3    1    3    3    0  502  0.50219809369E+03 -0.38897901432E+03 -0.23751084811E+03  0.67817329058E+03  0.10100000352E+00 0.  1.
</event>
<event>
 5   0  0.3574927E-06  0.2100581E+04  0.7818609E-02  0.8560987E-01
        2   -1    0    0  501    0  0.00000000000E+00  0.00000000000E+00  0.81288381947E+03  0.81288381947E+03  0.25500000920E-02 0.  1.
       -2   -1    0    0    0  501  0.00000000000E+00  0.00000000000E+00 -0.13570335191E+04  0.13570335191E+04  0.25500000920E-02 0. -1.
    10030    2    1    2    0    0  0.00000000000E+00  0.00000000000E+00 -0.54414969963E+03  0.21699173386E+04  0.21005814339E+04 0.  0.
        3    1    3    3  502    0  0.49004139887E+02 -0.38231167262E+03  0.73718341989E+03  0.83186719223E+03  0.10100000352E+00 0.  1.
       -3    1    3    3    0  502 -0.49004139887E+02  0.38231167262E+03 -0.12813331195E+04  0.13380501463E+04  0.10100000352E+00 0. -1.
</event>
<event>
 5   0  0.1579820E-06  0.2099180E+04  0.7818609E-02  0.8561605E-01
        1   -1    0    0  501    0  0.00000000000E+00  0.00000000000E+00  0.91220187677E+03  0.91220187679E+03  0.50400001928E-02 0.  1.
       -1   -1    0    0    0  501  0.00000000000E+00  0.00000000000E+00 -0.12076699424E+04  0.12076699424E+04  0.50400001928E-02 0. -1.
    10030    2    1    2    0    0  0.00000000000E+00  0.00000000000E+00 -0.29546806558E+03  0.21198718191E+04  0.20991796378E+04 0.  0.
        2    1    3    3  502    0 -0.76655303699E+03  0.71684847628E+03 -0.16064645068E+03  0.10617356444E+04  0.25500000920E-02 0.  1.
       -2    1    3    3    0  502  0.76655303699E+03 -0.71684847628E+03 -0.13482161489E+03  0.10581361747E+04  0.25500000920E-02 0. -1.
</event>
<event>
 5   0  0.1615098E-06  0.2102743E+04  0.7818609E-02  0.8560036E-01
        1   -1    0    0  501    0  0.00000000000E+00  0.00000000000E+00  0.11977374969E+04  0.11977374969E+04  0.50400001928E-02 0. -1.
       -1   -1    0    0    0  501  0.00000000000E+00  0.00000000000E+00 -0.92289146792E+03  0.92289146793E+03  0.50400001928E-02 0.  1.
    10030    2    1    2    0    0  0.00000000000E+00  0.00000000000E+00  0.27484602894E+03  0.21206289648E+04  0.21027427010E+04 0.  0.
        1    1    3    3  502    0  0.19561591700E+03  0.78141127016E+03  0.81882739088E+03  0.11486285110E+04  0.50400001928E-02 0. -1.
       -1    1    3    3    0  502 -0.19561591700E+03 -0.78141127016E+03 -0.54398136193E+03  0.97200045384E+03  0.50400001928E-02 0.  1.
</event>
<event>
 5   0  0.3547583E-06  0.2099232E+04  0.7818609E-02  0.8561582E-01
        2   -1    0    0  501    0  0.00000000000E+00  0.00000000000E+00  0.13570865832E+04  0.13570865832E+04  0.25500000920E-02 0. -1.
       -2   -1    0    0    0  501  0.00000000000E+00  0.00000000000E+00 -0.81180793605E+03  0.81180793606E+03  0.25500000920E-02 0.  1.
    10030    2    1    2    0    0  0.00000000000E+00  0.00000000000E+00  0.54527864718E+03  0.21688945193E+04  0.20992319149E+04 0.  0.
        2    1    3    3  502    0 -0.10257664410E+04 -0.21643755872E+03  0.21943632550E+03  0.10710715705E+04  0.25500000920E-02 0.  1.
       -2    1    3    3    0  502  0.10257664410E+04  0.21643755872E+03  0.32584232168E+03  0.10978229488E+04  0.25500000920E-02 0. -1.
</event>
<event>
 5   0  0.3705828E-06  0.2101035E+04  0.7818609E-02  0.8560788E-01
       -2   -1    0    0    0  501  0.00000000000E+00  0.00000000000E+00  0.96999120974E+03  0.96999120974E+03  0.25500000920E-02 0.  1.
        2   -1    0    0  501    0  0.00000000000E+00  0.00000000000E+00 -0.11377284954E+04  0.11377284954E+04  0.25500000920E-02 0. -1.
    10030    2    1    2    0    0  0.00000000000E+00  0.00000000000E+00 -0.16773728569E+03  0.21077197052E+04  0.21010346400E+04 0.  0.
        5    1    3    3  502    0 -0.46441254054E+03  0.20883374571E+03  0.83789877485E+03  0.98050343602E+03  0.46999998093E+01 0.  1.
       -5    1    3    3    0  502  0.46441254054E+03 -0.20883374571E+03 -0.10056360605E+04  0.11272162691E+04  0.46999998093E+01 0. -1.
</event>
<event>
 5   0  0.1579820E-06  0.2098411E+04  0.7818609E-02  0.8561944E-01
       -1   -1    0    0    0  501  0.00000000000E+00  0.00000000000E+00  0.52547517092E+03  0.52547517094E+03  0.50400001928E-02 0. -1.
        1   -1    0    0  501    0  0.00000000000E+00  0.00000000000E+00 -0.20949270232E+04  0.20949270232E+04  0.50400001928E-02 0.  1.
    10030    2    1    2    0    0  0.00000000000E+00  0.00000000000E+00 -0.15694518523E+04  0.26204021941E+04  0.20984109565E+04 0.  0.
        2    1    3    3  502    0 -0.11343417646E+03 -0.78839722857E+03 -0.16375396516E+04  0.18209814971E+04  0.25500000920E-02 0.  1.
       -2    1    3    3    0  502  0.11343417646E+03  0.78839722857E+03  0.68087799286E+02  0.79942069702E+03  0.25500000920E-02 0. -1.
</event>
<event>
 5   0  0.1590067E-06  0.2100016E+04  0.7818609E-02  0.8561236E-01
        1   -1    0    0  501    0  0.00000000000E+00  0.00000000000E+00  0.26274759325E+04  0.26274759325E+04  0.50400001928E-02 0. -1.
       -1   -1    0    0    0  501  0.00000000000E+00  0.00000000000E+00 -0.41961063656E+03  0.41961063659E+03  0.50400001928E-02 0.  1.
    10030    2    1    2    0    0  0.00000000000E+00  0.00000000000E+00  0.22078652960E+04  0.30470865691E+04  0.21000160463E+04 0.  0.
        5    1    3    3  502    0 -0.10477769716E+04 -0.13435427519E+02  0.12010256682E+04  0.15938951781E+04  0.46999998093E+01 0.  1.
       -5    1    3    3    0  502  0.10477769716E+04  0.13435427519E+02  0.10068396278E+04  0.14531913910E+04  0.46999998093E+01 0. -1.
</event>
<event>
 5   0  0.3636435E-06  0.2100528E+04  0.7818609E-02  0.8561011E-01
       -2   -1    0    0    0  501  0.00000000000E+00  0.00000000000E+00  0.56784149851E+03  0.56784149852E+03  0.25500000920E-02 0. -1.
        2   -1    0    0  501    0  0.00000000000E+00  0.00000000000E+00 -0.19425389366E+04  0.19425389366E+04  0.25500000920E-02 0.  1.
    10030    2    1    2    0    0  0.00000000000E+00  0.00000000000E+00 -0.13746974381E+04  0.25103804351E+04  0.21005277629E+04 0.  0.
        4    1    3    3  502    0 -0.46598547482E+03  0.87190498537E+03 -0.11110547640E+04  0.14872138608E+04  0.12699999809E+01 0. -1.
       -4    1    3    3    0  502  0.46598547482E+03 -0.87190498537E+03 -0.26364267405E+03  0.10231665743E+04  0.12699999809E+01 0.  1.
</event>
<event>
 5   0  0.1653260E-06  0.2104593E+04  0.7818609E-02  0.8559223E-01
        1   -1    0    0  501    0  0.00000000000E+00  0.00000000000E+00  0.12774015093E+04  0.12774015093E+04  0.50400001928E-02 0. -1.
       -1   -1    0    0    0  501  0.00000000000E+00  0.00000000000E+00 -0.86685949569E+03  0.86685949571E+03  0.50400001928E-02 0.  1.
    10030    2    1    2    0    0  0.00000000000E+00  0.00000000000E+00  0.41054201361E+03  0.21442610050E+04  0.21045927190E+04 0.  0.
        3    1    3    3  502    0  0.68615280426E+01 -0.71231720260E+03  0.99439180781E+03  0.12232162341E+04  0.10100000352E+00 0. -1.
       -3    1    3    3    0  502 -0.68615280426E+01  0.71231720260E+03 -0.58384979420E+03  0.92104477094E+03  0.10100000352E+00 0.  1.
</event>
<event>
 5   0  0.1579820E-06  0.2099877E+04  0.7818609E-02  0.8561298E-01
        1   -1    0    0  501    0  0.00000000000E+00  0.00000000000E+00  0.11475859923E+04  0.11475859923E+04  0.50400001928E-02 0. -1.
       -1   -1    0    0    0  501  0.00000000000E+00  0.00000000000E+00 -0.96059955746E+03  0.96059955747E+03  0.50400001928E-02 0.  1.
    10030    2    1    2    0    0  0.00000000000E+00  0.00000000000E+00  0.18698643488E+03  0.21081855498E+04  0.20998767549E+04 0.  0.
        2    1    3    3  502    0 -0.57832817933E+03  0.56384650165E+03 -0.57996968236E+03  0.99435968990E+03  0.25500000920E-02 0.  1.
       -2    1    3    3    0  502  0.57832817933E+03 -0.56384650165E+03  0.76695611724E+03  0.11138258599E+04  0.25500000920E-02 0. -1.
</event>
<event>
 5   0  0.3547583E-06  0.2099931E+04  0.7818609E-02  0.8561274E-01
        2   -1    0    0  501    0  0.00000000000E+00  0.00000000000E+00  0.13063156942E+04  0.13063156942E+04  0.25500000920E-02 0. -1.
       -2   -1    0    0    0  501  0.00000000000E+00  0.00000000000E+00 -0.84392109481E+03  0.84392109481E+03  0.25500000920E-02 0.  1.
    10030    2    1    2    0    0  0.00000000000E+00  0.00000000000E+00  0.46239459940E+03  0.21502367890E+04  0.20999308282E+04 0.  0.
        2    1    3    3  502    0 -0.23759598222E+03 -0.75337495516E+03  0.93943273891E+03  0.12274198731E+04  0.25500000920E-02 0. -1.
       -2    1    3    3    0  502  0.23759598222E+03  0.75337495516E+03 -0.47703813951E+03  0.92281691596E+03  0.25500000920E-02 0.  1.
</event>
<event>
 5   0  0.3705828E-06  0.2099099E+04  0.7818609E-02  0.8561640E-01
        2   -1    0    0  501    0  0.00000000000E+00  0.00000000000E+00  0.88189343760E+03  0.88189343761E+03  0.25500000920E-02 0.  1.
       -2   -1    0    0    0  501  0.00000000000E+00  0.00000000000E+00 -0.12490789715E+04  0.12490789715E+04  0.25500000920E-02 0. -1.
    10030    2    1    2    0    0  0.00000000000E+00  0.00000000000E+00 -0.36718553391E+03  0.21309724091E+04  0.20990993764E+04 0.  0.
        5    1    3    3  502    0  0.54982317811E+03 -0.30270080144E+03 -0.10375546380E+04  0.12126314441E+04  0.46999998093E+01 0. -1.
       -5    1    3    3    0  502 -0.54982317811E+03  0.30270080144E+03  0.67036910407E+03  0.91834096504E+03  0.46999998093E+01 0.  1.
</event>
<event>
 5   0  0.1646510E-06  0.2100041E+04  0.7818609E-02  0.8561226E-01
        1   -1    0    0  501    0  0.00000000000E+00  0.00000000000E+00  0.90854222680E+03  0.90854222682E+03  0.50400001928E-02 0. -1.
       -1   -1    0    0    0  501  0.00000000000E+00  0.00000000000E+00 -0.12135292784E+04  0.12135292784E+04  0.50400001928E-02 0.  1.
    10030    2    1    2    0    0  0.00000000000E+00  0.00000000000E+00 -0.30498705161E+03  0.21220715052E+04  0.21000405643E+04 0.  0.
        4    1    3    3  502    0 -0.87960700168E+03 -0.52647260833E+03 -0.38216429674E+03  0.10940443535E+04  0.12699999809E+01 0.  1.
       -4    1    3    3    0  502  0.87960700168E+03  0.52647260833E+03  0.77177245137E+02  0.10280271518E+04  0.12699999809E+01 0. -1.
</event>
<event>
 5   0  0.3705828E-06  0.2099843E+04  0.7818609E-02  0.8561313E-01
       -2   -1    0    0    0  501  0.00000000000E+00  0.00000000000E+00  0.47470713978E+03  0.47470713979E+03  0.25500000920E-02 0.  1.
        2   -1    0    0  501    0  0.00000000000E+00  0.00000000000E+00 -0.23221372514E+04  0.23221372514E+04  0.25500000920E-02 0. -1.
    10030    2    1    2    0    0  0.00000000000E+00  0.00000000000E+00 -0.18474301116E+04  0.27968443912E+04  0.20998429778E+04 0.  0.
        5    1    3    3  502    0 -0.81043279747E+03 -0.59990917563E+02 -0.38294131629E+02  0.81356546136E+03  0.46999998093E+01 0.  1.
       -5    1    3    3    0  502  0.81043279747E+03  0.59990917563E+02 -0.18091359800E+04  0.19832789298E+04  0.46999998093E+01 0. -1.
</event>
<event>
 5   0  0.1653260E-06  0.2099936E+04  0.7818609E-02  0.8561271E-01
       -1   -1    0    0    0  501  0.00000000000E+00  0.00000000000E+00  0.67130062862E+03  0.67130062864E+03  0.50400001928E-02 0. -1.
        1   -1    0    0  501    0  0.00000000000E+00  0.00000000000E+00 -0.16422348392E+04  0.16422348393E+04  0.50400001928E-02 0.  1.
    10030    2    1    2    0    0  0.00000000000E+00  0.00000000000E+00 -0.97093421063E+03  0.23135354679E+04  0.20999364561E+04 0.  0.
        3    1    3    3  502    0  0.25425899329E+03  0.61277632793E+03 -0.13820580984E+04  0.15330450291E+04  0.10100000352E+00 0.  1.
       -3    1    3    3    0  502 -0.25425899329E+03 -0.61277632793E+03  0.41112388778E+03  0.78049043878E+03  0.10100000352E+00 0. -1.
</event>
<event>
 5   0  0.3547583E-06  0.2099621E+04  0.7818609E-02  0.8561410E-01
       -2   -1    0    0    0  501  0.00000000000E+00  0.00000000000E+00  0.44852673099E+03  0.44852673099E+03  0.25500000920E-02 0.  1.
        2   -1    0    0  501    0  0.00000000000E+00  0.00000000000E+00 -0.24571609048E+04  0.24571609048E+04  0.25500000920E-02 0. -1.
    10030    2    1    2    0    0  0.00000000000E+00  0.00000000000E+00 -0.20086341738E+04  0.29056876358E+04  0.20996212498E+04 0.  0.
        2    1    3    3  502    0 -0.60117966734E+02 -0.98625397021E+03 -0.51348466559E+03  0.11135427991E+04  0.25500000920E-02 0.  1.
       -2    1    3    3    0  502  0.60117966734E+02  0.98625397021E+03 -0.14951495083E+04  0.17921448367E+04  0.25500000920E-02 0. -1.
</event>
<event>
 5   0  0.3574927E-06  0.2100359E+04  0.7818609E-02  0.8561085E-01
        2   -1    0    0  501    0  0.00000000000E+00  0.00000000000E+00  0.10972685011E+04  0.10972685011E+04  0.25500000920E-02 0.  1.
       -2   -1    0    0    0  501  0.00000000000E+00  0.00000000000E+00 -0.10051109653E+04  0.10051109653E+04  0.25500000920E-02 0. -1.
    10030    2    1    2    0    0  0.00000000000E+00  0.00000000000E+00  0.92157535734E+02  0.21023794664E+04  0.21003586383E+04 0.  0.
        3    1    3    3  502    0  0.27972551508E+03 -0.27099880896E+03  0.10223067639E+04  0.10939825629E+04  0.10100000352E+00 0.  1.
       -3    1    3    3    0  502 -0.27972551508E+03  0.27099880896E+03 -0.93014922812E+03  0.10083969035E+04  0.10100000352E+00 0. -1.
</event>
<event>
 5   0  0.3480134E-06  0.2100249E+04  0.7818609E-02  0.8561134E-01
       -2   -1    0    0    0  501  0.00000000000E+00  0.00000000000E+00  0.89147105150E+03  0.89147105151E+03  0.25500000920E-02 0. -1.
        2   -1    0    0  501    0  0.00000000000E+00  0.00000000000E+00 -0.12370129835E+04  0.12370129835E+04  0.25500000920E-02 0.  1.
    10030    2    1    2    0    0  0.00000000000E+00  0.00000000000E+00 -0.34554193200E+03  0.21284840350E+04  0.21002488092E+04 0.  0.
        1    1    3    3  502    0  0.94135611287E+03  0.45918483111E+03 -0.95861169344E+02  0.10517563426E+04  0.50400001928E-02 0. -1.
       -1    1    3    3    0  502 -0.94135611287E+03 -0.45918483111E+03 -0.24968076266E+03  0.10767276924E+04  0.50400001928E-02 0.  1.
</event>
<event>
 5   0  0.1615098E-06  0.2099382E+04  0.7818609E-02  0.8561516E-01
        1   -1    0    0  501    0  0.00000000000E+00  0.00000000000E+00  0.93581665617E+03  0.93581665619E+03  0.50400001928E-02 0. -1.
       -1   -1    0    0    0  501  0.00000000000E+00  0.00000000000E+00 -0.11774220423E+04  0.11774220423E+04  0.50400001928E-02 0.  1.
    10030    2    1    2    0    0  0.00000000000E+00  0.00000000000E+00 -0.24160538616E+03  0.21132386985E+04  0.20993819648E+04 0.  0.
        1    1    3    3  502    0  0.86962045279E+03  0.21258213389E+03  0.43092108827E+03  0.99354108114E+03  0.50400001928E-02 0. -1.
       -1    1    3    3    0  502 -0.86962045279E+03 -0.21258213389E+03 -0.67252647443E+03  0.11196976174E+04  0.50400001928E-02 0.  1.
</event>
<event>
 5   0  0.3574927E-06  0.2099920E+04  0.7818609E-02  0.8561279E-01
        2   -1    0    0  501    0  0.00000000000E+00  0.00000000000E+00  0.68143853977E+03  0.68143853978E+03  0.25500000920E-02 0.  1.
       -2   -1    0    0    0  501  0.00000000000E+00  0.00000000000E+00 -0.16177779808E+04  0.16177779808E+04  0.25500000920E-02 0. -1.
    10030    2    1    2    0    0  0.00000000000E+00  0.00000000000E+00 -0.93633944106E+03  0.22992165206E+04  0.20999202508E+04 0.  0.
        3    1    3    3  502    0  0.10319246550E+04 -0.61158167760E+02 -0.26685144097E+03  0.10676228345E+04  0.10100000352E+00 0.  1.
       -3    1    3    3    0  502 -0.10319246550E+04  0.61158167760E+02 -0.66948800010E+03  0.12315936861E+04  0.10100000352E+00 0. -1.
</event>
<event>
 5   0  0.1646510E-06  0.2099434E+04  0.7818609E-02  0.8561493E-01
       -1   -1    0    0    0  501  0.00000000000E+00  0.00000000000E+00  0.13080476879E+04  0.13080476879E+04  0.50400001928E-02 0. -1.
        1   -1    0    0  501    0  0.00000000000E+00  0.00000000000E+00 -0.84240496136E+03  0.84240496138E+03  0.50400001928E-02 0.  1.
    10030    2    1    2    0    0  0.00000000000E+00  0.00000000000E+00  0.46564272652E+03  0.21504526493E+04  0.20994340780E+04 0.  0.
        4    1    3    3  502    0  0.65404858591E+02  0.15139120319E+01 -0.84031391255E+03  0.84285774125E+03  0.12699999809E+01 0.  1.
       -4    1    3    3    0  502 -0.65404858591E+02 -0.15139120319E+01  0.13059566391E+04  0.13075949080E+04  0.12699999809E+01 0. -1.
</event>
<event>
 5   0  0.3705828E-06  0.2100392E+04  0.7818609E-02  0.8561071E-01
       -2   -1    0    0    0  501  0.00000000000E+00  0.00000000000E+00  0.14626881489E+04  0.14626881489E+04  0.25500000920E-02 0. -1.
        2   -1    0    0  501    0  0.00000000000E+00  0.00000000000E+00 -0.75403033535E+03  0.75403033535E+03  0.25500000920E-02 0.  1.
    10030    2    1    2    0    0  0.00000000000E+00  0.00000000000E+00  0.70865781352E+03  0.22167184842E+04  0.21003916163E+04 0.  0.
        5    1    3    3  502    0  0.71385728091E+03 -0.10860973589E+03  0.11591242313E+04  0.13656424736E+04  0.46999998093E+01 0. -1.
       -5    1    3    3    0  502 -0.71385728091E+03  0.10860973589E+03 -0.45046641777E+03  0.85107601058E+03  0.46999998093E+01 0.  1.
</event>
<event>
 5   0  0.1646510E-06  0.2099321E+04  0.7818609E-02  0.8561543E-01
        1   -1    0    0  501    0  0.00000000000E+00  0.00000000000E+00  0.30007518920E+03  0.30007518924E+03  0.50400001928E-02 0. -1.
       -1   -1    0    0    0  501  0.00000000000E+00  0.00000000000E+00 -0.36717024592E+04  0.36717024592E+04  0.50400001928E-02 0.  1.
    10030    2    1    2    0    0  0.00000000000E+00  0.00000000000E+00 -0.33716272700E+04  0.39717776485E+04  0.20993206618E+04 0.  0.
        4    1    3    3  502    0 -0.83861094847E+03  0.62653798257E+03 -0.15396681885E+04  0.18618264984E+04  0.12699999809E+01 0. -1.
       -4    1    3    3    0  502  0.83861094847E+03 -0.62653798257E+03 -0.18319590815E+04  0.21099511501E+04  0.12699999809E+01 0.  1.
</event>
<event>
 5   0  0.1653260E-06  0.2100497E+04  0.7818609E-02  0.8561025E-01
        1   -1    0    0  501    0  0.00000000000E+00  0.00000000000E+00  0.12161281205E+04  0.12161281205E+04  0.50400001928E-02 0. -1.
       -1   -1    0    0    0  501  0.00000000000E+00  0.00000000000E+00 -0.90699456813E+03  0.90699456814E+03  0.50400001928E-02 0.  1.
    10030    2    1    2    0    0  0.00000000000E+00  0.00000000000E+00  0.30913355237E+03  0.21231226886E+04  0.21004967027E+04 0.  0.
        3    1    3    3  502    0 -0.93919138262E+03  0.14200076064E+03  0.60747476495E+03  0.11275062170E+04  0.10100000352E+00 0. -1.
       -3    1    3    3    0  502  0.93919138262E+03 -0.14200076064E+03 -0.29834121258E+03  0.99561647161E+03  0.10100000352E+00 0.  1.
</event>
<event>
 5   0  0.3480134E-06  0.2099675E+04  0.7818609E-02  0.8561387E-01
       -2   -1    0    0    0  501  0.00000000000E+00  0.00000000000E+00  0.68005927942E+03  0.68005927942E+03  0.25500000920E-02 0.  1.
        2   -1    0    0  501    0  0.00000000000E+00  0.00000000000E+00 -0.16206801081E+04  0.16206801081E+04  0.25500000920E-02 0. -1.
    10030    2    1    2    0    0  0.00000000000E+00  0.00000000000E+00 -0.94062082867E+03  0.23007393875E+04  0.20996747810E+04 0.  0.
        1    1    3    3  502    0  0.79171000957E+03 -0.25299144552E+03  0.23247168346E+03  0.86304837315E+03  0.50400001928E-02 0.  1.
       -1    1    3    3    0  502 -0.79171000957E+03  0.25299144552E+03 -0.11730925121E+04  0.14376910144E+04  0.50400001928E-02 0. -1.
</event>
<event>
 5   0  0.3636435E-06  0.2100981E+04  0.7818609E-02  0.8560811E-01
        2   -1    0    0  501    0  0.00000000000E+00  0.00000000000E+00  0.17457619248E+04  0.17457619249E+04  0.25500000920E-02 0. -1.
       -2   -1    0    0    0  501  0.00000000000E+00  0.00000000000E+00 -0.63211953512E+03  0.63211953513E+03  0.25500000920E-02 0.  1.
    10030    2    1    2    0    0  0.00000000000E+00  0.00000000000E+00  0.11136423897E+04  0.23778814600E+04  0.21009809294E+04 0.  0.
        4    1    3    3  502    0  0.45623115664E+03  0.94454633019E+03  0.49265760081E+03  0.11588907467E+04  0.12699999809E+01 0.  1.
       -4    1    3    3    0  502 -0.45623115664E+03 -0.94454633019E+03  0.62098478891E+03  0.12189907133E+04  0.12699999809E+01 0. -1.
</event>
<event>
 5   0  0.3574927E-06  0.2100313E+04  0.7818609E-02  0.8561106E-01
       -2   -1    0    0    0  501  0.00000000000E+00  0.00000000000E+00  0.75475614684E+03  0.75475614684E+03  0.25500000920E-02 0. -1.
        2   -1    0    0  501    0  0.00000000000E+00  0.00000000000E+00 -0.14611721832E+04  0.14611721832E+04  0.25500000920E-02 0.  1.
    10030    2    1    2    0    0  0.00000000000E+00  0.00000000000E+00 -0.70641603640E+03  0.22159283301E+04  0.21003130118E+04 0.  0.
        3    1    3    3  502    0  0.57230302673E+03 -0.64719946026E+03  0.27667411268E+03  0.90716397117E+03  0.10100000352E+00 0. -1.
       -3    1    3    3    0  502 -0.57230302673E+03  0.64719946026E+03 -0.98309014908E+03  0.13087643589E+04  0.10100000352E+00 0.  1.
</event>
<event>
 5   0  0.1646510E-06  0.2099454E+04  0.7818609E-02  0.8561484E-01
        1   -1    0    0  501    0  0.00000000000E+00  0.00000000000E+00  0.15354930906E+04  0.15354930906E+04  0.50400001928E-02 0.  1.
       -1   -1    0    0    0  501  0.00000000000E+00  0.00000000000E+00 -0.71763708708E+03  0.71763708710E+03  0.50400001928E-02 0. -1.
    10030    2    1    2    0    0  0.00000000000E+00  0.00000000000E+00  0.81785600353E+03  0.22531301777E+04  0.20994540136E+04 0.  0.
        4    1    3    3  502    0  0.58880644180E+03 -0.17814124503E+03  0.13217761514E+04  0.14579167111E+04  0.12699999809E+01 0.  1.
       -4    1    3    3    0  502 -0.58880644180E+03  0.17814124503E+03 -0.50392014792E+03  0.79521346660E+03  0.12699999809E+01 0. -1.
</event>
<event>
 5   0  0.1579820E-06  0.2100379E+04  0.7818609E-02  0.8561076E-01
       -1   -1    0    0    0  501  0.00000000000E+00  0.00000000000E+00  0.72895748199E+03  0.72895748200E+03  0.50400001928E-02 0. -1.
        1   -1    0    0  501    0  0.00000000000E+00  0.00000000000E+00 -0.15129801232E+04  0.15129801232E+04  0.50400001928E-02 0.  1.
    10030    2    1    2    0    0  0.00000000000E+00  0.00000000000E+00 -0.78402264124E+03  0.22419376052E+04  0.21003791857E+04 0.  0.
        2    1    3    3  502    0 -0.78047008842E+03  0.50278033199E+02  0.35610863037E+03  0.85934556272E+03  0.25500000920E-02 0. -1.
       -2    1    3    3    0  502  0.78047008842E+03 -0.50278033199E+02 -0.11401312716E+04  0.13825920425E+04  0.25500000920E-02 0.  1.
</event>
<event>
 5   0  0.3705828E-06  0.2099726E+04  0.7818609E-02  0.8561364E-01
        2   -1    0    0  501    0  0.00000000000E+00  0.00000000000E+00  0.25956694415E+04  0.25956694415E+04  0.25500000920E-02 0. -1.
       -2   -1    0    0    0  501  0.00000000000E+00  0.00000000000E+00 -0.42463488805E+03  0.42463488806E+03  0.25500000920E-02 0.  1.
    10030    2    1    2    0    0  0.00000000000E+00  0.00000000000E+00  0.21710345534E+04  0.30203043295E+04  0.20997255084E+04 0.  0.
        5    1    3    3  502    0 -0.66015536468E+03 -0.26998153218E+02 -0.88063563908E+02  0.66656679116E+03  0.46999998093E+01 0.  1.
       -5    1    3    3    0  502  0.66015536468E+03  0.26998153218E+02  0.22590981173E+04  0.23537375383E+04  0.46999998093E+01 0. -1.
</event>
<event>
 5   0  0.1615098E-06  0.2098396E+04  0.7818609E-02  0.8561950E-01
       -1   -1    0    0    0  501  0.00000000000E+00  0.00000000000E+00  0.16202630790E+04  0.16202630790E+04  0.50400001928E-02 0. -1.
        1   -1    0    0  501    0  0.00000000000E+00  0.00000000000E+00 -0.67940589126E+03  0.67940589128E+03  0.50400001928E-02 0.  1.
    10030    2    1    2    0    0  0.00000000000E+00  0.00000000000E+00  0.94085718776E+03  0.22996689703E+04  0.20983958457E+04 0.  0.
        1    1    3    3  502    0  0.99981168024E+03 -0.29051344563E+03  0.61245386479E+03  0.12079408903E+04  0.50400001928E-02 0.  1.
       -1    1    3    3    0  502 -0.99981168024E+03  0.29051344563E+03  0.32840332298E+03  0.10917280800E+04  0.50400001928E-02 0. -1.
</event>
<event>
 5   0  0.3574927E-06  0.2102737E+04  0.7818609E-02  0.8560039E-01
       -2   -1    0    0    0  501  0.00000000000E+00  0.00000000000E+00  0.85283775404E+03  0.85283775405E+03  0.25500000920E-02 0. -1.
        2   -1    0    0  501    0  0.00000000000E+00  0.00000000000E+00 -0.12961152134E+04  0.12961152134E+04  0.25500000920E-02 0.  1.
    10030    2    1    2    0    0  0.00000000000E+00  0.00000000000E+00 -0.44327745938E+03  0.21489529675E+04  0.21027372519E+04 0.  0.
        3    1    3    3  502    0 -0.20684757552E+03  0.10114528906E+04 -0.42488950407E+03  0.11164022440E+04  0.10100000352E+00 0. -1.
       -3    1    3    3    0  502  0.20684757552E+03 -0.10114528906E+04 -0.18387955315E+02  0.10325507235E+04  0.10100000352E+00 0.  1.
</event>
<event>
 5   0  0.1579820E-06  0.2097944E+04  0.7818609E-02  0.8562150E-01
        1   -1    0    0  501    0  0.00000000000E+00  0.00000000000E+00  0.14162257502E+04  0.14162257502E+04  0.50400001928E-02 0.  1.
       -1   -1    0    0    0  501  0.00000000000E+00  0.00000000000E+00 -0.77695391782E+03  0.77695391784E+03  0.50400001928E-02 0. -1.
    10030    2    1    2    0    0  0.00000000000E+00  0.00000000000E+00  0.63927183234E+03  0.21931796680E+04  0.20979438936E+04 0.  0.
        2    1    3    3  502    0  0.17078127964E+03 -0.45399937738E+03 -0.65267144516E+03  0.81317998960E+03  0.25500000920E-02 0. -1.
       -2    1    3    3    0  502 -0.17078127964E+03  0.45399937738E+03  0.12919432775E+04  0.13799996784E+04  0.25500000920E-02 0.  1.
</event>
<event>
 5   0  0.1646510E-06  0.2100245E+04  0.7818609E-02  0.8561135E-01
       -1   -1    0    0    0  501  0.00000000000E+00  0.00000000000E+00  0.11525774772E+04  0.11525774772E+04  0.50400001928E-02 0.  1.
        1   -1    0    0  501    0  0.00000000000E+00  0.00000000000E+00 -0.95677537697E+03  0.95677537699E+03  0.50400001928E-02 0. -1.
    10030    2    1    2    0    0  0.00000000000E+00  0.00000000000E+00  0.19580210026E+03  0.21093528542E+04  0.21002454621E+04 0.  0.
        4    1    3    3  502    0 -0.58040073850E+03  0.59755421116E+03  0.74006406946E+03  0.11142856422E+04  0.12699999809E+01 0.  1.
       -4    1    3    3    0  502  0.58040073850E+03 -0.59755421116E+03 -0.54426196920E+03  0.99506721207E+03  0.12699999809E+01 0. -1.
</event>
<event>
 5   0  0.1257125E-06  0.2099671E+04  0.7818609E-02  0.8561388E-01
       -3   -1    0    0    0  501  0.00000000000E+00  0.00000000000E+00  0.18209358221E+04  0.18209358249E+04  0.10100000352E+00 0.  1.
        3   -1    0    0  501    0  0.00000000000E+00  0.00000000000E+00 -0.60526812284E+03  0.60526813126E+03  0.10100000352E+00 0. -1.
    10030    2    1    2    0    0  0.00000000000E+00  0.00000000000E+00  0.12156676993E+04  0.24262039562E+04  0.20996708509E+04 0.  0.
        2    1    3    3  502    0 -0.39573537422E+03 -0.91939915666E+03  0.97370237212E+03  0.13964231469E+04  0.25500000920E-02 0.  1.
       -2    1    3    3    0  502  0.39573537422E+03  0.91939915666E+03  0.24196532717E+03  0.10297808093E+04  0.25500000920E-02 0. -1.
</event>
<event>
 5   0  0.3636435E-06  0.2099821E+04  0.7818609E-02  0.8561322E-01
        2   -1    0    0  501    0  0.00000000000E+00  0.00000000000E+00  0.93892345595E+03  0.93892345595E+03  0.25500000920E-02 0.  1.
       -2   -1    0    0    0  501  0.00000000000E+00  0.00000000000E+00 -0.11740174065E+04  0.11740174065E+04  0.25500000920E-02 0. -1.
    10030    2    1    2    0    0  0.00000000000E+00  0.00000000000E+00 -0.23509395058E+03  0.21129408625E+04  0.20998214026E+04 0.  0.
        4    1    3    3  502    0 -0.20690770717E+03 -0.71624163484E+01  0.91817922920E+03  0.94123153864E+03  0.12699999809E+01 0.  1.
       -4    1    3    3    0  502  0.20690770717E+03  0.71624163484E+01 -0.11532731798E+04  0.11717093238E+04  0.12699999809E+01 0. -1.
</event>
<event>
 5   0  0.1590067E-06  0.2099751E+04  0.7818609E-02  0.8561353E-01
       -1   -1    0    0    0  501  0.00000000000E+00  0.00000000000E+00  0.74922629274E+03  0.74922629276E+03  0.50400001928E-02 0. -1.
        1   -1    0    0  501    0  0.00000000000E+00  0.00000000000E+00 -0.14711691879E+04  0.14711691879E+04  0.50400001928E-02 0.  1.
    10030    2    1    2    0    0  0.00000000000E+00  0.00000000000E+00 -0.72194289518E+03  0.22203954807E+04  0.20997510678E+04 0.  0.
        5    1    3    3  502    0  0.43986213503E+03  0.42599386431E+03  0.54082700886E+03  0.81698556522E+03  0.46999998093E+01 0. -1.
       -5    1    3    3    0  502 -0.43986213503E+03 -0.42599386431E+03 -0.12627699040E+04  0.14034099155E+04  0.46999998093E+01 0.  1.
</event>
<event>
 5   0  0.3547583E-06  0.2101578E+04  0.7818609E-02  0.8560549E-01
        2   -1    0    0  501    0  0.00000000000E+00  0.00000000000E+00  0.11658661724E+04  0.11658661724E+04  0.25500000920E-02 0.  1.
       -2   -1    0    0    0  501  0.00000000000E+00  0.00000000000E+00 -0.94707069479E+03  0.94707069479E+03  0.25500000920E-02 0. -1.
    10030    2    1    2    0    0  0.00000000000E+00  0.00000000000E+00  0.21879547763E+03  0.21129368672E+04  0.21015781555E+04 0.  0.
        2    1    3    3  502    0  0.78261904270E+03 -0.62422343544E+03 -0.21171891003E+03  0.10232166732E+04  0.25500000920E-02 0.  1.
       -2    1    3    3    0  502 -0.78261904270E+03  0.62422343544E+03  0.43051438766E+03  0.10897201941E+04  0.25500000920E-02 0. -1.
</event>
<event>
 5   0  0.1646510E-06  0.2101885E+04  0.7818609E-02  0.8560414E-01
       -1   -1    0    0    0  501  0.00000000000E+00  0.00000000000E+00  0.15301716462E+04  0.15301716462E+04  0.50400001928E-02 0.  1.
        1   -1    0    0  501    0  0.00000000000E+00  0.00000000000E+00 -0.72180117811E+03  0.72180117812E+03  0.50400001928E-02 0. -1.
    10030    2    1    2    0    0  0.00000000000E+00  0.00000000000E+00  0.80837046812E+03  0.22519728244E+04  0.21018845801E+04 0.  0.
        4    1    3    3  502    0 -0.10175241855E+04 -0.25833591595E+03  0.45651080770E+03  0.11447692536E+04  0.12699999809E+01 0.  1.
       -4    1    3    3    0  502  0.10175241855E+04  0.25833591595E+03  0.35185966042E+03  0.11072035708E+04  0.12699999809E+01 0. -1.
</event>
<event>
 5   0  0.1615098E-06  0.2100315E+04  0.7818609E-02  0.8561105E-01
       -1   -1    0    0    0  501  0.00000000000E+00  0.00000000000E+00  0.11452312548E+04  0.11452312548E+04  0.50400001928E-02 0. -1.
        1   -1    0    0  501    0  0.00000000000E+00  0.00000000000E+00 -0.96297670413E+03  0.96297670414E+03  0.50400001928E-02 0.  1.
    10030    2    1    2    0    0  0.00000000000E+00  0.00000000000E+00  0.18225455066E+03  0.21082079589E+04  0.21003152327E+04 0.  0.
        1    1    3    3  502    0  0.89916313597E+03 -0.44198405493E+03  0.40693121348E+03  0.10814052258E+04  0.50400001928E-02 0. -1.
       -1    1    3    3    0  502 -0.89916313597E+03  0.44198405493E+03 -0.22467666282E+03  0.10268027331E+04  0.50400001928E-02 0.  1.
</event>
<event>
 5   0  0.3547583E-06  0.2100869E+04  0.7818609E-02  0.8560860E-01
       -2   -1    0    0    0  501  0.00000000000E+00  0.00000000000E+00  0.46581456336E+03  0.46581456337E+03  0.25500000920E-02 0.  1.
        2   -1    0    0  501    0  0.00000000000E+00  0.00000000000E+00 -0.23687818227E+04  0.23687818227E+04  0.25500000920E-02 0. -1.
    10030    2    1    2    0    0  0.00000000000E+00  0.00000000000E+00 -0.19029672593E+04  0.28345963861E+04  0.21008694109E+04 0.  0.
        2    1    3    3  502    0  0.85933108145E+03  0.56771496590E+03 -0.67279627823E+03  0.12302052764E+04  0.25500000920E-02 0.  1.
       -2    1    3    3    0  502 -0.85933108145E+03 -0.56771496590E+03 -0.12301709811E+04  0.16043911097E+04  0.25500000920E-02 0. -1.
</event>
<event>
 5   0  0.3480134E-06  0.2099273E+04  0.7818609E-02  0.8561564E-01
       -2   -1    0    0    0  501  0.00000000000E+00  0.00000000000E+00  0.90778351800E+03  0.90778351800E+03  0.25500000920E-02 0. -1.
        2   -1    0    0  501    0  0.00000000000E+00  0.00000000000E+00 -0.12136560621E+04  0.12136560621E+04  0.25500000920E-02 0.  1.
    10030    2    1    2    0    0  0.00000000000E+00  0.00000000000E+00 -0.30587254407E+03  0.21214395801E+04  0.20992731787E+04 0.  0.
        1    1    3    3  502    0 -0.75086843619E+03 -0.71996780424E+03 -0.29434206108E+03  0.10811079024E+04  0.50400001928E-02 0.  1.
       -1    1    3    3    0  502  0.75086843619E+03  0.71996780424E+03 -0.11530482991E+02  0.10403316777E+04  0.50400001928E-02 0. -1.
</event>
<event>
 5   0  0.1579820E-06  0.2100347E+04  0.7818609E-02  0.8561091E-01
       -1   -1    0    0    0  501  0.00000000000E+00  0.00000000000E+00  0.12273656967E+04  0.12273656967E+04  0.50400001928E-02 0. -1.
        1   -1    0    0  501    0  0.00000000000E+00  0.00000000000E+00 -0.89856187499E+03  0.89856187500E+03  0.50400001928E-02 0.  1.
    10030    2    1    2    0    0  0.00000000000E+00  0.00000000000E+00  0.32880382172E+03  0.21259275717E+04  0.21003466588E+04 0.  0.
        2    1    3    3  502    0  0.57682979471E+03 -0.84662893794E+03  0.39819311097E+03  0.10991227976E+04  0.25500000920E-02 0. -1.
       -2    1    3    3    0  502 -0.57682979471E+03  0.84662893794E+03 -0.69389289249E+02  0.10268047741E+04  0.25500000920E-02 0.  1.
</event>
<event>
 5   0  0.1615098E-06  0.2097834E+04  0.7818609E-02  0.8562198E-01
        1   -1    0    0  501    0  0.00000000000E+00  0.00000000000E+00  0.20072758268E+04  0.20072758268E+04  0.50400001928E-02 0. -1.
       -1   -1    0    0    0  501  0.00000000000E+00  0.00000000000E+00 -0.54811925509E+03  0.54811925512E+03  0.50400001928E-02 0.  1.
    10030    2    1    2    0    0  0.00000000000E+00  0.00000000000E+00  0.14591565717E+04  0.25553950819E+04  0.20978336740E+04 0.  0.
        1    1    3    3  502    0 -0.48330980695E+03 -0.62135251683E+03 -0.11484549471E+03  0.79552297726E+03  0.50400001928E-02 0.  1.
       -1    1    3    3    0  502  0.48330980695E+03  0.62135251683E+03  0.15740020664E+04  0.17598721046E+04  0.50400001928E-02 0. -1.
</event>
<event>
 5   0  0.1646510E-06  0.2098088E+04  0.7818609E-02  0.8562086E-01
       -1   -1    0    0    0  501  0.00000000000E+00  0.00000000000E+00  0.68731568565E+03  0.68731568567E+03  0.50400001928E-02 0. -1.
        1   -1    0    0  501    0  0.00000000000E+00  0.00000000000E+00 -0.16011468348E+04  0.16011468348E+04  0.50400001928E-02 0.  1.
    10030    2    1    2    0    0  0.00000000000E+00  0.00000000000E+00 -0.91383114912E+03  0.22884625205E+04  0.20980880197E+04 0.  0.
        4    1    3    3  502    0 -0.24524712681E+03 -0.19698278611E+03  0.63466293309E+03  0.70834103564E+03  0.12699999809E+01 0. -1.
       -4    1    3    3    0  502  0.24524712681E+03  0.19698278611E+03 -0.15484940822E+04  0.15801214848E+04  0.12699999809E+01 0.  1.
</event>
<event>
 5   0  0.3636435E-06  0.2099098E+04  0.7818609E-02  0.8561641E-01
        2   -1    0    0  501    0  0.00000000000E+00  0.00000000000E+00  0.25488591597E+04  0.25488591597E+04  0.25500000920E-02 0. -1.
       -2   -1    0    0    0  501  0.00000000000E+00  0.00000000000E+00 -0.43217476846E+03  0.43217476847E+03  0.25500000920E-02 0.  1.
    10030    2    1    2    0    0  0.00000000000E+00  0.00000000000E+00  0.21166843913E+04  0.29810339282E+04  0.20990975368E+04 0.  0.
        4    1    3    3  502    0 -0.96549963102E+03  0.34402647963E+03  0.73760432125E+03  0.12627769018E+04  0.12699999809E+01 0.  1.
       -4    1    3    3    0  502  0.96549963102E+03 -0.34402647963E+03  0.13790800700E+04  0.17182570264E+04  0.12699999809E+01 0. -1.
</event>
<event>
 5   0  0.1653260E-06  0.2102502E+04  0.7818609E-02  0.8560142E-01
        1   -1    0    0  501    0  0.00000000000E+00  0.00000000000E+00  0.11532683261E+04  0.11532683261E+04  0.50400001928E-02 0.  1.
       -1   -1    0    0    0  501  0.00000000000E+00  0.00000000000E+00 -0.95825845480E+03  0.95825845481E+03  0.50400001928E-02 0. -1.
    10030    2    1    2    0    0  0.00000000000E+00  0.00000000000E+00  0.19500987131E+03  0.21115267809E+04  0.21025024368E+04 0.  0.
        3    1    3    3  502    0 -0.26862706105E+03 -0.87004730123E+02 -0.91946119004E+03  0.96184157281E+03  0.10100000352E+00 0. -1.
       -3    1    3    3    0  502  0.26862706105E+03  0.87004730123E+02  0.11144710614E+04  0.11496852081E+04  0.10100000352E+00 0.  1.
</event>
<event>
 5   0  0.1615098E-06  0.2100032E+04  0.7818609E-02  0.8561229E-01
       -1   -1    0    0    0  501  0.00000000000E+00  0.00000000000E+00  0.49707669600E+03  0.49707669602E+03  0.50400001928E-02 0.  1.
        1   -1    0    0  501    0  0.00000000000E+00  0.00000000000E+00 -0.22180352482E+04  0.22180352482E+04  0.50400001928E-02 0. -1.
    10030    2    1    2    0    0  0.00000000000E+00  0.00000000000E+00 -0.17209585522E+04  0.27151119442E+04  0.21000320310E+04 0.  0.
        1    1    3    3  502    0 -0.20615688466E+03 -0.74339453994E+03  0.60470603834E+02  0.77381703074E+03  0.50400001928E-02 0. -1.
       -1    1    3    3    0  502  0.20615688466E+03  0.74339453994E+03 -0.17814291560E+04  0.19412949135E+04  0.50400001928E-02 0.  1.
</event>
<event>
 5   0  0.1615098E-06  0.2099973E+04  0.7818609E-02  0.8561255E-01
        1   -1    0    0  501    0  0.00000000000E+00  0.00000000000E+00  0.20904006392E+04  0.20904006392E+04  0.50400001928E-02 0. -1.
       -1   -1    0    0    0  501  0.00000000000E+00  0.00000000000E+00 -0.52739744306E+03  0.52739744308E+03  0.50400001928E-02 0.  1.
    10030    2    1    2    0    0  0.00000000000E+00  0.00000000000E+00  0.15630031962E+04  0.26177980823E+04  0.20999732876E+04 0.  0.
        1    1    3    3  502    0  0.27045897883E+02  0.21112509393E+03  0.20632243845E+04  0.20741745700E+04  0.50400001928E-02 0. -1.
       -1    1    3    3    0  502 -0.27045897883E+02 -0.21112509393E+03 -0.50022118834E+03  0.54362351234E+03  0.50400001928E-02 0.  1.
</event>
<event>
 5   0  0.3636435E-06  0.2100666E+04  0.7818609E-02  0.8560950E-01
        2   -1    0    0  501    0  0.00000000000E+00  0.00000000000E+00  0.17345785703E+04  0.17345785703E+04  0.25500000920E-02 0. -1.
       -2   -1    0    0    0  501  0.00000000000E+00  0.00000000000E+00 -0.63600458578E+03  0.63600458578E+03  0.25500000920E-02 0.  1.
    10030    2    1    2    0    0  0.00000000000E+00  0.00000000000E+00  0.10985739845E+04  0.23705831561E+04  0.21006664896E+04 0.  0.
        4    1    3    3  502    0 -0.89966579875E+02  0.48783727256E+03 -0.49547816102E+03  0.70112724304E+03  0.12699999809E+01 0.  1.
       -4    1    3    3    0  502  0.89966579875E+02 -0.48783727256E+03  0.15940521455E+04  0.16694559130E+04  0.12699999809E+01 0. -1.
</event>
<event>
 5   0  0.3574927E-06  0.2099995E+04  0.7818609E-02  0.8561245E-01
       -2   -1    0    0    0  501  0.00000000000E+00  0.00000000000E+00  0.60572096301E+03  0.60572096302E+03  0.25500000920E-02 0.  1.
        2   -1    0    0  501    0  0.00000000000E+00  0.00000000000E+00 -0.18201368311E+04  0.18201368311E+04  0.25500000920E-02 0. -1.
    10030    2    1    2    0    0  0.00000000000E+00  0.00000000000E+00 -0.12144158681E+04  0.24258577941E+04  0.20999952706E+04 0.  0.
        3    1    3    3  502    0 -0.38965231008E+03 -0.40137068260E+03  0.41925129115E+03  0.69907009873E+03  0.10100000352E+00 0.  1.
       -3    1    3    3    0  502  0.38965231008E+03  0.40137068260E+03 -0.16336671592E+04  0.17267876954E+04  0.10100000352E+00 0. -1.
</event>
<event>
 5   0  0.3705828E-06  0.2100636E+04  0.7818609E-02  0.8560963E-01
       -2   -1    0    0    0  501  0.00000000000E+00  0.00000000000E+00  0.91308956385E+03  0.91308956385E+03  0.25500000920E-02 0. -1.
        2   -1    0    0  501    0  0.00000000000E+00  0.00000000000E+00 -0.12081700312E+04  0.12081700312E+04  0.25500000920E-02 0.  1.
    10030    2    1    2    0    0  0.00000000000E+00  0.00000000000E+00 -0.29508046738E+03  0.21212595951E+04  0.21006355675E+04 0.  0.
        5    1    3    3  502    0  0.65980612063E+03  0.38347986776E+03 -0.87625139643E+03  0.11619980747E+04  0.46999998093E+01 0.  1.
       -5    1    3    3    0  502 -0.65980612063E+03 -0.38347986776E+03  0.58117092905E+03  0.95926152042E+03  0.46999998093E+01 0. -1.
</event>
<event>
 5   0  0.3574927E-06  0.2093467E+04  0.7818609E-02  0.8564127E-01
        2   -1    0    0  501    0  0.00000000000E+00  0.00000000000E+00  0.14742037739E+04  0.14742037739E+04  0.25500000920E-02 0.  1.
       -2   -1    0    0    0  501  0.00000000000E+00  0.00000000000E+00 -0.74321561516E+03  0.74321561516E+03  0.25500000920E-02 0. -1.
    10030    2    1    2    0    0  0.00000000000E+00  0.00000000000E+00  0.73098815871E+03  0.22174193890E+04  0.20934672337E+04 0.  0.
        3    1    3    3  502    0 -0.26214713314E+03 -0.23002044974E+03 -0.67986566608E+03  0.76409937890E+03  0.10100000352E+00 0. -1.
       -3    1    3    3    0  502  0.26214713314E+03  0.23002044974E+03  0.14108538248E+04  0.14533200101E+04  0.10100000352E+00 0.  1.
</event>
<event>
 5   0  0.1590067E-06  0.2100442E+04  0.7818609E-02  0.8561049E-01
        1   -1    0    0  501    0  0.00000000000E+00  0.00000000000E+00  0.12756608871E+04  0.12756608871E+04  0.50400001928E-02 0. -1.
       -1   -1    0    0    0  501  0.00000000000E+00  0.00000000000E+00 -0.86462197501E+03  0.86462197503E+03  0.50400001928E-02 0.  1.
    10030    2    1    2    0    0  0.00000000000E+00  0.00000000000E+00  0.41103891212E+03  0.21402828622E+04  0.21004422732E+04 0.  0.
        5    1    3    3  502    0  0.39637458400E+03 -0.59591195509E+03  0.98867982314E+03  0.12205464972E+04  0.46999998093E+01 0. -1.
       -5    1    3    3    0  502 -0.39637458400E+03  0.59591195509E+03 -0.57764091102E+03  0.91973636501E+03  0.46999998093E+01 0.  1.
</event>
<event>
 5   0  0.3705828E-06  0.2100360E+04  0.7818609E-02  0.8561085E-01
        2   -1    0    0  501    0  0.00000000000E+00  0.00000000000E+00  0.83644846478E+03  0.83644846478E+03  0.25500000920E-02 0. -1.
       -2   -1    0    0    0  501  0.00000000000E+00  0.00000000000E+00 -0.13185251508E+04  0.13185251508E+04  0.25500000920E-02 0.  1.
    10030    2    1    2    0    0  0.00000000000E+00  0.00000000000E+00 -0.48207668602E+03  0.21549736156E+04  0.21003602912E+04 0.  0.
        5    1    3    3  502    0 -0.60471222198E+03 -0.76913794679E+03 -0.63254403953E+03  0.11650682832E+04  0.46999998093E+01 0.  1.
       -5    1    3    3    0  502  0.60471222198E+03  0.76913794679E+03  0.15046735350E+03  0.98990533237E+03  0.46999998093E+01 0. -1.
</event>
<event>
 5   0  0.3547583E-06  0.2099981E+04  0.7818609E-02  0.8561252E-01
       -2   -1    0    0    0  501  0.00000000000E+00  0.00000000000E+00  0.71172436378E+03  0.71172436379E+03  0.25500000920E-02 0.  1.
        2   -1    0    0  501    0  0.00000000000E+00  0.00000000000E+00 -0.15490264161E+04  0.15490264161E+04  0.25500000920E-02 0. -1.
    10030    2    1    2    0    0  0.00000000000E+00  0.00000000000E+00 -0.83730205230E+03  0.22607507799E+04  0.20999808004E+04 0.  0.
        2    1    3    3  502    0 -0.22100919862E+03  0.10097131536E+04 -0.61749135113E+03  0.12040188068E+04  0.25500000920E-02 0.  1.
       -2    1    3    3    0  502  0.22100919862E+03 -0.10097131536E+04 -0.21981070117E+03  0.10567319730E+04  0.25500000920E-02 0. -1.
</event>
<event>
 5   0  0.3705828E-06  0.2100215E+04  0.7818609E-02  0.8561149E-01
        2   -1    0    0  501    0  0.00000000000E+00  0.00000000000E+00  0.11278702462E+04  0.11278702462E+04  0.25500000920E-02 0.  1.
       -2   -1    0    0    0  501  0.00000000000E+00  0.00000000000E+00 -0.97770632469E+03  0.97770632469E+03  0.25500000920E-02 0. -1.
    10030    2    1    2    0    0  0.00000000000E+00  0.00000000000E+00  0.15016392152E+03  0.21055765709E+04  0.21002151063E+04 0.  0.
        5    1    3    3  502    0  0.10204466353E+03 -0.98636953755E+03 -0.27129358858E+03  0.10280857353E+04  0.46999998093E+01 0.  1.
       -5    1    3    3    0  502 -0.10204466353E+03  0.98636953755E+03  0.42145751010E+03  0.10774908356E+04  0.46999998093E+01 0. -1.
</event>
<event>
 5   0  0.1615098E-06  0.2094512E+04  0.7818609E-02  0.8563665E-01
        1   -1    0    0  501    0  0.00000000000E+00  0.00000000000E+00  0.11230605010E+04  0.11230605011E+04  0.50400001928E-02 0. -1.
       -1   -1    0    0    0  501  0.00000000000E+00  0.00000000000E+00 -0.97656854535E+03  0.97656854536E+03  0.50400001928E-02 0.  1.
    10030    2    1    2    0    0  0.00000000000E+00  0.00000000000E+00  0.14649195570E+03  0.20996290464E+04  0.20945124109E+04 0.  0.
        1    1    3    3  502    0 -0.26216294537E+03 -0.15285149654E+02  0.10895186477E+04  0.11207202726E+04  0.50400001928E-02 0. -1.
       -1    1    3    3    0  502  0.26216294537E+03  0.15285149654E+02 -0.94302669196E+03  0.97890877384E+03  0.50400001928E-02 0.  1.
</event>
<event>
 5   0  0.3547583E-06  0.2099810E+04  0.7818609E-02  0.8561327E-01
       -2   -1    0    0    0  501  0.00000000000E+00  0.00000000000E+00  0.70147276714E+03  0.70147276715E+03  0.25500000920E-02 0.  1.
        2   -1    0    0  501    0  0.00000000000E+00  0.00000000000E+00 -0.15714085797E+04  0.15714085797E+04  0.25500000920E-02 0. -1.
    10030    2    1    2    0    0  0.00000000000E+00  0.00000000000E+00 -0.86993581258E+03  0.22728813469E+04  0.20998098245E+04 0.  0.
        2    1    3    3  502    0  0.49974671657E+03  0.52018645301E+03 -0.12607077083E+04  0.14524891229E+04  0.25500000920E-02 0. -1.
       -2    1    3    3    0  502 -0.49974671657E+03 -0.52018645301E+03  0.39077189568E+03  0.82039222392E+03  0.25500000920E-02 0.  1.
</event>
<event>
 5   0  0.1590067E-06  0.2099923E+04  0.7818609E-02  0.8561277E-01
        1   -1    0    0  501    0  0.00000000000E+00  0.00000000000E+00  0.15058009112E+04  0.15058009112E+04  0.50400001928E-02 0. -1.
       -1   -1    0    0    0  501  0.00000000000E+00  0.00000000000E+00 -0.73211488447E+03  0.73211488449E+03  0.50400001928E-02 0.  1.
    10030    2    1    2    0    0  0.00000000000E+00  0.00000000000E+00  0.77368602674E+03  0.22379157957E+04  0.20999231035E+04 0.  0.
        5    1    3    3  502    0 -0.89341063716E+03 -0.27186378045E+03 -0.12459351042E+03  0.94214548481E+03  0.46999998093E+01 0.  1.
       -5    1    3    3    0  502  0.89341063716E+03  0.27186378045E+03  0.89827953716E+03  0.12957703109E+04  0.46999998093E+01 0. -1.
</event>
<event>
 5   0  0.1653260E-06  0.2103547E+04  0.7818609E-02  0.8559682E-01
        1   -1    0    0  501    0  0.00000000000E+00  0.00000000000E+00  0.11489404085E+04  0.11489404085E+04  0.50400001928E-02 0.  1.
       -1   -1    0    0    0  501  0.00000000000E+00  0.00000000000E+00 -0.96282421530E+03  0.96282421531E+03  0.50400001928E-02 0. -1.
    10030    2    1    2    0    0  0.00000000000E+00  0.00000000000E+00  0.18611619319E+03  0.21117646238E+04  0.21035471445E+04 0.  0.
        3    1    3    3  502    0  0.67081727311E+03  0.63234750651E+03  0.60136446732E+03  0.11006808873E+04  0.10100000352E+00 0.  1.
       -3    1    3    3    0  502 -0.67081727311E+03 -0.63234750651E+03 -0.41524827413E+03  0.10110837365E+04  0.10100000352E+00 0. -1.
</event>
<event>
 5   0  0.3636435E-06  0.2094360E+04  0.7818609E-02  0.8563732E-01
        2   -1    0    0  501    0  0.00000000000E+00  0.00000000000E+00  0.25919536951E+04  0.25919536951E+04  0.25500000920E-02 0.  1.
       -2   -1    0    0    0  501  0.00000000000E+00  0.00000000000E+00 -0.42307315527E+03  0.42307315528E+03  0.25500000920E-02 0. -1.
    10030    2    1    2    0    0  0.00000000000E+00  0.00000000000E+00  0.21688805399E+04  0.30150268504E+04  0.20943600723E+04 0.  0.
        4    1    3    3  502    0 -0.28169512282E+03  0.69411779729E+03  0.21378378171E+04  0.22652822791E+04  0.12699999809E+01 0.  1.
       -4    1    3    3    0  502  0.28169512282E+03 -0.69411779729E+03  0.31042722762E+02  0.74974457135E+03  0.12699999809E+01 0. -1.
</event>
<event>
 5   0  0.1590067E-06  0.2100485E+04  0.7818609E-02  0.8561030E-01
        1   -1    0    0  501    0  0.00000000000E+00  0.00000000000E+00  0.10019580094E+04  0.10019580094E+04  0.50400001928E-02 0. -1.
       -1   -1    0    0    0  501  0.00000000000E+00  0.00000000000E+00 -0.11008534934E+04  0.11008534934E+04  0.50400001928E-02 0.  1.
    10030    2    1    2    0    0  0.00000000000E+00  0.00000000000E+00 -0.98895483981E+02  0.21028115029E+04  0.21004846821E+04 0.  0.
        5    1    3    3  502    0  0.18065652027E+03  0.65098205828E+03  0.75554029930E+03  0.10135470647E+04  0.46999998093E+01 0. -1.
       -5    1    3    3    0  502 -0.18065652027E+03 -0.65098205828E+03 -0.85443578328E+03  0.10892644382E+04  0.46999998093E+01 0.  1.
</event>
<event>
 5   0  0.1615098E-06  0.2100342E+04  0.7818609E-02  0.8561093E-01
       -1   -1    0    0    0  501  0.00000000000E+00  0.00000000000E+00  0.53135228818E+03  0.53135228821E+03  0.50400001928E-02 0.  1.
        1   -1    0    0  501    0  0.00000000000E+00  0.00000000000E+00 -0.20755696744E+04  0.20755696744E+04  0.50400001928E-02 0. -1.
    10030    2    1    2    0    0  0.00000000000E+00  0.00000000000E+00 -0.15442173862E+04  0.26069219626E+04  0.21003415873E+04 0.  0.
        1    1    3    3  502    0  0.39528259684E+03 -0.84878410955E+03 -0.18182435182E+03  0.95380443012E+03  0.50400001928E-02 0.  1.
       -1    1    3    3    0  502 -0.39528259684E+03  0.84878410955E+03 -0.13623930344E+04  0.16531175324E+04  0.50400001928E-02 0. -1.
</event>
<event>
 5   0  0.1653260E-06  0.2099900E+04  0.7818609E-02  0.8561287E-01
        1   -1    0    0  501    0  0.00000000000E+00  0.00000000000E+00  0.92793697259E+03  0.92793697260E+03  0.50400001928E-02 0.  1.
       -1   -1    0    0    0  501  0.00000000000E+00  0.00000000000E+00 -0.11880065752E+04  0.11880065752E+04  0.50400001928E-02 0. -1.
    10030    2    1    2    0    0  0.00000000000E+00  0.00000000000E+00 -0.26006960263E+03  0.21159435478E+04  0.20999002118E+04 0.  0.
        3    1    3    3  502    0  0.20374468336E+03 -0.11948092248E+03  0.90081968954E+03  0.93126994480E+03  0.10100000352E+00 0.  1.
       -3    1    3    3    0  502 -0.20374468336E+03  0.11948092248E+03 -0.11608892922E+04  0.11846736030E+04  0.10100000352E+00 0. -1.
</event>
<event>
 5   0  0.3705828E-06  0.2100021E+04  0.7818609E-02  0.8561234E-01
       -2   -1    0    0    0  501  0.00000000000E+00  0.00000000000E+00  0.10368287369E+04  0.10368287369E+04  0.25500000920E-02 0. -1.
        2   -1    0    0  501    0  0.00000000000E+00  0.00000000000E+00 -0.10633593738E+04  0.10633593738E+04  0.25500000920E-02 0.  1.
    10030    2    1    2    0    0  0.00000000000E+00  0.00000000000E+00 -0.26530636940E+02  0.21001881107E+04  0.21000205298E+04 0.  0.
        5    1    3    3  502    0 -0.97557484503E+02 -0.70681785220E+03  0.75711461113E+03  0.10403622270E+04  0.46999998093E+01 0. -1.
       -5    1    3    3    0  502  0.97557484503E+02  0.70681785220E+03 -0.78364524807E+03  0.10598258837E+04  0.46999998093E+01 0.  1.
</event>
<event>
 5   0  0.1646510E-06  0.2099727E+04  0.7818609E-02  0.8561364E-01
       -1   -1    0    0    0  501  0.00000000000E+00  0.00000000000E+00  0.19775881586E+04  0.19775881586E+04  0.50400001928E-02 0. -1.
        1   -1    0    0  501    0  0.00000000000E+00  0.00000000000E+00 -0.55735218697E+03  0.55735218699E+03  0.50400001928E-02 0.  1.
    10030    2    1    2    0    0  0.00000000000E+00  0.00000000000E+00  0.14202359716E+04  0.25349403456E+04  0.20997267300E+04 0.  0.
        4    1    3    3  502    0  0.50743133908E+03 -0.26174667476E+03  0.17737602523E+04  0.18633907081E+04  0.12699999809E+01 0. -1.
       -4    1    3    3    0  502 -0.50743133908E+03  0.26174667476E+03 -0.35352428068E+03  0.67154963745E+03  0.12699999809E+01 0.  1.
</event>
<event>
 5   0  0.1590067E-06  0.2099961E+04  0.7818609E-02  0.8561260E-01
        1   -1    0    0  501    0  0.00000000000E+00  0.00000000000E+00  0.12541137250E+04  0.12541137250E+04  0.50400001928E-02 0. -1.
       -1   -1    0    0    0  501  0.00000000000E+00  0.00000000000E+00 -0.87907447155E+03  0.87907447157E+03  0.50400001928E-02 0.  1.
    10030    2    1    2    0    0  0.00000000000E+00  0.00000000000E+00  0.37503925343E+03  0.21331881966E+04  0.20999612950E+04 0.  0.
        5    1    3    3  502    0  0.34802662530E+03  0.51646302885E+03  0.10462236866E+04  0.12175642424E+04  0.46999998093E+01 0. -1.
       -5    1    3    3    0  502 -0.34802662530E+03 -0.51646302885E+03 -0.67118443315E+03  0.91562395413E+03  0.46999998093E+01 0.  1.
</event>
<event>
 5   0  0.3705828E-06  0.2099318E+04  0.7818609E-02  0.8561544E-01
       -2   -1    0    0    0  501  0.00000000000E+00  0.00000000000E+00  0.12143246917E+04  0.12143246917E+04  0.25500000920E-02 0. -1.
        2   -1    0    0  501    0  0.00000000000E+00  0.00000000000E+00 -0.90732280086E+03  0.90732280087E+03  0.25500000920E-02 0.  1.
    10030    2    1    2    0    0  0.00000000000E+00  0.00000000000E+00  0.30700189085E+03  0.21216474926E+04  0.20993184422E+04 0.  0.
        5    1    3    3  502    0 -0.85518821171E+03 -0.56685665910E+03 -0.70416113660E+02  0.10284230008E+04  0.46999998093E+01 0.  1.
       -5    1    3    3    0  502  0.85518821171E+03  0.56685665910E+03  0.37741800451E+03  0.10932244918E+04  0.46999998093E+01 0. -1.
</event>
<event>
 5   0  0.1590067E-06  0.2100359E+04  0.7818609E-02  0.8561085E-01
        1   -1    0    0  501    0  0.00000000000E+00  0.00000000000E+00  0.70048057910E+03  0.70048057912E+03  0.50400001928E-02 0. -1.
       -1   -1    0    0    0  501  0.00000000000E+00  0.00000000000E+00 -0.15744569423E+04  0.15744569423E+04  0.50400001928E-02 0.  1.
    10030    2    1    2    0    0  0.00000000000E+00  0.00000000000E+00 -0.87397636321E+03  0.22749375214E+04  0.21003585511E+04 0.  0.
        5    1    3    3  502    0  0.97981499785E+03 -0.25339592284E+03 -0.74066246726E+03  0.12541331285E+04  0.46999998093E+01 0.  1.
       -5    1    3    3    0  502 -0.97981499785E+03  0.25339592284E+03 -0.13331389595E+03  0.10208043929E+04  0.46999998093E+01 0. -1.
</event>
<event>
 5   0  0.3636435E-06  0.2100265E+04  0.7818609E-02  0.8561127E-01
        2   -1    0    0  501    0  0.00000000000E+00  0.00000000000E+00  0.11102837383E+04  0.11102837383E+04  0.25500000920E-02 0. -1.
       -2   -1    0    0    0  501  0.00000000000E+00  0.00000000000E+00 -0.99324010060E+03  0.99324010060E+03  0.25500000920E-02 0.  1.
    10030    2    1    2    0    0  0.00000000000E+00  0.00000000000E+00  0.11704363772E+03  0.21035238389E+04  0.21002650613E+04 0.  0.
        4    1    3    3  502    0  0.90025662241E+03 -0.52855120112E+03 -0.55445602986E+02  0.10454205786E+04  0.12699999809E+01 0.  1.
       -4    1    3    3    0  502 -0.90025662241E+03  0.52855120112E+03  0.17248924071E+03  0.10581032603E+04  0.12699999809E+01 0. -1.
</event>
<event>
 5   0  0.1646510E-06  0.2102253E+04  0.7818609E-02  0.8560251E-01
       -1   -1    0    0    0  501  0.00000000000E+00  0.00000000000E+00  0.10764131074E+04  0.10764131074E+04  0.50400001928E-02 0. -1.
        1   -1    0    0  501    0  0.00000000000E+00  0.00000000000E+00 -0.10264342435E+04  0.10264342435E+04  0.50400001928E-02 0.  1.
    10030    2    1    2    0    0  0.00000000000E+00  0.00000000000E+00  0.49978863886E+02  0.21028473508E+04  0.21022533373E+04 0.  0.
        4    1    3    3  502    0  0.30456613254E+03  0.88756537586E+03 -0.44878227277E+03  0.10401634327E+04  0.12699999809E+01 0.  1.
       -4    1    3    3    0  502 -0.30456613254E+03 -0.88756537586E+03  0.49876113665E+03  0.10626839181E+04  0.12699999809E+01 0. -1.
</event>
<event>
 5   0  0.1579820E-06  0.2105463E+04  0.7818609E-02  0.8558841E-01
        1   -1    0    0  501    0  0.00000000000E+00  0.00000000000E+00  0.18965254564E+04  0.18965254564E+04  0.50400001928E-02 0.  1.
       -1   -1    0    0    0  501  0.00000000000E+00  0.00000000000E+00 -0.58435455554E+03  0.58435455556E+03  0.50400001928E-02 0. -1.
    10030    2    1    2    0    0  0.00000000000E+00  0.00000000000E+00  0.13121709009E+04  0.24808800120E+04  0.21054626952E+04 0.  0.
        2    1    3    3  502    0 -0.83461915468E+01 -0.34825001171E+03 -0.51447489285E+03  0.62131485171E+03  0.25500000920E-02 0. -1.
       -2    1    3    3    0  502  0.83461915468E+01  0.34825001171E+03  0.18266457937E+04  0.18595651603E+04  0.25500000920E-02 0.  1.
</event>
<event>
 5   0  0.1653260E-06  0.2100035E+04  0.7818609E-02  0.8561228E-01
        1   -1    0    0  501    0  0.00000000000E+00  0.00000000000E+00  0.11326447943E+04  0.11326447943E+04  0.50400001928E-02 0. -1.
       -1   -1    0    0    0  501  0.00000000000E+00  0.00000000000E+00 -0.97341772288E+03  0.97341772289E+03  0.50400001928E-02 0.  1.
    10030    2    1    2    0    0  0.00000000000E+00  0.00000000000E+00  0.15922707145E+03  0.21060625172E+04  0.21000347774E+04 0.  0.
        3    1    3    3  502    0  0.42289205396E+03 -0.48560220832E+03  0.91138506899E+03  0.11159166404E+04  0.10100000352E+00 0.  1.
       -3    1    3    3    0  502 -0.42289205396E+03  0.48560220832E+03 -0.75215799754E+03  0.99014587688E+03  0.10100000352E+00 0. -1.
</event>
<event>
 5   0  0.3574927E-06  0.2092797E+04  0.7818609E-02  0.8564423E-01
        2   -1    0    0  501    0  0.00000000000E+00  0.00000000000E+00  0.15410381647E+04  0.15410381647E+04  0.25500000920E-02 0.  1.
       -2   -1    0    0    0  501  0.00000000000E+00  0.00000000000E+00 -0.71052756374E+03  0.71052756375E+03  0.25500000920E-02 0. -1.
    10030    2    1    2    0    0  0.00000000000E+00  0.00000000000E+00  0.83051060096E+03  0.22515657285E+04  0.20927972599E+04 0.  0.
        3    1    3    3  502    0  0.83111886827E+03  0.49895865587E+03  0.83914003362E+03  0.12821366229E+04  0.10100000352E+00 0.  1.
       -3    1    3    3    0  502 -0.83111886827E+03 -0.49895865587E+03 -0.86294326565E+01  0.96942910559E+03  0.10100000352E+00 0. -1.
</event>
<event>
 5   0  0.1579820E-06  0.2114701E+04  0.7818609E-02  0.8554795E-01
       -1   -1    0    0    0  501  0.00000000000E+00  0.00000000000E+00  0.11974326099E+04  0.11974326099E+04  0.50400001928E-02 0. -1.
        1   -1    0    0  501    0  0.00000000000E+00  0.00000000000E+00 -0.93365550846E+03  0.93365550848E+03  0.50400001928E-02 0.  1.
    10030    2    1    2    0    0  0.00000000000E+00  0.00000000000E+00  0.26377710147E+03  0.21310881184E+04  0.21147005011E+04 0.  0.
        2    1    3    3  502    0  0.52304936833E+03  0.85846106521E+03  0.46222982749E+03  0.11064323096E+04  0.25500000920E-02 0. -1.
       -2    1    3    3    0  502 -0.52304936833E+03 -0.85846106521E+03 -0.19845272602E+03  0.10246558089E+04  0.25500000920E-02 0.  1.
</event>
<event>
 5   0  0.1579820E-06  0.2098007E+04  0.7818609E-02  0.8562122E-01
        1   -1    0    0  501    0  0.00000000000E+00  0.00000000000E+00  0.92592177811E+03  0.92592177812E+03  0.50400001928E-02 0. -1.
       -1   -1    0    0    0  501  0.00000000000E+00  0.00000000000E+00 -0.11884468947E+04  0.11884468947E+04  0.50400001928E-02 0.  1.
    10030    2    1    2    0    0  0.00000000000E+00  0.00000000000E+00 -0.26252511656E+03  0.21143686728E+04  0.20980074947E+04 0.  0.
        2    1    3    3  502    0  0.39456200499E+03  0.95266784348E+03  0.62993475558E+02  0.10330650385E+04  0.25500000920E-02 0.  1.
       -2    1    3    3    0  502 -0.39456200499E+03 -0.95266784348E+03 -0.32551859212E+03  0.10813036343E+04  0.25500000920E-02 0. -1.
</event>
<event>
 5   0  0.3705828E-06  0.2100748E+04  0.7818609E-02  0.8560914E-01
       -2   -1    0    0    0  501  0.00000000000E+00  0.00000000000E+00  0.88456506672E+03  0.88456506673E+03  0.25500000920E-02 0. -1.
        2   -1    0    0  501    0  0.00000000000E+00  0.00000000000E+00 -0.12472638705E+04  0.12472638705E+04  0.25500000920E-02 0.  1.
    10030    2    1    2    0    0  0.00000000000E+00  0.00000000000E+00 -0.36269880375E+03  0.21318289372E+04  0.21007484845E+04 0.  0.
        5    1    3    3  502    0  0.51194855157E+03  0.34086546681E+03  0.68270744759E+03  0.91890812104E+03  0.46999998093E+01 0. -1.
       -5    1    3    3    0  502 -0.51194855157E+03 -0.34086546681E+03 -0.10454062513E+04  0.12129208162E+04  0.46999998093E+01 0.  1.
</event>
<event>
 5   0  0.3636435E-06  0.2100334E+04  0.7818609E-02  0.8561096E-01
        2   -1    0    0  501    0  0.00000000000E+00  0.00000000000E+00  0.17548447798E+04  0.17548447798E+04  0.25500000920E-02 0.  1.
       -2   -1    0    0    0  501  0.00000000000E+00  0.00000000000E+00 -0.62846032369E+03  0.62846032370E+03  0.25500000920E-02 0. -1.
    10030    2    1    2    0    0  0.00000000000E+00  0.00000000000E+00  0.11263844561E+04  0.23833051035E+04  0.21003336100E+04 0.  0.
        4    1    3    3  502    0 -0.54602074505E+03  0.89698028070E+03  0.54993837169E+03  0.11853885876E+04  0.12699999809E+01 0. -1.
       -4    1    3    3    0  502  0.54602074505E+03 -0.89698028070E+03  0.57644608442E+03  0.11979165159E+04  0.12699999809E+01 0.  1.
</event>
<event>
 5   0  0.1579820E-06  0.2100854E+04  0.7818609E-02  0.8560867E-01
        1   -1    0    0  501    0  0.00000000000E+00  0.00000000000E+00  0.20259224768E+04  0.20259224768E+04  0.50400001928E-02 0. -1.
       -1   -1    0    0    0  501  0.00000000000E+00  0.00000000000E+00 -0.54463907214E+03  0.54463907216E+03  0.50400001928E-02 0.  1.
    10030    2    1    2    0    0  0.00000000000E+00  0.00000000000E+00  0.14812834047E+04  0.25705615490E+04  0.21008536722E+04 0.  0.
        2    1    3    3  502    0 -0.44451811344E+03 -0.53988599084E+03 -0.21838499496E+03  0.73264264298E+03  0.25500000920E-02 0.  1.
       -2    1    3    3    0  502  0.44451811344E+03  0.53988599084E+03  0.16996683997E+04  0.18379189060E+04  0.25500000920E-02 0. -1.
</event>
<event>
 5   0  0.1653260E-06  0.2099083E+04  0.7818609E-02  0.8561647E-01
        1   -1    0    0  501    0  0.00000000000E+00  0.00000000000E+00  0.16895131800E+04  0.16895131800E+04  0.50400001928E-02 0.  1.
       -1   -1    0    0    0  501  0.00000000000E+00  0.00000000000E+00 -0.65198522124E+03  0.65198522126E+03  0.50400001928E-02 0. -1.
    10030    2    1    2    0    0  0.00000000000E+00  0.00000000000E+00  0.10375279587E+04  0.23414984012E+04  0.20990832518E+04 0.  0.
        3    1    3    3  502    0  0.26665993176E+03  0.74502207232E+03  0.12878609406E+04  0.15115393544E+04  0.10100000352E+00 0.  1.
       -3    1    3    3    0  502 -0.26665993176E+03 -0.74502207232E+03 -0.25033298183E+03  0.82995904685E+03  0.10100000352E+00 0. -1.
</event>
<event>
 5   0  0.1653260E-06  0.2099985E+04  0.7818609E-02  0.8561250E-01
        1   -1    0    0  501    0  0.00000000000E+00  0.00000000000E+00  0.79080175569E+03  0.79080175571E+03  0.50400001928E-02 0. -1.
       -1   -1    0    0    0  501  0.00000000000E+00  0.00000000000E+00 -0.13941352136E+04  0.13941352136E+04  0.50400001928E-02 0.  1.
    10030    2    1    2    0    0  0.00000000000E+00  0.00000000000E+00 -0.60333345787E+03  0.21849369693E+04  0.20999853091E+04 0.  0.
        3    1    3    3  502    0  0.57077861648E+03  0.75584064703E+03  0.16987941671E+03  0.96225897718E+03  0.10100000352E+00 0. -1.
       -3    1    3    3    0  502 -0.57077861648E+03 -0.75584064703E+03 -0.77321287459E+03  0.12226779921E+04  0.10100000352E+00 0.  1.
</event>
<event>
 5   0  0.3547583E-06  0.2099684E+04  0.7818609E-02  0.8561383E-01
       -2   -1    0    0    0  501  0.00000000000E+00  0.00000000000E+00  0.44778797341E+03  0.44778797341E+03  0.25500000920E-02 0. -1.
        2   -1    0    0  501    0  0.00000000000E+00  0.00000000000E+00 -0.24613611951E+04  0.24613611951E+04  0.25500000920E-02 0.  1.
    10030    2    1    2    0    0  0.00000000000E+00  0.00000000000E+00 -0.20135732217E+04  0.29091491685E+04  0.20996837299E+04 0.  0.
        2    1    3    3  502    0 -0.43353994115E+02 -0.10424771082E+04 -0.11679471169E+04  0.15661221401E+04  0.25500000920E-02 0. -1.
       -2    1    3    3    0  502  0.43353994115E+02  0.10424771082E+04 -0.84562610473E+03  0.13430270283E+04  0.25500000920E-02 0.  1.
</event>
<event>
 5   0  0.1615098E-06  0.2099545E+04  0.7818609E-02  0.8561444E-01
        1   -1    0    0  501    0  0.00000000000E+00  0.00000000000E+00  0.91793157803E+03  0.91793157804E+03  0.50400001928E-02 0.  1.
       -1   -1    0    0    0  501  0.00000000000E+00  0.00000000000E+00 -0.12005489590E+04  0.12005489591E+04  0.50400001928E-02 0. -1.
    10030    2    1    2    0    0  0.00000000000E+00  0.00000000000E+00 -0.28261738102E+03  0.21184805371E+04  0.20995445225E+04 0.  0.
        1    1    3    3  502    0 -0.45562818945E+03  0.76986655247E+03  0.41294527926E+03  0.98529962921E+03  0.50400001928E-02 0.  1.
       -1    1    3    3    0  502  0.45562818945E+03 -0.76986655247E+03 -0.69556266028E+03  0.11331809079E+04  0.50400001928E-02 0. -1.
</event>
<event>
 5   0  0.3705828E-06  0.2100200E+04  0.7818609E-02  0.8561155E-01
        2   -1    0    0  501    0  0.00000000000E+00  0.00000000000E+00  0.10476345911E+04  0.10476345911E+04  0.25500000920E-02 0.  1.
       -2   -1    0    0    0  501  0.00000000000E+00  0.00000000000E+00 -0.10525708639E+04  0.10525708639E+04  0.25500000920E-02 0. -1.
    10030    2    1    2    0    0  0.00000000000E+00  0.00000000000E+00 -0.49362727954E+01  0.21002054550E+04  0.21001996539E+04 0.  0.
        5    1    3    3  502    0  0.38853066231E+03  0.42052020528E+03 -0.88275134011E+03  0.10521717241E+04  0.46999998093E+01 0. -1.
       -5    1    3    3    0  502 -0.38853066231E+03 -0.42052020528E+03  0.87781506731E+03  0.10480337309E+04  0.46999998093E+01 0.  1.
</event>
<event>
 5   0  0.1653260E-06  0.2101084E+04  0.7818609E-02  0.8560766E-01
       -1   -1    0    0    0  501  0.00000000000E+00  0.00000000000E+00  0.65787558043E+03  0.65787558045E+03  0.50400001928E-02 0.  1.
        1   -1    0    0  501    0  0.00000000000E+00  0.00000000000E+00 -0.16775786687E+04  0.16775786687E+04  0.50400001928E-02 0. -1.
    10030    2    1    2    0    0  0.00000000000E+00  0.00000000000E+00 -0.10197030883E+04  0.23354542492E+04  0.21010835685E+04 0.  0.
        3    1    3    3  502    0 -0.46316882919E+03 -0.63971259310E+03 -0.12798583659E+04  0.15039265318E+04  0.10100000352E+00 0. -1.
       -3    1    3    3    0  502  0.46316882919E+03  0.63971259310E+03  0.26015527760E+03  0.83152771738E+03  0.10100000352E+00 0.  1.
</event>
<event>
 5   0  0.3547583E-06  0.2105858E+04  0.7818609E-02  0.8558667E-01
       -2   -1    0    0    0  501  0.00000000000E+00  0.00000000000E+00  0.96937384357E+03  0.96937384357E+03  0.25500000920E-02 0. -1.
        2   -1    0    0  501    0  0.00000000000E+00  0.00000000000E+00 -0.11436859929E+04  0.11436859929E+04  0.25500000920E-02 0.  1.
    10030    2    1    2    0    0  0.00000000000E+00  0.00000000000E+00 -0.17431214937E+03  0.21130598365E+04  0.21058578174E+04 0.  0.
        2    1    3    3  502    0 -0.11751697653E+03 -0.86560245246E+03 -0.67702831139E+03  0.11051901103E+04  0.25500000920E-02 0.  1.
       -2    1    3    3    0  502  0.11751697653E+03  0.86560245246E+03  0.50271616201E+03  0.10078697262E+04  0.25500000920E-02 0. -1.
</event>
<event>
 5   0  0.1257125E-06  0.2098835E+04  0.7818609E-02  0.8561757E-01
        3   -1    0    0  501    0  0.00000000000E+00  0.00000000000E+00  0.72828401810E+03  0.72828402510E+03  0.10100000352E+00 0. -1.
       -3   -1    0    0    0  501  0.00000000000E+00  0.00000000000E+00 -0.15121526252E+04  0.15121526286E+04  0.10100000352E+00 0.  1.
    10030    2    1    2    0    0  0.00000000000E+00  0.00000000000E+00 -0.78386860709E+03  0.22404366537E+04  0.20988345351E+04 0.  0.
        3    1    3    3  502    0 -0.99086631104E+03 -0.22043075070E+02 -0.23736086378E+02  0.99139566043E+03  0.10100000352E+00 0.  1.
       -3    1    3    3    0  502  0.99086631104E+03  0.22043075070E+02 -0.76013252071E+03  0.12490409932E+04  0.10100000352E+00 0. -1.
</event>
<event>
 5   0  0.3705828E-06  0.2100893E+04  0.7818609E-02  0.8560850E-01
        2   -1    0    0  501    0  0.00000000000E+00  0.00000000000E+00  0.11831996777E+04  0.11831996777E+04  0.25500000920E-02 0. -1.
       -2   -1    0    0    0  501  0.00000000000E+00  0.00000000000E+00 -0.93258841117E+03  0.93258841117E+03  0.25500000920E-02 0.  1.
    10030    2    1    2    0    0  0.00000000000E+00  0.00000000000E+00  0.25061126655E+03  0.21157880889E+04  0.21008934362E+04 0.  0.
        5    1    3    3  502    0  0.89933632381E+03  0.14420969681E+03 -0.40167655297E+03  0.99547395907E+03  0.46999998093E+01 0.  1.
       -5    1    3    3    0  502 -0.89933632381E+03 -0.14420969681E+03  0.65228781953E+03  0.11203141298E+04  0.46999998093E+01 0. -1.
</event>
<event>
 5   0  0.1615098E-06  0.2098468E+04  0.7818609E-02  0.8561918E-01
        1   -1    0    0  501    0  0.00000000000E+00  0.00000000000E+00  0.86523401416E+03  0.86523401417E+03  0.50400001928E-02 0.  1.
       -1   -1    0    0    0  501  0.00000000000E+00  0.00000000000E+00 -0.12723634034E+04  0.12723634034E+04  0.50400001928E-02 0. -1.
    10030    2    1    2    0    0  0.00000000000E+00  0.00000000000E+00 -0.40712938927E+03  0.21375974176E+04  0.20984681032E+04 0.  0.
        1    1    3    3  502    0  0.33464749663E+02  0.15785468499E+03 -0.12596483064E+04  0.12699416707E+04  0.50400001928E-02 0. -1.
       -1    1    3    3    0  502 -0.33464749663E+02 -0.15785468499E+03  0.85251891715E+03  0.86765574692E+03  0.50400001928E-02 0.  1.
</event>
<event>
 5   0  0.1646510E-06  0.2097954E+04  0.7818609E-02  0.8562145E-01
        1   -1    0    0  501    0  0.00000000000E+00  0.00000000000E+00  0.10365682386E+04  0.10365682387E+04  0.50400001928E-02 0.  1.
       -1   -1    0    0    0  501  0.00000000000E+00  0.00000000000E+00 -0.10615348097E+04  0.10615348097E+04  0.50400001928E-02 0. -1.
    10030    2    1    2    0    0  0.00000000000E+00  0.00000000000E+00 -0.24966571050E+02  0.20981030484E+04  0.20979544971E+04 0.  0.
        4    1    3    3  502    0  0.76069614549E+03 -0.39973076888E+02  0.70874402850E+03  0.10404692131E+04  0.12699999809E+01 0.  1.
       -4    1    3    3    0  502 -0.76069614549E+03  0.39973076888E+02 -0.73371059955E+03  0.10576338352E+04  0.12699999809E+01 0. -1.
</event>
<event>
 5   0  0.3574927E-06  0.2099614E+04  0.7818609E-02  0.8561414E-01
        2   -1    0    0  501    0  0.00000000000E+00  0.00000000000E+00  0.10409146344E+04  0.10409146344E+04  0.25500000920E-02 0.  1.
       -2   -1    0    0    0  501  0.00000000000E+00  0.00000000000E+00 -0.10587751136E+04  0.10587751136E+04  0.25500000920E-02 0. -1.
    10030    2    1    2    0    0  0.00000000000E+00  0.00000000000E+00 -0.17860479226E+02  0.20996897480E+04  0.20996137838E+04 0.  0.
        3    1    3    3  502    0 -0.66584962849E+03 -0.35553955516E+03 -0.73856639366E+03  0.10560513392E+04  0.10100000352E+00 0. -1.
       -3    1    3    3    0  502  0.66584962849E+03  0.35553955516E+03  0.72070591443E+03  0.10436384088E+04  0.10100000352E+00 0.  1.
</event>
<event>
 5   0  0.1590067E-06  0.2099478E+04  0.7818609E-02  0.8561473E-01
        1   -1    0    0  501    0  0.00000000000E+00  0.00000000000E+00  0.97941538470E+03  0.97941538472E+03  0.50400001928E-02 0. -1.
       -1   -1    0    0    0  501  0.00000000000E+00  0.00000000000E+00 -0.11251120358E+04  0.11251120358E+04  0.50400001928E-02 0.  1.
    10030    2    1    2    0    0  0.00000000000E+00  0.00000000000E+00 -0.14569665107E+03  0.21045274205E+04  0.20994780660E+04 0.  0.
        5    1    3    3  502    0  0.64577579766E+03 -0.44610085478E+03  0.62589169959E+03  0.10038898660E+04  0.46999998093E+01 0. -1.
       -5    1    3    3    0  502 -0.64577579766E+03  0.44610085478E+03 -0.77158835065E+03  0.11006375545E+04  0.46999998093E+01 0.  1.
</event>
<event>
 5   0  0.3480134E-06  0.2100011E+04  0.7818609E-02  0.8561238E-01
        2   -1    0    0  501    0  0.00000000000E+00  0.00000000000E+00  0.96451923179E+03  0.96451923179E+03  0.25500000920E-02 0.  1.
       -2   -1    0    0    0  501  0.00000000000E+00  0.00000000000E+00 -0.11430686368E+04  0.11430686368E+04  0.25500000920E-02 0. -1.
    10030    2    1    2    0    0  0.00000000000E+00  0.00000000000E+00 -0.17854940501E+03  0.21075878686E+04  0.21000111271E+04 0.  0.
        1    1    3    3  502    0 -0.78542760728E+03 -0.49070518933E+03  0.40730699790E+03  0.10117248142E+04  0.50400001928E-02 0.  1.
       -1    1    3    3    0  502  0.78542760728E+03  0.49070518933E+03 -0.58585640291E+03  0.10958630544E+04  0.50400001928E-02 0. -1.
</event>
<event>
 5   0  0.1615098E-06  0.2099983E+04  0.7818609E-02  0.8561251E-01
        1   -1    0    0  501    0  0.00000000000E+00  0.00000000000E+00  0.11069534203E+04  0.11069534204E+04  0.50400001928E-02 0. -1.
       -1   -1    0    0    0  501  0.00000000000E+00  0.00000000000E+00 -0.99596043671E+03  0.99596043672E+03  0.50400001928E-02 0.  1.
    10030    2    1    2    0    0  0.00000000000E+00  0.00000000000E+00  0.11099298364E+03  0.21029138571E+04  0.20999826780E+04 0.  0.
        1    1    3    3  502    0 -0.63765736294E+03  0.64010512816E+03 -0.48017101464E+03  0.10231840944E+04  0.50400001928E-02 0.  1.
       -1    1    3    3    0  502  0.63765736294E+03 -0.64010512816E+03  0.59116399828E+03  0.10797297627E+04  0.50400001928E-02 0. -1.
</event>
<event>
 5   0  0.3547583E-06  0.2099442E+04  0.7818609E-02  0.8561489E-01
        2   -1    0    0  501    0  0.00000000000E+00  0.00000000000E+00  0.88927397683E+03  0.88927397683E+03  0.25500000920E-02 0. -1.
       -2   -1    0    0    0  501  0.00000000000E+00  0.00000000000E+00 -0.12391165095E+04  0.12391165095E+04  0.25500000920E-02 0.  1.
    10030    2    1    2    0    0  0.00000000000E+00  0.00000000000E+00 -0.34984253265E+03  0.21283904863E+04  0.20994418936E+04 0.  0.
        2    1    3    3  502    0  0.12496323317E+03 -0.39912768172E+03 -0.11510030949E+04  0.12246333494E+04  0.25500000920E-02 0.  1.
       -2    1    3    3    0  502 -0.12496323317E+03  0.39912768172E+03  0.80116056227E+03  0.90375713690E+03  0.25500000920E-02 0. -1.
</event>
<event>
 5   0  0.1653260E-06  0.2100264E+04  0.7818609E-02  0.8561127E-01
       -1   -1    0    0    0  501  0.00000000000E+00  0.00000000000E+00  0.68300491626E+03  0.68300491628E+03  0.50400001928E-02 0. -1.
        1   -1    0    0  501    0  0.00000000000E+00  0.00000000000E+00 -0.16145960641E+04  0.16145960641E+04  0.50400001928E-02 0.  1.
    10030    2    1    2    0    0  0.00000000000E+00  0.00000000000E+00 -0.93159114782E+03  0.22976009804E+04  0.21002638402E+04 0.  0.
        3    1    3    3  502    0  0.28638801510E+03  0.99838256540E+03 -0.29635137161E+03  0.10800972122E+04  0.10100000352E+00 0. -1.
       -3    1    3    3    0  502 -0.28638801510E+03 -0.99838256540E+03 -0.63523977621E+03  0.12175037682E+04  0.10100000352E+00 0.  1.
</event>
<event>
 5   0  0.3636435E-06  0.2101531E+04  0.7818609E-02  0.8560569E-01
        2   -1    0    0  501    0  0.00000000000E+00  0.00000000000E+00  0.13216605627E+04  0.13216605627E+04  0.25500000920E-02 0. -1.
       -2   -1    0    0    0  501  0.00000000000E+00  0.00000000000E+00 -0.83539485977E+03  0.83539485977E+03  0.25500000920E-02 0.  1.
    10030    2    1    2    0    0  0.00000000000E+00  0.00000000000E+00  0.48626570289E+03  0.21570554224E+04  0.21015312897E+04 0.  0.
        4    1    3    3  502    0 -0.90342318599E+03  0.11960271388E+03 -0.29378291846E+03  0.95749061521E+03  0.12699999809E+01 0.  1.
       -4    1    3    3    0  502  0.90342318599E+03 -0.11960271388E+03  0.78004862135E+03  0.11995648072E+04  0.12699999809E+01 0. -1.
</event>
<event>
 5   0  0.3480134E-06  0.2098809E+04  0.7818609E-02  0.8561768E-01
        2   -1    0    0  501    0  0.00000000000E+00  0.00000000000E+00  0.15456276029E+04  0.15456276029E+04  0.25500000920E-02 0.  1.
       -2   -1    0    0    0  501  0.00000000000E+00  0.00000000000E+00 -0.71249338746E+03  0.71249338747E+03  0.25500000920E-02 0. -1.
    10030    2    1    2    0    0  0.00000000000E+00  0.00000000000E+00  0.83313421547E+03  0.22581209904E+04  0.20988086588E+04 0.  0.
        1    1    3    3  502    0  0.51723493574E+03  0.27744911971E+03 -0.51937190232E+03  0.78374560013E+03  0.50400001928E-02 0. -1.
       -1    1    3    3    0  502 -0.51723493574E+03 -0.27744911971E+03  0.13525061178E+04  0.14743753903E+04  0.50400001928E-02 0.  1.
</event>
<event>
 5   0  0.1653260E-06  0.2094268E+04  0.7818609E-02  0.8563773E-01
       -1   -1    0    0    0  501  0.00000000000E+00  0.00000000000E+00  0.10457338208E+04  0.10457338208E+04  0.50400001928E-02 0.  1.
        1   -1    0    0  501    0  0.00000000000E+00  0.00000000000E+00 -0.10485357369E+04  0.10485357369E+04  0.50400001928E-02 0. -1.
    10030    2    1    2    0    0  0.00000000000E+00  0.00000000000E+00 -0.28019161393E+01  0.20942695577E+04  0.20942676834E+04 0.  0.
        3    1    3    3  502    0 -0.56410321713E+03  0.86150557846E+03  0.18855965764E+03  0.10468806312E+04  0.10100000352E+00 0.  1.
       -3    1    3    3    0  502  0.56410321713E+03 -0.86150557846E+03 -0.19136157378E+03  0.10473889265E+04  0.10100000352E+00 0. -1.
</event>
<event>
 5   0  0.1590067E-06  0.2100676E+04  0.7818609E-02  0.8560945E-01
       -1   -1    0    0    0  501  0.00000000000E+00  0.00000000000E+00  0.77126107972E+03  0.77126107973E+03  0.50400001928E-02 0. -1.
        1   -1    0    0  501    0  0.00000000000E+00  0.00000000000E+00 -0.14303980624E+04  0.14303980624E+04  0.50400001928E-02 0.  1.
    10030    2    1    2    0    0  0.00000000000E+00  0.00000000000E+00 -0.65913698265E+03  0.22016591421E+04  0.21006764187E+04 0.  0.
        5    1    3    3  502    0  0.43587803970E+03 -0.75444362602E+03 -0.94429028600E+03  0.12848661738E+04  0.46999998093E+01 0. -1.
       -5    1    3    3    0  502 -0.43587803970E+03  0.75444362602E+03  0.28515330335E+03  0.91679296831E+03  0.46999998093E+01 0.  1.
</event>
<event>
 5   0  0.1653260E-06  0.2099086E+04  0.7818609E-02  0.8561646E-01
        1   -1    0    0  501    0  0.00000000000E+00  0.00000000000E+00  0.13641799660E+04  0.13641799660E+04  0.50400001928E-02 0.  1.
       -1   -1    0    0    0  501  0.00000000000E+00  0.00000000000E+00 -0.80747484197E+03  0.80747484199E+03  0.50400001928E-02 0. -1.
    10030    2    1    2    0    0  0.00000000000E+00  0.00000000000E+00  0.55670512404E+03  0.21716548080E+04  0.20990864704E+04 0.  0.
        3    1    3    3  502    0  0.31128517406E+03  0.21132355309E+03 -0.73530826335E+03  0.82597479141E+03  0.10100000352E+00 0. -1.
       -3    1    3    3    0  502 -0.31128517406E+03 -0.21132355309E+03  0.12920133874E+04  0.13456800166E+04  0.10100000352E+00 0.  1.
</event>
<event>
 5   0  0.1590067E-06  0.2096403E+04  0.7818609E-02  0.8562829E-01
        1   -1    0    0  501    0  0.00000000000E+00  0.00000000000E+00  0.10448380515E+04  0.10448380515E+04  0.50400001928E-02 0. -1.
       -1   -1    0    0    0  501  0.00000000000E+00  0.00000000000E+00 -0.10515759577E+04  0.10515759577E+04  0.50400001928E-02 0.  1.
    10030    2    1    2    0    0  0.00000000000E+00  0.00000000000E+00 -0.67379062090E+01  0.20964140092E+04  0.20964031813E+04 0.  0.
        5    1    3    3  502    0 -0.24058836495E+03 -0.10130361382E+04 -0.12411520200E+03  0.10485950849E+04  0.46999998093E+01 0.  1.
       -5    1    3    3    0  502  0.24058836495E+03  0.10130361382E+04  0.11737729579E+03  0.10478189244E+04  0.46999998093E+01 0. -1.
</event>
<event>
 5   0  0.3547583E-06  0.2100785E+04  0.7818609E-02  0.8560898E-01
       -2   -1    0    0    0  501  0.00000000000E+00  0.00000000000E+00  0.12755592670E+04  0.12755592670E+04  0.25500000920E-02 0.  1.
        2   -1    0    0  501    0  0.00000000000E+00  0.00000000000E+00 -0.86497327590E+03  0.86497327590E+03  0.25500000920E-02 0. -1.
    10030    2    1    2    0    0  0.00000000000E+00  0.00000000000E+00  0.41058599110E+03  0.21405325429E+04  0.21007852606E+04 0.  0.
        2    1    3    3  502    0  0.17474414688E+03  0.64005442193E+03  0.10350216185E+04  0.12294205670E+04  0.25500000920E-02 0.  1.
       -2    1    3    3    0  502 -0.17474414688E+03 -0.64005442193E+03 -0.62443562736E+03  0.91111197590E+03  0.25500000920E-02 0. -1.
</event>
<event>
 5   0  0.1653260E-06  0.2102839E+04  0.7818609E-02  0.8559994E-01
       -1   -1    0    0    0  501  0.00000000000E+00  0.00000000000E+00  0.87819203096E+03  0.87819203097E+03  0.50400001928E-02 0.  1.
        1   -1    0    0  501    0  0.00000000000E+00  0.00000000000E+00 -0.12588167942E+04  0.12588167942E+04  0.50400001928E-02 0. -1.
    10030    2    1    2    0    0  0.00000000000E+00  0.00000000000E+00 -0.38062476323E+03  0.21370088252E+04  0.21028389164E+04 0.  0.
        3    1    3    3  502    0 -0.24125285499E+03 -0.81607172341E+03  0.43722214351E+03  0.95673361537E+03  0.10100000352E+00 0.  1.
       -3    1    3    3    0  502  0.24125285499E+03  0.81607172341E+03 -0.81784690674E+03  0.11802752098E+04  0.10100000352E+00 0. -1.
</event>
<event>
 5   0  0.3480134E-06  0.2099708E+04  0.7818609E-02  0.8561372E-01
       -2   -1    0    0    0  501  0.00000000000E+00  0.00000000000E+00  0.51493839437E+03  0.51493839437E+03  0.25500000920E-02 0. -1.
        2   -1    0    0  501    0  0.00000000000E+00  0.00000000000E+00 -0.21404383667E+04  0.21404383667E+04  0.25500000920E-02 0.  1.
    10030    2    1    2    0    0  0.00000000000E+00  0.00000000000E+00 -0.16254999723E+04  0.26553767610E+04  0.20997084519E+04 0.  0.
        1    1    3    3  502    0 -0.72759837111E+01  0.36211408394E+02  0.51411648756E+03  0.51544152806E+03  0.50400001928E-02 0. -1.
       -1    1    3    3    0  502  0.72759837111E+01 -0.36211408394E+02 -0.21396164599E+04  0.21399352330E+04  0.50400001928E-02 0.  1.
</event>
<event>
 5   0  0.3636435E-06  0.2099912E+04  0.7818609E-02  0.8561282E-01
        2   -1    0    0  501    0  0.00000000000E+00  0.00000000000E+00  0.15359651341E+04  0.15359651341E+04  0.25500000920E-02 0. -1.
       -2   -1    0    0    0  501  0.00000000000E+00  0.00000000000E+00 -0.71772984591E+03  0.71772984592E+03  0.25500000920E-02 0.  1.
    10030    2    1    2    0    0  0.00000000000E+00  0.00000000000E+00  0.81823528815E+03  0.22536949800E+04  0.20999123972E+04 0.  0.
        4    1    3    3  502    0 -0.61037132409E+03 -0.18589524637E+03  0.13040266754E+04  0.14517566528E+04  0.12699999809E+01 0. -1.
       -4    1    3    3    0  502  0.61037132409E+03  0.18589524637E+03 -0.48579138720E+03  0.80193832723E+03  0.12699999809E+01 0.  1.
</event>
<event>
 5   0  0.1653260E-06  0.2101500E+04  0.7818609E-02  0.8560583E-01
        1   -1    0    0  501    0  0.00000000000E+00  0.00000000000E+00  0.12476147422E+04  0.12476147422E+04  0.50400001928E-02 0.  1.
       -1   -1    0    0    0  501  0.00000000000E+00  0.00000000000E+00 -0.88494891407E+03  0.88494891409E+03  0.50400001928E-02 0. -1.
    10030    2    1    2    0    0  0.00000000000E+00  0.00000000000E+00  0.36266582813E+03  0.21325636563E+04  0.21014997609E+04 0.  0.
        3    1    3    3  502    0  0.24533035572E+03  0.10206304109E+04  0.22895075396E+03  0.10743797638E+04  0.10100000352E+00 0.  1.
       -3    1    3    3    0  502 -0.24533035572E+03 -0.10206304109E+04  0.13371507417E+03  0.10581838925E+04  0.10100000352E+00 0. -1.
</event>
<event>
 5   0  0.3574927E-06  0.2101109E+04  0.7818609E-02  0.8560755E-01
       -2   -1    0    0    0  501  0.00000000000E+00  0.00000000000E+00  0.81044205188E+03  0.81044205188E+03  0.25500000920E-02 0. -1.
        2   -1    0    0  501    0  0.00000000000E+00  0.00000000000E+00 -0.13618052601E+04  0.13618052601E+04  0.25500000920E-02 0.  1.
    10030    2    1    2    0    0  0.00000000000E+00  0.00000000000E+00 -0.55136320826E+03  0.21722473120E+04  0.21011085163E+04 0.  0.
        3    1    3    3  502    0  0.56816654797E+02 -0.34848974346E+03 -0.12986215456E+04  0.13457678710E+04  0.10100000352E+00 0.  1.
       -3    1    3    3    0  502 -0.56816654797E+02  0.34848974346E+03  0.74725833736E+03  0.82647944107E+03  0.10100000352E+00 0. -1.
</event>
<event>
 5   0  0.3574927E-06  0.2101409E+04  0.7818609E-02  0.8560623E-01
       -2   -1    0    0    0  501  0.00000000000E+00  0.00000000000E+00  0.10947982091E+04  0.10947982091E+04  0.25500000920E-02 0. -1.
        2   -1    0    0  501    0  0.00000000000E+00  0.00000000000E+00 -0.10083867621E+04  0.10083867621E+04  0.25500000920E-02 0.  1.
    10030    2    1    2    0    0  0.00000000000E+00  0.00000000000E+00  0.86411446977E+02  0.21031849713E+04  0.21014090714E+04 0.  0.
        3    1    3    3  502    0 -0.45496914966E+03  0.55147982978E+03  0.81382595712E+03  0.10832541846E+04  0.10100000352E+00 0. -1.
       -3    1    3    3    0  502  0.45496914966E+03 -0.55147982978E+03 -0.72741451014E+03  0.10199307866E+04  0.10100000352E+00 0.  1.
</event>
<event>
 5   0  0.1579820E-06  0.2099695E+04  0.7818609E-02  0.8561378E-01
        1   -1    0    0  501    0  0.00000000000E+00  0.00000000000E+00  0.55490253599E+03  0.55490253601E+03  0.50400001928E-02 0.  1.
       -1   -1    0    0    0  501  0.00000000000E+00  0.00000000000E+00 -0.19862585933E+04  0.19862585933E+04  0.50400001928E-02 0. -1.
    10030    2    1    2    0    0  0.00000000000E+00  0.00000000000E+00 -0.14313560573E+04  0.25411611293E+04  0.20996951498E+04 0.  0.
        2    1    3    3  502    0 -0.54544864885E+03 -0.22740806825E+03 -0.17658475126E+04  0.18621079710E+04  0.25500000920E-02 0. -1.
       -2    1    3    3    0  502  0.54544864885E+03  0.22740806825E+03  0.33449145532E+03  0.67905315825E+03  0.25500000920E-02 0.  1.
</event>
<event>
 5   0  0.1590067E-06  0.2099348E+04  0.7818609E-02  0.8561530E-01
        1   -1    0    0  501    0  0.00000000000E+00  0.00000000000E+00  0.16554989432E+04  0.16554989432E+04  0.50400001928E-02 0.  1.
       -1   -1    0    0    0  501  0.00000000000E+00  0.00000000000E+00 -0.66554910824E+03  0.66554910826E+03  0.50400001928E-02 0. -1.
    10030    2    1    2    0    0  0.00000000000E+00  0.00000000000E+00  0.98994983492E+03  0.23210480514E+04  0.20993483230E+04 0.  0.
        5    1    3    3  502    0  0.82672283853E+03  0.24615333313E+03 -0.16629429910E+03  0.87848619743E+03  0.46999998093E+01 0. -1.
       -5    1    3    3    0  502 -0.82672283853E+03 -0.24615333313E+03  0.11562441340E+04  0.14425618540E+04  0.46999998093E+01 0.  1.
</event>
<event>
 5   0  0.1615098E-06  0.2100632E+04  0.7818609E-02  0.8560965E-01
        1   -1    0    0  501    0  0.00000000000E+00  0.00000000000E+00  0.17592194379E+04  0.17592194379E+04  0.50400001928E-02 0. -1.
       -1   -1    0    0    0  501  0.00000000000E+00  0.00000000000E+00 -0.62707570600E+03  0.62707570602E+03  0.50400001928E-02 0.  1.
    10030    2    1    2    0    0  0.00000000000E+00  0.00000000000E+00  0.11321437319E+04  0.23862951439E+04  0.21006320678E+04 0.  0.
        1    1    3    3  502    0  0.77042500380E+03  0.71036962114E+03  0.64627049168E+03  0.12311966673E+04  0.50400001928E-02 0.  1.
       -1    1    3    3    0  502 -0.77042500380E+03 -0.71036962114E+03  0.48587324024E+03  0.11550984766E+04  0.50400001928E-02 0. -1.
</event>
<event>
 5   0  0.3705828E-06  0.2098725E+04  0.7818609E-02  0.8561805E-01
       -2   -1    0    0    0  501  0.00000000000E+00  0.00000000000E+00  0.52626860656E+03  0.52626860657E+03  0.25500000920E-02 0.  1.
        2   -1    0    0  501    0  0.00000000000E+00  0.00000000000E+00 -0.20923955160E+04  0.20923955160E+04  0.25500000920E-02 0. -1.
    10030    2    1    2    0    0  0.00000000000E+00  0.00000000000E+00 -0.15661269094E+04  0.26186641225E+04  0.20987253966E+04 0.  0.
        5    1    3    3  502    0  0.70959637359E+03  0.75932851335E+03 -0.60210593766E+03  0.12011080113E+04  0.46999998093E+01 0. -1.
       -5    1    3    3    0  502 -0.70959637359E+03 -0.75932851335E+03 -0.96402097176E+03  0.14175561113E+04  0.46999998093E+01 0.  1.
</event>
<event>
 5   0  0.3574927E-06  0.2099811E+04  0.7818609E-02  0.8561327E-01
        2   -1    0    0  501    0  0.00000000000E+00  0.00000000000E+00  0.27353139229E+04  0.27353139229E+04  0.25500000920E-02 0. -1.
       -2   -1    0    0    0  501  0.00000000000E+00  0.00000000000E+00 -0.40298914898E+03  0.40298914899E+03  0.25500000920E-02 0.  1.
    10030    2    1    2    0    0  0.00000000000E+00  0.00000000000E+00  0.23323247739E+04  0.31383030719E+04  0.20998112582E+04 0.  0.
        3    1    3    3  502    0 -0.51740091465E+03  0.40763609212E+03  0.23880827175E+04  0.24772585586E+04  0.10100000352E+00 0. -1.
       -3    1    3    3    0  502  0.51740091465E+03 -0.40763609212E+03 -0.55757943618E+02  0.66104451330E+03  0.10100000352E+00 0.  1.
</event>
<event>
 5   0  0.3636435E-06  0.2099695E+04  0.7818609E-02  0.8561378E-01
       -2   -1    0    0    0  501  0.00000000000E+00  0.00000000000E+00  0.11409428248E+04  0.11409428248E+04  0.25500000920E-02 0. -1.
        2   -1    0    0  501    0  0.00000000000E+00  0.00000000000E+00 -0.96602508513E+03  0.96602508514E+03  0.25500000920E-02 0.  1.
    10030    2    1    2    0    0  0.00000000000E+00  0.00000000000E+00  0.17491773964E+03  0.21069679099E+04  0.20996946344E+04 0.  0.
        4    1    3    3  502    0 -0.14943904484E+03  0.99702780954E+03 -0.20644011297E+03  0.10290848431E+04  0.12699999809E+01 0.  1.
       -4    1    3    3    0  502  0.14943904484E+03 -0.99702780954E+03  0.38135785261E+03  0.10778830668E+04  0.12699999809E+01 0. -1.
</event>
<event>
 5   0  0.3574927E-06  0.2099801E+04  0.7818609E-02  0.8561331E-01
       -2   -1    0    0    0  501  0.00000000000E+00  0.00000000000E+00  0.94095136996E+03  0.94095136996E+03  0.25500000920E-02 0. -1.
        2   -1    0    0  501    0  0.00000000000E+00  0.00000000000E+00 -0.11714644598E+04  0.11714644598E+04  0.25500000920E-02 0.  1.
    10030    2    1    2    0    0  0.00000000000E+00  0.00000000000E+00 -0.23051308986E+03  0.21124158298E+04  0.20998010271E+04 0.  0.
        3    1    3    3  502    0  0.91296338118E+03  0.13194461982E+03 -0.61964629256E+03  0.11112484223E+04  0.10100000352E+00 0. -1.
       -3    1    3    3    0  502 -0.91296338118E+03 -0.13194461982E+03  0.38913320271E+03  0.10011674074E+04  0.10100000352E+00 0.  1.
</event>
<event>
 5   0  0.1590067E-06  0.2099877E+04  0.7818609E-02  0.8561298E-01
        1   -1    0    0  501    0  0.00000000000E+00  0.00000000000E+00  0.10156874169E+04  0.10156874169E+04  0.50400001928E-02 0.  1.
       -1   -1    0    0    0  501  0.00000000000E+00  0.00000000000E+00 -0.10853441065E+04  0.10853441065E+04  0.50400001928E-02 0. -1.
    10030    2    1    2    0    0  0.00000000000E+00  0.00000000000E+00 -0.69656689639E+02  0.21010315234E+04  0.20998765220E+04 0.  0.
        5    1    3    3  502    0  0.14130277764E+02  0.39074982012E+03  0.94011161981E+03  0.10181930241E+04  0.46999998093E+01 0.  1.
       -5    1    3    3    0  502 -0.14130277764E+02 -0.39074982012E+03 -0.10097683095E+04  0.10828384992E+04  0.46999998093E+01 0. -1.
</event>
<event>
 5   0  0.1646510E-06  0.2099431E+04  0.7818609E-02  0.8561494E-01
        1   -1    0    0  501    0  0.00000000000E+00  0.00000000000E+00  0.14829985383E+04  0.14829985383E+04  0.50400001928E-02 0. -1.
       -1   -1    0    0    0  501  0.00000000000E+00  0.00000000000E+00 -0.74302367972E+03  0.74302367974E+03  0.50400001928E-02 0.  1.
    10030    2    1    2    0    0  0.00000000000E+00  0.00000000000E+00  0.73997485860E+03  0.22260222181E+04  0.20994313811E+04 0.  0.
        4    1    3    3  502    0 -0.15772933756E+03 -0.10373288307E+04  0.40304034772E+03  0.11239985684E+04  0.12699999809E+01 0.  1.
       -4    1    3    3    0  502  0.15772933756E+03  0.10373288307E+04  0.33693451088E+03  0.11020236497E+04  0.12699999809E+01 0. -1.
</event>
<event>
 5   0  0.1590067E-06  0.2098969E+04  0.7818609E-02  0.8561698E-01
        1   -1    0    0  501    0  0.00000000000E+00  0.00000000000E+00  0.11398158762E+04  0.11398158762E+04  0.50400001928E-02 0. -1.
       -1   -1    0    0    0  501  0.00000000000E+00  0.00000000000E+00 -0.96631203058E+03  0.96631203059E+03  0.50400001928E-02 0.  1.
    10030    2    1    2    0    0  0.00000000000E+00  0.00000000000E+00  0.17350384562E+03  0.21061279068E+04  0.20989690744E+04 0.  0.
        5    1    3    3  502    0  0.26972974444E+02  0.71690683576E+03 -0.68183230206E+03  0.98974760957E+03  0.46999998093E+01 0.  1.
       -5    1    3    3    0  502 -0.26972974444E+02 -0.71690683576E+03  0.85533614768E+03  0.11163802972E+04  0.46999998093E+01 0. -1.
</event>
<event>
 5   0  0.1646510E-06  0.2099481E+04  0.7818609E-02  0.8561472E-01
        1   -1    0    0  501    0  0.00000000000E+00  0.00000000000E+00  0.11169434129E+04  0.11169434129E+04  0.50400001928E-02 0.  1.
       -1   -1    0    0    0  501  0.00000000000E+00  0.00000000000E+00 -0.98658098904E+03  0.98658098906E+03  0.50400001928E-02 0. -1.
    10030    2    1    2    0    0  0.00000000000E+00  0.00000000000E+00  0.13036242384E+03  0.21035244020E+04  0.20994810187E+04 0.  0.
        4    1    3    3  502    0 -0.51400194773E+03 -0.36842812090E+03 -0.77429652256E+03  0.99973696556E+03  0.12699999809E+01 0. -1.
       -4    1    3    3    0  502  0.51400194773E+03  0.36842812090E+03  0.90465894641E+03  0.11037874364E+04  0.12699999809E+01 0.  1.
</event>
<event>
 5   0  0.3574927E-06  0.2099814E+04  0.7818609E-02  0.8561325E-01
        2   -1    0    0  501    0  0.00000000000E+00  0.00000000000E+00  0.11714375238E+04  0.11714375238E+04  0.25500000920E-02 0.  1.
       -2   -1    0    0    0  501  0.00000000000E+00  0.00000000000E+00 -0.94098439887E+03  0.94098439887E+03  0.25500000920E-02 0. -1.
    10030    2    1    2    0    0  0.00000000000E+00  0.00000000000E+00  0.23045312496E+03  0.21124219227E+04  0.20998137386E+04 0.  0.
        3    1    3    3  502    0  0.38716596162E+03 -0.93576705735E+03 -0.16346926978E+03  0.10258068433E+04  0.10100000352E+00 0. -1.
       -3    1    3    3    0  502 -0.38716596162E+03  0.93576705735E+03  0.39392239474E+03  0.10866150794E+04  0.10100000352E+00 0.  1.
</event>
<event>
 5   0  0.1653260E-06  0.2099503E+04  0.7818609E-02  0.8561462E-01
       -1   -1    0    0    0  501  0.00000000000E+00  0.00000000000E+00  0.59159431855E+03  0.59159431857E+03  0.50400001928E-02 0. -1.
        1   -1    0    0  501    0  0.00000000000E+00  0.00000000000E+00 -0.18627268669E+04  0.18627268669E+04  0.50400001928E-02 0.  1.
    10030    2    1    2    0    0  0.00000000000E+00  0.00000000000E+00 -0.12711325483E+04  0.24543211854E+04  0.20995033998E+04 0.  0.
        3    1    3    3  502    0 -0.21915467650E+03  0.78795656495E+03  0.13373423588E+03  0.82872744405E+03  0.10100000352E+00 0. -1.
       -3    1    3    3    0  502  0.21915467650E+03 -0.78795656495E+03 -0.14048667842E+04  0.16255937414E+04  0.10100000352E+00 0.  1.
</event>
<event>
 5   0  0.1257125E-06  0.2099315E+04  0.7818609E-02  0.8561545E-01
        4   -1    0    0  501    0  0.00000000000E+00  0.00000000000E+00  0.95565171761E+03  0.95565256149E+03  0.12699999809E+01 0.  1.
       -4   -1    0    0    0  501  0.00000000000E+00  0.00000000000E+00 -0.11529085779E+04  0.11529092774E+04  0.12699999809E+01 0. -1.
    10030    2    1    2    0    0  0.00000000000E+00  0.00000000000E+00 -0.19725686029E+03  0.21085618389E+04  0.20993148310E+04 0.  0.
        4    1    3    3  502    0  0.25206269213E+02 -0.64783436861E+03  0.73051020639E+03  0.97671464599E+03  0.12699999809E+01 0.  1.
       -4    1    3    3    0  502 -0.25206269213E+02  0.64783436861E+03 -0.92776706667E+03  0.11318471929E+04  0.12699999809E+01 0. -1.
</event>
<event>
 5   0  0.3574927E-06  0.2100713E+04  0.7818609E-02  0.8560930E-01
       -2   -1    0    0    0  501  0.00000000000E+00  0.00000000000E+00  0.79148920245E+03  0.79148920246E+03  0.25500000920E-02 0.  1.
        2   -1    0    0  501    0  0.00000000000E+00  0.00000000000E+00 -0.13938892542E+04  0.13938892542E+04  0.25500000920E-02 0. -1.
    10030    2    1    2    0    0  0.00000000000E+00  0.00000000000E+00 -0.60240005178E+03  0.21853784567E+04  0.21007125402E+04 0.  0.
        3    1    3    3  502    0  0.98555079089E+03  0.15961686523E+03 -0.64063300296E+03  0.11862540031E+04  0.10100000352E+00 0. -1.
       -3    1    3    3    0  502 -0.98555079089E+03 -0.15961686523E+03  0.38232951180E+02  0.99912445363E+03  0.10100000352E+00 0.  1.
</event>
<event>
 5   0  0.1653260E-06  0.2097772E+04  0.7818609E-02  0.8562225E-01
        1   -1    0    0  501    0  0.00000000000E+00  0.00000000000E+00  0.10942103776E+04  0.10942103776E+04  0.50400001928E-02 0.  1.
       -1   -1    0    0    0  501  0.00000000000E+00  0.00000000000E+00 -0.10054392147E+04  0.10054392147E+04  0.50400001928E-02 0. -1.
    10030    2    1    2    0    0  0.00000000000E+00  0.00000000000E+00  0.88771162856E+02  0.20996495923E+04  0.20977721733E+04 0.  0.
        3    1    3    3  502    0  0.26842620255E+03  0.79608309110E+02 -0.96734640321E+03  0.10070497421E+04  0.10100000352E+00 0. -1.
       -3    1    3    3    0  502 -0.26842620255E+03 -0.79608309110E+02  0.10561175661E+04  0.10925998502E+04  0.10100000352E+00 0.  1.
</event>
<event>
 5   0  0.3636435E-06  0.2099442E+04  0.7818609E-02  0.8561489E-01
       -2   -1    0    0    0  501  0.00000000000E+00  0.00000000000E+00  0.72199417876E+03  0.72199417876E+03  0.25500000920E-02 0.  1.
        2   -1    0    0  501    0  0.00000000000E+00  0.00000000000E+00 -0.15262085085E+04  0.15262085085E+04  0.25500000920E-02 0. -1.
    10030    2    1    2    0    0  0.00000000000E+00  0.00000000000E+00 -0.80421432970E+03  0.22482026872E+04  0.20994415054E+04 0.  0.
        4    1    3    3  502    0  0.10003771415E+04 -0.16293002699E+03 -0.10960144951E+03  0.10194678561E+04  0.12699999809E+01 0.  1.
       -4    1    3    3    0  502 -0.10003771415E+04  0.16293002699E+03 -0.69461288018E+03  0.12287348311E+04  0.12699999809E+01 0. -1.
</event>
<event>
 5   0  0.1257125E-06  0.2099922E+04  0.7818609E-02  0.8561278E-01
       -4   -1    0    0    0  501  0.00000000000E+00  0.00000000000E+00  0.10989428893E+04  0.10989436231E+04  0.12699999809E+01 0.  1.
        4   -1    0    0  501    0  0.00000000000E+00  0.00000000000E+00 -0.10031609211E+04  0.10031617250E+04  0.12699999809E+01 0. -1.
    10030    2    1    2    0    0  0.00000000000E+00  0.00000000000E+00  0.95781968166E+02  0.21021053481E+04  0.20999220721E+04 0.  0.
        3    1    3    3  502    0  0.19353335500E+03 -0.10185318111E+04 -0.11828147668E+03  0.10434810624E+04  0.10100000352E+00 0. -1.
       -3    1    3    3    0  502 -0.19353335500E+03  0.10185318111E+04  0.21406344485E+03  0.10586242857E+04  0.10100000352E+00 0.  1.
</event>
<event>
 5   0  0.1579820E-06  0.2095700E+04  0.7818609E-02  0.8563140E-01
        1   -1    0    0  501    0  0.00000000000E+00  0.00000000000E+00  0.94158249940E+03  0.94158249942E+03  0.50400001928E-02 0.  1.
       -1   -1    0    0    0  501  0.00000000000E+00  0.00000000000E+00 -0.11661109787E+04  0.11661109787E+04  0.50400001928E-02 0. -1.
    10030    2    1    2    0    0  0.00000000000E+00  0.00000000000E+00 -0.22452847926E+03  0.21076934781E+04  0.20957000643E+04 0.  0.
        2    1    3    3  502    0 -0.49337778195E+03 -0.78724241184E+03 -0.59961707681E+03  0.11057634872E+04  0.25500000920E-02 0. -1.
       -2    1    3    3    0  502  0.49337778195E+03  0.78724241184E+03  0.37508859755E+03  0.10019299909E+04  0.25500000920E-02 0.  1.
</event>
<event>
 5   0  0.1646510E-06  0.2101467E+04  0.7818609E-02  0.8560598E-01
        1   -1    0    0  501    0  0.00000000000E+00  0.00000000000E+00  0.20634143002E+04  0.20634143002E+04  0.50400001928E-02 0.  1.
       -1   -1    0    0    0  501  0.00000000000E+00  0.00000000000E+00 -0.53505516884E+03  0.53505516886E+03  0.50400001928E-02 0. -1.
    10030    2    1    2    0    0  0.00000000000E+00  0.00000000000E+00  0.15283591314E+04  0.25984694691E+04  0.21014666182E+04 0.  0.
        4    1    3    3  502    0  0.83856047494E+03 -0.23003293116E+03  0.14935486254E+04  0.17282326026E+04  0.12699999809E+01 0.  1.
       -4    1    3    3    0  502 -0.83856047494E+03  0.23003293116E+03  0.34810506028E+02  0.87023686648E+03  0.12699999809E+01 0. -1.
</event>
<event>
 5   0  0.1653260E-06  0.2100507E+04  0.7818609E-02  0.8561020E-01
        1   -1    0    0  501    0  0.00000000000E+00  0.00000000000E+00  0.20043796848E+04  0.20043796848E+04  0.50400001928E-02 0. -1.
       -1   -1    0    0    0  501  0.00000000000E+00  0.00000000000E+00 -0.55031092078E+03  0.55031092080E+03  0.50400001928E-02 0.  1.
    10030    2    1    2    0    0  0.00000000000E+00  0.00000000000E+00  0.14540687640E+04  0.25546906056E+04  0.21005066341E+04 0.  0.
        3    1    3    3  502    0 -0.47397966349E+02 -0.57070221884E+03  0.17977860506E+04  0.18867915316E+04  0.10100000352E+00 0. -1.
       -3    1    3    3    0  502  0.47397966349E+02  0.57070221884E+03 -0.34371728656E+03  0.66789907402E+03  0.10100000352E+00 0.  1.
</event>
<event>
 5   0  0.1590067E-06  0.2100626E+04  0.7818609E-02  0.8560968E-01
        1   -1    0    0  501    0  0.00000000000E+00  0.00000000000E+00  0.10926498522E+04  0.10926498522E+04  0.50400001928E-02 0.  1.
       -1   -1    0    0    0  501  0.00000000000E+00  0.00000000000E+00 -0.10096161548E+04  0.10096161548E+04  0.50400001928E-02 0. -1.
    10030    2    1    2    0    0  0.00000000000E+00  0.00000000000E+00  0.83033697375E+02  0.21022660070E+04  0.21006255662E+04 0.  0.
        5    1    3    3  502    0 -0.56495087864E+03  0.84911511106E+03  0.29264883020E+03  0.10610520227E+04  0.46999998093E+01 0.  1.
       -5    1    3    3    0  502  0.56495087864E+03 -0.84911511106E+03 -0.20961513282E+03  0.10412139843E+04  0.46999998093E+01 0. -1.
</event>
<event>
 5   0  0.3574927E-06  0.2100755E+04  0.7818609E-02  0.8560911E-01
       -2   -1    0    0    0  501  0.00000000000E+00  0.00000000000E+00  0.52588240956E+03  0.52588240957E+03  0.25500000920E-02 0.  1.
        2   -1    0    0  501    0  0.00000000000E+00  0.00000000000E+00 -0.20979842908E+04  0.20979842908E+04  0.25500000920E-02 0. -1.
    10030    2    1    2    0    0  0.00000000000E+00  0.00000000000E+00 -0.15721018812E+04  0.26238667003E+04  0.21007551348E+04 0.  0.
        3    1    3    3  502    0  0.10202758949E+04 -0.58003105871E+02 -0.10893466674E+04  0.14936543891E+04  0.10100000352E+00 0. -1.
       -3    1    3    3    0  502 -0.10202758949E+04  0.58003105871E+02 -0.48275521381E+03  0.11302123113E+04  0.10100000352E+00 0.  1.
</event>
<event>
 5   0  0.1615098E-06  0.2101607E+04  0.7818609E-02  0.8560536E-01
       -1   -1    0    0    0  501  0.00000000000E+00  0.00000000000E+00  0.78645210963E+03  0.78645210965E+03  0.50400001928E-02 0.  1.
        1   -1    0    0  501    0  0.00000000000E+00  0.00000000000E+00 -0.14040113482E+04  0.14040113482E+04  0.50400001928E-02 0. -1.
    10030    2    1    2    0    0  0.00000000000E+00  0.00000000000E+00 -0.61755923853E+03  0.21904634578E+04  0.21016067061E+04 0.  0.
        1    1    3    3  502    0 -0.32720584083E+03 -0.18843653913E+03  0.71330143592E+03  0.80707554173E+03  0.50400001928E-02 0.  1.
       -1    1    3    3    0  502  0.32720584083E+03  0.18843653913E+03 -0.13308606744E+04  0.13833879161E+04  0.50400001928E-02 0. -1.
</event>
<event>
 5   0  0.3480134E-06  0.2101192E+04  0.7818609E-02  0.8560719E-01
       -2   -1    0    0    0  501  0.00000000000E+00  0.00000000000E+00  0.97706842857E+03  0.97706842858E+03  0.25500000920E-02 0. -1.
        2   -1    0    0  501    0  0.00000000000E+00  0.00000000000E+00 -0.11296565442E+04  0.11296565442E+04  0.25500000920E-02 0.  1.
    10030    2    1    2    0    0  0.00000000000E+00  0.00000000000E+00 -0.15258811562E+03  0.21067249728E+04  0.21011917994E+04 0.  0.
        1    1    3    3  502    0 -0.48856839284E+03  0.52159717054E+03 -0.84837971965E+03  0.11092839274E+04  0.50400001928E-02 0.  1.
       -1    1    3    3    0  502  0.48856839284E+03 -0.52159717054E+03  0.69579160402E+03  0.99744104540E+03  0.50400001928E-02 0. -1.
</event>
<event>
 5   0  0.1653260E-06  0.2100119E+04  0.7818609E-02  0.8561191E-01
        1   -1    0    0  501    0  0.00000000000E+00  0.00000000000E+00  0.11718189571E+04  0.11718189571E+04  0.50400001928E-02 0.  1.
       -1   -1    0    0    0  501  0.00000000000E+00  0.00000000000E+00 -0.94095190935E+03  0.94095190936E+03  0.50400001928E-02 0. -1.
    10030    2    1    2    0    0  0.00000000000E+00  0.00000000000E+00  0.23086704777E+03  0.21127708665E+04  0.21001193158E+04 0.  0.
        3    1    3    3  502    0 -0.37426088624E+03  0.84194716232E+03 -0.39126626450E+03  0.10010172501E+04  0.10100000352E+00 0. -1.
       -3    1    3    3    0  502  0.37426088624E+03 -0.84194716232E+03  0.62213331227E+03  0.11117536164E+04  0.10100000352E+00 0.  1.
</event>
<event>
 5   0  0.1579820E-06  0.2099865E+04  0.7818609E-02  0.8561303E-01
       -1   -1    0    0    0  501  0.00000000000E+00  0.00000000000E+00  0.10316012279E+04  0.10316012279E+04  0.50400001928E-02 0.  1.
        1   -1    0    0  501    0  0.00000000000E+00  0.00000000000E+00 -0.10685893983E+04  0.10685893983E+04  0.50400001928E-02 0. -1.
    10030    2    1    2    0    0  0.00000000000E+00  0.00000000000E+00 -0.36988170445E+02  0.21001906262E+04  0.20998648865E+04 0.  0.
        2    1    3    3  502    0 -0.78814755753E+03 -0.18988588903E+03  0.64878623222E+03  0.10383432951E+04  0.25500000920E-02 0.  1.
       -2    1    3    3    0  502  0.78814755753E+03  0.18988588903E+03 -0.68577440267E+03  0.10618473311E+04  0.25500000920E-02 0. -1.
</event>
<event>
 5   0  0.1590067E-06  0.2100483E+04  0.7818609E-02  0.8561031E-01
       -1   -1    0    0    0  501  0.00000000000E+00  0.00000000000E+00  0.53784179318E+03  0.53784179320E+03  0.50400001928E-02 0. -1.
        1   -1    0    0  501    0  0.00000000000E+00  0.00000000000E+00 -0.20508018766E+04  0.20508018766E+04  0.50400001928E-02 0.  1.
    10030    2    1    2    0    0  0.00000000000E+00  0.00000000000E+00 -0.15129600835E+04  0.25886436698E+04  0.21004827624E+04 0.  0.
        5    1    3    3  502    0 -0.58878924472E+03  0.76350157180E+03 -0.12696360870E+04  0.15942412955E+04  0.46999998093E+01 0.  1.
       -5    1    3    3    0  502  0.58878924472E+03 -0.76350157180E+03 -0.24332399643E+03  0.99440237433E+03  0.46999998093E+01 0. -1.
</event>
<event>
 5   0  0.3705828E-06  0.2096024E+04  0.7818609E-02  0.8562997E-01
       -2   -1    0    0    0  501  0.00000000000E+00  0.00000000000E+00  0.87573690764E+03  0.87573690764E+03  0.25500000920E-02 0. -1.
        2   -1    0    0  501    0  0.00000000000E+00  0.00000000000E+00 -0.12541772422E+04  0.12541772422E+04  0.25500000920E-02 0.  1.
    10030    2    1    2    0    0  0.00000000000E+00  0.00000000000E+00 -0.37844033457E+03  0.21299141499E+04  0.20960241408E+04 0.  0.
        5    1    3    3  502    0  0.98544505965E+03 -0.33049589136E+03 -0.32546906678E+03  0.10891655995E+04  0.46999998093E+01 0.  1.
       -5    1    3    3    0  502 -0.98544505965E+03  0.33049589136E+03 -0.52971267793E+02  0.10407485503E+04  0.46999998093E+01 0. -1.
</event>
<event>
 5   0  0.3705828E-06  0.2100173E+04  0.7818609E-02  0.8561167E-01
       -2   -1    0    0    0  501  0.00000000000E+00  0.00000000000E+00  0.11738623788E+04  0.11738623788E+04  0.25500000920E-02 0. -1.
        2   -1    0    0  501    0  0.00000000000E+00  0.00000000000E+00 -0.93936218118E+03  0.93936218119E+03  0.25500000920E-02 0.  1.
    10030    2    1    2    0    0  0.00000000000E+00  0.00000000000E+00  0.23450019764E+03  0.21132245600E+04  0.21001732544E+04 0.  0.
        5    1    3    3  502    0 -0.87948223104E+03 -0.49739320352E+03 -0.17048295700E+03  0.10246831326E+04  0.46999998093E+01 0. -1.
       -5    1    3    3    0  502  0.87948223104E+03  0.49739320352E+03  0.40498315464E+03  0.10885414274E+04  0.46999998093E+01 0.  1.
</event>
<event>
 5   0  0.3705828E-06  0.2103138E+04  0.7818609E-02  0.8559863E-01
        2   -1    0    0  501    0  0.00000000000E+00  0.00000000000E+00  0.10420544845E+04  0.10420544845E+04  0.25500000920E-02 0. -1.
       -2   -1    0    0    0  501  0.00000000000E+00  0.00000000000E+00 -0.10611699748E+04  0.10611699749E+04  0.25500000920E-02 0.  1.
    10030    2    1    2    0    0  0.00000000000E+00  0.00000000000E+00 -0.19115490365E+02  0.21032244593E+04  0.21031375905E+04 0.  0.
        5    1    3    3  502    0 -0.69607507803E+03 -0.75923137935E+03 -0.22127865162E+03  0.10535364888E+04  0.46999998093E+01 0.  1.
       -5    1    3    3    0  502  0.69607507803E+03  0.75923137935E+03  0.20216316125E+03  0.10496879705E+04  0.46999998093E+01 0. -1.
</event>
<event>
 5   0  0.1646510E-06  0.2099836E+04  0.7818609E-02  0.8561316E-01
        1   -1    0    0  501    0  0.00000000000E+00  0.00000000000E+00  0.84993760459E+03  0.84993760460E+03  0.50400001928E-02 0. -1.
       -1   -1    0    0    0  501  0.00000000000E+00  0.00000000000E+00 -0.12969516642E+04  0.12969516642E+04  0.50400001928E-02 0.  1.
    10030    2    1    2    0    0  0.00000000000E+00  0.00000000000E+00 -0.44701405961E+03  0.21468892688E+04  0.20998361753E+04 0.  0.
        4    1    3    3  502    0  0.67635513652E+03  0.32762483646E+03  0.52608752548E+03  0.91736797499E+03  0.12699999809E+01 0. -1.
       -4    1    3    3    0  502 -0.67635513652E+03 -0.32762483646E+03 -0.97310158509E+03  0.12295212938E+04  0.12699999809E+01 0.  1.
</event>
<event>
 5   0  0.3547583E-06  0.2100195E+04  0.7818609E-02  0.8561157E-01
        2   -1    0    0  501    0  0.00000000000E+00  0.00000000000E+00  0.28015425934E+04  0.28015425934E+04  0.25500000920E-02 0. -1.
       -2   -1    0    0    0  501  0.00000000000E+00  0.00000000000E+00 -0.39360642202E+03  0.39360642203E+03  0.25500000920E-02 0.  1.
    10030    2    1    2    0    0  0.00000000000E+00  0.00000000000E+00  0.24079361714E+04  0.31951490154E+04  0.21001953779E+04 0.  0.
        2    1    3    3  502    0  0.62613070096E+03 -0.45870565218E+03  0.12793165288E+03  0.78664924702E+03  0.25500000920E-02 0. -1.
       -2    1    3    3    0  502 -0.62613070096E+03  0.45870565218E+03  0.22800045185E+04  0.24084997684E+04  0.25500000920E-02 0.  1.
</event>
<event>
 5   0  0.3574927E-06  0.2100868E+04  0.7818609E-02  0.8560861E-01
        2   -1    0    0  501    0  0.00000000000E+00  0.00000000000E+00  0.89795939562E+03  0.89795939562E+03  0.25500000920E-02 0. -1.
       -2   -1    0    0    0  501  0.00000000000E+00  0.00000000000E+00 -0.12287985340E+04  0.12287985340E+04  0.25500000920E-02 0.  1.
    10030    2    1    2    0    0  0.00000000000E+00  0.00000000000E+00 -0.33083913842E+03  0.21267579297E+04  0.21008676198E+04 0.  0.
        3    1    3    3  502    0  0.82956668080E+03  0.50204156557E+03  0.24351979313E+03  0.99976422786E+03  0.10100000352E+00 0. -1.
       -3    1    3    3    0  502 -0.82956668080E+03 -0.50204156557E+03 -0.57435893155E+03  0.11269937018E+04  0.10100000352E+00 0.  1.
</event>
<event>
 5   0  0.1615098E-06  0.2100025E+04  0.7818609E-02  0.8561232E-01
       -1   -1    0    0    0  501  0.00000000000E+00  0.00000000000E+00  0.92736104857E+03  0.92736104859E+03  0.50400001928E-02 0.  1.
        1   -1    0    0  501    0  0.00000000000E+00  0.00000000000E+00 -0.11888860213E+04  0.11888860213E+04  0.50400001928E-02 0. -1.
    10030    2    1    2    0    0  0.00000000000E+00  0.00000000000E+00 -0.26152497271E+03  0.21162470699E+04  0.21000253211E+04 0.  0.
        1    1    3    3  502    0 -0.66381365504E+03  0.19829433367E+03 -0.92588038527E+03  0.11563838892E+04  0.50400001928E-02 0. -1.
       -1    1    3    3    0  502  0.66381365504E+03 -0.19829433367E+03  0.66435541256E+03  0.95986318067E+03  0.50400001928E-02 0.  1.
</event>
<event>
 5   0  0.3574927E-06  0.2097471E+04  0.7818609E-02  0.8562358E-01
       -2   -1    0    0    0  501  0.00000000000E+00  0.00000000000E+00  0.71557570421E+03  0.71557570421E+03  0.25500000920E-02 0. -1.
        2   -1    0    0  501    0  0.00000000000E+00  0.00000000000E+00 -0.15370090842E+04  0.15370090842E+04  0.25500000920E-02 0.  1.
    10030    2    1    2    0    0  0.00000000000E+00  0.00000000000E+00 -0.82143337998E+03  0.22525847884E+04  0.20974711991E+04 0.  0.
        3    1    3    3  502    0 -0.93681839940E+03 -0.32243425056E+03 -0.41405325576E+02  0.99161835934E+03  0.10100000352E+00 0. -1.
       -3    1    3    3    0  502  0.93681839940E+03  0.32243425056E+03 -0.78002805441E+03  0.12609664291E+04  0.10100000352E+00 0.  1.
</event>
<event>
 5   0  0.1646510E-06  0.2100255E+04  0.7818609E-02  0.8561131E-01
       -1   -1    0    0    0  501  0.00000000000E+00  0.00000000000E+00  0.11476477208E+04  0.11476477208E+04  0.50400001928E-02 0. -1.
        1   -1    0    0  501    0  0.00000000000E+00  0.00000000000E+00 -0.96089363602E+03  0.96089363603E+03  0.50400001928E-02 0.  1.
    10030    2    1    2    0    0  0.00000000000E+00  0.00000000000E+00  0.18675408481E+03  0.21085413569E+04  0.21002546430E+04 0.  0.
        4    1    3    3  502    0  0.40450570698E+02  0.10207053641E+03  0.11418688554E+04  0.11471358852E+04  0.12699999809E+01 0. -1.
       -4    1    3    3    0  502 -0.40450570698E+02 -0.10207053641E+03 -0.95511477063E+03  0.96140547172E+03  0.12699999809E+01 0.  1.
</event>
<event>
 5   0  0.3705828E-06  0.2099608E+04  0.7818609E-02  0.8561416E-01
       -2   -1    0    0    0  501  0.00000000000E+00  0.00000000000E+00  0.13319399746E+04  0.13319399746E+04  0.25500000920E-02 0.  1.
        2   -1    0    0  501    0  0.00000000000E+00  0.00000000000E+00 -0.82743077776E+03  0.82743077776E+03  0.25500000920E-02 0. -1.
    10030    2    1    2    0    0  0.00000000000E+00  0.00000000000E+00  0.50450919684E+03  0.21593707524E+04  0.20996077054E+04 0.  0.
        5    1    3    3  502    0 -0.41850787610E+03  0.94798222184E+03  0.42510662769E+03  0.11200700291E+04  0.46999998093E+01 0.  1.
       -5    1    3    3    0  502  0.41850787610E+03 -0.94798222184E+03  0.79402569146E+02  0.10393007232E+04  0.46999998093E+01 0. -1.
</event>
<event>
 5   0  0.1653260E-06  0.2100579E+04  0.7818609E-02  0.8560988E-01
       -1   -1    0    0    0  501  0.00000000000E+00  0.00000000000E+00  0.11443746193E+04  0.11443746193E+04  0.50400001928E-02 0.  1.
        1   -1    0    0  501    0  0.00000000000E+00  0.00000000000E+00 -0.96393990889E+03  0.96393990890E+03  0.50400001928E-02 0. -1.
    10030    2    1    2    0    0  0.00000000000E+00  0.00000000000E+00  0.18043471045E+03  0.21083145283E+04  0.21005793166E+04 0.  0.
        3    1    3    3  502    0  0.53201665921E+03  0.64326421397E+03 -0.54952904776E+03  0.99940620330E+03  0.10100000352E+00 0. -1.
       -3    1    3    3    0  502 -0.53201665921E+03 -0.64326421397E+03  0.72996375821E+03  0.11089083250E+04  0.10100000352E+00 0.  1.
</event>
<event>
 5   0  0.3547583E-06  0.2099960E+04  0.7818609E-02  0.8561261E-01
        2   -1    0    0  501    0  0.00000000000E+00  0.00000000000E+00  0.59712570114E+03  0.59712570115E+03  0.25500000920E-02 0.  1.
       -2   -1    0    0    0  501  0.00000000000E+00  0.00000000000E+00 -0.18462745787E+04  0.18462745787E+04  0.25500000920E-02 0. -1.
    10030    2    1    2    0    0  0.00000000000E+00  0.00000000000E+00 -0.12491488775E+04  0.24434002798E+04  0.20999600018E+04 0.  0.
        2    1    3    3  502    0  0.33200976837E+03 -0.59966550560E+03  0.30088646177E+03  0.74857322139E+03  0.25500000920E-02 0.  1.
       -2    1    3    3    0  502 -0.33200976837E+03  0.59966550560E+03 -0.15500353393E+04  0.16948270584E+04  0.25500000920E-02 0. -1.
</event>
<event>
 5   0  0.1590067E-06  0.2106024E+04  0.7818609E-02  0.8558594E-01
       -1   -1    0    0    0  501  0.00000000000E+00  0.00000000000E+00  0.54487048649E+03  0.54487048651E+03  0.50400001928E-02 0. -1.
        1   -1    0    0  501    0  0.00000000000E+00  0.00000000000E+00 -0.20350423031E+04  0.20350423032E+04  0.50400001928E-02 0.  1.
    10030    2    1    2    0    0  0.00000000000E+00  0.00000000000E+00 -0.14901718167E+04  0.25799127897E+04  0.21060242067E+04 0.  0.
        5    1    3    3  502    0 -0.41603624865E+03 -0.95600653672E+03 -0.56430686472E+03  0.11855374250E+04  0.46999998093E+01 0. -1.
       -5    1    3    3    0  502  0.41603624865E+03  0.95600653672E+03 -0.92586495194E+03  0.13943753647E+04  0.46999998093E+01 0.  1.
</event>
<event>
 5   0  0.1579820E-06  0.2116004E+04  0.7818609E-02  0.8554226E-01
       -1   -1    0    0    0  501  0.00000000000E+00  0.00000000000E+00  0.70996010691E+03  0.70996010693E+03  0.50400001928E-02 0. -1.
        1   -1    0    0  501    0  0.00000000000E+00  0.00000000000E+00 -0.15766630417E+04  0.15766630417E+04  0.50400001928E-02 0.  1.
    10030    2    1    2    0    0  0.00000000000E+00  0.00000000000E+00 -0.86670293482E+03  0.22866231487E+04  0.21160036500E+04 0.  0.
        2    1    3    3  502    0 -0.57415949496E+03 -0.70202518040E+03 -0.10221420940E+04  0.13664819574E+04  0.25500000920E-02 0.  1.
       -2    1    3    3    0  502  0.57415949496E+03  0.70202518040E+03  0.15543915922E+03  0.92014119123E+03  0.25500000920E-02 0. -1.
</event>
<event>
 5   0  0.1590067E-06  0.2101706E+04  0.7818609E-02  0.8560492E-01
        1   -1    0    0  501    0  0.00000000000E+00  0.00000000000E+00  0.12204321322E+04  0.12204321322E+04  0.50400001928E-02 0.  1.
       -1   -1    0    0    0  501  0.00000000000E+00  0.00000000000E+00 -0.90483685494E+03  0.90483685495E+03  0.50400001928E-02 0. -1.
    10030    2    1    2    0    0  0.00000000000E+00  0.00000000000E+00  0.31559527723E+03  0.21252689871E+04  0.21017059472E+04 0.  0.
        5    1    3    3  502    0 -0.57458770970E+03 -0.60436143167E+03  0.80439288389E+03  0.11586517069E+04  0.46999998093E+01 0.  1.
       -5    1    3    3    0  502  0.57458770970E+03  0.60436143167E+03 -0.48879760665E+03  0.96661728026E+03  0.46999998093E+01 0. -1.
</event>
<event>
 5   0  0.3705828E-06  0.2099812E+04  0.7818609E-02  0.8561326E-01
       -2   -1    0    0    0  501  0.00000000000E+00  0.00000000000E+00  0.97268498674E+03  0.97268498674E+03  0.25500000920E-02 0.  1.
        2   -1    0    0  501    0  0.00000000000E+00  0.00000000000E+00 -0.11332580523E+04  0.11332580523E+04  0.25500000920E-02 0. -1.
    10030    2    1    2    0    0  0.00000000000E+00  0.00000000000E+00 -0.16057306556E+03  0.21059430390E+04  0.20998124617E+04 0.  0.
        5    1    3    3  502    0  0.84301633833E+03 -0.34240838155E+03 -0.60561056146E+03  0.10930262067E+04  0.46999998093E+01 0. -1.
       -5    1    3    3    0  502 -0.84301633833E+03  0.34240838155E+03  0.44503749589E+03  0.10129168323E+04  0.46999998093E+01 0.  1.
</event>
<event>
 5   0  0.1590067E-06  0.2099751E+04  0.7818609E-02  0.8561353E-01
        1   -1    0    0  501    0  0.00000000000E+00  0.00000000000E+00  0.11478145285E+04  0.11478145285E+04  0.50400001928E-02 0. -1.
       -1   -1    0    0    0  501  0.00000000000E+00  0.00000000000E+00 -0.96029304620E+03  0.96029304621E+03  0.50400001928E-02 0.  1.
    10030    2    1    2    0    0  0.00000000000E+00  0.00000000000E+00  0.18752148231E+03  0.21081075747E+04  0.20997507567E+04 0.  0.
        5    1    3    3  502    0  0.74204853136E+03  0.72825755025E+03 -0.52493798077E+02  0.10410440775E+04  0.46999998093E+01 0.  1.
       -5    1    3    3    0  502 -0.74204853136E+03 -0.72825755025E+03  0.24001528038E+03  0.10670634973E+04  0.46999998093E+01 0. -1.
</event>
<event>
 5   0  0.3480134E-06  0.2100133E+04  0.7818609E-02  0.8561185E-01
        2   -1    0    0  501    0  0.00000000000E+00  0.00000000000E+00  0.78065426763E+03  0.78065426764E+03  0.25500000920E-02 0. -1.
       -2   -1    0    0    0  501  0.00000000000E+00  0.00000000000E+00 -0.14124555516E+04  0.14124555516E+04  0.25500000920E-02 0.  1.
    10030    2    1    2    0    0  0.00000000000E+00  0.00000000000E+00 -0.63180128396E+03  0.21931098192E+04  0.21001328093E+04 0.  0.
        1    1    3    3  502    0 -0.43102741117E+03  0.39953100049E+03  0.59281388187E+03  0.83476820022E+03  0.50400001928E-02 0. -1.
       -1    1    3    3    0  502  0.43102741117E+03 -0.39953100049E+03 -0.12246151658E+04  0.13583416190E+04  0.50400001928E-02 0.  1.
</event>
<event>
 5   0  0.3705828E-06  0.2099936E+04  0.7818609E-02  0.8561272E-01
        2   -1    0    0  501    0  0.00000000000E+00  0.00000000000E+00  0.12936936577E+04  0.12936936577E+04  0.25500000920E-02 0.  1.
       -2   -1    0    0    0  501  0.00000000000E+00  0.00000000000E+00 -0.85215912297E+03  0.85215912297E+03  0.25500000920E-02 0. -1.
    10030    2    1    2    0    0  0.00000000000E+00  0.00000000000E+00  0.44153453476E+03  0.21458527807E+04  0.20999360493E+04 0.  0.
        5    1    3    3  502    0 -0.28112791583E+03 -0.22776227686E+03 -0.78643280669E+03  0.86568308824E+03  0.46999998093E+01 0. -1.
       -5    1    3    3    0  502  0.28112791583E+03  0.22776227686E+03  0.12279673415E+04  0.12801696925E+04  0.46999998093E+01 0.  1.
</event>
<event>
 5   0  0.3705828E-06  0.2099994E+04  0.7818609E-02  0.8561246E-01
        2   -1    0    0  501    0  0.00000000000E+00  0.00000000000E+00  0.22941172382E+04  0.22941172382E+04  0.25500000920E-02 0.  1.
       -2   -1    0    0    0  501  0.00000000000E+00  0.00000000000E+00 -0.48057410334E+03  0.48057410334E+03  0.25500000920E-02 0. -1.
    10030    2    1    2    0    0  0.00000000000E+00  0.00000000000E+00  0.18135431349E+04  0.27746913415E+04  0.20999936521E+04 0.  0.
        5    1    3    3  502    0 -0.73198749022E+03 -0.16409710179E+03  0.18774783721E+04  0.20218013435E+04  0.46999998093E+01 0.  1.
       -5    1    3    3    0  502  0.73198749022E+03  0.16409710179E+03 -0.63935237250E+02  0.75288999809E+03  0.46999998093E+01 0. -1.
</event>
<event>
 5   0  0.1590067E-06  0.2099641E+04  0.7818609E-02  0.8561402E-01
       -1   -1    0    0    0  501  0.00000000000E+00  0.00000000000E+00  0.78645986232E+03  0.78645986234E+03  0.50400001928E-02 0. -1.
        1   -1    0    0  501    0  0.00000000000E+00  0.00000000000E+00 -0.14013720348E+04  0.14013720348E+04  0.50400001928E-02 0.  1.
    10030    2    1    2    0    0  0.00000000000E+00  0.00000000000E+00 -0.61491217250E+03  0.21878318972E+04  0.20996407860E+04 0.  0.
        5    1    3    3  502    0 -0.45266493114E+03  0.79835572368E+03  0.22368274286E+03  0.94463403542E+03  0.46999998093E+01 0. -1.
       -5    1    3    3    0  502  0.45266493114E+03 -0.79835572368E+03 -0.83859491535E+03  0.12431978618E+04  0.46999998093E+01 0.  1.
</event>
<event>
 5   0  0.1590067E-06  0.2100106E+04  0.7818609E-02  0.8561197E-01
        1   -1    0    0  501    0  0.00000000000E+00  0.00000000000E+00  0.75951892681E+03  0.75951892683E+03  0.50400001928E-02 0.  1.
       -1   -1    0    0    0  501  0.00000000000E+00  0.00000000000E+00 -0.14517233824E+04  0.14517233824E+04  0.50400001928E-02 0. -1.
    10030    2    1    2    0    0  0.00000000000E+00  0.00000000000E+00 -0.69220445558E+03  0.22112423092E+04  0.21001060787E+04 0.  0.
        5    1    3    3  502    0  0.48497767934E+03  0.69821659865E+03  0.30285794996E+03  0.90247149315E+03  0.46999998093E+01 0. -1.
       -5    1    3    3    0  502 -0.48497767934E+03 -0.69821659865E+03 -0.99506240554E+03  0.13087708161E+04  0.46999998093E+01 0.  1.
</event>
<event>
 5   0  0.3705828E-06  0.2099798E+04  0.7818609E-02  0.8561332E-01
        2   -1    0    0  501    0  0.00000000000E+00  0.00000000000E+00  0.13040051402E+04  0.13040051402E+04  0.25500000920E-02 0. -1.
       -2   -1    0    0    0  501  0.00000000000E+00  0.00000000000E+00 -0.84530965158E+03  0.84530965158E+03  0.25500000920E-02 0.  1.
    10030    2    1    2    0    0  0.00000000000E+00  0.00000000000E+00  0.45869548865E+03  0.21493147918E+04  0.20997982101E+04 0.  0.
        5    1    3    3  502    0 -0.97996749702E+03 -0.26721185956E+03  0.50118058242E+03  0.11326705343E+04  0.46999998093E+01 0. -1.
       -5    1    3    3    0  502  0.97996749702E+03  0.26721185956E+03 -0.42485093775E+02  0.10166442575E+04  0.46999998093E+01 0.  1.
</event>
<event>
 5   0  0.1646510E-06  0.2099389E+04  0.7818609E-02  0.8561513E-01
        1   -1    0    0  501    0  0.00000000000E+00  0.00000000000E+00  0.13847793425E+04  0.13847793425E+04  0.50400001928E-02 0. -1.
       -1   -1    0    0    0  501  0.00000000000E+00  0.00000000000E+00 -0.79569246245E+03  0.79569246246E+03  0.50400001928E-02 0.  1.
    10030    2    1    2    0    0  0.00000000000E+00  0.00000000000E+00  0.58908688008E+03  0.21804718050E+04  0.20993889445E+04 0.  0.
        4    1    3    3  502    0  0.12685359288E+03 -0.87067978254E+03 -0.30000014772E+03  0.92961111185E+03  0.12699999809E+01 0.  1.
       -4    1    3    3    0  502 -0.12685359288E+03  0.87067978254E+03  0.88908702780E+03  0.12508606931E+04  0.12699999809E+01 0. -1.
</event>
<event>
 5   0  0.3480134E-06  0.2100379E+04  0.7818609E-02  0.8561077E-01
       -2   -1    0    0    0  501  0.00000000000E+00  0.00000000000E+00  0.68749228403E+03  0.68749228403E+03  0.25500000920E-02 0. -1.
        2   -1    0    0  501    0  0.00000000000E+00  0.00000000000E+00 -0.16042325991E+04  0.16042325991E+04  0.25500000920E-02 0.  1.
    10030    2    1    2    0    0  0.00000000000E+00  0.00000000000E+00 -0.91674031506E+03  0.22917248831E+04  0.21003785694E+04 0.  0.
        1    1    3    3  502    0  0.63161655715E+03  0.29981309442E+03 -0.13133854869E+04  0.14878873627E+04  0.50400001928E-02 0.  1.
       -1    1    3    3    0  502 -0.63161655715E+03 -0.29981309442E+03  0.39664517185E+03  0.80383752042E+03  0.50400001928E-02 0. -1.
</event>
<event>
 5   0  0.1590067E-06  0.2099291E+04  0.7818609E-02  0.8561556E-01
        1   -1    0    0  501    0  0.00000000000E+00  0.00000000000E+00  0.19891126127E+04  0.19891126127E+04  0.50400001928E-02 0. -1.
       -1   -1    0    0    0  501  0.00000000000E+00  0.00000000000E+00 -0.55389325317E+03  0.55389325320E+03  0.50400001928E-02 0.  1.
    10030    2    1    2    0    0  0.00000000000E+00  0.00000000000E+00  0.14352193596E+04  0.25430058659E+04  0.20992913624E+04 0.  0.
        5    1    3    3  502    0 -0.18296918838E+03 -0.10335036609E+04  0.70398924269E+03  0.12638158430E+04  0.46999998093E+01 0.  1.
       -5    1    3    3    0  502  0.18296918838E+03  0.10335036609E+04  0.73123011686E+03  0.12791900230E+04  0.46999998093E+01 0. -1.
</event>
<event>
 5   0  0.1615098E-06  0.2099609E+04  0.7818609E-02  0.8561416E-01
        1   -1    0    0  501    0  0.00000000000E+00  0.00000000000E+00  0.79679467427E+03  0.79679467428E+03  0.50400001928E-02 0. -1.
       -1   -1    0    0    0  501  0.00000000000E+00  0.00000000000E+00 -0.13831535813E+04  0.13831535813E+04  0.50400001928E-02 0.  1.
    10030    2    1    2    0    0  0.00000000000E+00  0.00000000000E+00 -0.58635890703E+03  0.21799482556E+04  0.20996089229E+04 0.  0.
        1    1    3    3  502    0 -0.64576162466E+02 -0.15245822441E+03  0.78315319331E+03  0.80046393746E+03  0.50400001928E-02 0. -1.
       -1    1    3    3    0  502  0.64576162466E+02  0.15245822441E+03 -0.13695121003E+04  0.13794843181E+04  0.50400001928E-02 0.  1.
</event>
<event>
 5   0  0.1615098E-06  0.2107917E+04  0.7818609E-02  0.8557764E-01
        1   -1    0    0  501    0  0.00000000000E+00  0.00000000000E+00  0.17371698659E+04  0.17371698659E+04  0.50400001928E-02 0.  1.
       -1   -1    0    0    0  501  0.00000000000E+00  0.00000000000E+00 -0.63944753525E+03  0.63944753527E+03  0.50400001928E-02 0. -1.
    10030    2    1    2    0    0  0.00000000000E+00  0.00000000000E+00  0.10977223307E+04  0.23766174012E+04  0.21079174453E+04 0.  0.
        1    1    3    3  502    0  0.43989889776E+03  0.80013636877E+03  0.11423652794E+04  0.14624389493E+04  0.50400001928E-02 0.  1.
       -1    1    3    3    0  502 -0.43989889776E+03 -0.80013636877E+03 -0.44642948779E+02  0.91417845183E+03  0.50400001928E-02 0. -1.
</event>
<event>
 5   0  0.1646510E-06  0.2100568E+04  0.7818609E-02  0.8560993E-01
       -1   -1    0    0    0  501  0.00000000000E+00  0.00000000000E+00  0.11043994072E+04  0.11043994072E+04  0.50400001928E-02 0. -1.
        1   -1    0    0  501    0  0.00000000000E+00  0.00000000000E+00 -0.99882041964E+03  0.99882041966E+03  0.50400001928E-02 0.  1.
    10030    2    1    2    0    0  0.00000000000E+00  0.00000000000E+00  0.10557898753E+03  0.21032198268E+04  0.21005681892E+04 0.  0.
        4    1    3    3  502    0  0.46735757086E+03 -0.40596275992E+03 -0.79673083459E+03  0.10089650624E+04  0.12699999809E+01 0.  1.
       -4    1    3    3    0  502 -0.46735757086E+03  0.40596275992E+03  0.90230982212E+03  0.10942547644E+04  0.12699999809E+01 0. -1.
</event>
<event>
 5   0  0.3636435E-06  0.2100302E+04  0.7818609E-02  0.8561110E-01
       -2   -1    0    0    0  501  0.00000000000E+00  0.00000000000E+00  0.84137583956E+03  0.84137583956E+03  0.25500000920E-02 0. -1.
        2   -1    0    0  501    0  0.00000000000E+00  0.00000000000E+00 -0.13107302774E+04  0.13107302774E+04  0.25500000920E-02 0.  1.
    10030    2    1    2    0    0  0.00000000000E+00  0.00000000000E+00 -0.46935443781E+03  0.21521061169E+04  0.21003016808E+04 0.  0.
        4    1    3    3  502    0 -0.13011282559E+03  0.94395205683E+03  0.21761742332E+03  0.97741178058E+03  0.12699999809E+01 0.  1.
       -4    1    3    3    0  502  0.13011282559E+03 -0.94395205683E+03 -0.68697186112E+03  0.11746943364E+04  0.12699999809E+01 0. -1.
</event>
<event>
 5   0  0.3574927E-06  0.2100224E+04  0.7818609E-02  0.8561145E-01
        2   -1    0    0  501    0  0.00000000000E+00  0.00000000000E+00  0.13510660430E+04  0.13510660430E+04  0.25500000920E-02 0.  1.
       -2   -1    0    0    0  501  0.00000000000E+00  0.00000000000E+00 -0.81619644937E+03  0.81619644937E+03  0.25500000920E-02 0. -1.
    10030    2    1    2    0    0  0.00000000000E+00  0.00000000000E+00  0.53486959363E+03  0.21672624924E+04  0.21002240901E+04 0.  0.
        3    1    3    3  502    0  0.53779988887E+03 -0.22939551630E+03 -0.63269509324E+03  0.86148367053E+03  0.10100000352E+00 0. -1.
       -3    1    3    3    0  502 -0.53779988887E+03  0.22939551630E+03  0.11675646869E+04  0.13057788219E+04  0.10100000352E+00 0.  1.
</event>
<event>
 5   0  0.1646510E-06  0.2101877E+04  0.7818609E-02  0.8560417E-01
        1   -1    0    0  501    0  0.00000000000E+00  0.00000000000E+00  0.15965407817E+04  0.15965407817E+04  0.50400001928E-02 0.  1.
       -1   -1    0    0    0  501  0.00000000000E+00  0.00000000000E+00 -0.69179029424E+03  0.69179029426E+03  0.50400001928E-02 0. -1.
    10030    2    1    2    0    0  0.00000000000E+00  0.00000000000E+00  0.90475048744E+03  0.22883310759E+04  0.21018767016E+04 0.  0.
        4    1    3    3  502    0  0.97611390232E+03  0.34456285409E+03  0.64999276571E+03  0.12222987029E+04  0.12699999809E+01 0. -1.
       -4    1    3    3    0  502 -0.97611390232E+03 -0.34456285409E+03  0.25475772173E+03  0.10660323731E+04  0.12699999809E+01 0.  1.
</event>
<event>
 5   0  0.3705828E-06  0.2099186E+04  0.7818609E-02  0.8561602E-01
       -2   -1    0    0    0  501  0.00000000000E+00  0.00000000000E+00  0.77962847928E+03  0.77962847929E+03  0.25500000920E-02 0. -1.
        2   -1    0    0  501    0  0.00000000000E+00  0.00000000000E+00 -0.14130385710E+04  0.14130385710E+04  0.25500000920E-02 0.  1.
    10030    2    1    2    0    0  0.00000000000E+00  0.00000000000E+00 -0.63341009169E+03  0.21926670503E+04  0.20991856633E+04 0.  0.
        5    1    3    3  502    0  0.37415047353E+03 -0.70016481766E+03  0.40045868864E+03  0.88916174009E+03  0.46999998093E+01 0. -1.
       -5    1    3    3    0  502 -0.37415047353E+03  0.70016481766E+03 -0.10338687803E+04  0.13035053102E+04  0.46999998093E+01 0.  1.
</event>
<event>
 5   0  0.3574927E-06  0.2098715E+04  0.7818609E-02  0.8561810E-01
        2   -1    0    0  501    0  0.00000000000E+00  0.00000000000E+00  0.14711662561E+04  0.14711662561E+04  0.25500000920E-02 0. -1.
       -2   -1    0    0    0  501  0.00000000000E+00  0.00000000000E+00 -0.74848825275E+03  0.74848825276E+03  0.25500000920E-02 0.  1.
    10030    2    1    2    0    0  0.00000000000E+00  0.00000000000E+00  0.72267800331E+03  0.22196545088E+04  0.20987145213E+04 0.  0.
        3    1    3    3  502    0 -0.10106981902E+03 -0.65676088740E+03 -0.49762024827E+03  0.83016618410E+03  0.10100000352E+00 0.  1.
       -3    1    3    3    0  502  0.10106981902E+03  0.65676088740E+03  0.12202982516E+04  0.13894883247E+04  0.10100000352E+00 0. -1.
</event>
<event>
 5   0  0.3636435E-06  0.2100847E+04  0.7818609E-02  0.8560870E-01
       -2   -1    0    0    0  501  0.00000000000E+00  0.00000000000E+00  0.49680496627E+03  0.49680496627E+03  0.25500000920E-02 0.  1.
        2   -1    0    0  501    0  0.00000000000E+00  0.00000000000E+00 -0.22209716420E+04  0.22209716420E+04  0.25500000920E-02 0. -1.
    10030    2    1    2    0    0  0.00000000000E+00  0.00000000000E+00 -0.17241666757E+04  0.27177766082E+04  0.21008472021E+04 0.  0.
        4    1    3    3  502    0  0.52133978118E+03  0.58925331022E+03 -0.17624294140E+04  0.19300709011E+04  0.12699999809E+01 0. -1.
       -4    1    3    3    0  502 -0.52133978118E+03 -0.58925331022E+03  0.38262738270E+02  0.78770570716E+03  0.12699999809E+01 0.  1.
</event>
<event>
 5   0  0.3547583E-06  0.2101552E+04  0.7818609E-02  0.8560560E-01
        2   -1    0    0  501    0  0.00000000000E+00  0.00000000000E+00  0.12309652267E+04  0.12309652267E+04  0.25500000920E-02 0.  1.
       -2   -1    0    0    0  501  0.00000000000E+00  0.00000000000E+00 -0.89696276663E+03  0.89696276663E+03  0.25500000920E-02 0. -1.
    10030    2    1    2    0    0  0.00000000000E+00  0.00000000000E+00  0.33400246007E+03  0.21279279933E+04  0.21015517842E+04 0.  0.
        2    1    3    3  502    0 -0.13549619293E+03 -0.28413892969E+03 -0.84809590827E+03  0.90463297491E+03  0.25500000920E-02 0. -1.
       -2    1    3    3    0  502  0.13549619293E+03  0.28413892969E+03  0.11820983683E+04  0.12232950184E+04  0.25500000920E-02 0.  1.
</event>
<event>
 5   0  0.3547583E-06  0.2099999E+04  0.7818609E-02  0.8561244E-01
        2   -1    0    0  501    0  0.00000000000E+00  0.00000000000E+00  0.12833515001E+04  0.12833515001E+04  0.25500000920E-02 0.  1.
       -2   -1    0    0    0  501  0.00000000000E+00  0.00000000000E+00 -0.85907785114E+03  0.85907785114E+03  0.25500000920E-02 0. -1.
    10030    2    1    2    0    0  0.00000000000E+00  0.00000000000E+00  0.42427364897E+03  0.21424293512E+04  0.20999989038E+04 0.  0.
        2    1    3    3  502    0  0.65606159842E+03 -0.27567231409E+03  0.99980299812E+03  0.12271992832E+04  0.25500000920E-02 0.  1.
       -2    1    3    3    0  502 -0.65606159842E+03  0.27567231409E+03 -0.57552934916E+03  0.91523006803E+03  0.25500000920E-02 0. -1.
</event>
<event>
 5   0  0.3547583E-06  0.2101932E+04  0.7818609E-02  0.8560393E-01
       -2   -1    0    0    0  501  0.00000000000E+00  0.00000000000E+00  0.49094147945E+03  0.49094147945E+03  0.25500000920E-02 0. -1.
        2   -1    0    0  501    0  0.00000000000E+00  0.00000000000E+00 -0.22498182571E+04  0.22498182571E+04  0.25500000920E-02 0.  1.
    10030    2    1    2    0    0  0.00000000000E+00  0.00000000000E+00 -0.17588767777E+04  0.27407597366E+04  0.21019315913E+04 0.  0.
        2    1    3    3  502    0  0.44401488975E+03  0.89457688332E+03 -0.45269026849E+03  0.10965151625E+04  0.25500000920E-02 0. -1.
       -2    1    3    3    0  502 -0.44401488975E+03 -0.89457688332E+03 -0.13061865092E+04  0.16442445740E+04  0.25500000920E-02 0.  1.
</event>
<event>
 5   0  0.3574927E-06  0.2098670E+04  0.7818609E-02  0.8561829E-01
        2   -1    0    0  501    0  0.00000000000E+00  0.00000000000E+00  0.28084601536E+04  0.28084601536E+04  0.25500000920E-02 0.  1.
       -2   -1    0    0    0  501  0.00000000000E+00  0.00000000000E+00 -0.39206679702E+03  0.39206679703E+03  0.25500000920E-02 0. -1.
    10030    2    1    2    0    0  0.00000000000E+00  0.00000000000E+00  0.24163933566E+04  0.32005269507E+04  0.20986700332E+04 0.  0.
        3    1    3    3  502    0 -0.10063830087E+04 -0.11659354268E+03  0.16250149917E+04  0.19149607171E+04  0.10100000352E+00 0.  1.
       -3    1    3    3    0  502  0.10063830087E+04  0.11659354268E+03  0.79137836490E+03  0.12855662336E+04  0.10100000352E+00 0. -1.
</event>
<event>
 5   0  0.3636435E-06  0.2100833E+04  0.7818609E-02  0.8560876E-01
        2   -1    0    0  501    0  0.00000000000E+00  0.00000000000E+00  0.74795005911E+03  0.74795005911E+03  0.25500000920E-02 0. -1.
       -2   -1    0    0    0  501  0.00000000000E+00  0.00000000000E+00 -0.14751990298E+04  0.14751990298E+04  0.25500000920E-02 0.  1.
    10030    2    1    2    0    0  0.00000000000E+00  0.00000000000E+00 -0.72724897064E+03  0.22231490889E+04  0.21008333599E+04 0.  0.
        4    1    3    3  502    0  0.22858037223E+03  0.28502662376E+02  0.72089207587E+03  0.75680141800E+03  0.12699999809E+01 0. -1.
       -4    1    3    3    0  502 -0.22858037223E+03 -0.28502662376E+02 -0.14481410465E+04  0.14663476709E+04  0.12699999809E+01 0.  1.
</event>
<event>
 5   0  0.3480134E-06  0.2100095E+04  0.7818609E-02  0.8561201E-01
       -2   -1    0    0    0  501  0.00000000000E+00  0.00000000000E+00  0.49513994275E+03  0.49513994275E+03  0.25500000920E-02 0.  1.
        2   -1    0    0  501    0  0.00000000000E+00  0.00000000000E+00 -0.22268457124E+04  0.22268457124E+04  0.25500000920E-02 0. -1.
    10030    2    1    2    0    0  0.00000000000E+00  0.00000000000E+00 -0.17317057697E+04  0.27219856552E+04  0.21000954822E+04 0.  0.
        1    1    3    3  502    0 -0.14859355532E+03 -0.36070708023E+03 -0.21294319760E+04  0.21648718629E+04  0.50400001928E-02 0. -1.
       -1    1    3    3    0  502  0.14859355532E+03  0.36070708023E+03  0.39772620627E+03  0.55711379232E+03  0.50400001928E-02 0.  1.
</event>
<event>
 5   0  0.1615098E-06  0.2100358E+04  0.7818609E-02  0.8561086E-01
       -1   -1    0    0    0  501  0.00000000000E+00  0.00000000000E+00  0.16328137042E+04  0.16328137042E+04  0.50400001928E-02 0.  1.
        1   -1    0    0  501    0  0.00000000000E+00  0.00000000000E+00 -0.67544476184E+03  0.67544476186E+03  0.50400001928E-02 0. -1.
    10030    2    1    2    0    0  0.00000000000E+00  0.00000000000E+00  0.95736894237E+03  0.23082584661E+04  0.21003575539E+04 0.  0.
        1    1    3    3  502    0  0.84179732232E+03 -0.19320656847E+03 -0.17788253013E+03  0.88181273778E+03  0.50400001928E-02 0. -1.
       -1    1    3    3    0  502 -0.84179732232E+03  0.19320656847E+03  0.11352514725E+04  0.14264457283E+04  0.50400001928E-02 0.  1.
</event>
<event>
 5   0  0.1653260E-06  0.2099771E+04  0.7818609E-02  0.8561344E-01
        1   -1    0    0  501    0  0.00000000000E+00  0.00000000000E+00  0.14703557143E+04  0.14703557143E+04  0.50400001928E-02 0.  1.
       -1   -1    0    0    0  501  0.00000000000E+00  0.00000000000E+00 -0.74965475112E+03  0.74965475113E+03  0.50400001928E-02 0. -1.
    10030    2    1    2    0    0  0.00000000000E+00  0.00000000000E+00  0.72070096318E+03  0.22200104654E+04  0.20997706037E+04 0.  0.
        3    1    3    3  502    0 -0.60276762942E+03  0.78931725957E+03  0.40147989230E+00  0.99315191321E+03  0.10100000352E+00 0. -1.
       -3    1    3    3    0  502  0.60276762942E+03 -0.78931725957E+03  0.72029948329E+03  0.12268585522E+04  0.10100000352E+00 0.  1.
</event>
<event>
 5   0  0.1615098E-06  0.2100039E+04  0.7818609E-02  0.8561226E-01
       -1   -1    0    0    0  501  0.00000000000E+00  0.00000000000E+00  0.86980130201E+03  0.86980130202E+03  0.50400001928E-02 0. -1.
        1   -1    0    0  501    0  0.00000000000E+00  0.00000000000E+00 -0.12675782498E+04  0.12675782498E+04  0.50400001928E-02 0.  1.
    10030    2    1    2    0    0  0.00000000000E+00  0.00000000000E+00 -0.39777694780E+03  0.21373795518E+04  0.21000392493E+04 0.  0.
        1    1    3    3  502    0 -0.64604601740E+03  0.82518660432E+03 -0.26510544646E+03  0.10810130833E+04  0.50400001928E-02 0. -1.
       -1    1    3    3    0  502  0.64604601740E+03 -0.82518660432E+03 -0.13267150134E+03  0.10563664685E+04  0.50400001928E-02 0.  1.
</event>
<event>
 5   0  0.3636435E-06  0.2099924E+04  0.7818609E-02  0.8561277E-01
        2   -1    0    0  501    0  0.00000000000E+00  0.00000000000E+00  0.55352628571E+03  0.55352628572E+03  0.25500000920E-02 0. -1.
       -2   -1    0    0    0  501  0.00000000000E+00  0.00000000000E+00 -0.19916302696E+04  0.19916302696E+04  0.25500000920E-02 0.  1.
    10030    2    1    2    0    0  0.00000000000E+00  0.00000000000E+00 -0.14381039839E+04  0.25451565554E+04  0.20999235278E+04 0.  0.
        4    1    3    3  502    0 -0.42090506061E+02 -0.12385837040E+03 -0.19817137903E+04  0.19860271061E+04  0.12699999809E+01 0.  1.
       -4    1    3    3    0  502  0.42090506061E+02  0.12385837040E+03  0.54360980634E+03  0.55912944929E+03  0.12699999809E+01 0. -1.
</event>
<event>
 5   0  0.3547583E-06  0.2100288E+04  0.7818609E-02  0.8561116E-01
       -2   -1    0    0    0  501  0.00000000000E+00  0.00000000000E+00  0.11531615951E+04  0.11531615951E+04  0.25500000920E-02 0. -1.
        2   -1    0    0  501    0  0.00000000000E+00  0.00000000000E+00 -0.95632977588E+03  0.95632977588E+03  0.25500000920E-02 0.  1.
    10030    2    1    2    0    0  0.00000000000E+00  0.00000000000E+00  0.19683181922E+03  0.21094913710E+04  0.21002883324E+04 0.  0.
        2    1    3    3  502    0 -0.38403856409E+03 -0.97573790871E+03  0.15569812546E+03  0.10600905582E+04  0.25500000920E-02 0. -1.
       -2    1    3    3    0  502  0.38403856409E+03  0.97573790871E+03  0.41133693763E+02  0.10494008128E+04  0.25500000920E-02 0.  1.
</event>
<event>
 5   0  0.3547583E-06  0.2098410E+04  0.7818609E-02  0.8561944E-01
       -2   -1    0    0    0  501  0.00000000000E+00  0.00000000000E+00  0.60176134950E+03  0.60176134951E+03  0.25500000920E-02 0.  1.
        2   -1    0    0  501    0  0.00000000000E+00  0.00000000000E+00 -0.18293479787E+04  0.18293479787E+04  0.25500000920E-02 0. -1.
    10030    2    1    2    0    0  0.00000000000E+00  0.00000000000E+00 -0.12275866292E+04  0.24311093282E+04  0.20984097868E+04 0.  0.
        2    1    3    3  502    0 -0.45188946580E+03 -0.91890959187E+03 -0.34901498648E+03  0.10818550680E+04  0.25500000920E-02 0. -1.
       -2    1    3    3    0  502  0.45188946580E+03  0.91890959187E+03 -0.87857164271E+03  0.13492542602E+04  0.25500000920E-02 0.  1.
</event>
<event>
 5   0  0.3480134E-06  0.2100760E+04  0.7818609E-02  0.8560908E-01
       -2   -1    0    0    0  501  0.00000000000E+00  0.00000000000E+00  0.78324632967E+03  0.78324632967E+03  0.25500000920E-02 0.  1.
        2   -1    0    0  501    0  0.00000000000E+00  0.00000000000E+00 -0.14086228364E+04  0.14086228364E+04  0.25500000920E-02 0. -1.
    10030    2    1    2    0    0  0.00000000000E+00  0.00000000000E+00 -0.62537650677E+03  0.21918691661E+04  0.21007604971E+04 0.  0.
        1    1    3    3  502    0  0.39695950870E+03 -0.30701388983E+03  0.65007898489E+03  0.82124117452E+03  0.50400001928E-02 0.  1.
       -1    1    3    3    0  502 -0.39695950870E+03  0.30701388983E+03 -0.12754554917E+04  0.13706279916E+04  0.50400001928E-02 0. -1.
</event>
<event>
 5   0  0.3705828E-06  0.2101048E+04  0.7818609E-02  0.8560782E-01
        2   -1    0    0  501    0  0.00000000000E+00  0.00000000000E+00  0.10135165931E+04  0.10135165931E+04  0.25500000920E-02 0.  1.
       -2   -1    0    0    0  501  0.00000000000E+00  0.00000000000E+00 -0.10888823013E+04  0.10888823013E+04  0.25500000920E-02 0. -1.
    10030    2    1    2    0    0  0.00000000000E+00  0.00000000000E+00 -0.75365708264E+02  0.21023988944E+04  0.21010476247E+04 0.  0.
        5    1    3    3  502    0 -0.31081647048E+03  0.27826039934E+03  0.92706504052E+03  0.10166156636E+04  0.46999998093E+01 0.  1.
       -5    1    3    3    0  502  0.31081647048E+03 -0.27826039934E+03 -0.10024307488E+04  0.10857832308E+04  0.46999998093E+01 0. -1.
</event>
<event>
 5   0  0.1579820E-06  0.2113108E+04  0.7818609E-02  0.8555491E-01
       -1   -1    0    0    0  501  0.00000000000E+00  0.00000000000E+00  0.16838023927E+04  0.16838023927E+04  0.50400001928E-02 0. -1.
        1   -1    0    0  501    0  0.00000000000E+00  0.00000000000E+00 -0.66296768868E+03  0.66296768870E+03  0.50400001928E-02 0.  1.
    10030    2    1    2    0    0  0.00000000000E+00  0.00000000000E+00  0.10208347040E+04  0.23467700814E+04  0.21131082135E+04 0.  0.
        2    1    3    3  502    0  0.49175387406E+03  0.40197131894E+03  0.14481180934E+04  0.15812807551E+04  0.25500000920E-02 0. -1.
       -2    1    3    3    0  502 -0.49175387406E+03 -0.40197131894E+03 -0.42728338938E+03  0.76548932635E+03  0.25500000920E-02 0.  1.
</event>
<event>
 5   0  0.1653260E-06  0.2100306E+04  0.7818609E-02  0.8561109E-01
        1   -1    0    0  501    0  0.00000000000E+00  0.00000000000E+00  0.13315359927E+04  0.13315359927E+04  0.50400001928E-02 0. -1.
       -1   -1    0    0    0  501  0.00000000000E+00  0.00000000000E+00 -0.82823212234E+03  0.82823212236E+03  0.50400001928E-02 0.  1.
    10030    2    1    2    0    0  0.00000000000E+00  0.00000000000E+00  0.50330387036E+03  0.21597681151E+04  0.21003055789E+04 0.  0.
        3    1    3    3  502    0 -0.13235228361E+03  0.85915988827E+03 -0.35422161317E+03  0.93869366783E+03  0.10100000352E+00 0.  1.
       -3    1    3    3    0  502  0.13235228361E+03 -0.85915988827E+03  0.85752548353E+03  0.12210744472E+04  0.10100000352E+00 0. -1.
</event>
<event>
 5   0  0.1615098E-06  0.2099803E+04  0.7818609E-02  0.8561330E-01
        1   -1    0    0  501    0  0.00000000000E+00  0.00000000000E+00  0.71809539388E+03  0.71809539390E+03  0.50400001928E-02 0.  1.
       -1   -1    0    0    0  501  0.00000000000E+00  0.00000000000E+00 -0.15350230082E+04  0.15350230082E+04  0.50400001928E-02 0. -1.
    10030    2    1    2    0    0  0.00000000000E+00  0.00000000000E+00 -0.81692761428E+03  0.22531184021E+04  0.20998028019E+04 0.  0.
        1    1    3    3  502    0  0.19797004267E+03  0.10304191038E+04 -0.36922485497E+03  0.11123320821E+04  0.50400001928E-02 0. -1.
       -1    1    3    3    0  502 -0.19797004267E+03 -0.10304191038E+04 -0.44770275931E+03  0.11407863200E+04  0.50400001928E-02 0.  1.
</event>
<event>
 5   0  0.1579820E-06  0.2100830E+04  0.7818609E-02  0.8560878E-01
        1   -1    0    0  501    0  0.00000000000E+00  0.00000000000E+00  0.13044565968E+04  0.13044565969E+04  0.50400001928E-02 0. -1.
       -1   -1    0    0    0  501  0.00000000000E+00  0.00000000000E+00 -0.84584762306E+03  0.84584762307E+03  0.50400001928E-02 0.  1.
    10030    2    1    2    0    0  0.00000000000E+00  0.00000000000E+00  0.45860897379E+03  0.21503042199E+04  0.21008298473E+04 0.  0.
        2    1    3    3  502    0 -0.56118674117E+03  0.61461169156E+03  0.88525020538E+03  0.12150497998E+04  0.25500000920E-02 0. -1.
       -2    1    3    3    0  502  0.56118674117E+03 -0.61461169156E+03 -0.42664123159E+03  0.93525442013E+03  0.25500000920E-02 0.  1.
</event>
<event>
 5   0  0.3574927E-06  0.2097848E+04  0.7818609E-02  0.8562192E-01
       -2   -1    0    0    0  501  0.00000000000E+00  0.00000000000E+00  0.12056712742E+04  0.12056712742E+04  0.25500000920E-02 0. -1.
        2   -1    0    0  501    0  0.00000000000E+00  0.00000000000E+00 -0.91255511009E+03  0.91255511009E+03  0.25500000920E-02 0.  1.
    10030    2    1    2    0    0  0.00000000000E+00  0.00000000000E+00  0.29311616410E+03  0.21182263843E+04  0.20978479281E+04 0.  0.
        3    1    3    3  502    0 -0.30961681189E+03 -0.40556907698E+03 -0.77880091978E+03  0.93106376218E+03  0.10100000352E+00 0.  1.
       -3    1    3    3    0  502  0.30961681189E+03  0.40556907698E+03  0.10719170839E+04  0.11871626221E+04  0.10100000352E+00 0. -1.
</event>
<event>
 5   0  0.1579820E-06  0.2097416E+04  0.7818609E-02  0.8562383E-01
        1   -1    0    0  501    0  0.00000000000E+00  0.00000000000E+00  0.97494629296E+03  0.97494629297E+03  0.50400001928E-02 0.  1.
       -1   -1    0    0    0  501  0.00000000000E+00  0.00000000000E+00 -0.11280500107E+04  0.11280500107E+04  0.50400001928E-02 0. -1.
    10030    2    1    2    0    0  0.00000000000E+00  0.00000000000E+00 -0.15310371771E+03  0.21029963036E+04  0.20974157205E+04 0.  0.
        2    1    3    3  502    0 -0.97146983402E+03 -0.75554663757E+02 -0.46530247060E+03  0.10798002291E+04  0.25500000920E-02 0. -1.
       -2    1    3    3    0  502  0.97146983402E+03  0.75554663757E+02  0.31219875290E+03  0.10231960745E+04  0.25500000920E-02 0.  1.
</event>
<event>
 5   0  0.3705828E-06  0.2100555E+04  0.7818609E-02  0.8560999E-01
       -2   -1    0    0    0  501  0.00000000000E+00  0.00000000000E+00  0.82905718966E+03  0.82905718966E+03  0.25500000920E-02 0.  1.
        2   -1    0    0  501    0  0.00000000000E+00  0.00000000000E+00 -0.13305273569E+04  0.13305273569E+04  0.25500000920E-02 0. -1.
    10030    2    1    2    0    0  0.00000000000E+00  0.00000000000E+00 -0.50147016723E+03  0.21595845466E+04  0.21005554230E+04 0.  0.
        5    1    3    3  502    0  0.20085523031E+03 -0.91645844131E+03  0.23457059844E+03  0.96710100498E+03  0.46999998093E+01 0.  1.
       -5    1    3    3    0  502 -0.20085523031E+03  0.91645844131E+03 -0.73604076567E+03  0.11924835416E+04  0.46999998093E+01 0. -1.
</event>
<event>
 5   0  0.3480134E-06  0.2101128E+04  0.7818609E-02  0.8560747E-01
       -2   -1    0    0    0  501  0.00000000000E+00  0.00000000000E+00  0.94061283855E+03  0.94061283855E+03  0.25500000920E-02 0. -1.
        2   -1    0    0  501    0  0.00000000000E+00  0.00000000000E+00 -0.11733673700E+04  0.11733673700E+04  0.25500000920E-02 0.  1.
    10030    2    1    2    0    0  0.00000000000E+00  0.00000000000E+00 -0.23275453144E+03  0.21139802085E+04  0.21011277092E+04 0.  0.
        1    1    3    3  502    0  0.76184994003E+03  0.71053027143E+02 -0.84065607979E+03  0.11367350211E+04  0.50400001928E-02 0.  1.
       -1    1    3    3    0  502 -0.76184994003E+03 -0.71053027143E+02  0.60790154835E+03  0.97724518740E+03  0.50400001928E-02 0. -1.
</event>
<event>
 5   0  0.1590067E-06  0.2100859E+04  0.7818609E-02  0.8560865E-01
       -1   -1    0    0    0  501  0.00000000000E+00  0.00000000000E+00  0.56072420988E+03  0.56072420990E+03  0.50400001928E-02 0.  1.
        1   -1    0    0  501    0  0.00000000000E+00  0.00000000000E+00 -0.19678166830E+04  0.19678166830E+04  0.50400001928E-02 0. -1.
    10030    2    1    2    0    0  0.00000000000E+00  0.00000000000E+00 -0.14070924731E+04  0.25285408929E+04  0.21008593049E+04 0.  0.
        5    1    3    3  502    0 -0.20755409469E+03  0.84667319524E+03  0.17999903207E+01  0.87175657825E+03  0.46999998093E+01 0.  1.
       -5    1    3    3    0  502  0.20755409469E+03 -0.84667319524E+03 -0.14088924634E+04  0.16567843146E+04  0.46999998093E+01 0. -1.
</event>
<event>
 5   0  0.1653260E-06  0.2099949E+04  0.7818609E-02  0.8561266E-01
       -1   -1    0    0    0  501  0.00000000000E+00  0.00000000000E+00  0.86934792772E+03  0.86934792774E+03  0.50400001928E-02 0.  1.
        1   -1    0    0  501    0  0.00000000000E+00  0.00000000000E+00 -0.12681307176E+04  0.12681307176E+04  0.50400001928E-02 0. -1.
    10030    2    1    2    0    0  0.00000000000E+00  0.00000000000E+00 -0.39878278988E+03  0.21374786454E+04  0.20999493436E+04 0.  0.
        3    1    3    3  502    0 -0.69335128070E+03 -0.72383280464E+03 -0.51767263370E+03  0.11281200705E+04  0.10100000352E+00 0. -1.
       -3    1    3    3    0  502  0.69335128070E+03  0.72383280464E+03  0.11888984382E+03  0.10093585749E+04  0.10100000352E+00 0.  1.
</event>
<event>
 5   0  0.1615098E-06  0.2100825E+04  0.7818609E-02  0.8560880E-01
        1   -1    0    0  501    0  0.00000000000E+00  0.00000000000E+00  0.16534496694E+04  0.16534496694E+04  0.50400001928E-02 0. -1.
       -1   -1    0    0    0  501  0.00000000000E+00  0.00000000000E+00 -0.66731165949E+03  0.66731165951E+03  0.50400001928E-02 0.  1.
    10030    2    1    2    0    0  0.00000000000E+00  0.00000000000E+00  0.98613800987E+03  0.23207613289E+04  0.21008248311E+04 0.  0.
        1    1    3    3  502    0  0.55355354402E+03 -0.77240609173E+03  0.98751342078E+03  0.13704800082E+04  0.50400001928E-02 0. -1.
       -1    1    3    3    0  502 -0.55355354402E+03  0.77240609173E+03 -0.13754109027E+01  0.95028132068E+03  0.50400001928E-02 0.  1.
</event>
<event>
 5   0  0.1590067E-06  0.2098936E+04  0.7818609E-02  0.8561712E-01
        1   -1    0    0  501    0  0.00000000000E+00  0.00000000000E+00  0.23798633140E+04  0.23798633140E+04  0.50400001928E-02 0.  1.
       -1   -1    0    0    0  501  0.00000000000E+00  0.00000000000E+00 -0.46279259397E+03  0.46279259400E+03  0.50400001928E-02 0. -1.
    10030    2    1    2    0    0  0.00000000000E+00  0.00000000000E+00  0.19170707200E+04  0.28426559080E+04  0.20989360318E+04 0.  0.
        5    1    3    3  502    0 -0.74882027832E+03  0.13646958768E+02  0.19541700716E+04  0.20927782509E+04  0.46999998093E+01 0.  1.
       -5    1    3    3    0  502  0.74882027832E+03 -0.13646958768E+02 -0.37099351588E+02  0.74987765709E+03  0.46999998093E+01 0. -1.
</event>
<event>
 5   0  0.3547583E-06  0.2101033E+04  0.7818609E-02  0.8560788E-01
        2   -1    0    0  501    0  0.00000000000E+00  0.00000000000E+00  0.17137174101E+04  0.17137174101E+04  0.25500000920E-02 0. -1.
       -2   -1    0    0    0  501  0.00000000000E+00  0.00000000000E+00 -0.64397133424E+03  0.64397133425E+03  0.25500000920E-02 0.  1.
    10030    2    1    2    0    0  0.00000000000E+00  0.00000000000E+00  0.10697460759E+04  0.23576887443E+04  0.21010329718E+04 0.  0.
        2    1    3    3  502    0  0.90856078642E+03 -0.42951527810E+03  0.87822154341E+03  0.13346307190E+04  0.25500000920E-02 0. -1.
       -2    1    3    3    0  502 -0.90856078642E+03  0.42951527810E+03  0.19152453244E+03  0.10230580254E+04  0.25500000920E-02 0.  1.
</event>
<event>
 5   0  0.1579820E-06  0.2100220E+04  0.7818609E-02  0.8561146E-01
       -1   -1    0    0    0  501  0.00000000000E+00  0.00000000000E+00  0.50078879882E+03  0.50078879885E+03  0.50400001928E-02 0. -1.
        1   -1    0    0  501    0  0.00000000000E+00  0.00000000000E+00 -0.22019884897E+04  0.22019884897E+04  0.50400001928E-02 0.  1.
    10030    2    1    2    0    0  0.00000000000E+00  0.00000000000E+00 -0.17011996909E+04  0.27027772885E+04  0.21002201511E+04 0.  0.
        2    1    3    3  502    0 -0.23896534694E+03  0.54903924716E+02  0.46343493458E+03  0.52430031145E+03  0.25500000920E-02 0. -1.
       -2    1    3    3    0  502  0.23896534694E+03 -0.54903924716E+02 -0.21646346255E+04  0.21784769771E+04  0.25500000920E-02 0.  1.
</event>
<event>
 5   0  0.3705828E-06  0.2114070E+04  0.7818609E-02  0.8555071E-01
        2   -1    0    0  501    0  0.00000000000E+00  0.00000000000E+00  0.14232790496E+04  0.14232790496E+04  0.25500000920E-02 0.  1.
       -2   -1    0    0    0  501  0.00000000000E+00  0.00000000000E+00 -0.78503420190E+03  0.78503420190E+03  0.25500000920E-02 0. -1.
    10030    2    1    2    0    0  0.00000000000E+00  0.00000000000E+00  0.63824484772E+03  0.22083132515E+04  0.21140697555E+04 0.  0.
        5    1    3    3  502    0  0.16749215354E+03  0.62790481663E+03 -0.55169742495E+03  0.85247300188E+03  0.46999998093E+01 0. -1.
       -5    1    3    3    0  502 -0.16749215354E+03 -0.62790481663E+03  0.11899422727E+04  0.13558402496E+04  0.46999998093E+01 0.  1.
</event>
<event>
 5   0  0.1615098E-06  0.2097642E+04  0.7818609E-02  0.8562283E-01
        1   -1    0    0  501    0  0.00000000000E+00  0.00000000000E+00  0.10167002896E+04  0.10167002896E+04  0.50400001928E-02 0. -1.
       -1   -1    0    0    0  501  0.00000000000E+00  0.00000000000E+00 -0.10819561191E+04  0.10819561191E+04  0.50400001928E-02 0.  1.
    10030    2    1    2    0    0  0.00000000000E+00  0.00000000000E+00 -0.65255829529E+02  0.20986564087E+04  0.20976416277E+04 0.  0.
        1    1    3    3  502    0 -0.13309184606E+03 -0.26311743457E+03 -0.10396340288E+04  0.10806401518E+04  0.50400001928E-02 0.  1.
       -1    1    3    3    0  502  0.13309184606E+03  0.26311743457E+03  0.97437819929E+03  0.10180162568E+04  0.50400001928E-02 0. -1.
</event>
<event>
 5   0  0.3574927E-06  0.2100468E+04  0.7818609E-02  0.8561037E-01
        2   -1    0    0  501    0  0.00000000000E+00  0.00000000000E+00  0.19769946331E+04  0.19769946332E+04  0.25500000920E-02 0. -1.
       -2   -1    0    0    0  501  0.00000000000E+00  0.00000000000E+00 -0.55791318104E+03  0.55791318105E+03  0.25500000920E-02 0.  1.
    10030    2    1    2    0    0  0.00000000000E+00  0.00000000000E+00  0.14190814521E+04  0.25349078142E+04  0.21004679142E+04 0.  0.
        3    1    3    3  502    0  0.22576705107E+03 -0.10239626687E+04  0.78115209621E+03  0.13075430837E+04  0.10100000352E+00 0.  1.
       -3    1    3    3    0  502 -0.22576705107E+03  0.10239626687E+04  0.63792935589E+03  0.12273647305E+04  0.10100000352E+00 0. -1.
</event>
<event>
 5   0  0.3705828E-06  0.2099617E+04  0.7818609E-02  0.8561412E-01
       -2   -1    0    0    0  501  0.00000000000E+00  0.00000000000E+00  0.33196754111E+03  0.33196754112E+03  0.25500000920E-02 0.  1.
        2   -1    0    0  501    0  0.00000000000E+00  0.00000000000E+00 -0.33198959382E+04  0.33198959382E+04  0.25500000920E-02 0. -1.
    10030    2    1    2    0    0  0.00000000000E+00  0.00000000000E+00 -0.29879283971E+04  0.36518634793E+04  0.20996168139E+04 0.  0.
        5    1    3    3  502    0 -0.67136136138E+03 -0.10701863449E+03 -0.10263669250E+03  0.68755759492E+03  0.46999998093E+01 0.  1.
       -5    1    3    3    0  502  0.67136136138E+03  0.10701863449E+03 -0.28852917046E+04  0.29643058844E+04  0.46999998093E+01 0. -1.
</event>
<event>
 5   0  0.3705828E-06  0.2099818E+04  0.7818609E-02  0.8561323E-01
       -2   -1    0    0    0  501  0.00000000000E+00  0.00000000000E+00  0.90310202827E+03  0.90310202827E+03  0.25500000920E-02 0.  1.
        2   -1    0    0  501    0  0.00000000000E+00  0.00000000000E+00 -0.12205810613E+04  0.12205810613E+04  0.25500000920E-02 0. -1.
    10030    2    1    2    0    0  0.00000000000E+00  0.00000000000E+00 -0.31747903299E+03  0.21236830895E+04  0.20998183084E+04 0.  0.
        5    1    3    3  502    0 -0.76488307085E+03  0.45468760967E+03 -0.72229793056E+03  0.11460904523E+04  0.46999998093E+01 0. -1.
       -5    1    3    3    0  502  0.76488307085E+03 -0.45468760967E+03  0.40481889757E+03  0.97759263719E+03  0.46999998093E+01 0.  1.
</event>
<event>
 5   0  0.3574927E-06  0.2100996E+04  0.7818609E-02  0.8560805E-01
       -2   -1    0    0    0  501  0.00000000000E+00  0.00000000000E+00  0.12660499366E+04  0.12660499366E+04  0.25500000920E-02 0.  1.
        2   -1    0    0  501    0  0.00000000000E+00  0.00000000000E+00 -0.87164486275E+03  0.87164486275E+03  0.25500000920E-02 0. -1.
    10030    2    1    2    0    0  0.00000000000E+00  0.00000000000E+00  0.39440507388E+03  0.21376947994E+04  0.21009958812E+04 0.  0.
        3    1    3    3  502    0  0.30529660318E+03 -0.90445134500E+03 -0.24898639518E+03  0.98652546169E+03  0.10100000352E+00 0. -1.
       -3    1    3    3    0  502 -0.30529660318E+03  0.90445134500E+03  0.64339146906E+03  0.11511693377E+04  0.10100000352E+00 0.  1.
</event>
<event>
 5   0  0.1615098E-06  0.2100849E+04  0.7818609E-02  0.8560870E-01
       -1   -1    0    0    0  501  0.00000000000E+00  0.00000000000E+00  0.64747252551E+03  0.64747252553E+03  0.50400001928E-02 0.  1.
        1   -1    0    0  501    0  0.00000000000E+00  0.00000000000E+00 -0.17041517179E+04  0.17041517179E+04  0.50400001928E-02 0. -1.
    10030    2    1    2    0    0  0.00000000000E+00  0.00000000000E+00 -0.10566791924E+04  0.23516242434E+04  0.21008487967E+04 0.  0.
        1    1    3    3  502    0  0.61021431275E+03  0.13468305636E+03  0.41677508767E+03  0.75113414706E+03  0.50400001928E-02 0. -1.
       -1    1    3    3    0  502 -0.61021431275E+03 -0.13468305636E+03 -0.14734542800E+04  0.16004900964E+04  0.50400001928E-02 0.  1.
</event>
<event>
 5   0  0.1646510E-06  0.2100111E+04  0.7818609E-02  0.8561195E-01
       -1   -1    0    0    0  501  0.00000000000E+00  0.00000000000E+00  0.10014829121E+04  0.10014829121E+04  0.50400001928E-02 0. -1.
        1   -1    0    0  501    0  0.00000000000E+00  0.00000000000E+00 -0.11009835196E+04  0.11009835197E+04  0.50400001928E-02 0.  1.
    10030    2    1    2    0    0  0.00000000000E+00  0.00000000000E+00 -0.99500607527E+02  0.21024664318E+04  0.21001106461E+04 0.  0.
        4    1    3    3  502    0  0.48898689921E+03 -0.65203707690E+03  0.61307548373E+03  0.10198645493E+04  0.12699999809E+01 0. -1.
       -4    1    3    3    0  502 -0.48898689921E+03  0.65203707690E+03 -0.71257609126E+03  0.10826018825E+04  0.12699999809E+01 0.  1.
</event>
<event>
 5   0  0.1590067E-06  0.2101019E+04  0.7818609E-02  0.8560795E-01
       -1   -1    0    0    0  501  0.00000000000E+00  0.00000000000E+00  0.56817053080E+03  0.56817053082E+03  0.50400001928E-02 0. -1.
        1   -1    0    0  501    0  0.00000000000E+00  0.00000000000E+00 -0.19423212884E+04  0.19423212884E+04  0.50400001928E-02 0.  1.
    10030    2    1    2    0    0  0.00000000000E+00  0.00000000000E+00 -0.13741507576E+04  0.25104918193E+04  0.21010185315E+04 0.  0.
        5    1    3    3  502    0 -0.24303745216E+03  0.42572159763E+03 -0.17972597120E+04  0.18629199243E+04  0.46999998093E+01 0.  1.
       -5    1    3    3    0  502  0.24303745216E+03 -0.42572159763E+03  0.42310895440E+03  0.64757189496E+03  0.46999998093E+01 0. -1.
</event>
<event>
 5   0  0.3547583E-06  0.2100403E+04  0.7818609E-02  0.8561066E-01
        2   -1    0    0  501    0  0.00000000000E+00  0.00000000000E+00  0.15235204563E+04  0.15235204563E+04  0.25500000920E-02 0.  1.
       -2   -1    0    0    0  501  0.00000000000E+00  0.00000000000E+00 -0.72393045018E+03  0.72393045018E+03  0.25500000920E-02 0. -1.
    10030    2    1    2    0    0  0.00000000000E+00  0.00000000000E+00  0.79959000607E+03  0.22474509064E+04  0.21004026754E+04 0.  0.
        2    1    3    3  502    0 -0.80439031831E+03  0.22731786740E+03  0.10800767876E+04  0.13657536616E+04  0.25500000920E-02 0.  1.
       -2    1    3    3    0  502  0.80439031831E+03 -0.22731786740E+03 -0.28048678148E+03  0.88169724488E+03  0.25500000920E-02 0. -1.
</event>
<event>
 5   0  0.1653260E-06  0.2098848E+04  0.7818609E-02  0.8561751E-01
        1   -1    0    0  501    0  0.00000000000E+00  0.00000000000E+00  0.18846500882E+04  0.18846500882E+04  0.50400001928E-02 0.  1.
       -1   -1    0    0    0  501  0.00000000000E+00  0.00000000000E+00 -0.58434768895E+03  0.58434768897E+03  0.50400001928E-02 0. -1.
    10030    2    1    2    0    0  0.00000000000E+00  0.00000000000E+00  0.13003023992E+04  0.24689977771E+04  0.20988481827E+04 0.  0.
        3    1    3    3  502    0  0.28726155121E+03 -0.77030506386E+03  0.14174055272E+04  0.16385748469E+04  0.10100000352E+00 0.  1.
       -3    1    3    3    0  502 -0.28726155121E+03  0.77030506386E+03 -0.11710312802E+03  0.83042293020E+03  0.10100000352E+00 0. -1.
</event>
<event>
 5   0  0.1646510E-06  0.2100325E+04  0.7818609E-02  0.8561100E-01
       -1   -1    0    0    0  501  0.00000000000E+00  0.00000000000E+00  0.73347366837E+03  0.73347366839E+03  0.50400001928E-02 0. -1.
        1   -1    0    0  501    0  0.00000000000E+00  0.00000000000E+00 -0.15035872395E+04  0.15035872395E+04  0.50400001928E-02 0.  1.
    10030    2    1    2    0    0  0.00000000000E+00  0.00000000000E+00 -0.77011357111E+03  0.22370609079E+04  0.21003253541E+04 0.  0.
        4    1    3    3  502    0 -0.10396179474E+04 -0.39697677970E+02 -0.23271124225E+03  0.10660851361E+04  0.12699999809E+01 0.  1.
       -4    1    3    3    0  502  0.10396179474E+04  0.39697677970E+02 -0.53740232886E+03  0.11709757718E+04  0.12699999809E+01 0. -1.
</event>
<event>
 5   0  0.3636435E-06  0.2099858E+04  0.7818609E-02  0.8561306E-01
       -2   -1    0    0    0  501  0.00000000000E+00  0.00000000000E+00  0.13214614947E+04  0.13214614947E+04  0.25500000920E-02 0. -1.
        2   -1    0    0  501    0  0.00000000000E+00  0.00000000000E+00 -0.83419086363E+03  0.83419086364E+03  0.25500000920E-02 0.  1.
    10030    2    1    2    0    0  0.00000000000E+00  0.00000000000E+00  0.48727063112E+03  0.21556523584E+04  0.20998581910E+04 0.  0.
        4    1    3    3  502    0  0.10141918937E+04 -0.18269871211E+03  0.37334302694E+02  0.10311932310E+04  0.12699999809E+01 0.  1.
       -4    1    3    3    0  502 -0.10141918937E+04  0.18269871211E+03  0.44993632842E+03  0.11244591274E+04  0.12699999809E+01 0. -1.
</event>
<event>
 5   0  0.1646510E-06  0.2099046E+04  0.7818609E-02  0.8561664E-01
        1   -1    0    0  501    0  0.00000000000E+00  0.00000000000E+00  0.15982163992E+04  0.15982163992E+04  0.50400001928E-02 0.  1.
       -1   -1    0    0    0  501  0.00000000000E+00  0.00000000000E+00 -0.68920486094E+03  0.68920486096E+03  0.50400001928E-02 0. -1.
    10030    2    1    2    0    0  0.00000000000E+00  0.00000000000E+00  0.90901153825E+03  0.22874212602E+04  0.20990459844E+04 0.  0.
        4    1    3    3  502    0  0.22808217450E+03  0.93214456602E+03  0.91759144018E+03  0.13277389180E+04  0.12699999809E+01 0. -1.
       -4    1    3    3    0  502 -0.22808217450E+03 -0.93214456602E+03 -0.85799019241E+01  0.95968234219E+03  0.12699999809E+01 0.  1.
</event>
<event>
 5   0  0.1646510E-06  0.2100098E+04  0.7818609E-02  0.8561200E-01
        1   -1    0    0  501    0  0.00000000000E+00  0.00000000000E+00  0.72485622553E+03  0.72485622555E+03  0.50400001928E-02 0.  1.
       -1   -1    0    0    0  501  0.00000000000E+00  0.00000000000E+00 -0.15211330313E+04  0.15211330313E+04  0.50400001928E-02 0. -1.
    10030    2    1    2    0    0  0.00000000000E+00  0.00000000000E+00 -0.79627680577E+03  0.22459892569E+04  0.21000978526E+04 0.  0.
        4    1    3    3  502    0  0.67740135915E+03 -0.69931968879E+03 -0.81875454535E+03  0.12721168370E+04  0.12699999809E+01 0. -1.
       -4    1    3    3    0  502 -0.67740135915E+03  0.69931968879E+03  0.22477739588E+02  0.97387241987E+03  0.12699999809E+01 0.  1.
</event>
<event>
 5   0  0.1615098E-06  0.2100230E+04  0.7818609E-02  0.8561142E-01
       -1   -1    0    0    0  501  0.00000000000E+00  0.00000000000E+00  0.89775388305E+03  0.89775388306E+03  0.50400001928E-02 0.  1.
        1   -1    0    0  501    0  0.00000000000E+00  0.00000000000E+00 -0.12283344516E+04  0.12283344516E+04  0.50400001928E-02 0. -1.
    10030    2    1    2    0    0  0.00000000000E+00  0.00000000000E+00 -0.33058056859E+03  0.21260883347E+04  0.21002304861E+04 0.  0.
        1    1    3    3  502    0 -0.13741976632E+02 -0.17759180327E+03 -0.12129300816E+04  0.12259392617E+04  0.50400001928E-02 0. -1.
       -1    1    3    3    0  502  0.13741976632E+02  0.17759180327E+03  0.88234951301E+03  0.90014907301E+03  0.50400001928E-02 0.  1.
</event>
<event>
 5   0  0.3480134E-06  0.2100446E+04  0.7818609E-02  0.8561047E-01
        2   -1    0    0  501    0  0.00000000000E+00  0.00000000000E+00  0.17114549484E+04  0.17114549484E+04  0.25500000920E-02 0. -1.
       -2   -1    0    0    0  501  0.00000000000E+00  0.00000000000E+00 -0.64446242891E+03  0.64446242891E+03  0.25500000920E-02 0.  1.
    10030    2    1    2    0    0  0.00000000000E+00  0.00000000000E+00  0.10669925195E+04  0.23559173773E+04  0.21004460603E+04 0.  0.
        1    1    3    3  502    0 -0.73196257048E+03 -0.53105221189E+03  0.11324732698E+04  0.14492347509E+04  0.50400001928E-02 0. -1.
       -1    1    3    3    0  502  0.73196257048E+03  0.53105221189E+03 -0.65480750343E+02  0.90668262640E+03  0.50400001928E-02 0.  1.
</event>
<event>
 5   0  0.1653260E-06  0.2100020E+04  0.7818609E-02  0.8561235E-01
        1   -1    0    0  501    0  0.00000000000E+00  0.00000000000E+00  0.88260437243E+03  0.88260437245E+03  0.50400001928E-02 0. -1.
       -1   -1    0    0    0  501  0.00000000000E+00  0.00000000000E+00 -0.12491679992E+04  0.12491679992E+04  0.50400001928E-02 0.  1.
    10030    2    1    2    0    0  0.00000000000E+00  0.00000000000E+00 -0.36656362680E+03  0.21317723717E+04  0.21000201314E+04 0.  0.
        3    1    3    3  502    0 -0.10470324073E+04 -0.72704749534E+02 -0.21470605407E+03  0.10712896631E+04  0.10100000352E+00 0.  1.
       -3    1    3    3    0  502  0.10470324073E+04  0.72704749534E+02 -0.15185757272E+03  0.10604827085E+04  0.10100000352E+00 0. -1.
</event>
<event>
 5   0  0.3547583E-06  0.2100153E+04  0.7818609E-02  0.8561176E-01
        2   -1    0    0  501    0  0.00000000000E+00  0.00000000000E+00  0.27654233198E+04  0.27654233198E+04  0.25500000920E-02 0.  1.
       -2   -1    0    0    0  501  0.00000000000E+00  0.00000000000E+00 -0.39873133802E+03  0.39873133803E+03  0.25500000920E-02 0. -1.
    10030    2    1    2    0    0  0.00000000000E+00  0.00000000000E+00  0.23666919818E+04  0.31641546578E+04  0.21001532711E+04 0.  0.
        2    1    3    3  502    0 -0.44383003750E+03 -0.44331730689E+03 -0.85399229451E+02  0.63309427827E+03  0.25500000920E-02 0. -1.
       -2    1    3    3    0  502  0.44383003750E+03  0.44331730689E+03  0.24520912112E+04  0.25310603796E+04  0.25500000920E-02 0.  1.
</event>
<event>
 5   0  0.3574927E-06  0.2100488E+04  0.7818609E-02  0.8561028E-01
       -2   -1    0    0    0  501  0.00000000000E+00  0.00000000000E+00  0.85903047537E+03  0.85903047537E+03  0.25500000920E-02 0.  1.
        2   -1    0    0  501    0  0.00000000000E+00  0.00000000000E+00 -0.12840204990E+04  0.12840204990E+04  0.25500000920E-02 0. -1.
    10030    2    1    2    0    0  0.00000000000E+00  0.00000000000E+00 -0.42499002359E+03  0.21430509743E+04  0.21004882667E+04 0.  0.
        3    1    3    3  502    0  0.15405441094E+03 -0.40868636418E+03 -0.11869694879E+04  0.12647742412E+04  0.10100000352E+00 0. -1.
       -3    1    3    3    0  502 -0.15405441094E+03  0.40868636418E+03  0.76197946429E+03  0.87827673315E+03  0.10100000352E+00 0.  1.
</event>
<event>
 5   0  0.1257125E-06  0.2098438E+04  0.7818609E-02  0.8561932E-01
       -3   -1    0    0    0  501  0.00000000000E+00  0.00000000000E+00  0.10742096787E+04  0.10742096834E+04  0.10100000352E+00 0.  1.
        3   -1    0    0  501    0  0.00000000000E+00  0.00000000000E+00 -0.10248100814E+04  0.10248100864E+04  0.10100000352E+00 0. -1.
    10030    2    1    2    0    0  0.00000000000E+00  0.00000000000E+00  0.49399597282E+02  0.20990197698E+04  0.20984383893E+04 0.  0.
        5    1    3    3  502    0  0.52076351335E+03  0.67454445361E+03 -0.58754328060E+03  0.10351009870E+04  0.46999998093E+01 0. -1.
       -5    1    3    3    0  502 -0.52076351335E+03 -0.67454445361E+03  0.63694287788E+03  0.10639187828E+04  0.46999998093E+01 0.  1.
</event>
<event>
 5   0  0.1590067E-06  0.2099956E+04  0.7818609E-02  0.8561263E-01
        1   -1    0    0  501    0  0.00000000000E+00  0.00000000000E+00  0.13956904085E+04  0.13956904085E+04  0.50400001928E-02 0. -1.
       -1   -1    0    0    0  501  0.00000000000E+00  0.00000000000E+00 -0.78989880945E+03  0.78989880946E+03  0.50400001928E-02 0.  1.
    10030    2    1    2    0    0  0.00000000000E+00  0.00000000000E+00  0.60579159907E+03  0.21855892180E+04  0.20999563730E+04 0.  0.
        5    1    3    3  502    0  0.70595594988E+03  0.65213800757E+03 -0.13716312417E+03  0.97082109408E+03  0.46999998093E+01 0.  1.
       -5    1    3    3    0  502 -0.70595594988E+03 -0.65213800757E+03  0.74295472324E+03  0.12147681239E+04  0.46999998093E+01 0. -1.
</event>
<event>
 5   0  0.3636435E-06  0.2099386E+04  0.7818609E-02  0.8561514E-01
        2   -1    0    0  501    0  0.00000000000E+00  0.00000000000E+00  0.20736048950E+04  0.20736048950E+04  0.25500000920E-02 0.  1.
       -2   -1    0    0    0  501  0.00000000000E+00  0.00000000000E+00 -0.53137198409E+03  0.53137198409E+03  0.25500000920E-02 0. -1.
    10030    2    1    2    0    0  0.00000000000E+00  0.00000000000E+00  0.15422329109E+04  0.26049768791E+04  0.20993861458E+04 0.  0.
        4    1    3    3  502    0  0.47688180180E+03  0.18850575181E+03 -0.36537843605E+03  0.62964568273E+03  0.12699999809E+01 0. -1.
       -4    1    3    3    0  502 -0.47688180180E+03 -0.18850575181E+03  0.19076113470E+04  0.19753311964E+04  0.12699999809E+01 0.  1.
</event>
<event>
 5   0  0.3636435E-06  0.2100437E+04  0.7818609E-02  0.8561051E-01
        2   -1    0    0  501    0  0.00000000000E+00  0.00000000000E+00  0.98526356024E+03  0.98526356024E+03  0.25500000920E-02 0. -1.
       -2   -1    0    0    0  501  0.00000000000E+00  0.00000000000E+00 -0.11194554583E+04  0.11194554583E+04  0.25500000920E-02 0.  1.
    10030    2    1    2    0    0  0.00000000000E+00  0.00000000000E+00 -0.13419189811E+03  0.21047190186E+04  0.21004367835E+04 0.  0.
        4    1    3    3  502    0 -0.64546631799E+02 -0.71207555097E+03 -0.83791010208E+03  0.11015047935E+04  0.12699999809E+01 0.  1.
       -4    1    3    3    0  502  0.64546631799E+02  0.71207555097E+03  0.70371820398E+03  0.10032142251E+04  0.12699999809E+01 0. -1.
</event>
<event>
 5   0  0.3547583E-06  0.2102224E+04  0.7818609E-02  0.8560264E-01
        2   -1    0    0  501    0  0.00000000000E+00  0.00000000000E+00  0.19212035584E+04  0.19212035584E+04  0.25500000920E-02 0. -1.
       -2   -1    0    0    0  501  0.00000000000E+00  0.00000000000E+00 -0.57507537833E+03  0.57507537834E+03  0.25500000920E-02 0.  1.
    10030    2    1    2    0    0  0.00000000000E+00  0.00000000000E+00  0.13461281800E+04  0.24962789367E+04  0.21022244059E+04 0.  0.
        2    1    3    3  502    0 -0.79235065265E+03 -0.28006844066E+03  0.14227359883E+04  0.16524029716E+04  0.25500000920E-02 0. -1.
       -2    1    3    3    0  502  0.79235065265E+03  0.28006844066E+03 -0.76607808233E+02  0.84387596511E+03  0.25500000920E-02 0.  1.
</event>
<event>
 5   0  0.1590067E-06  0.2100402E+04  0.7818609E-02  0.8561066E-01
        1   -1    0    0  501    0  0.00000000000E+00  0.00000000000E+00  0.21327550467E+04  0.21327550467E+04  0.50400001928E-02 0. -1.
       -1   -1    0    0    0  501  0.00000000000E+00  0.00000000000E+00 -0.51713491783E+03  0.51713491786E+03  0.50400001928E-02 0.  1.
    10030    2    1    2    0    0  0.00000000000E+00  0.00000000000E+00  0.16156201289E+04  0.26498899646E+04  0.21004019671E+04 0.  0.
        5    1    3    3  502    0  0.60754033867E+03 -0.10681185592E+03 -0.26447455954E+03  0.67118024279E+03  0.46999998093E+01 0. -1.
       -5    1    3    3    0  502 -0.60754033867E+03  0.10681185592E+03  0.18800946884E+04  0.19787097218E+04  0.46999998093E+01 0.  1.
</event>
<event>
 5   0  0.3574927E-06  0.2099424E+04  0.7818609E-02  0.8561497E-01
       -2   -1    0    0    0  501  0.00000000000E+00  0.00000000000E+00  0.69645863816E+03  0.69645863816E+03  0.25500000920E-02 0. -1.
        2   -1    0    0  501    0  0.00000000000E+00  0.00000000000E+00 -0.15821398171E+04  0.15821398171E+04  0.25500000920E-02 0.  1.
    10030    2    1    2    0    0  0.00000000000E+00  0.00000000000E+00 -0.88568117895E+03  0.22785984553E+04  0.20994236756E+04 0.  0.
        3    1    3    3  502    0  0.51343746811E+03 -0.33429425155E+03 -0.13679492913E+04  0.14988849036E+04  0.10100000352E+00 0.  1.
       -3    1    3    3    0  502 -0.51343746811E+03  0.33429425155E+03  0.48226811239E+03  0.77971355170E+03  0.10100000352E+00 0. -1.
</event>
<event>
 5   0  0.1257125E-06  0.2100282E+04  0.7818609E-02  0.8561119E-01
        3   -1    0    0  501    0  0.00000000000E+00  0.00000000000E+00  0.10644149945E+04  0.10644149993E+04  0.10100000352E+00 0.  1.
       -3   -1    0    0    0  501  0.00000000000E+00  0.00000000000E+00 -0.10360588764E+04  0.10360588813E+04  0.10100000352E+00 0. -1.
    10030    2    1    2    0    0  0.00000000000E+00  0.00000000000E+00  0.28356118066E+02  0.21004738806E+04  0.21002824700E+04 0.  0.
        4    1    3    3  502    0  0.93539669624E+03  0.40122323719E+03 -0.24439518033E+03  0.10467462359E+04  0.12699999809E+01 0. -1.
       -4    1    3    3    0  502 -0.93539669624E+03 -0.40122323719E+03  0.27275129840E+03  0.10537276446E+04  0.12699999809E+01 0.  1.
</event>
<event>
 5   0  0.1653260E-06  0.2093463E+04  0.7818609E-02  0.8564129E-01
       -1   -1    0    0    0  501  0.00000000000E+00  0.00000000000E+00  0.76014949410E+03  0.76014949412E+03  0.50400001928E-02 0.  1.
        1   -1    0    0  501    0  0.00000000000E+00  0.00000000000E+00 -0.14413565218E+04  0.14413565218E+04  0.50400001928E-02 0. -1.
    10030    2    1    2    0    0  0.00000000000E+00  0.00000000000E+00 -0.68120702772E+03  0.22015060159E+04  0.20934626158E+04 0.  0.
        3    1    3    3  502    0  0.59970811702E+03 -0.61157534187E+03  0.29208838430E+03  0.90498058479E+03  0.10100000352E+00 0.  1.
       -3    1    3    3    0  502 -0.59970811702E+03  0.61157534187E+03 -0.97329541202E+03  0.12965254312E+04  0.10100000352E+00 0. -1.
</event>
<event>
 5   0  0.1257125E-06  0.2100304E+04  0.7818609E-02  0.8561110E-01
       -3   -1    0    0    0  501  0.00000000000E+00  0.00000000000E+00  0.17042929821E+04  0.17042929851E+04  0.10100000352E+00 0.  1.
        3   -1    0    0  501    0  0.00000000000E+00  0.00000000000E+00 -0.64708294482E+03  0.64708295270E+03  0.10100000352E+00 0. -1.
    10030    2    1    2    0    0  0.00000000000E+00  0.00000000000E+00  0.10572100373E+04  0.23513759378E+04  0.21003037252E+04 0.  0.
        4    1    3    3  502    0  0.99344699802E+03  0.24429701600E+03  0.26320214562E+03  0.10563592913E+04  0.12699999809E+01 0.  1.
       -4    1    3    3    0  502 -0.99344699802E+03 -0.24429701600E+03  0.79400789170E+03  0.12950166466E+04  0.12699999809E+01 0. -1.
</event>
<event>
 5   0  0.3636435E-06  0.2100307E+04  0.7818609E-02  0.8561108E-01
        2   -1    0    0  501    0  0.00000000000E+00  0.00000000000E+00  0.10767196109E+04  0.10767196109E+04  0.25500000920E-02 0.  1.
       -2   -1    0    0    0  501  0.00000000000E+00  0.00000000000E+00 -0.10242426829E+04  0.10242426830E+04  0.25500000920E-02 0. -1.
    10030    2    1    2    0    0  0.00000000000E+00  0.00000000000E+00  0.52476927979E+02  0.21009622939E+04  0.21003068186E+04 0.  0.
        4    1    3    3  502    0  0.69693725868E+03  0.63583084462E+03  0.48770462778E+03  0.10620074493E+04  0.12699999809E+01 0.  1.
       -4    1    3    3    0  502 -0.69693725868E+03 -0.63583084462E+03 -0.43522769980E+03  0.10389548446E+04  0.12699999809E+01 0. -1.
</event>
<event>
 5   0  0.1646510E-06  0.2100834E+04  0.7818609E-02  0.8560876E-01
       -1   -1    0    0    0  501  0.00000000000E+00  0.00000000000E+00  0.50839402645E+03  0.50839402647E+03  0.50400001928E-02 0.  1.
        1   -1    0    0  501    0  0.00000000000E+00  0.00000000000E+00 -0.21703171179E+04  0.21703171179E+04  0.50400001928E-02 0. -1.
    10030    2    1    2    0    0  0.00000000000E+00  0.00000000000E+00 -0.16619230914E+04  0.26787111443E+04  0.21008343659E+04 0.  0.
        4    1    3    3  502    0 -0.10301846034E+04 -0.47341147136E+02 -0.10855070118E+04  0.14972803969E+04  0.12699999809E+01 0. -1.
       -4    1    3    3    0  502  0.10301846034E+04  0.47341147136E+02 -0.57641607966E+03  0.11814307475E+04  0.12699999809E+01 0.  1.
</event>
<event>
 5   0  0.1653260E-06  0.2099987E+04  0.7818609E-02  0.8561249E-01
        1   -1    0    0  501    0  0.00000000000E+00  0.00000000000E+00  0.21346965102E+04  0.21346965102E+04  0.50400001928E-02 0. -1.
       -1   -1    0    0    0  501  0.00000000000E+00  0.00000000000E+00 -0.51646038178E+03  0.51646038180E+03  0.50400001928E-02 0.  1.
    10030    2    1    2    0    0  0.00000000000E+00  0.00000000000E+00  0.16182361284E+04  0.26511568920E+04  0.20999868330E+04 0.  0.
        3    1    3    3  502    0  0.41867138301E+03  0.12611916646E+03 -0.39605164330E+03  0.58995651150E+03  0.10100000352E+00 0.  1.
       -3    1    3    3    0  502 -0.41867138301E+03 -0.12611916646E+03  0.20142877717E+04  0.20612003805E+04  0.10100000352E+00 0. -1.
</event>
<event>
 5   0  0.3547583E-06  0.2100090E+04  0.7818609E-02  0.8561204E-01
       -2   -1    0    0    0  501  0.00000000000E+00  0.00000000000E+00  0.68246370413E+03  0.68246370413E+03  0.25500000920E-02 0.  1.
        2   -1    0    0  501    0  0.00000000000E+00  0.00000000000E+00 -0.16156084572E+04  0.16156084572E+04  0.25500000920E-02 0. -1.
    10030    2    1    2    0    0  0.00000000000E+00  0.00000000000E+00 -0.93314475310E+03  0.22980721614E+04  0.21000896478E+04 0.  0.
        2    1    3    3  502    0 -0.58601579745E+03 -0.68280380602E+03 -0.10588549278E+04  0.13895356456E+04  0.25500000920E-02 0. -1.
       -2    1    3    3    0  502  0.58601579745E+03  0.68280380602E+03  0.12571017470E+03  0.90853651572E+03  0.25500000920E-02 0.  1.
</event>
<event>
 5   0  0.1653260E-06  0.2099720E+04  0.7818609E-02  0.8561367E-01
        1   -1    0    0  501    0  0.00000000000E+00  0.00000000000E+00  0.75538415666E+03  0.75538415667E+03  0.50400001928E-02 0.  1.
       -1   -1    0    0    0  501  0.00000000000E+00  0.00000000000E+00 -0.14591325785E+04  0.14591325785E+04  0.50400001928E-02 0. -1.
    10030    2    1    2    0    0  0.00000000000E+00  0.00000000000E+00 -0.70374842185E+03  0.22145167352E+04  0.20997196311E+04 0.  0.
        3    1    3    3  502    0 -0.29159198276E+03 -0.72007537306E+03  0.39290029003E+03  0.87057743791E+03  0.10100000352E+00 0.  1.
       -3    1    3    3    0  502  0.29159198276E+03  0.72007537306E+03 -0.10966487119E+04  0.13439392973E+04  0.10100000352E+00 0. -1.
</event>
<event>
 5   0  0.3636435E-06  0.2099522E+04  0.7818609E-02  0.8561454E-01
        2   -1    0    0  501    0  0.00000000000E+00  0.00000000000E+00  0.21116539887E+04  0.21116539887E+04  0.25500000920E-02 0. -1.
       -2   -1    0    0    0  501  0.00000000000E+00  0.00000000000E+00 -0.52186512000E+03  0.52186512000E+03  0.25500000920E-02 0.  1.
    10030    2    1    2    0    0  0.00000000000E+00  0.00000000000E+00  0.15897888687E+04  0.26335191087E+04  0.20995223859E+04 0.  0.
        4    1    3    3  502    0 -0.39148423516E+03  0.76168712643E+03  0.33384073087E+02  0.85705501234E+03  0.12699999809E+01 0.  1.
       -4    1    3    3    0  502  0.39148423516E+03 -0.76168712643E+03  0.15564047956E+04  0.17764640964E+04  0.12699999809E+01 0. -1.
</event>
<event>
 5   0  0.3480134E-06  0.2104349E+04  0.7818609E-02  0.8559330E-01
       -2   -1    0    0    0  501  0.00000000000E+00  0.00000000000E+00  0.45438206421E+03  0.45438206422E+03  0.25500000920E-02 0. -1.
        2   -1    0    0  501    0  0.00000000000E+00  0.00000000000E+00 -0.24364322935E+04  0.24364322935E+04  0.25500000920E-02 0.  1.
    10030    2    1    2    0    0  0.00000000000E+00  0.00000000000E+00 -0.19820502293E+04  0.28908143578E+04  0.21043489586E+04 0.  0.
        1    1    3    3  502    0  0.84986928240E+03 -0.43392203837E+03 -0.38206443842E+03  0.10278810085E+04  0.50400001928E-02 0. -1.
       -1    1    3    3    0  502 -0.84986928240E+03  0.43392203837E+03 -0.15999857909E+04  0.18629333492E+04  0.50400001928E-02 0.  1.
</event>
<event>
 5   0  0.3574927E-06  0.2099936E+04  0.7818609E-02  0.8561272E-01
        2   -1    0    0  501    0  0.00000000000E+00  0.00000000000E+00  0.14359125464E+04  0.14359125464E+04  0.25500000920E-02 0.  1.
       -2   -1    0    0    0  501  0.00000000000E+00  0.00000000000E+00 -0.76775727398E+03  0.76775727398E+03  0.25500000920E-02 0. -1.
    10030    2    1    2    0    0  0.00000000000E+00  0.00000000000E+00  0.66815527243E+03  0.22036698204E+04  0.20999355250E+04 0.  0.
        3    1    3    3  502    0 -0.76329823539E+03  0.37126233813E+01 -0.42250492158E+03  0.87243819190E+03  0.10100000352E+00 0. -1.
       -3    1    3    3    0  502  0.76329823539E+03 -0.37126233813E+01  0.10906601940E+04  0.13312316285E+04  0.10100000352E+00 0.  1.
</event>
<event>
 5   0  0.3574927E-06  0.2099925E+04  0.7818609E-02  0.8561276E-01
        2   -1    0    0  501    0  0.00000000000E+00  0.00000000000E+00  0.11695642141E+04  0.11695642141E+04  0.25500000920E-02 0.  1.
       -2   -1    0    0    0  501  0.00000000000E+00  0.00000000000E+00 -0.94259170282E+03  0.94259170282E+03  0.25500000920E-02 0. -1.
    10030    2    1    2    0    0  0.00000000000E+00  0.00000000000E+00  0.22697251127E+03  0.21121559169E+04  0.20999252597E+04 0.  0.
        3    1    3    3  502    0  0.45135720239E+02 -0.42686692245E+03 -0.85030599122E+03  0.95250873572E+03  0.10100000352E+00 0. -1.
       -3    1    3    3    0  502 -0.45135720239E+02  0.42686692245E+03  0.10772785025E+04  0.11596471812E+04  0.10100000352E+00 0.  1.
</event>
<event>
 5   0  0.3705828E-06  0.2101901E+04  0.7818609E-02  0.8560406E-01
        2   -1    0    0  501    0  0.00000000000E+00  0.00000000000E+00  0.15469410539E+04  0.15469410539E+04  0.25500000920E-02 0. -1.
       -2   -1    0    0    0  501  0.00000000000E+00  0.00000000000E+00 -0.71398781397E+03  0.71398781397E+03  0.25500000920E-02 0.  1.
    10030    2    1    2    0    0  0.00000000000E+00  0.00000000000E+00  0.83295323991E+03  0.22609288679E+04  0.21019011027E+04 0.  0.
        5    1    3    3  502    0 -0.85673674052E+03  0.14164411239E+03  0.10532213974E+04  0.13650488266E+04  0.46999998093E+01 0. -1.
       -5    1    3    3    0  502  0.85673674052E+03 -0.14164411239E+03 -0.22026815745E+03  0.89588004126E+03  0.46999998093E+01 0.  1.
</event>
<event>
 5   0  0.1653260E-06  0.2100838E+04  0.7818609E-02  0.8560874E-01
        1   -1    0    0  501    0  0.00000000000E+00  0.00000000000E+00  0.27253753309E+04  0.27253753309E+04  0.50400001928E-02 0. -1.
       -1   -1    0    0    0  501  0.00000000000E+00  0.00000000000E+00 -0.40485437605E+03  0.40485437608E+03  0.50400001928E-02 0.  1.
    10030    2    1    2    0    0  0.00000000000E+00  0.00000000000E+00  0.23205209549E+04  0.31302297070E+04  0.21008380510E+04 0.  0.
        3    1    3    3  502    0  0.12720606445E+03  0.45749654026E+03  0.25563236887E+04  0.26000529377E+04  0.10100000352E+00 0. -1.
       -3    1    3    3    0  502 -0.12720606445E+03 -0.45749654026E+03 -0.23580273386E+03  0.53017676928E+03  0.10100000352E+00 0.  1.
</event>
<event>
 5   0  0.1646510E-06  0.2100221E+04  0.7818609E-02  0.8561146E-01
       -1   -1    0    0    0  501  0.00000000000E+00  0.00000000000E+00  0.11724169822E+04  0.11724169822E+04  0.50400001928E-02 0. -1.
        1   -1    0    0  501    0  0.00000000000E+00  0.00000000000E+00 -0.94056258357E+03  0.94056258359E+03  0.50400001928E-02 0.  1.
    10030    2    1    2    0    0  0.00000000000E+00  0.00000000000E+00  0.23185439865E+03  0.21129795658E+04  0.21002205083E+04 0.  0.
        4    1    3    3  502    0 -0.28775325724E+03 -0.54111249242E+03 -0.74196954579E+03  0.96235392984E+03  0.12699999809E+01 0.  1.
       -4    1    3    3    0  502  0.28775325724E+03  0.54111249242E+03  0.97382394443E+03  0.11506256360E+04  0.12699999809E+01 0. -1.
</event>
<event>
 5   0  0.3636435E-06  0.2100054E+04  0.7818609E-02  0.8561220E-01
       -2   -1    0    0    0  501  0.00000000000E+00  0.00000000000E+00  0.45668148048E+03  0.45668148049E+03  0.25500000920E-02 0.  1.
        2   -1    0    0  501    0  0.00000000000E+00  0.00000000000E+00 -0.24142791566E+04  0.24142791566E+04  0.25500000920E-02 0. -1.
    10030    2    1    2    0    0  0.00000000000E+00  0.00000000000E+00 -0.19575976761E+04  0.28709606371E+04  0.21000538846E+04 0.  0.
        4    1    3    3  502    0 -0.19041492443E+03  0.80941369201E+03 -0.10221158611E+03  0.83776917435E+03  0.12699999809E+01 0.  1.
       -4    1    3    3    0  502  0.19041492443E+03 -0.80941369201E+03 -0.18553860900E+04  0.20331914628E+04  0.12699999809E+01 0. -1.
</event>
<event>
 5   0  0.1653260E-06  0.2100940E+04  0.7818609E-02  0.8560829E-01
       -1   -1    0    0    0  501  0.00000000000E+00  0.00000000000E+00  0.71940649741E+03  0.71940649743E+03  0.50400001928E-02 0. -1.
        1   -1    0    0  501    0  0.00000000000E+00  0.00000000000E+00 -0.15338853321E+04  0.15338853321E+04  0.50400001928E-02 0.  1.
    10030    2    1    2    0    0  0.00000000000E+00  0.00000000000E+00 -0.81447883470E+03  0.22532918295E+04  0.21009398604E+04 0.  0.
        3    1    3    3  502    0  0.73690500343E+03 -0.72903681919E+03 -0.58976702591E+03  0.11926226658E+04  0.10100000352E+00 0. -1.
       -3    1    3    3    0  502 -0.73690500343E+03  0.72903681919E+03 -0.22471180879E+03  0.10606691638E+04  0.10100000352E+00 0.  1.
</event>
<event>
 5   0  0.1579820E-06  0.2099478E+04  0.7818609E-02  0.8561473E-01
        1   -1    0    0  501    0  0.00000000000E+00  0.00000000000E+00  0.71033226831E+03  0.71033226833E+03  0.50400001928E-02 0.  1.
       -1   -1    0    0    0  501  0.00000000000E+00  0.00000000000E+00 -0.15513190297E+04  0.15513190297E+04  0.50400001928E-02 0. -1.
    10030    2    1    2    0    0  0.00000000000E+00  0.00000000000E+00 -0.84098676139E+03  0.22616512980E+04  0.20994779973E+04 0.  0.
        2    1    3    3  502    0 -0.15424757434E+03  0.27753881877E+03 -0.14983474329E+04  0.15316217352E+04  0.25500000920E-02 0. -1.
       -2    1    3    3    0  502  0.15424757434E+03 -0.27753881877E+03  0.65736067152E+03  0.73002956281E+03  0.25500000920E-02 0.  1.
</event>
<event>
 5   0  0.1653260E-06  0.2085394E+04  0.7818609E-02  0.8567705E-01
        1   -1    0    0  501    0  0.00000000000E+00  0.00000000000E+00  0.94808347163E+03  0.94808347165E+03  0.50400001928E-02 0. -1.
       -1   -1    0    0    0  501  0.00000000000E+00  0.00000000000E+00 -0.11467520972E+04  0.11467520972E+04  0.50400001928E-02 0.  1.
    10030    2    1    2    0    0  0.00000000000E+00  0.00000000000E+00 -0.19866862557E+03  0.20948355689E+04  0.20853936889E+04 0.  0.
        3    1    3    3  502    0  0.19800483440E+02  0.43673620676E+03 -0.10502385027E+04  0.11375990050E+04  0.10100000352E+00 0.  1.
       -3    1    3    3    0  502 -0.19800483440E+02 -0.43673620676E+03  0.85156987710E+03  0.95723656388E+03  0.10100000352E+00 0. -1.
</event>
<event>
 5   0  0.1653260E-06  0.2100764E+04  0.7818609E-02  0.8560907E-01
        1   -1    0    0  501    0  0.00000000000E+00  0.00000000000E+00  0.16506488797E+04  0.16506488797E+04  0.50400001928E-02 0.  1.
       -1   -1    0    0    0  501  0.00000000000E+00  0.00000000000E+00 -0.66840524618E+03  0.66840524619E+03  0.50400001928E-02 0. -1.
    10030    2    1    2    0    0  0.00000000000E+00  0.00000000000E+00  0.98224363353E+03  0.23190541259E+04  0.21007640237E+04 0.  0.
        3    1    3    3  502    0 -0.13820058800E+03  0.39397244181E+03 -0.57287131146E+03  0.70886898445E+03  0.10100000352E+00 0. -1.
       -3    1    3    3    0  502  0.13820058800E+03 -0.39397244181E+03  0.15551149450E+04  0.16101851415E+04  0.10100000352E+00 0.  1.
</event>
<event>
 5   0  0.1590067E-06  0.2100247E+04  0.7818609E-02  0.8561135E-01
        1   -1    0    0  501    0  0.00000000000E+00  0.00000000000E+00  0.12732085953E+04  0.12732085953E+04  0.50400001928E-02 0. -1.
       -1   -1    0    0    0  501  0.00000000000E+00  0.00000000000E+00 -0.86612619971E+03  0.86612619973E+03  0.50400001928E-02 0.  1.
    10030    2    1    2    0    0  0.00000000000E+00  0.00000000000E+00  0.40708239559E+03  0.21393347950E+04  0.21002469589E+04 0.  0.
        5    1    3    3  502    0 -0.52313193367E+03 -0.46917183235E+01 -0.72392540612E+03  0.89318481619E+03  0.46999998093E+01 0.  1.
       -5    1    3    3    0  502  0.52313193367E+03  0.46917183235E+01  0.11310078017E+04  0.12461499788E+04  0.46999998093E+01 0. -1.
</event>
<event>
 5   0  0.1579820E-06  0.2100621E+04  0.7818609E-02  0.8560970E-01
       -1   -1    0    0    0  501  0.00000000000E+00  0.00000000000E+00  0.12214466259E+04  0.12214466259E+04  0.50400001928E-02 0.  1.
        1   -1    0    0  501    0  0.00000000000E+00  0.00000000000E+00 -0.90315214856E+03  0.90315214857E+03  0.50400001928E-02 0. -1.
    10030    2    1    2    0    0  0.00000000000E+00  0.00000000000E+00  0.31829447732E+03  0.21245987745E+04  0.21006209982E+04 0.  0.
        2    1    3    3  502    0  0.58883891090E+03  0.78958599256E+03 -0.20967233839E+03  0.10070450795E+04  0.25500000920E-02 0.  1.
       -2    1    3    3    0  502 -0.58883891090E+03 -0.78958599256E+03  0.52796681571E+03  0.11175536950E+04  0.25500000920E-02 0. -1.
</event>
<event>
 5   0  0.1579820E-06  0.2098852E+04  0.7818609E-02  0.8561749E-01
       -1   -1    0    0    0  501  0.00000000000E+00  0.00000000000E+00  0.11744927257E+04  0.11744927257E+04  0.50400001928E-02 0. -1.
        1   -1    0    0  501    0  0.00000000000E+00  0.00000000000E+00 -0.93767748699E+03  0.93767748701E+03  0.50400001928E-02 0.  1.
    10030    2    1    2    0    0  0.00000000000E+00  0.00000000000E+00  0.23681523871E+03  0.21121702127E+04  0.20988524365E+04 0.  0.
        2    1    3    3  502    0  0.80210391391E+03 -0.21592690486E+03 -0.52698873133E+03  0.98372366033E+03  0.25500000920E-02 0.  1.
       -2    1    3    3    0  502 -0.80210391391E+03  0.21592690486E+03  0.76380397003E+03  0.11284465524E+04  0.25500000920E-02 0. -1.
</event>
<event>
 5   0  0.3705828E-06  0.2098532E+04  0.7818609E-02  0.8561890E-01
       -2   -1    0    0    0  501  0.00000000000E+00  0.00000000000E+00  0.98310472311E+03  0.98310472311E+03  0.25500000920E-02 0. -1.
        2   -1    0    0  501    0  0.00000000000E+00  0.00000000000E+00 -0.11198799273E+04  0.11198799273E+04  0.25500000920E-02 0.  1.
    10030    2    1    2    0    0  0.00000000000E+00  0.00000000000E+00 -0.13677520420E+03  0.21029846504E+04  0.20985321021E+04 0.  0.
        5    1    3    3  502    0  0.22506606079E+02  0.35769435126E+03  0.91985147218E+03  0.98721862680E+03  0.46999998093E+01 0. -1.
       -5    1    3    3    0  502 -0.22506606079E+02 -0.35769435126E+03 -0.10566266764E+04  0.11157660236E+04  0.46999998093E+01 0.  1.
</event>
<event>
 5   0  0.1653260E-06  0.2099809E+04  0.7818609E-02  0.8561328E-01
        1   -1    0    0  501    0  0.00000000000E+00  0.00000000000E+00  0.15249887370E+04  0.15249887370E+04  0.50400001928E-02 0. -1.
       -1   -1    0    0    0  501  0.00000000000E+00  0.00000000000E+00 -0.72282447132E+03  0.72282447134E+03  0.50400001928E-02 0.  1.
    10030    2    1    2    0    0  0.00000000000E+00  0.00000000000E+00  0.80216426569E+03  0.22478132084E+04  0.20998087319E+04 0.  0.
        3    1    3    3  502    0 -0.24846071739E+03  0.10160596012E+04  0.49795553774E+03  0.11584772631E+04  0.10100000352E+00 0.  1.
       -3    1    3    3    0  502  0.24846071739E+03 -0.10160596012E+04  0.30420872794E+03  0.10893359453E+04  0.10100000352E+00 0. -1.
</event>
<event>
 5   0  0.3705828E-06  0.2099801E+04  0.7818609E-02  0.8561331E-01
       -2   -1    0    0    0  501  0.00000000000E+00  0.00000000000E+00  0.78121542826E+03  0.78121542826E+03  0.25500000920E-02 0.  1.
        2   -1    0    0  501    0  0.00000000000E+00  0.00000000000E+00 -0.14109954410E+04  0.14109954410E+04  0.25500000920E-02 0. -1.
    10030    2    1    2    0    0  0.00000000000E+00  0.00000000000E+00 -0.62978001270E+03  0.21922108692E+04  0.20998013313E+04 0.  0.
        5    1    3    3  502    0  0.39431604622E+03 -0.51298071569E+03 -0.11780995861E+04  0.13440889419E+04  0.46999998093E+01 0. -1.
       -5    1    3    3    0  502 -0.39431604622E+03  0.51298071569E+03  0.54831957342E+03  0.84812192730E+03  0.46999998093E+01 0.  1.
</event>
<event>
 5   0  0.1653260E-06  0.2100555E+04  0.7818609E-02  0.8560999E-01
        1   -1    0    0  501    0  0.00000000000E+00  0.00000000000E+00  0.11885310706E+04  0.11885310706E+04  0.50400001928E-02 0.  1.
       -1   -1    0    0    0  501  0.00000000000E+00  0.00000000000E+00 -0.92810617691E+03  0.92810617692E+03  0.50400001928E-02 0. -1.
    10030    2    1    2    0    0  0.00000000000E+00  0.00000000000E+00  0.26042489369E+03  0.21166372475E+04  0.21005551915E+04 0.  0.
        3    1    3    3  502    0  0.49035877744E+03 -0.89042976172E+03  0.39636745563E+03  0.10910655623E+04  0.10100000352E+00 0.  1.
       -3    1    3    3    0  502 -0.49035877744E+03  0.89042976172E+03 -0.13594256194E+03  0.10255716852E+04  0.10100000352E+00 0. -1.
</event>
<event>
 5   0  0.3636435E-06  0.2099763E+04  0.7818609E-02  0.8561348E-01
        2   -1    0    0  501    0  0.00000000000E+00  0.00000000000E+00  0.15201673184E+04  0.15201673184E+04  0.25500000920E-02 0. -1.
       -2   -1    0    0    0  501  0.00000000000E+00  0.00000000000E+00 -0.72508519585E+03  0.72508519586E+03  0.25500000920E-02 0.  1.
    10030    2    1    2    0    0  0.00000000000E+00  0.00000000000E+00  0.79508212256E+03  0.22452525143E+04  0.20997626702E+04 0.  0.
        4    1    3    3  502    0  0.18269058721E+03  0.20143629517E+03  0.14818529446E+04  0.15065995466E+04  0.12699999809E+01 0. -1.
       -4    1    3    3    0  502 -0.18269058721E+03 -0.20143629517E+03 -0.68677082204E+03  0.73865296761E+03  0.12699999809E+01 0.  1.
</event>
<event>
 5   0  0.1646510E-06  0.2100680E+04  0.7818609E-02  0.8560944E-01
       -1   -1    0    0    0  501  0.00000000000E+00  0.00000000000E+00  0.95052930484E+03  0.95052930486E+03  0.50400001928E-02 0. -1.
        1   -1    0    0  501    0  0.00000000000E+00  0.00000000000E+00 -0.11606312205E+04  0.11606312205E+04  0.50400001928E-02 0.  1.
    10030    2    1    2    0    0  0.00000000000E+00  0.00000000000E+00 -0.21010191568E+03  0.21111605254E+04  0.21006798778E+04 0.  0.
        4    1    3    3  502    0  0.52045159134E+03 -0.74801713444E+03 -0.62997180152E+03  0.11078201912E+04  0.12699999809E+01 0.  1.
       -4    1    3    3    0  502 -0.52045159134E+03  0.74801713444E+03  0.41986988584E+03  0.10033403342E+04  0.12699999809E+01 0. -1.
</event>
<event>
 5   0  0.3636435E-06  0.2102026E+04  0.7818609E-02  0.8560351E-01
       -2   -1    0    0    0  501  0.00000000000E+00  0.00000000000E+00  0.10081237030E+04  0.10081237030E+04  0.25500000920E-02 0. -1.
        2   -1    0    0  501    0  0.00000000000E+00  0.00000000000E+00 -0.10957273724E+04  0.10957273724E+04  0.25500000920E-02 0.  1.
    10030    2    1    2    0    0  0.00000000000E+00  0.00000000000E+00 -0.87603669424E+02  0.21038510754E+04  0.21020263901E+04 0.  0.
        4    1    3    3  502    0 -0.45946632973E+03 -0.39161576783E+03  0.81726753601E+03  0.10160708913E+04  0.12699999809E+01 0. -1.
       -4    1    3    3    0  502  0.45946632973E+03  0.39161576783E+03 -0.90487120543E+03  0.10877801842E+04  0.12699999809E+01 0.  1.
</event>
<event>
 5   0  0.3547583E-06  0.2100656E+04  0.7818609E-02  0.8560955E-01
        2   -1    0    0  501    0  0.00000000000E+00  0.00000000000E+00  0.14236368177E+04  0.14236368177E+04  0.25500000920E-02 0. -1.
       -2   -1    0    0    0  501  0.00000000000E+00  0.00000000000E+00 -0.77490862670E+03  0.77490862670E+03  0.25500000920E-02 0.  1.
    10030    2    1    2    0    0  0.00000000000E+00  0.00000000000E+00  0.64872819097E+03  0.21985454444E+04  0.21006555656E+04 0.  0.
        2    1    3    3  502    0  0.15666257434E+03 -0.88130901808E+03  0.89946057659E+03  0.12689673268E+04  0.25500000920E-02 0. -1.
       -2    1    3    3    0  502 -0.15666257434E+03  0.88130901808E+03 -0.25073238562E+03  0.92957811761E+03  0.25500000920E-02 0.  1.
</event>
<event>
 5   0  0.1615098E-06  0.2100170E+04  0.7818609E-02  0.8561169E-01
        1   -1    0    0  501    0  0.00000000000E+00  0.00000000000E+00  0.14577860544E+04  0.14577860544E+04  0.50400001928E-02 0. -1.
       -1   -1    0    0    0  501  0.00000000000E+00  0.00000000000E+00 -0.75640610043E+03  0.75640610045E+03  0.50400001928E-02 0.  1.
    10030    2    1    2    0    0  0.00000000000E+00  0.00000000000E+00  0.70137995394E+03  0.22141921548E+04  0.21001697690E+04 0.  0.
        1    1    3    3  502    0 -0.13694770228E+03  0.51871144994E+03  0.13023962763E+04  0.14085639148E+04  0.50400001928E-02 0. -1.
       -1    1    3    3    0  502  0.13694770228E+03 -0.51871144994E+03 -0.60101632234E+03  0.80562824007E+03  0.50400001928E-02 0.  1.
</event>
<event>
 5   0  0.1257125E-06  0.2099937E+04  0.7818609E-02  0.8561271E-01
       -3   -1    0    0    0  501  0.00000000000E+00  0.00000000000E+00  0.10651979282E+04  0.10651979330E+04  0.10100000352E+00 0.  1.
        3   -1    0    0  501    0  0.00000000000E+00  0.00000000000E+00 -0.10349566303E+04  0.10349566353E+04  0.10100000352E+00 0. -1.
    10030    2    1    2    0    0  0.00000000000E+00  0.00000000000E+00  0.30241297842E+02  0.21001545682E+04  0.20999368263E+04 0.  0.
        1    1    3    3  502    0  0.42742948623E+03  0.70364328369E+03 -0.63657858773E+03  0.10406931031E+04  0.50400001928E-02 0. -1.
       -1    1    3    3    0  502 -0.42742948623E+03 -0.70364328369E+03  0.66681988557E+03  0.10594614652E+04  0.50400001928E-02 0.  1.
</event>
<event>
 5   0  0.1615098E-06  0.2100214E+04  0.7818609E-02  0.8561149E-01
        1   -1    0    0  501    0  0.00000000000E+00  0.00000000000E+00  0.10928379896E+04  0.10928379896E+04  0.50400001928E-02 0.  1.
       -1   -1    0    0    0  501  0.00000000000E+00  0.00000000000E+00 -0.10090467460E+04  0.10090467460E+04  0.50400001928E-02 0. -1.
    10030    2    1    2    0    0  0.00000000000E+00  0.00000000000E+00  0.83791243592E+02  0.21018847356E+04  0.21002139104E+04 0.  0.
        1    1    3    3  502    0 -0.54563805274E+01 -0.88960934051E+02 -0.10052545089E+04  0.10091979229E+04  0.50400001928E-02 0. -1.
       -1    1    3    3    0  502  0.54563805274E+01  0.88960934051E+02  0.10890457525E+04  0.10926868128E+04  0.50400001928E-02 0.  1.
</event>
<event>
 5   0  0.3705828E-06  0.2098973E+04  0.7818609E-02  0.8561696E-01
       -2   -1    0    0    0  501  0.00000000000E+00  0.00000000000E+00  0.65450676145E+03  0.65450676146E+03  0.25500000920E-02 0.  1.
        2   -1    0    0  501    0  0.00000000000E+00  0.00000000000E+00 -0.16828266666E+04  0.16828266666E+04  0.25500000920E-02 0. -1.
    10030    2    1    2    0    0  0.00000000000E+00  0.00000000000E+00 -0.10283199051E+04  0.23373334280E+04  0.20989725407E+04 0.  0.
        5    1    3    3  502    0 -0.44605836123E+03 -0.93997103851E+03 -0.66719142762E+03  0.12359935704E+04  0.46999998093E+01 0. -1.
       -5    1    3    3    0  502  0.44605836123E+03  0.93997103851E+03 -0.36112847751E+03  0.11013398577E+04  0.46999998093E+01 0.  1.
</event>
<event>
 5   0  0.3574927E-06  0.2098488E+04  0.7818609E-02  0.8561910E-01
       -2   -1    0    0    0  501  0.00000000000E+00  0.00000000000E+00  0.69944109889E+03  0.69944109890E+03  0.25500000920E-02 0.  1.
        2   -1    0    0  501    0  0.00000000000E+00  0.00000000000E+00 -0.15739902128E+04  0.15739902128E+04  0.25500000920E-02 0. -1.
    10030    2    1    2    0    0  0.00000000000E+00  0.00000000000E+00 -0.87454911390E+03  0.22734313117E+04  0.20984884504E+04 0.  0.
        3    1    3    3  502    0 -0.88910362519E+03 -0.49010443560E+03 -0.15022174120E+03  0.10262914770E+04  0.10100000352E+00 0.  1.
       -3    1    3    3    0  502  0.88910362519E+03  0.49010443560E+03 -0.72432737271E+03  0.12471398347E+04  0.10100000352E+00 0. -1.
</event>
<event>
 5   0  0.3705828E-06  0.2099975E+04  0.7818609E-02  0.8561254E-01
        2   -1    0    0  501    0  0.00000000000E+00  0.00000000000E+00  0.18912617112E+04  0.18912617112E+04  0.25500000920E-02 0. -1.
       -2   -1    0    0    0  501  0.00000000000E+00  0.00000000000E+00 -0.58293016160E+03  0.58293016161E+03  0.25500000920E-02 0.  1.
    10030    2    1    2    0    0  0.00000000000E+00  0.00000000000E+00  0.13083315496E+04  0.24741918728E+04  0.20999747569E+04 0.  0.
        5    1    3    3  502    0  0.42119674745E+03 -0.95377023012E+03  0.50811139108E+03  0.11598636246E+04  0.46999998093E+01 0.  1.
       -5    1    3    3    0  502 -0.42119674745E+03  0.95377023012E+03  0.80022015853E+03  0.13143282482E+04  0.46999998093E+01 0. -1.
</event>
<event>
 5   0  0.1579820E-06  0.2100461E+04  0.7818609E-02  0.8561040E-01
       -1   -1    0    0    0  501  0.00000000000E+00  0.00000000000E+00  0.88102680850E+03  0.88102680852E+03  0.50400001928E-02 0. -1.
        1   -1    0    0  501    0  0.00000000000E+00  0.00000000000E+00 -0.12519300496E+04  0.12519300496E+04  0.50400001928E-02 0.  1.
    10030    2    1    2    0    0  0.00000000000E+00  0.00000000000E+00 -0.37090324110E+03  0.21329568581E+04  0.21004608410E+04 0.  0.
        2    1    3    3  502    0 -0.97732360916E+03 -0.12709822954E+03  0.18302377227E+03  0.10024036603E+04  0.25500000920E-02 0. -1.
       -2    1    3    3    0  502  0.97732360916E+03  0.12709822954E+03 -0.55392701337E+03  0.11305531978E+04  0.25500000920E-02 0.  1.
</event>
<event>
 5   0  0.3636435E-06  0.2098904E+04  0.7818609E-02  0.8561726E-01
       -2   -1    0    0    0  501  0.00000000000E+00  0.00000000000E+00  0.10180319898E+04  0.10180319898E+04  0.25500000920E-02 0.  1.
        2   -1    0    0  501    0  0.00000000000E+00  0.00000000000E+00 -0.10818417302E+04  0.10818417302E+04  0.25500000920E-02 0. -1.
    10030    2    1    2    0    0  0.00000000000E+00  0.00000000000E+00 -0.63809740327E+02  0.20998737200E+04  0.20989039895E+04 0.  0.
        4    1    3    3  502    0 -0.42994136381E+03 -0.17758997711E+03  0.90925293978E+03  0.10213375043E+04  0.12699999809E+01 0.  1.
       -4    1    3    3    0  502  0.42994136381E+03  0.17758997711E+03 -0.97306268011E+03  0.10785362157E+04  0.12699999809E+01 0. -1.
</event>
<event>
 5   0  0.1615098E-06  0.2099826E+04  0.7818609E-02  0.8561320E-01
       -1   -1    0    0    0  501  0.00000000000E+00  0.00000000000E+00  0.18092821511E+04  0.18092821511E+04  0.50400001928E-02 0. -1.
        1   -1    0    0  501    0  0.00000000000E+00  0.00000000000E+00 -0.60925658871E+03  0.60925658873E+03  0.50400001928E-02 0.  1.
    10030    2    1    2    0    0  0.00000000000E+00  0.00000000000E+00  0.12000255624E+04  0.24185387399E+04  0.20998257751E+04 0.  0.
        1    1    3    3  502    0  0.23532154675E+03 -0.27334216748E+03 -0.53565983996E+03  0.64577367169E+03  0.50400001928E-02 0.  1.
       -1    1    3    3    0  502 -0.23532154675E+03  0.27334216748E+03  0.17356854024E+04  0.17727650682E+04  0.50400001928E-02 0. -1.
</event>
<event>
 5   0  0.3574927E-06  0.2100633E+04  0.7818609E-02  0.8560965E-01
        2   -1    0    0  501    0  0.00000000000E+00  0.00000000000E+00  0.92746641923E+03  0.92746641923E+03  0.25500000920E-02 0.  1.
       -2   -1    0    0    0  501  0.00000000000E+00  0.00000000000E+00 -0.11894392007E+04  0.11894392007E+04  0.25500000920E-02 0. -1.
    10030    2    1    2    0    0  0.00000000000E+00  0.00000000000E+00 -0.26197278145E+03  0.21169056199E+04  0.21006331582E+04 0.  0.
        3    1    3    3  502    0  0.31963537279E+02  0.33134541543E+03  0.87289978159E+03  0.93421918785E+03  0.10100000352E+00 0.  1.
       -3    1    3    3    0  502 -0.31963537279E+02 -0.33134541543E+03 -0.11348725630E+04  0.11826864321E+04  0.10100000352E+00 0. -1.
</event>
<event>
 5   0  0.1615098E-06  0.2102191E+04  0.7818609E-02  0.8560279E-01
        1   -1    0    0  501    0  0.00000000000E+00  0.00000000000E+00  0.11215642881E+04  0.11215642881E+04  0.50400001928E-02 0. -1.
       -1   -1    0    0    0  501  0.00000000000E+00  0.00000000000E+00 -0.98505408694E+03  0.98505408695E+03  0.50400001928E-02 0.  1.
    10030    2    1    2    0    0  0.00000000000E+00  0.00000000000E+00  0.13651020119E+03  0.21066183751E+04  0.21021907485E+04 0.  0.
        1    1    3    3  502    0  0.40199779830E+03 -0.51344870394E+03 -0.75784133046E+03  0.99977761707E+03  0.50400001928E-02 0.  1.
       -1    1    3    3    0  502 -0.40199779830E+03  0.51344870394E+03  0.89435153165E+03  0.11068407580E+04  0.50400001928E-02 0. -1.
</event>
<event>
 5   0  0.3705828E-06  0.2100401E+04  0.7818609E-02  0.8561067E-01
        2   -1    0    0  501    0  0.00000000000E+00  0.00000000000E+00  0.65297150125E+03  0.65297150126E+03  0.25500000920E-02 0. -1.
       -2   -1    0    0    0  501  0.00000000000E+00  0.00000000000E+00 -0.16890803667E+04  0.16890803667E+04  0.25500000920E-02 0.  1.
    10030    2    1    2    0    0  0.00000000000E+00  0.00000000000E+00 -0.10361088655E+04  0.23420518680E+04  0.21004012405E+04 0.  0.
        5    1    3    3  502    0  0.94824139160E+03 -0.35376026738E+03 -0.20546004741E+03  0.10327361641E+04  0.46999998093E+01 0. -1.
       -5    1    3    3    0  502 -0.94824139160E+03  0.35376026738E+03 -0.83064881806E+03  0.13093157039E+04  0.46999998093E+01 0.  1.
</event>
<event>
 5   0  0.1257125E-06  0.2100047E+04  0.7818609E-02  0.8561223E-01
       -3   -1    0    0    0  501  0.00000000000E+00  0.00000000000E+00  0.46388123589E+03  0.46388124689E+03  0.10100000352E+00 0. -1.
        3   -1    0    0  501    0  0.00000000000E+00  0.00000000000E+00 -0.23767928830E+04  0.23767928851E+04  0.10100000352E+00 0.  1.
    10030    2    1    2    0    0  0.00000000000E+00  0.00000000000E+00 -0.19129116471E+04  0.28406741320E+04  0.21000472744E+04 0.  0.
        3    1    3    3  502    0  0.55058917563E+02 -0.13948080010E+03  0.44932281537E+03  0.47368489591E+03  0.10100000352E+00 0. -1.
       -3    1    3    3    0  502 -0.55058917563E+02  0.13948080010E+03 -0.23622344624E+04  0.23669892361E+04  0.10100000352E+00 0.  1.
</event>
<event>
 5   0  0.1646510E-06  0.2100578E+04  0.7818609E-02  0.8560989E-01
       -1   -1    0    0    0  501  0.00000000000E+00  0.00000000000E+00  0.34735637542E+03  0.34735637546E+03  0.50400001928E-02 0.  1.
        1   -1    0    0  501    0  0.00000000000E+00  0.00000000000E+00 -0.31757205416E+04  0.31757205416E+04  0.50400001928E-02 0. -1.
    10030    2    1    2    0    0  0.00000000000E+00  0.00000000000E+00 -0.28283641662E+04  0.35230769171E+04  0.21005778031E+04 0.  0.
        4    1    3    3  502    0 -0.17546300364E+03 -0.98378337672E+03 -0.19563288922E+04  0.21967797671E+04  0.12699999809E+01 0. -1.
       -4    1    3    3    0  502  0.17546300364E+03  0.98378337672E+03 -0.87203527400E+03  0.13262971499E+04  0.12699999809E+01 0.  1.
</event>
<event>
 5   0  0.3547583E-06  0.2102212E+04  0.7818609E-02  0.8560269E-01
        2   -1    0    0  501    0  0.00000000000E+00  0.00000000000E+00  0.16995299091E+04  0.16995299091E+04  0.25500000920E-02 0. -1.
       -2   -1    0    0    0  501  0.00000000000E+00  0.00000000000E+00 -0.65007639830E+03  0.65007639831E+03  0.25500000920E-02 0.  1.
    10030    2    1    2    0    0  0.00000000000E+00  0.00000000000E+00  0.10494535108E+04  0.23496063074E+04  0.21022124366E+04 0.  0.
        2    1    3    3  502    0 -0.16235619325E+03 -0.29595745966E+02  0.16849592937E+04  0.16930219323E+04  0.25500000920E-02 0. -1.
       -2    1    3    3    0  502  0.16235619325E+03  0.29595745966E+02 -0.63550578287E+03  0.65658437519E+03  0.25500000920E-02 0.  1.
</event>
<event>
 5   0  0.3574927E-06  0.2099878E+04  0.7818609E-02  0.8561297E-01
       -2   -1    0    0    0  501  0.00000000000E+00  0.00000000000E+00  0.73063603083E+03  0.73063603083E+03  0.25500000920E-02 0. -1.
        2   -1    0    0  501    0  0.00000000000E+00  0.00000000000E+00 -0.15087838667E+04  0.15087838667E+04  0.25500000920E-02 0.  1.
    10030    2    1    2    0    0  0.00000000000E+00  0.00000000000E+00 -0.77814783590E+03  0.22394198976E+04  0.20998779543E+04 0.  0.
        3    1    3    3  502    0 -0.75337152417E+02 -0.66915629241E+03 -0.12481647239E+04  0.14182246008E+04  0.10100000352E+00 0.  1.
       -3    1    3    3    0  502  0.75337152417E+02  0.66915629241E+03  0.47001688799E+03  0.82119529675E+03  0.10100000352E+00 0. -1.
</event>
<event>
 5   0  0.1590067E-06  0.2099645E+04  0.7818609E-02  0.8561400E-01
        1   -1    0    0  501    0  0.00000000000E+00  0.00000000000E+00  0.87637266979E+03  0.87637266980E+03  0.50400001928E-02 0. -1.
       -1   -1    0    0    0  501  0.00000000000E+00  0.00000000000E+00 -0.12576012047E+04  0.12576012047E+04  0.50400001928E-02 0.  1.
    10030    2    1    2    0    0  0.00000000000E+00  0.00000000000E+00 -0.38122853489E+03  0.21339738745E+04  0.20996450417E+04 0.  0.
        5    1    3    3  502    0  0.31474379448E+03  0.28356697407E+03 -0.11668558927E+04  0.12413898055E+04  0.46999998093E+01 0.  1.
       -5    1    3    3    0  502 -0.31474379448E+03 -0.28356697407E+03  0.78562735777E+03  0.89258406900E+03  0.46999998093E+01 0. -1.
</event>
<event>
 5   0  0.1257125E-06  0.2100424E+04  0.7818609E-02  0.8561057E-01
        4   -1    0    0  501    0  0.00000000000E+00  0.00000000000E+00  0.10942037084E+04  0.10942044454E+04  0.12699999809E+01 0.  1.
       -4   -1    0    0    0  501  0.00000000000E+00  0.00000000000E+00 -0.10079871481E+04  0.10079879482E+04  0.12699999809E+01 0. -1.
    10030    2    1    2    0    0  0.00000000000E+00  0.00000000000E+00  0.86216560236E+02  0.21021923936E+04  0.21004236631E+04 0.  0.
        5    1    3    3  502    0 -0.50489473452E+02  0.50090891756E+02  0.10917809081E+04  0.10941050798E+04  0.46999998093E+01 0.  1.
       -5    1    3    3    0  502  0.50489473452E+02 -0.50090891756E+02 -0.10055643479E+04  0.10080873137E+04  0.46999998093E+01 0. -1.
</event>
<event>
 5   0  0.3636435E-06  0.2100899E+04  0.7818609E-02  0.8560848E-01
        2   -1    0    0  501    0  0.00000000000E+00  0.00000000000E+00  0.11290005141E+04  0.11290005141E+04  0.25500000920E-02 0. -1.
       -2   -1    0    0    0  501  0.00000000000E+00  0.00000000000E+00 -0.97736334020E+03  0.97736334020E+03  0.25500000920E-02 0.  1.
    10030    2    1    2    0    0  0.00000000000E+00  0.00000000000E+00  0.15163717394E+03  0.21063638543E+04  0.21008985826E+04 0.  0.
        4    1    3    3  502    0 -0.54394165193E+02  0.74090883041E+03  0.82040622388E+03  0.11067848053E+04  0.12699999809E+01 0. -1.
       -4    1    3    3    0  502  0.54394165193E+02 -0.74090883041E+03 -0.66876904994E+03  0.99957904902E+03  0.12699999809E+01 0.  1.
</event>
<event>
 5   0  0.3547583E-06  0.2099814E+04  0.7818609E-02  0.8561325E-01
        2   -1    0    0  501    0  0.00000000000E+00  0.00000000000E+00  0.13427124494E+04  0.13427124494E+04  0.25500000920E-02 0. -1.
       -2   -1    0    0    0  501  0.00000000000E+00  0.00000000000E+00 -0.82095393259E+03  0.82095393259E+03  0.25500000920E-02 0.  1.
    10030    2    1    2    0    0  0.00000000000E+00  0.00000000000E+00  0.52175851683E+03  0.21636663820E+04  0.20998143401E+04 0.  0.
        2    1    3    3  502    0 -0.16027712255E+03  0.79672871645E+02  0.13268757627E+04  0.13388935029E+04  0.25500000920E-02 0. -1.
       -2    1    3    3    0  502  0.16027712255E+03 -0.79672871645E+02 -0.80511724587E+03  0.82477287910E+03  0.25500000920E-02 0.  1.
</event>
<event>
 5   0  0.1579820E-06  0.2099860E+04  0.7818609E-02  0.8561305E-01
       -1   -1    0    0    0  501  0.00000000000E+00  0.00000000000E+00  0.71187629562E+03  0.71187629564E+03  0.50400001928E-02 0.  1.
        1   -1    0    0  501    0  0.00000000000E+00  0.00000000000E+00 -0.15485181320E+04  0.15485181321E+04  0.50400001928E-02 0. -1.
    10030    2    1    2    0    0  0.00000000000E+00  0.00000000000E+00 -0.83664183643E+03  0.22603944277E+04  0.20998603302E+04 0.  0.
        2    1    3    3  502    0 -0.65199299535E+01  0.79441700805E+03 -0.11572490510E+04  0.14036973528E+04  0.25500000920E-02 0. -1.
       -2    1    3    3    0  502  0.65199299535E+01 -0.79441700805E+03  0.32060721455E+03  0.85669707493E+03  0.25500000920E-02 0.  1.
</event>
<event>
 5   0  0.3547583E-06  0.2100636E+04  0.7818609E-02  0.8560963E-01
        2   -1    0    0  501    0  0.00000000000E+00  0.00000000000E+00  0.15929161871E+04  0.15929161871E+04  0.25500000920E-02 0. -1.
       -2   -1    0    0    0  501  0.00000000000E+00  0.00000000000E+00 -0.69254606860E+03  0.69254606860E+03  0.25500000920E-02 0.  1.
    10030    2    1    2    0    0  0.00000000000E+00  0.00000000000E+00  0.90037011846E+03  0.22854622557E+04  0.21006359446E+04 0.  0.
        2    1    3    3  502    0  0.87299411902E+03  0.23974006606E+02 -0.18465666960E+03  0.89263182246E+03  0.25500000920E-02 0.  1.
       -2    1    3    3    0  502 -0.87299411902E+03 -0.23974006606E+02  0.10850267881E+04  0.13928304332E+04  0.25500000920E-02 0. -1.
</event>
<event>
 5   0  0.3705828E-06  0.2100456E+04  0.7818609E-02  0.8561043E-01
        2   -1    0    0  501    0  0.00000000000E+00  0.00000000000E+00  0.14916339554E+04  0.14916339554E+04  0.25500000920E-02 0. -1.
       -2   -1    0    0    0  501  0.00000000000E+00  0.00000000000E+00 -0.73944331691E+03  0.73944331692E+03  0.25500000920E-02 0.  1.
    10030    2    1    2    0    0  0.00000000000E+00  0.00000000000E+00  0.75219063852E+03  0.22310772724E+04  0.21004559121E+04 0.  0.
        5    1    3    3  502    0  0.79430075320E+01  0.54013748577E+03  0.13327392259E+04  0.14380638127E+04  0.46999998093E+01 0. -1.
       -5    1    3    3    0  502 -0.79430075320E+01 -0.54013748577E+03 -0.58054858742E+03  0.79301345970E+03  0.46999998093E+01 0.  1.
</event>
<event>
 5   0  0.3636435E-06  0.2099853E+04  0.7818609E-02  0.8561308E-01
       -2   -1    0    0    0  501  0.00000000000E+00  0.00000000000E+00  0.83524352009E+03  0.83524352010E+03  0.25500000920E-02 0. -1.
        2   -1    0    0  501    0  0.00000000000E+00  0.00000000000E+00 -0.13197900402E+04  0.13197900402E+04  0.25500000920E-02 0.  1.
    10030    2    1    2    0    0  0.00000000000E+00  0.00000000000E+00 -0.48454652011E+03  0.21550335603E+04  0.20998534034E+04 0.  0.
        4    1    3    3  502    0  0.62859395837E+03  0.74586710517E+03  0.15638837850E+03  0.98788007415E+03  0.12699999809E+01 0. -1.
       -4    1    3    3    0  502 -0.62859395837E+03 -0.74586710517E+03 -0.64093489861E+03  0.11671534862E+04  0.12699999809E+01 0.  1.
</event>
<event>
 5   0  0.3547583E-06  0.2109649E+04  0.7818609E-02  0.8557005E-01
       -2   -1    0    0    0  501  0.00000000000E+00  0.00000000000E+00  0.56220868749E+03  0.56220868750E+03  0.25500000920E-02 0. -1.
        2   -1    0    0  501    0  0.00000000000E+00  0.00000000000E+00 -0.19790780247E+04  0.19790780247E+04  0.25500000920E-02 0.  1.
    10030    2    1    2    0    0  0.00000000000E+00  0.00000000000E+00 -0.14168693372E+04  0.25412867122E+04  0.21096491260E+04 0.  0.
        2    1    3    3  502    0  0.65824531332E+03 -0.82256676966E+03 -0.64524328880E+03  0.12354116257E+04  0.25500000920E-02 0.  1.
       -2    1    3    3    0  502 -0.65824531332E+03  0.82256676966E+03 -0.77162604840E+03  0.13058750865E+04  0.25500000920E-02 0. -1.
</event>
<event>
 5   0  0.1257125E-06  0.2100290E+04  0.7818609E-02  0.8561116E-01
       -4   -1    0    0    0  501  0.00000000000E+00  0.00000000000E+00  0.13317152708E+04  0.13317158764E+04  0.12699999809E+01 0.  1.
        4   -1    0    0  501    0  0.00000000000E+00  0.00000000000E+00 -0.82810680641E+03  0.82810778025E+03  0.12699999809E+01 0. -1.
    10030    2    1    2    0    0  0.00000000000E+00  0.00000000000E+00  0.50360846443E+03  0.21598236567E+04  0.21002896806E+04 0.  0.
        2    1    3    3  502    0  0.36092502933E+03  0.81979477069E+03  0.81549695839E+03  0.12113486831E+04  0.25500000920E-02 0.  1.
       -2    1    3    3    0  502 -0.36092502933E+03 -0.81979477069E+03 -0.31188849396E+03  0.94847497359E+03  0.25500000920E-02 0. -1.
</event>
<event>
 5   0  0.1615098E-06  0.2097391E+04  0.7818609E-02  0.8562394E-01
       -1   -1    0    0    0  501  0.00000000000E+00  0.00000000000E+00  0.27378753597E+04  0.27378753597E+04  0.50400001928E-02 0. -1.
        1   -1    0    0  501    0  0.00000000000E+00  0.00000000000E+00 -0.40168438192E+03  0.40168438195E+03  0.50400001928E-02 0.  1.
    10030    2    1    2    0    0  0.00000000000E+00  0.00000000000E+00  0.23361909778E+04  0.31395597417E+04  0.20973905423E+04 0.  0.
        1    1    3    3  502    0 -0.87826559215E+03  0.56550043838E+03  0.10291138027E+04  0.14663616250E+04  0.50400001928E-02 0. -1.
       -1    1    3    3    0  502  0.87826559215E+03 -0.56550043838E+03  0.13070771751E+04  0.16731981167E+04  0.50400001928E-02 0.  1.
</event>
<event>
 5   0  0.3574927E-06  0.2099714E+04  0.7818609E-02  0.8561369E-01
       -2   -1    0    0    0  501  0.00000000000E+00  0.00000000000E+00  0.84056199782E+03  0.84056199782E+03  0.25500000920E-02 0. -1.
        2   -1    0    0  501    0  0.00000000000E+00  0.00000000000E+00 -0.13112654843E+04  0.13112654843E+04  0.25500000920E-02 0.  1.
    10030    2    1    2    0    0  0.00000000000E+00  0.00000000000E+00 -0.47070348652E+03  0.21518274822E+04  0.20997142046E+04 0.  0.
        3    1    3    3  502    0 -0.28927900606E+03 -0.32592714414E+02 -0.12690765350E+04  0.13020368237E+04  0.10100000352E+00 0.  1.
       -3    1    3    3    0  502  0.28927900606E+03  0.32592714414E+02  0.79837304851E+03  0.84979065844E+03  0.10100000352E+00 0. -1.
</event>
<event>
 5   0  0.1615098E-06  0.2100593E+04  0.7818609E-02  0.8560982E-01
        1   -1    0    0  501    0  0.00000000000E+00  0.00000000000E+00  0.70197906015E+03  0.70197906017E+03  0.50400001928E-02 0.  1.
       -1   -1    0    0    0  501  0.00000000000E+00  0.00000000000E+00 -0.15714474013E+04  0.15714474013E+04  0.50400001928E-02 0. -1.
    10030    2    1    2    0    0  0.00000000000E+00  0.00000000000E+00 -0.86946834111E+03  0.22734264614E+04  0.21005934112E+04 0.  0.
        1    1    3    3  502    0 -0.79042828718E+03  0.30009400492E+03  0.23966487662E+03  0.87879038574E+03  0.50400001928E-02 0.  1.
       -1    1    3    3    0  502  0.79042828718E+03 -0.30009400492E+03 -0.11091332177E+04  0.13946360757E+04  0.50400001928E-02 0. -1.
</event>
<event>
 5   0  0.3547583E-06  0.2099965E+04  0.7818609E-02  0.8561259E-01
        2   -1    0    0  501    0  0.00000000000E+00  0.00000000000E+00  0.18191805350E+04  0.18191805350E+04  0.25500000920E-02 0.  1.
       -2   -1    0    0    0  501  0.00000000000E+00  0.00000000000E+00 -0.60602167537E+03  0.60602167537E+03  0.25500000920E-02 0. -1.
    10030    2    1    2    0    0  0.00000000000E+00  0.00000000000E+00  0.12131588597E+04  0.24252022104E+04  0.20999646051E+04 0.  0.
        2    1    3    3  502    0  0.96154104018E+03 -0.33605438055E+03  0.31221219873E+03  0.10653497903E+04  0.25500000920E-02 0. -1.
       -2    1    3    3    0  502 -0.96154104018E+03  0.33605438055E+03  0.90094666094E+03  0.13598524201E+04  0.25500000920E-02 0.  1.
</event>
<event>
 5   0  0.3705828E-06  0.2099930E+04  0.7818609E-02  0.8561274E-01
       -2   -1    0    0    0  501  0.00000000000E+00  0.00000000000E+00  0.11415745427E+04  0.11415745427E+04  0.25500000920E-02 0. -1.
        2   -1    0    0  501    0  0.00000000000E+00  0.00000000000E+00 -0.96570721882E+03  0.96570721882E+03  0.25500000920E-02 0.  1.
    10030    2    1    2    0    0  0.00000000000E+00  0.00000000000E+00  0.17586732390E+03  0.21072817615E+04  0.20999302624E+04 0.  0.
        5    1    3    3  502    0  0.56774756406E+03  0.56421632032E+03 -0.59395038309E+03  0.99673291317E+03  0.46999998093E+01 0.  1.
       -5    1    3    3    0  502 -0.56774756406E+03 -0.56421632032E+03  0.76981770699E+03  0.11105488484E+04  0.46999998093E+01 0. -1.
</event>
<event>
 5   0  0.1653260E-06  0.2099830E+04  0.7818609E-02  0.8561318E-01
        1   -1    0    0  501    0  0.00000000000E+00  0.00000000000E+00  0.18624101307E+04  0.18624101308E+04  0.50400001928E-02 0.  1.
       -1   -1    0    0    0  501  0.00000000000E+00  0.00000000000E+00 -0.59187914373E+03  0.59187914376E+03  0.50400001928E-02 0. -1.
    10030    2    1    2    0    0  0.00000000000E+00  0.00000000000E+00  0.12705309870E+04  0.24542892745E+04  0.20998301965E+04 0.  0.
        3    1    3    3  502    0 -0.42202773633E+03  0.85837504223E+03  0.12928474838E+03  0.96520965584E+03  0.10100000352E+00 0. -1.
       -3    1    3    3    0  502  0.42202773633E+03 -0.85837504223E+03  0.11412462386E+04  0.14890796187E+04  0.10100000352E+00 0.  1.
</event>
<event>
 5   0  0.1615098E-06  0.2100215E+04  0.7818609E-02  0.8561149E-01
       -1   -1    0    0    0  501  0.00000000000E+00  0.00000000000E+00  0.62876168028E+03  0.62876168030E+03  0.50400001928E-02 0. -1.
        1   -1    0    0  501    0  0.00000000000E+00  0.00000000000E+00 -0.17538052058E+04  0.17538052058E+04  0.50400001928E-02 0.  1.
    10030    2    1    2    0    0  0.00000000000E+00  0.00000000000E+00 -0.11250435255E+04  0.23825668861E+04  0.21002147587E+04 0.  0.
        1    1    3    3  502    0 -0.64444835717E+03  0.51149285815E+03  0.17772673136E+03  0.84173952031E+03  0.50400001928E-02 0. -1.
       -1    1    3    3    0  502  0.64444835717E+03 -0.51149285815E+03 -0.13027702569E+04  0.15408273658E+04  0.50400001928E-02 0.  1.
</event>
<event>
 5   0  0.1590067E-06  0.2100573E+04  0.7818609E-02  0.8560991E-01
        1   -1    0    0  501    0  0.00000000000E+00  0.00000000000E+00  0.74114130115E+03  0.74114130116E+03  0.50400001928E-02 0. -1.
       -1   -1    0    0    0  501  0.00000000000E+00  0.00000000000E+00 -0.14883831696E+04  0.14883831696E+04  0.50400001928E-02 0.  1.
    10030    2    1    2    0    0  0.00000000000E+00  0.00000000000E+00 -0.74724186843E+03  0.22295244707E+04  0.21005734826E+04 0.  0.
        5    1    3    3  502    0  0.56872107790E+03  0.22455369961E+03  0.53274026222E+03  0.81098847430E+03  0.46999998093E+01 0.  1.
       -5    1    3    3    0  502 -0.56872107790E+03 -0.22455369961E+03 -0.12799821306E+04  0.14185359965E+04  0.46999998093E+01 0. -1.
</event>
<event>
 5   0  0.1257125E-06  0.2100158E+04  0.7818609E-02  0.8561174E-01
        3   -1    0    0  501    0  0.00000000000E+00  0.00000000000E+00  0.14752824265E+04  0.14752824300E+04  0.10100000352E+00 0.  1.
       -3   -1    0    0    0  501  0.00000000000E+00  0.00000000000E+00 -0.74742728197E+03  0.74742728879E+03  0.10100000352E+00 0. -1.
    10030    2    1    2    0    0  0.00000000000E+00  0.00000000000E+00  0.72785514455E+03  0.22227097188E+04  0.21001584184E+04 0.  0.
        3    1    3    3  502    0 -0.10052134293E+04 -0.14306073987E+03  0.80443082604E+02  0.10185241841E+04  0.10100000352E+00 0.  1.
       -3    1    3    3    0  502  0.10052134293E+04  0.14306073987E+03  0.64741206194E+03  0.12041855347E+04  0.10100000352E+00 0. -1.
</event>
<event>
 5   0  0.1257125E-06  0.2101350E+04  0.7818609E-02  0.8560649E-01
        3   -1    0    0  501    0  0.00000000000E+00  0.00000000000E+00  0.62268481446E+03  0.62268482265E+03  0.10100000352E+00 0. -1.
       -3   -1    0    0    0  501  0.00000000000E+00  0.00000000000E+00 -0.17728358094E+04  0.17728358123E+04  0.10100000352E+00 0.  1.
    10030    2    1    2    0    0  0.00000000000E+00  0.00000000000E+00 -0.11501509950E+04  0.23955206349E+04  0.21013499949E+04 0.  0.
        2    1    3    3  502    0 -0.21389829281E+03 -0.10050999239E+04 -0.82467791493E+03  0.13176008501E+04  0.25500000920E-02 0.  1.
       -2    1    3    3    0  502  0.21389829281E+03  0.10050999239E+04 -0.32547308003E+03  0.10779197849E+04  0.25500000920E-02 0. -1.
</event>
<event>
 5   0  0.1653260E-06  0.2101360E+04  0.7818609E-02  0.8560644E-01
        1   -1    0    0  501    0  0.00000000000E+00  0.00000000000E+00  0.95671221478E+03  0.95671221480E+03  0.50400001928E-02 0. -1.
       -1   -1    0    0    0  501  0.00000000000E+00  0.00000000000E+00 -0.11538775301E+04  0.11538775302E+04  0.50400001928E-02 0.  1.
    10030    2    1    2    0    0  0.00000000000E+00  0.00000000000E+00 -0.19716531536E+03  0.21105897449E+04  0.21013602523E+04 0.  0.
        3    1    3    3  502    0  0.32980324070E+02  0.15265332311E+03  0.94498899419E+03  0.95780736486E+03  0.10100000352E+00 0. -1.
       -3    1    3    3    0  502 -0.32980324070E+02 -0.15265332311E+03 -0.11421543095E+04  0.11527823801E+04  0.10100000352E+00 0.  1.
</event>
<event>
 5   0  0.3705828E-06  0.2098184E+04  0.7818609E-02  0.8562044E-01
       -2   -1    0    0    0  501  0.00000000000E+00  0.00000000000E+00  0.79013874895E+03  0.79013874895E+03  0.25500000920E-02 0.  1.
        2   -1    0    0  501    0  0.00000000000E+00  0.00000000000E+00 -0.13929117367E+04  0.13929117367E+04  0.25500000920E-02 0. -1.
    10030    2    1    2    0    0  0.00000000000E+00  0.00000000000E+00 -0.60277298778E+03  0.21830504857E+04  0.20981835354E+04 0.  0.
        5    1    3    3  502    0 -0.37867886889E+03  0.16750286366E+03 -0.13042813485E+04  0.13684395570E+04  0.46999998093E+01 0. -1.
       -5    1    3    3    0  502  0.37867886889E+03 -0.16750286366E+03  0.70150836069E+03  0.81461092873E+03  0.46999998093E+01 0.  1.
</event>
<event>
 5   0  0.1257125E-06  0.2100392E+04  0.7818609E-02  0.8561071E-01
       -3   -1    0    0    0  501  0.00000000000E+00  0.00000000000E+00  0.86451967644E+03  0.86451968234E+03  0.10100000352E+00 0.  1.
        3   -1    0    0  501    0  0.00000000000E+00  0.00000000000E+00 -0.12757507214E+04  0.12757507254E+04  0.10100000352E+00 0. -1.
    10030    2    1    2    0    0  0.00000000000E+00  0.00000000000E+00 -0.41123104495E+03  0.21402704077E+04  0.21003919743E+04 0.  0.
        2    1    3    3  502    0 -0.95906712766E+03 -0.42723316479E+03 -0.18120917558E+03  0.10654457742E+04  0.25500000920E-02 0. -1.
       -2    1    3    3    0  502  0.95906712766E+03  0.42723316479E+03 -0.23002186936E+03  0.10748246335E+04  0.25500000920E-02 0.  1.
</event>
<event>
 5   0  0.3705828E-06  0.2099585E+04  0.7818609E-02  0.8561426E-01
        2   -1    0    0  501    0  0.00000000000E+00  0.00000000000E+00  0.16039269915E+04  0.16039269915E+04  0.25500000920E-02 0. -1.
       -2   -1    0    0    0  501  0.00000000000E+00  0.00000000000E+00 -0.68710374377E+03  0.68710374377E+03  0.25500000920E-02 0.  1.
    10030    2    1    2    0    0  0.00000000000E+00  0.00000000000E+00  0.91682324771E+03  0.22910307352E+04  0.20995849500E+04 0.  0.
        5    1    3    3  502    0  0.18302976432E+03  0.95558281180E+03  0.28253424308E+02  0.97337492818E+03  0.46999998093E+01 0.  1.
       -5    1    3    3    0  502 -0.18302976432E+03 -0.95558281180E+03  0.88856982340E+03  0.13176558071E+04  0.46999998093E+01 0. -1.
</event>
<event>
 5   0  0.1615098E-06  0.2100068E+04  0.7818609E-02  0.8561213E-01
       -1   -1    0    0    0  501  0.00000000000E+00  0.00000000000E+00  0.49208084483E+03  0.49208084486E+03  0.50400001928E-02 0.  1.
        1   -1    0    0  501    0  0.00000000000E+00  0.00000000000E+00 -0.22406306764E+04  0.22406306764E+04  0.50400001928E-02 0. -1.
    10030    2    1    2    0    0  0.00000000000E+00  0.00000000000E+00 -0.17485498316E+04  0.27327115213E+04  0.21000680334E+04 0.  0.
        1    1    3    3  502    0 -0.95750453328E+03 -0.21242260022E+03 -0.13622574368E+04  0.16785957275E+04  0.50400001928E-02 0. -1.
       -1    1    3    3    0  502  0.95750453328E+03  0.21242260022E+03 -0.38629239479E+03  0.10541157938E+04  0.50400001928E-02 0.  1.
</event>
<event>
 5   0  0.1590067E-06  0.2100071E+04  0.7818609E-02  0.8561212E-01
       -1   -1    0    0    0  501  0.00000000000E+00  0.00000000000E+00  0.81672546030E+03  0.81672546032E+03  0.50400001928E-02 0. -1.
        1   -1    0    0  501    0  0.00000000000E+00  0.00000000000E+00 -0.13499942544E+04  0.13499942544E+04  0.50400001928E-02 0.  1.
    10030    2    1    2    0    0  0.00000000000E+00  0.00000000000E+00 -0.53326879410E+03  0.21667197147E+04  0.21000711215E+04 0.  0.
        5    1    3    3  502    0 -0.47142814295E+03  0.41164165681E+03 -0.11365167868E+04  0.12974536000E+04  0.46999998093E+01 0.  1.
       -5    1    3    3    0  502  0.47142814295E+03 -0.41164165681E+03  0.60324799265E+03  0.86926611473E+03  0.46999998093E+01 0. -1.
</event>
<event>
 5   0  0.3574927E-06  0.2099600E+04  0.7818609E-02  0.8561419E-01
       -2   -1    0    0    0  501  0.00000000000E+00  0.00000000000E+00  0.13949647243E+04  0.13949647243E+04  0.25500000920E-02 0. -1.
        2   -1    0    0  501    0  0.00000000000E+00  0.00000000000E+00 -0.79004169658E+03  0.79004169659E+03  0.25500000920E-02 0.  1.
    10030    2    1    2    0    0  0.00000000000E+00  0.00000000000E+00  0.60492302776E+03  0.21850064209E+04  0.20996002453E+04 0.  0.
        3    1    3    3  502    0 -0.10840655278E+03  0.15989106560E+03 -0.77138598430E+03  0.79520656468E+03  0.10100000352E+00 0.  1.
       -3    1    3    3    0  502  0.10840655278E+03 -0.15989106560E+03  0.13763090121E+04  0.13897998562E+04  0.10100000352E+00 0. -1.
</event>
<event>
 5   0  0.3705828E-06  0.2100159E+04  0.7818609E-02  0.8561173E-01
       -2   -1    0    0    0  501  0.00000000000E+00  0.00000000000E+00  0.12573638299E+04  0.12573638299E+04  0.25500000920E-02 0. -1.
        2   -1    0    0  501    0  0.00000000000E+00  0.00000000000E+00 -0.87696701857E+03  0.87696701857E+03  0.25500000920E-02 0.  1.
    10030    2    1    2    0    0  0.00000000000E+00  0.00000000000E+00  0.38039681133E+03  0.21343308485E+04  0.21001586694E+04 0.  0.
        5    1    3    3  502    0  0.40733924037E+03  0.53320645197E+03  0.10110600928E+04  0.12134656891E+04  0.46999998093E+01 0. -1.
       -5    1    3    3    0  502 -0.40733924037E+03 -0.53320645197E+03 -0.63066328152E+03  0.92086515942E+03  0.46999998093E+01 0.  1.
</event>
<event>
 5   0  0.1257125E-06  0.2100560E+04  0.7818609E-02  0.8560997E-01
       -3   -1    0    0    0  501  0.00000000000E+00  0.00000000000E+00  0.11700033374E+04  0.11700033417E+04  0.10100000352E+00 0.  1.
        3   -1    0    0  501    0  0.00000000000E+00  0.00000000000E+00 -0.94280787797E+03  0.94280788338E+03  0.10100000352E+00 0. -1.
    10030    2    1    2    0    0  0.00000000000E+00  0.00000000000E+00  0.22719545942E+03  0.21128112251E+04  0.21005602815E+04 0.  0.
        4    1    3    3  502    0 -0.86293049970E+03  0.57819194272E+03 -0.42652378110E+02  0.10396036784E+04  0.12699999809E+01 0. -1.
       -4    1    3    3    0  502  0.86293049970E+03 -0.57819194272E+03  0.26984783753E+03  0.10732075467E+04  0.12699999809E+01 0.  1.
</event>
<event>
 5   0  0.3636435E-06  0.2097357E+04  0.7818609E-02  0.8562409E-01
        2   -1    0    0  501    0  0.00000000000E+00  0.00000000000E+00  0.11233953486E+04  0.11233953486E+04  0.25500000920E-02 0.  1.
       -2   -1    0    0    0  501  0.00000000000E+00  0.00000000000E+00 -0.97893082956E+03  0.97893082956E+03  0.25500000920E-02 0. -1.
    10030    2    1    2    0    0  0.00000000000E+00  0.00000000000E+00  0.14446451907E+03  0.21023261782E+04  0.20973567561E+04 0.  0.
        4    1    3    3  502    0  0.76738114263E+02  0.44814985852E+03 -0.87499231662E+03  0.98607312149E+03  0.12699999809E+01 0. -1.
       -4    1    3    3    0  502 -0.76738114263E+02 -0.44814985852E+03  0.10194568357E+04  0.11162530567E+04  0.12699999809E+01 0.  1.
</event>
<event>
 5   0  0.1615098E-06  0.2101196E+04  0.7818609E-02  0.8560717E-01
       -1   -1    0    0    0  501  0.00000000000E+00  0.00000000000E+00  0.10146184760E+04  0.10146184760E+04  0.50400001928E-02 0.  1.
        1   -1    0    0  501    0  0.00000000000E+00  0.00000000000E+00 -0.10878533667E+04  0.10878533667E+04  0.50400001928E-02 0. -1.
    10030    2    1    2    0    0  0.00000000000E+00  0.00000000000E+00 -0.73234890699E+02  0.21024718428E+04  0.21011959691E+04 0.  0.
        1    1    3    3  502    0  0.49994956785E+03 -0.73252371092E+03  0.52694348257E+03  0.10316055406E+04  0.50400001928E-02 0.  1.
       -1    1    3    3    0  502 -0.49994956785E+03  0.73252371092E+03 -0.60017837326E+03  0.10708663022E+04  0.50400001928E-02 0. -1.
</event>
<event>
 5   0  0.1646510E-06  0.2099794E+04  0.7818609E-02  0.8561334E-01
        1   -1    0    0  501    0  0.00000000000E+00  0.00000000000E+00  0.17675163006E+04  0.17675163006E+04  0.50400001928E-02 0.  1.
       -1   -1    0    0    0  501  0.00000000000E+00  0.00000000000E+00 -0.62363413582E+03  0.62363413584E+03  0.50400001928E-02 0. -1.
    10030    2    1    2    0    0  0.00000000000E+00  0.00000000000E+00  0.11438821647E+04  0.23911504364E+04  0.20997938000E+04 0.  0.
        4    1    3    3  502    0 -0.32604212434E+03  0.26172469649E+03 -0.52474466887E+03  0.67094102871E+03  0.12699999809E+01 0. -1.
       -4    1    3    3    0  502  0.32604212434E+03 -0.26172469649E+03  0.16686268336E+04  0.17202094077E+04  0.12699999809E+01 0.  1.
</event>
<event>
 5   0  0.1646510E-06  0.2098745E+04  0.7818609E-02  0.8561796E-01
       -1   -1    0    0    0  501  0.00000000000E+00  0.00000000000E+00  0.52943059414E+03  0.52943059416E+03  0.50400001928E-02 0.  1.
        1   -1    0    0  501    0  0.00000000000E+00  0.00000000000E+00 -0.20799379434E+04  0.20799379434E+04  0.50400001928E-02 0. -1.
    10030    2    1    2    0    0  0.00000000000E+00  0.00000000000E+00 -0.15505073493E+04  0.26093685376E+04  0.20987451310E+04 0.  0.
        4    1    3    3  502    0 -0.53191438631E+03  0.25999780723E+03  0.30194122692E+03  0.66460656899E+03  0.12699999809E+01 0.  1.
       -4    1    3    3    0  502  0.53191438631E+03 -0.25999780723E+03 -0.18524485762E+04  0.19447619686E+04  0.12699999809E+01 0. -1.
</event>
<event>
 5   0  0.1646510E-06  0.2099604E+04  0.7818609E-02  0.8561418E-01
        1   -1    0    0  501    0  0.00000000000E+00  0.00000000000E+00  0.14683599746E+04  0.14683599746E+04  0.50400001928E-02 0.  1.
       -1   -1    0    0    0  501  0.00000000000E+00  0.00000000000E+00 -0.75055487228E+03  0.75055487230E+03  0.50400001928E-02 0. -1.
    10030    2    1    2    0    0  0.00000000000E+00  0.00000000000E+00  0.71780510232E+03  0.22189148469E+04  0.20996044706E+04 0.  0.
        4    1    3    3  502    0 -0.55479369987E+03 -0.35204406498E+03 -0.50637336780E+03  0.82954606480E+03  0.12699999809E+01 0. -1.
       -4    1    3    3    0  502  0.55479369987E+03  0.35204406498E+03  0.12241784701E+04  0.13893687821E+04  0.12699999809E+01 0.  1.
</event>
<event>
 5   0  0.1615098E-06  0.2100409E+04  0.7818609E-02  0.8561063E-01
       -1   -1    0    0    0  501  0.00000000000E+00  0.00000000000E+00  0.48815108643E+03  0.48815108646E+03  0.50400001928E-02 0. -1.
        1   -1    0    0  501    0  0.00000000000E+00  0.00000000000E+00 -0.22594021471E+04  0.22594021471E+04  0.50400001928E-02 0.  1.
    10030    2    1    2    0    0  0.00000000000E+00  0.00000000000E+00 -0.17712510606E+04  0.27475532335E+04  0.21004091152E+04 0.  0.
        1    1    3    3  502    0  0.61358366606E+03 -0.59995137582E+03 -0.93706071659E+02  0.86325395829E+03  0.50400001928E-02 0. -1.
       -1    1    3    3    0  502 -0.61358366606E+03  0.59995137582E+03 -0.16775449890E+04  0.18842992752E+04  0.50400001928E-02 0.  1.
</event>
<event>
 5   0  0.1590067E-06  0.2100362E+04  0.7818609E-02  0.8561084E-01
       -1   -1    0    0    0  501  0.00000000000E+00  0.00000000000E+00  0.10317552384E+04  0.10317552384E+04  0.50400001928E-02 0.  1.
        1   -1    0    0  501    0  0.00000000000E+00  0.00000000000E+00 -0.10689358275E+04  0.10689358275E+04  0.50400001928E-02 0. -1.
    10030    2    1    2    0    0  0.00000000000E+00  0.00000000000E+00 -0.37180589083E+02  0.21006910659E+04  0.21003620064E+04 0.  0.
        5    1    3    3  502    0 -0.71088180670E+02  0.99799107182E+03  0.30054955955E+03  0.10446970071E+04  0.46999998093E+01 0. -1.
       -5    1    3    3    0  502  0.71088180670E+02 -0.99799107182E+03 -0.33773014863E+03  0.10559940588E+04  0.46999998093E+01 0.  1.
</event>
<event>
 5   0  0.3636435E-06  0.2100172E+04  0.7818609E-02  0.8561167E-01
       -2   -1    0    0    0  501  0.00000000000E+00  0.00000000000E+00  0.56104109120E+03  0.56104109121E+03  0.25500000920E-02 0.  1.
        2   -1    0    0  501    0  0.00000000000E+00  0.00000000000E+00 -0.19654194114E+04  0.19654194114E+04  0.25500000920E-02 0. -1.
    10030    2    1    2    0    0  0.00000000000E+00  0.00000000000E+00 -0.14043783202E+04  0.25264605027E+04  0.21001724227E+04 0.  0.
        4    1    3    3  502    0 -0.39216113820E+03  0.37717992181E+03  0.37823238380E+03  0.66265858539E+03  0.12699999809E+01 0.  1.
       -4    1    3    3    0  502  0.39216113820E+03 -0.37717992181E+03 -0.17826107040E+04  0.18638019173E+04  0.12699999809E+01 0. -1.
</event>
<event>
 5   0  0.1590067E-06  0.2100743E+04  0.7818609E-02  0.8560916E-01
       -1   -1    0    0    0  501  0.00000000000E+00  0.00000000000E+00  0.10398212331E+04  0.10398212331E+04  0.50400001928E-02 0. -1.
        1   -1    0    0  501    0  0.00000000000E+00  0.00000000000E+00 -0.10610283146E+04  0.10610283146E+04  0.50400001928E-02 0.  1.
    10030    2    1    2    0    0  0.00000000000E+00  0.00000000000E+00 -0.21207081437E+02  0.21008495477E+04  0.21007425072E+04 0.  0.
        5    1    3    3  502    0 -0.24393754978E+03 -0.93237049275E+03  0.40707479650E+03  0.10462085088E+04  0.46999998093E+01 0. -1.
       -5    1    3    3    0  502  0.24393754978E+03  0.93237049275E+03 -0.42828187794E+03  0.10546410389E+04  0.46999998093E+01 0.  1.
</event>
<event>
 5   0  0.3636435E-06  0.2099457E+04  0.7818609E-02  0.8561483E-01
        2   -1    0    0  501    0  0.00000000000E+00  0.00000000000E+00  0.11583523109E+04  0.11583523109E+04  0.25500000920E-02 0. -1.
       -2   -1    0    0    0  501  0.00000000000E+00  0.00000000000E+00 -0.95129090273E+03  0.95129090274E+03  0.25500000920E-02 0.  1.
    10030    2    1    2    0    0  0.00000000000E+00  0.00000000000E+00  0.20706140820E+03  0.21096432137E+04  0.20994570875E+04 0.  0.
        4    1    3    3  502    0 -0.56472403010E+01  0.88184009657E+02 -0.94754623428E+03  0.95165844181E+03  0.12699999809E+01 0.  1.
       -4    1    3    3    0  502  0.56472403010E+01 -0.88184009657E+02  0.11546076425E+04  0.11579847719E+04  0.12699999809E+01 0. -1.
</event>
<event>
 5   0  0.1615098E-06  0.2099699E+04  0.7818609E-02  0.8561376E-01
       -1   -1    0    0    0  501  0.00000000000E+00  0.00000000000E+00  0.99271739354E+03  0.99271739355E+03  0.50400001928E-02 0. -1.
        1   -1    0    0  501    0  0.00000000000E+00  0.00000000000E+00 -0.11102701221E+04  0.11102701221E+04  0.50400001928E-02 0.  1.
    10030    2    1    2    0    0  0.00000000000E+00  0.00000000000E+00 -0.11755272855E+03  0.21029875157E+04  0.20996994659E+04 0.  0.
        1    1    3    3  502    0 -0.39646175743E+02  0.10288630760E+04  0.14661405548E+03  0.10400128507E+04  0.50400001928E-02 0. -1.
       -1    1    3    3    0  502  0.39646175743E+02 -0.10288630760E+04 -0.26416678403E+03  0.10629746649E+04  0.50400001928E-02 0.  1.
</event>
<event>
 5   0  0.3480134E-06  0.2100889E+04  0.7818609E-02  0.8560852E-01
        2   -1    0    0  501    0  0.00000000000E+00  0.00000000000E+00  0.85985593881E+03  0.85985593882E+03  0.25500000920E-02 0.  1.
       -2   -1    0    0    0  501  0.00000000000E+00  0.00000000000E+00 -0.12832778872E+04  0.12832778872E+04  0.25500000920E-02 0. -1.
    10030    2    1    2    0    0  0.00000000000E+00  0.00000000000E+00 -0.42342194843E+03  0.21431338261E+04  0.21008894426E+04 0.  0.
        1    1    3    3  502    0  0.40930437875E+03 -0.23349858696E+03 -0.11694083362E+04  0.12607805207E+04  0.50400001928E-02 0. -1.
       -1    1    3    3    0  502 -0.40930437875E+03  0.23349858696E+03  0.74598638782E+03  0.88235330532E+03  0.50400001928E-02 0.  1.
</event>
<event>
 5   0  0.1653260E-06  0.2098227E+04  0.7818609E-02  0.8562025E-01
       -1   -1    0    0    0  501  0.00000000000E+00  0.00000000000E+00  0.81253749715E+03  0.81253749717E+03  0.50400001928E-02 0.  1.
        1   -1    0    0  501    0  0.00000000000E+00  0.00000000000E+00 -0.13545704692E+04  0.13545704692E+04  0.50400001928E-02 0. -1.
    10030    2    1    2    0    0  0.00000000000E+00  0.00000000000E+00 -0.54203297206E+03  0.21671079664E+04  0.20982271553E+04 0.  0.
        3    1    3    3  502    0  0.50549603996E+03 -0.11903148436E+03  0.67046994791E+03  0.84807116561E+03  0.10100000352E+00 0.  1.
       -3    1    3    3    0  502 -0.50549603996E+03  0.11903148436E+03 -0.12125029200E+04  0.13190368008E+04  0.10100000352E+00 0. -1.
</event>
<event>
 5   0  0.3547583E-06  0.2102545E+04  0.7818609E-02  0.8560123E-01
        2   -1    0    0  501    0  0.00000000000E+00  0.00000000000E+00  0.12246770056E+04  0.12246770056E+04  0.25500000920E-02 0. -1.
       -2   -1    0    0    0  501  0.00000000000E+00  0.00000000000E+00 -0.90242104228E+03  0.90242104228E+03  0.25500000920E-02 0.  1.
    10030    2    1    2    0    0  0.00000000000E+00  0.00000000000E+00  0.32225596328E+03  0.21270980478E+04  0.21025454096E+04 0.  0.
        2    1    3    3  502    0  0.76087246193E+03  0.15577079956E+03 -0.55565315358E+03  0.95495647670E+03  0.25500000920E-02 0.  1.
       -2    1    3    3    0  502 -0.76087246193E+03 -0.15577079956E+03  0.87790911686E+03  0.11721415711E+04  0.25500000920E-02 0. -1.
</event>
<event>
 5   0  0.1615098E-06  0.2101134E+04  0.7818609E-02  0.8560744E-01
        1   -1    0    0  501    0  0.00000000000E+00  0.00000000000E+00  0.21181301136E+04  0.21181301136E+04  0.50400001928E-02 0. -1.
       -1   -1    0    0    0  501  0.00000000000E+00  0.00000000000E+00 -0.52106867313E+03  0.52106867315E+03  0.50400001928E-02 0.  1.
    10030    2    1    2    0    0  0.00000000000E+00  0.00000000000E+00  0.15970614405E+04  0.26391987868E+04  0.21011342155E+04 0.  0.
        1    1    3    3  502    0 -0.15250158671E+03 -0.81929437525E+03 -0.49611225227E+01  0.83338143729E+03  0.50400001928E-02 0.  1.
       -1    1    3    3    0  502  0.15250158671E+03  0.81929437525E+03  0.16020225630E+04  0.18058173495E+04  0.50400001928E-02 0. -1.
</event>
<event>
 5   0  0.1653260E-06  0.2100184E+04  0.7818609E-02  0.8561163E-01
        1   -1    0    0  501    0  0.00000000000E+00  0.00000000000E+00  0.88231546799E+03  0.88231546800E+03  0.50400001928E-02 0. -1.
       -1   -1    0    0    0  501  0.00000000000E+00  0.00000000000E+00 -0.12497715107E+04  0.12497715108E+04  0.50400001928E-02 0.  1.
    10030    2    1    2    0    0  0.00000000000E+00  0.00000000000E+00 -0.36745604276E+03  0.21320869788E+04  0.21001835495E+04 0.  0.
        3    1    3    3  502    0 -0.10054286843E+02 -0.56608869744E+03 -0.10815465994E+04  0.12207786691E+04  0.10100000352E+00 0.  1.
       -3    1    3    3    0  502  0.10054286843E+02  0.56608869744E+03  0.71409055661E+03  0.91130830968E+03  0.10100000352E+00 0. -1.
</event>
<event>
 5   0  0.1615098E-06  0.2099540E+04  0.7818609E-02  0.8561446E-01
        1   -1    0    0  501    0  0.00000000000E+00  0.00000000000E+00  0.17212187762E+04  0.17212187762E+04  0.50400001928E-02 0.  1.
       -1   -1    0    0    0  501  0.00000000000E+00  0.00000000000E+00 -0.64025396229E+03  0.64025396231E+03  0.50400001928E-02 0. -1.
    10030    2    1    2    0    0  0.00000000000E+00  0.00000000000E+00  0.10809648139E+04  0.23614727385E+04  0.20995400843E+04 0.  0.
        1    1    3    3  502    0 -0.79878280384E+03 -0.26153348235E+03  0.12478852852E+04  0.15045502368E+04  0.50400001928E-02 0.  1.
       -1    1    3    3    0  502  0.79878280384E+03  0.26153348235E+03 -0.16692047130E+03  0.85692250167E+03  0.50400001928E-02 0. -1.
</event>
<event>
 5   0  0.3705828E-06  0.2099117E+04  0.7818609E-02  0.8561633E-01
       -2   -1    0    0    0  501  0.00000000000E+00  0.00000000000E+00  0.10595558354E+04  0.10595558354E+04  0.25500000920E-02 0.  1.
        2   -1    0    0  501    0  0.00000000000E+00  0.00000000000E+00 -0.10396551672E+04  0.10396551672E+04  0.25500000920E-02 0. -1.
    10030    2    1    2    0    0  0.00000000000E+00  0.00000000000E+00  0.19900668129E+02  0.20992110026E+04  0.20991166706E+04 0.  0.
        5    1    3    3  502    0 -0.67918955917E+03  0.13649221918E+03 -0.77851519930E+03  0.10421307925E+04  0.46999998093E+01 0. -1.
       -5    1    3    3    0  502  0.67918955917E+03 -0.13649221918E+03  0.79841586743E+03  0.10570802101E+04  0.46999998093E+01 0.  1.
</event>
<event>
 5   0  0.3574927E-06  0.2099857E+04  0.7818609E-02  0.8561306E-01
        2   -1    0    0  501    0  0.00000000000E+00  0.00000000000E+00  0.18294742672E+04  0.18294742672E+04  0.25500000920E-02 0.  1.
       -2   -1    0    0    0  501  0.00000000000E+00  0.00000000000E+00 -0.60255015094E+03  0.60255015095E+03  0.25500000920E-02 0. -1.
    10030    2    1    2    0    0  0.00000000000E+00  0.00000000000E+00  0.12269241163E+04  0.24320244181E+04  0.20998571340E+04 0.  0.
        3    1    3    3  502    0 -0.13495254158E+03 -0.79105569198E+03 -0.17066358165E+03  0.82043120649E+03  0.10100000352E+00 0. -1.
       -3    1    3    3    0  502  0.13495254158E+03  0.79105569198E+03  0.13975876979E+04  0.16115932116E+04  0.10100000352E+00 0.  1.
</event>
<event>
 5   0  0.3480134E-06  0.2099764E+04  0.7818609E-02  0.8561347E-01
        2   -1    0    0  501    0  0.00000000000E+00  0.00000000000E+00  0.15006203010E+04  0.15006203010E+04  0.25500000920E-02 0.  1.
       -2   -1    0    0    0  501  0.00000000000E+00  0.00000000000E+00 -0.73453098904E+03  0.73453098904E+03  0.25500000920E-02 0. -1.
    10030    2    1    2    0    0  0.00000000000E+00  0.00000000000E+00  0.76608931193E+03  0.22351512900E+04  0.20997639047E+04 0.  0.
        1    1    3    3  502    0 -0.75804520210E+03 -0.65036513267E+03  0.72739081446E+03  0.12355989362E+04  0.50400001928E-02 0.  1.
       -1    1    3    3    0  502  0.75804520210E+03  0.65036513267E+03  0.38698497474E+02  0.99955235379E+03  0.50400001928E-02 0. -1.
</event>
<event>
 5   0  0.1579820E-06  0.2100757E+04  0.7818609E-02  0.8560910E-01
        1   -1    0    0  501    0  0.00000000000E+00  0.00000000000E+00  0.63211381945E+03  0.63211381947E+03  0.50400001928E-02 0.  1.
       -1   -1    0    0    0  501  0.00000000000E+00  0.00000000000E+00 -0.17454059832E+04  0.17454059832E+04  0.50400001928E-02 0. -1.
    10030    2    1    2    0    0  0.00000000000E+00  0.00000000000E+00 -0.11132921638E+04  0.23775198027E+04  0.21007572373E+04 0.  0.
        2    1    3    3  502    0  0.13399078014E+02  0.73273511584E+03 -0.14082525343E+04  0.15875312550E+04  0.25500000920E-02 0. -1.
       -2    1    3    3    0  502 -0.13399078014E+02 -0.73273511584E+03  0.29496037052E+03  0.78998854768E+03  0.25500000920E-02 0.  1.
</event>
<event>
 5   0  0.1615098E-06  0.2100083E+04  0.7818609E-02  0.8561207E-01
       -1   -1    0    0    0  501  0.00000000000E+00  0.00000000000E+00  0.87176636823E+03  0.87176636825E+03  0.50400001928E-02 0. -1.
        1   -1    0    0  501    0  0.00000000000E+00  0.00000000000E+00 -0.12647737805E+04  0.12647737805E+04  0.50400001928E-02 0.  1.
    10030    2    1    2    0    0  0.00000000000E+00  0.00000000000E+00 -0.39300741223E+03  0.21365401487E+04  0.21000830891E+04 0.  0.
        1    1    3    3  502    0 -0.53190228291E+03 -0.73659470484E+03 -0.73204045255E+03  0.11667797658E+04  0.50400001928E-02 0.  1.
       -1    1    3    3    0  502  0.53190228291E+03  0.73659470484E+03  0.33903304032E+03  0.96976038288E+03  0.50400001928E-02 0. -1.
</event>
<event>
 5   0  0.3705828E-06  0.2100417E+04  0.7818609E-02  0.8561060E-01
        2   -1    0    0  501    0  0.00000000000E+00  0.00000000000E+00  0.17424520377E+04  0.17424520378E+04  0.25500000920E-02 0. -1.
       -2   -1    0    0    0  501  0.00000000000E+00  0.00000000000E+00 -0.63298035363E+03  0.63298035363E+03  0.25500000920E-02 0.  1.
    10030    2    1    2    0    0  0.00000000000E+00  0.00000000000E+00  0.11094716841E+04  0.23754323914E+04  0.21004170129E+04 0.  0.
        5    1    3    3  502    0  0.10355013902E+04  0.51848396948E+02  0.74385701204E+03  0.12760473070E+04  0.46999998093E+01 0.  1.
       -5    1    3    3    0  502 -0.10355013902E+04 -0.51848396948E+02  0.36561467208E+03  0.10993850844E+04  0.46999998093E+01 0. -1.
</event>
<event>
 5   0  0.1590067E-06  0.2099975E+04  0.7818609E-02  0.8561254E-01
       -1   -1    0    0    0  501  0.00000000000E+00  0.00000000000E+00  0.95420625725E+03  0.95420625726E+03  0.50400001928E-02 0. -1.
        1   -1    0    0  501    0  0.00000000000E+00  0.00000000000E+00 -0.11553833044E+04  0.11553833044E+04  0.50400001928E-02 0.  1.
    10030    2    1    2    0    0  0.00000000000E+00  0.00000000000E+00 -0.20117704713E+03  0.21095895617E+04  0.20999752176E+04 0.  0.
        5    1    3    3  502    0 -0.70531873938E+02  0.97665180336E+03 -0.48130700288E+03  0.10911012837E+04  0.46999998093E+01 0.  1.
       -5    1    3    3    0  502  0.70531873938E+02 -0.97665180336E+03  0.28012995575E+03  0.10184882780E+04  0.46999998093E+01 0. -1.
</event>
<event>
 5   0  0.1646510E-06  0.2100011E+04  0.7818609E-02  0.8561239E-01
       -1   -1    0    0    0  501  0.00000000000E+00  0.00000000000E+00  0.13574517163E+04  0.13574517163E+04  0.50400001928E-02 0.  1.
        1   -1    0    0  501    0  0.00000000000E+00  0.00000000000E+00 -0.81219201582E+03  0.81219201583E+03  0.50400001928E-02 0. -1.
    10030    2    1    2    0    0  0.00000000000E+00  0.00000000000E+00  0.54525970047E+03  0.21696437321E+04  0.21000109008E+04 0.  0.
        4    1    3    3  502    0  0.36096084186E+03 -0.22761054289E+03 -0.71856187936E+03  0.83572248740E+03  0.12699999809E+01 0. -1.
       -4    1    3    3    0  502 -0.36096084186E+03  0.22761054289E+03  0.12638215798E+04  0.13339212447E+04  0.12699999809E+01 0.  1.
</event>
<event>
 5   0  0.3705828E-06  0.2099517E+04  0.7818609E-02  0.8561456E-01
       -2   -1    0    0    0  501  0.00000000000E+00  0.00000000000E+00  0.80044368174E+03  0.80044368175E+03  0.25500000920E-02 0.  1.
        2   -1    0    0  501    0  0.00000000000E+00  0.00000000000E+00 -0.13767279193E+04  0.13767279193E+04  0.25500000920E-02 0. -1.
    10030    2    1    2    0    0  0.00000000000E+00  0.00000000000E+00 -0.57628423760E+03  0.21771716011E+04  0.20995172441E+04 0.  0.
        5    1    3    3  502    0 -0.15691056675E+03  0.34858678638E+03  0.72568808335E+03  0.82023103935E+03  0.46999998093E+01 0.  1.
       -5    1    3    3    0  502  0.15691056675E+03 -0.34858678638E+03 -0.13019723209E+04  0.13569405617E+04  0.46999998093E+01 0. -1.
</event>
<event>
 5   0  0.1590067E-06  0.2099965E+04  0.7818609E-02  0.8561259E-01
       -1   -1    0    0    0  501  0.00000000000E+00  0.00000000000E+00  0.12604661649E+04  0.12604661649E+04  0.50400001928E-02 0.  1.
        1   -1    0    0  501    0  0.00000000000E+00  0.00000000000E+00 -0.87464719416E+03  0.87464719418E+03  0.50400001928E-02 0. -1.
    10030    2    1    2    0    0  0.00000000000E+00  0.00000000000E+00  0.38581897072E+03  0.21351133591E+04  0.20999649468E+04 0.  0.
        5    1    3    3  502    0 -0.18758264400E+03  0.16421046406E+02  0.12431478716E+04  0.12573367170E+04  0.46999998093E+01 0.  1.
       -5    1    3    3    0  502  0.18758264400E+03 -0.16421046406E+02 -0.85732890091E+03  0.87777664211E+03  0.46999998093E+01 0. -1.
</event>
<event>
 5   0  0.3705828E-06  0.2099203E+04  0.7818609E-02  0.8561595E-01
        2   -1    0    0  501    0  0.00000000000E+00  0.00000000000E+00  0.18113997953E+04  0.18113997953E+04  0.25500000920E-02 0.  1.
       -2   -1    0    0    0  501  0.00000000000E+00  0.00000000000E+00 -0.60818331624E+03  0.60818331625E+03  0.25500000920E-02 0. -1.
    10030    2    1    2    0    0  0.00000000000E+00  0.00000000000E+00  0.12032164790E+04  0.24195831115E+04  0.20992028340E+04 0.  0.
        5    1    3    3  502    0  0.72387480938E+03  0.16308212444E+03 -0.25401357967E+03  0.78430574882E+03  0.46999998093E+01 0. -1.
       -5    1    3    3    0  502 -0.72387480938E+03 -0.16308212444E+03  0.14572300587E+04  0.16352773627E+04  0.46999998093E+01 0.  1.
</event>
<event>
 5   0  0.3636435E-06  0.2100161E+04  0.7818609E-02  0.8561173E-01
       -2   -1    0    0    0  501  0.00000000000E+00  0.00000000000E+00  0.66503729066E+03  0.66503729066E+03  0.25500000920E-02 0. -1.
        2   -1    0    0  501    0  0.00000000000E+00  0.00000000000E+00 -0.16580552936E+04  0.16580552936E+04  0.25500000920E-02 0.  1.
    10030    2    1    2    0    0  0.00000000000E+00  0.00000000000E+00 -0.99301800297E+03  0.23230925843E+04  0.21001605655E+04 0.  0.
        4    1    3    3  502    0  0.85843451995E+03  0.32645473676E+03 -0.10596517607E+04  0.14022645923E+04  0.12699999809E+01 0. -1.
       -4    1    3    3    0  502 -0.85843451995E+03 -0.32645473676E+03  0.66633757684E+02  0.92082799195E+03  0.12699999809E+01 0.  1.
</event>
<event>
 5   0  0.3480134E-06  0.2099232E+04  0.7818609E-02  0.8561582E-01
       -2   -1    0    0    0  501  0.00000000000E+00  0.00000000000E+00  0.12828888014E+04  0.12828888014E+04  0.25500000920E-02 0. -1.
        2   -1    0    0  501    0  0.00000000000E+00  0.00000000000E+00 -0.85876005217E+03  0.85876005217E+03  0.25500000920E-02 0.  1.
    10030    2    1    2    0    0  0.00000000000E+00  0.00000000000E+00  0.42412874923E+03  0.21416488536E+04  0.20992319110E+04 0.  0.
        1    1    3    3  502    0  0.65945862189E+03 -0.41147240418E+03  0.93165203504E+03  0.12133304281E+04  0.50400001928E-02 0.  1.
       -1    1    3    3    0  502 -0.65945862189E+03  0.41147240418E+03 -0.50752328581E+03  0.92831842546E+03  0.50400001928E-02 0. -1.
</event>
<event>
 5   0  0.3480134E-06  0.2100280E+04  0.7818609E-02  0.8561120E-01
       -2   -1    0    0    0  501  0.00000000000E+00  0.00000000000E+00  0.83961979025E+03  0.83961979025E+03  0.25500000920E-02 0. -1.
        2   -1    0    0  501    0  0.00000000000E+00  0.00000000000E+00 -0.13134449420E+04  0.13134449420E+04  0.25500000920E-02 0.  1.
    10030    2    1    2    0    0  0.00000000000E+00  0.00000000000E+00 -0.47382515172E+03  0.21530647322E+04  0.21002803305E+04 0.  0.
        1    1    3    3  502    0  0.14891547310E+03 -0.10073426943E+04  0.26207586285E+02  0.10186274881E+04  0.50400001928E-02 0. -1.
       -1    1    3    3    0  502 -0.14891547310E+03  0.10073426943E+04 -0.50003273800E+03  0.11344372442E+04  0.50400001928E-02 0.  1.
</event>
<event>
 5   0  0.1579820E-06  0.2098067E+04  0.7818609E-02  0.8562095E-01
       -1   -1    0    0    0  501  0.00000000000E+00  0.00000000000E+00  0.10513648277E+04  0.10513648277E+04  0.50400001928E-02 0.  1.
        1   -1    0    0  501    0  0.00000000000E+00  0.00000000000E+00 -0.10467071652E+04  0.10467071652E+04  0.50400001928E-02 0. -1.
    10030    2    1    2    0    0  0.00000000000E+00  0.00000000000E+00  0.46576625198E+01  0.20980719929E+04  0.20980668230E+04 0.  0.
        2    1    3    3  502    0 -0.71606049454E+03 -0.21053631332E+03  0.73948933306E+03  0.10506724727E+04  0.25500000920E-02 0.  1.
       -2    1    3    3    0  502  0.71606049454E+03  0.21053631332E+03 -0.73483167054E+03  0.10473995203E+04  0.25500000920E-02 0. -1.
</event>
<event>
 5   0  0.3480134E-06  0.2100543E+04  0.7818609E-02  0.8561004E-01
        2   -1    0    0  501    0  0.00000000000E+00  0.00000000000E+00  0.19525702917E+04  0.19525702917E+04  0.25500000920E-02 0. -1.
       -2   -1    0    0    0  501  0.00000000000E+00  0.00000000000E+00 -0.56493259756E+03  0.56493259756E+03  0.25500000920E-02 0.  1.
    10030    2    1    2    0    0  0.00000000000E+00  0.00000000000E+00  0.13876376942E+04  0.25175028893E+04  0.21005433648E+04 0.  0.
        1    1    3    3  502    0 -0.88260730007E+03 -0.73398424020E+01  0.13760396583E+04  0.16347888734E+04  0.50400001928E-02 0. -1.
       -1    1    3    3    0  502  0.88260730007E+03  0.73398424020E+01  0.11598035919E+02  0.88271401591E+03  0.50400001928E-02 0.  1.
</event>
<event>
 5   0  0.1590067E-06  0.2100137E+04  0.7818609E-02  0.8561183E-01
       -1   -1    0    0    0  501  0.00000000000E+00  0.00000000000E+00  0.44278000580E+03  0.44278000582E+03  0.50400001928E-02 0. -1.
        1   -1    0    0  501    0  0.00000000000E+00  0.00000000000E+00 -0.24902757157E+04  0.24902757157E+04  0.50400001928E-02 0.  1.
    10030    2    1    2    0    0  0.00000000000E+00  0.00000000000E+00 -0.20474957099E+04  0.29330557215E+04  0.21001374201E+04 0.  0.
        5    1    3    3  502    0 -0.41193831249E+03 -0.51039440296E+03  0.12148826904E+03  0.66706604574E+03  0.46999998093E+01 0. -1.
       -5    1    3    3    0  502  0.41193831249E+03  0.51039440296E+03 -0.21689839789E+04  0.22659896758E+04  0.46999998093E+01 0.  1.
</event>
<event>
 5   0  0.1653260E-06  0.2100394E+04  0.7818609E-02  0.8561070E-01
        1   -1    0    0  501    0  0.00000000000E+00  0.00000000000E+00  0.31899873308E+03  0.31899873312E+03  0.50400001928E-02 0. -1.
       -1   -1    0    0    0  501  0.00000000000E+00  0.00000000000E+00 -0.34574221575E+04  0.34574221575E+04  0.50400001928E-02 0.  1.
    10030    2    1    2    0    0  0.00000000000E+00  0.00000000000E+00 -0.31384234244E+04  0.37764208906E+04  0.21003935708E+04 0.  0.
        3    1    3    3  502    0  0.91233099151E+03 -0.33204681784E+03 -0.84933107396E+03  0.12899481426E+04  0.10100000352E+00 0. -1.
       -3    1    3    3    0  502 -0.91233099151E+03  0.33204681784E+03 -0.22890923505E+04  0.24864727480E+04  0.10100000352E+00 0.  1.
</event>
<event>
 5   0  0.3636435E-06  0.2097443E+04  0.7818609E-02  0.8562371E-01
        2   -1    0    0  501    0  0.00000000000E+00  0.00000000000E+00  0.14589370847E+04  0.14589370847E+04  0.25500000920E-02 0.  1.
       -2   -1    0    0    0  501  0.00000000000E+00  0.00000000000E+00 -0.75384790726E+03  0.75384790726E+03  0.25500000920E-02 0. -1.
    10030    2    1    2    0    0  0.00000000000E+00  0.00000000000E+00  0.70508917742E+03  0.22127849919E+04  0.20974428890E+04 0.  0.
        4    1    3    3  502    0  0.39738480338E+03 -0.17333854852E+03 -0.65487816458E+03  0.78538395559E+03  0.12699999809E+01 0. -1.
       -4    1    3    3    0  502 -0.39738480338E+03  0.17333854852E+03  0.13599673420E+04  0.14274010363E+04  0.12699999809E+01 0.  1.
</event>
<event>
 5   0  0.1646510E-06  0.2099752E+04  0.7818609E-02  0.8561353E-01
       -1   -1    0    0    0  501  0.00000000000E+00  0.00000000000E+00  0.83534542559E+03  0.83534542561E+03  0.50400001928E-02 0.  1.
        1   -1    0    0  501    0  0.00000000000E+00  0.00000000000E+00 -0.13195012612E+04  0.13195012613E+04  0.50400001928E-02 0. -1.
    10030    2    1    2    0    0  0.00000000000E+00  0.00000000000E+00 -0.48415583565E+03  0.21548466869E+04  0.20997517403E+04 0.  0.
        4    1    3    3  502    0  0.23200650705E+03  0.61447862112E+03 -0.10826086705E+04  0.12662756973E+04  0.12699999809E+01 0. -1.
       -4    1    3    3    0  502 -0.23200650705E+03 -0.61447862112E+03  0.59845283485E+03  0.88857098960E+03  0.12699999809E+01 0.  1.
</event>
<event>
 5   0  0.3574927E-06  0.2098602E+04  0.7818609E-02  0.8561860E-01
        2   -1    0    0  501    0  0.00000000000E+00  0.00000000000E+00  0.14425672831E+04  0.14425672831E+04  0.25500000920E-02 0. -1.
       -2   -1    0    0    0  501  0.00000000000E+00  0.00000000000E+00 -0.76324486682E+03  0.76324486683E+03  0.25500000920E-02 0.  1.
    10030    2    1    2    0    0  0.00000000000E+00  0.00000000000E+00  0.67932241630E+03  0.22058121500E+04  0.20986015095E+04 0.  0.
        3    1    3    3  502    0  0.18451476761E+02  0.50072367573E+03  0.13086966915E+04  0.14013392512E+04  0.10100000352E+00 0. -1.
       -3    1    3    3    0  502 -0.18451476761E+02 -0.50072367573E+03 -0.62937427517E+03  0.80447289878E+03  0.10100000352E+00 0.  1.
</event>
<event>
 5   0  0.3574927E-06  0.2100281E+04  0.7818609E-02  0.8561120E-01
        2   -1    0    0  501    0  0.00000000000E+00  0.00000000000E+00  0.77305864376E+03  0.77305864377E+03  0.25500000920E-02 0.  1.
       -2   -1    0    0    0  501  0.00000000000E+00  0.00000000000E+00 -0.14265343395E+04  0.14265343395E+04  0.25500000920E-02 0. -1.
    10030    2    1    2    0    0  0.00000000000E+00  0.00000000000E+00 -0.65347569575E+03  0.21995929833E+04  0.21002806496E+04 0.  0.
        3    1    3    3  502    0  0.86772163041E+03 -0.56176508145E+03 -0.52062386284E+03  0.11573979659E+04  0.10100000352E+00 0. -1.
       -3    1    3    3    0  502 -0.86772163041E+03  0.56176508145E+03 -0.13285183291E+03  0.10421950174E+04  0.10100000352E+00 0.  1.
</event>
<event>
 5   0  0.3574927E-06  0.2101426E+04  0.7818609E-02  0.8560615E-01
       -2   -1    0    0    0  501  0.00000000000E+00  0.00000000000E+00  0.46713970038E+03  0.46713970039E+03  0.25500000920E-02 0.  1.
        2   -1    0    0  501    0  0.00000000000E+00  0.00000000000E+00 -0.23633139073E+04  0.23633139073E+04  0.25500000920E-02 0. -1.
    10030    2    1    2    0    0  0.00000000000E+00  0.00000000000E+00 -0.18961742069E+04  0.28304536077E+04  0.21014259450E+04 0.  0.
        3    1    3    3  502    0  0.21740899949E+03  0.37231833569E+03 -0.22386802048E+04  0.22798194415E+04  0.10100000352E+00 0. -1.
       -3    1    3    3    0  502 -0.21740899949E+03 -0.37231833569E+03  0.34250599792E+03  0.55063416618E+03  0.10100000352E+00 0.  1.
</event>
<event>
 5   0  0.1579820E-06  0.2099173E+04  0.7818609E-02  0.8561608E-01
        1   -1    0    0  501    0  0.00000000000E+00  0.00000000000E+00  0.24313811802E+04  0.24313811802E+04  0.50400001928E-02 0.  1.
       -1   -1    0    0    0  501  0.00000000000E+00  0.00000000000E+00 -0.45308887776E+03  0.45308887779E+03  0.50400001928E-02 0. -1.
    10030    2    1    2    0    0  0.00000000000E+00  0.00000000000E+00  0.19782923025E+04  0.28844700580E+04  0.20991729518E+04 0.  0.
        2    1    3    3  502    0 -0.87004515049E+03 -0.19678667551E+03  0.22912167841E+03  0.92097790586E+03  0.25500000920E-02 0. -1.
       -2    1    3    3    0  502  0.87004515049E+03  0.19678667551E+03  0.17491706241E+04  0.19634921522E+04  0.25500000920E-02 0.  1.
</event>
<event>
 5   0  0.3705828E-06  0.2099532E+04  0.7818609E-02  0.8561449E-01
        2   -1    0    0  501    0  0.00000000000E+00  0.00000000000E+00  0.79228597414E+03  0.79228597414E+03  0.25500000920E-02 0. -1.
       -2   -1    0    0    0  501  0.00000000000E+00  0.00000000000E+00 -0.13909231767E+04  0.13909231767E+04  0.25500000920E-02 0.  1.
    10030    2    1    2    0    0  0.00000000000E+00  0.00000000000E+00 -0.59863720258E+03  0.21832091509E+04  0.20995322565E+04 0.  0.
        5    1    3    3  502    0 -0.20202040743E+03  0.99214853708E+03 -0.58752144831E+03  0.11706299615E+04  0.46999998093E+01 0.  1.
       -5    1    3    3    0  502  0.20202040743E+03 -0.99214853708E+03 -0.11115754276E+02  0.10125791893E+04  0.46999998093E+01 0. -1.
</event>
<event>
 5   0  0.3705828E-06  0.2099872E+04  0.7818609E-02  0.8561300E-01
       -2   -1    0    0    0  501  0.00000000000E+00  0.00000000000E+00  0.77560115405E+03  0.77560115405E+03  0.25500000920E-02 0.  1.
        2   -1    0    0  501    0  0.00000000000E+00  0.00000000000E+00 -0.14213046950E+04  0.14213046950E+04  0.25500000920E-02 0. -1.
    10030    2    1    2    0    0  0.00000000000E+00  0.00000000000E+00 -0.64570354091E+03  0.21969058490E+04  0.20998719596E+04 0.  0.
        5    1    3    3  502    0 -0.20135929332E+03 -0.99417534141E+03 -0.39382493618E+02  0.10151370574E+04  0.46999998093E+01 0. -1.
       -5    1    3    3    0  502  0.20135929332E+03  0.99417534141E+03 -0.60632104729E+03  0.11817687916E+04  0.46999998093E+01 0.  1.
</event>
<event>
 5   0  0.3636435E-06  0.2098586E+04  0.7818609E-02  0.8561867E-01
       -2   -1    0    0    0  501  0.00000000000E+00  0.00000000000E+00  0.45127385882E+03  0.45127385883E+03  0.25500000920E-02 0.  1.
        2   -1    0    0  501    0  0.00000000000E+00  0.00000000000E+00 -0.24397943885E+04  0.24397943885E+04  0.25500000920E-02 0. -1.
    10030    2    1    2    0    0  0.00000000000E+00  0.00000000000E+00 -0.19885205296E+04  0.28910682473E+04  0.20985856460E+04 0.  0.
        4    1    3    3  502    0 -0.99065650853E+03 -0.15262025310E+03 -0.14218144246E+04  0.17396123507E+04  0.12699999809E+01 0. -1.
       -4    1    3    3    0  502  0.99065650853E+03  0.15262025310E+03 -0.56670610499E+03  0.11514558966E+04  0.12699999809E+01 0.  1.
</event>
<event>
 5   0  0.3636435E-06  0.2098341E+04  0.7818609E-02  0.8561974E-01
        2   -1    0    0  501    0  0.00000000000E+00  0.00000000000E+00  0.18888952211E+04  0.18888952211E+04  0.25500000920E-02 0. -1.
       -2   -1    0    0    0  501  0.00000000000E+00  0.00000000000E+00 -0.58275281726E+03  0.58275281727E+03  0.25500000920E-02 0.  1.
    10030    2    1    2    0    0  0.00000000000E+00  0.00000000000E+00  0.13061424039E+04  0.24716480384E+04  0.20983412607E+04 0.  0.
        4    1    3    3  502    0 -0.10410184186E+03  0.76711114032E+01 -0.57662019465E+03  0.58599360168E+03  0.12699999809E+01 0.  1.
       -4    1    3    3    0  502  0.10410184186E+03 -0.76711114032E+01  0.18827625985E+04  0.18856544367E+04  0.12699999809E+01 0. -1.
</event>
<event>
 5   0  0.1579820E-06  0.2099459E+04  0.7818609E-02  0.8561482E-01
        1   -1    0    0  501    0  0.00000000000E+00  0.00000000000E+00  0.25931992101E+04  0.25931992101E+04  0.50400001928E-02 0.  1.
       -1   -1    0    0    0  501  0.00000000000E+00  0.00000000000E+00 -0.42493167300E+03  0.42493167303E+03  0.50400001928E-02 0. -1.
    10030    2    1    2    0    0  0.00000000000E+00  0.00000000000E+00  0.21682675371E+04  0.30181308831E+04  0.20994594341E+04 0.  0.
        2    1    3    3  502    0  0.48131891860E+03  0.27033393756E+03  0.23676752434E+04  0.24311796309E+04  0.25500000920E-02 0.  1.
       -2    1    3    3    0  502 -0.48131891860E+03 -0.27033393756E+03 -0.19940770632E+03  0.58695125227E+03  0.25500000920E-02 0. -1.
</event>
<event>
 5   0  0.3574927E-06  0.2100566E+04  0.7818609E-02  0.8560994E-01
       -2   -1    0    0    0  501  0.00000000000E+00  0.00000000000E+00  0.14858462014E+04  0.14858462014E+04  0.25500000920E-02 0.  1.
        2   -1    0    0  501    0  0.00000000000E+00  0.00000000000E+00 -0.74240130334E+03  0.74240130334E+03  0.25500000920E-02 0. -1.
    10030    2    1    2    0    0  0.00000000000E+00  0.00000000000E+00  0.74344489805E+03  0.22282475047E+04  0.21005657871E+04 0.  0.
        3    1    3    3  502    0 -0.65449505262E+03 -0.11973370683E+03 -0.49032023468E+03  0.82650703396E+03  0.10100000352E+00 0. -1.
       -3    1    3    3    0  502  0.65449505262E+03  0.11973370683E+03  0.12337651327E+04  0.14017404708E+04  0.10100000352E+00 0.  1.
</event>
<event>
 5   0  0.1646510E-06  0.2100948E+04  0.7818609E-02  0.8560826E-01
        1   -1    0    0  501    0  0.00000000000E+00  0.00000000000E+00  0.11186086236E+04  0.11186086236E+04  0.50400001928E-02 0. -1.
       -1   -1    0    0    0  501  0.00000000000E+00  0.00000000000E+00 -0.98648984208E+03  0.98648984210E+03  0.50400001928E-02 0.  1.
    10030    2    1    2    0    0  0.00000000000E+00  0.00000000000E+00  0.13211878148E+03  0.21050984657E+04  0.21009483996E+04 0.  0.
        4    1    3    3  502    0  0.14584556280E+03  0.11243823293E+03  0.11023078511E+04  0.11175855654E+04  0.12699999809E+01 0. -1.
       -4    1    3    3    0  502 -0.14584556280E+03 -0.11243823293E+03 -0.97018906966E+03  0.98751290027E+03  0.12699999809E+01 0.  1.
</event>
<event>
 5   0  0.3480134E-06  0.2100180E+04  0.7818609E-02  0.8561164E-01
        2   -1    0    0  501    0  0.00000000000E+00  0.00000000000E+00  0.73908706978E+03  0.73908706979E+03  0.25500000920E-02 0.  1.
       -2   -1    0    0    0  501  0.00000000000E+00  0.00000000000E+00 -0.14919601923E+04  0.14919601923E+04  0.25500000920E-02 0. -1.
    10030    2    1    2    0    0  0.00000000000E+00  0.00000000000E+00 -0.75287312249E+03  0.22310472621E+04  0.21001795035E+04 0.  0.
        1    1    3    3  502    0 -0.84678581853E+03 -0.24667043049E+03 -0.98185781899E+03  0.13198247234E+04  0.50400001928E-02 0. -1.
       -1    1    3    3    0  502  0.84678581853E+03  0.24667043049E+03  0.22898469649E+03  0.91122253867E+03  0.50400001928E-02 0.  1.
</event>
<event>
 5   0  0.3547583E-06  0.2099461E+04  0.7818609E-02  0.8561481E-01
       -2   -1    0    0    0  501  0.00000000000E+00  0.00000000000E+00  0.97893878606E+03  0.97893878607E+03  0.25500000920E-02 0.  1.
        2   -1    0    0  501    0  0.00000000000E+00  0.00000000000E+00 -0.11256412834E+04  0.11256412834E+04  0.25500000920E-02 0. -1.
    10030    2    1    2    0    0  0.00000000000E+00  0.00000000000E+00 -0.14670249735E+03  0.21045800695E+04  0.20994607989E+04 0.  0.
        2    1    3    3  502    0  0.90478721604E+02 -0.96184337761E+03  0.33826516882E+03  0.10235977758E+04  0.25500000920E-02 0.  1.
       -2    1    3    3    0  502 -0.90478721604E+02  0.96184337761E+03 -0.48496766617E+03  0.10809822937E+04  0.25500000920E-02 0. -1.
</event>
<event>
 5   0  0.1646510E-06  0.2098443E+04  0.7818609E-02  0.8561930E-01
       -1   -1    0    0    0  501  0.00000000000E+00  0.00000000000E+00  0.45019278720E+03  0.45019278723E+03  0.50400001928E-02 0.  1.
        1   -1    0    0  501    0  0.00000000000E+00  0.00000000000E+00 -0.24453203814E+04  0.24453203814E+04  0.50400001928E-02 0. -1.
    10030    2    1    2    0    0  0.00000000000E+00  0.00000000000E+00 -0.19951275942E+04  0.28955131687E+04  0.20984428495E+04 0.  0.
        4    1    3    3  502    0  0.26420540444E+03 -0.73521035099E+03 -0.31159008277E+02  0.78186396044E+03  0.12699999809E+01 0.  1.
       -4    1    3    3    0  502 -0.26420540444E+03  0.73521035099E+03 -0.19639685860E+04  0.21136492082E+04  0.12699999809E+01 0. -1.
</event>
<event>
 5   0  0.1579820E-06  0.2100807E+04  0.7818609E-02  0.8560888E-01
        1   -1    0    0  501    0  0.00000000000E+00  0.00000000000E+00  0.13103707815E+04  0.13103707815E+04  0.50400001928E-02 0. -1.
       -1   -1    0    0    0  501  0.00000000000E+00  0.00000000000E+00 -0.84201156286E+03  0.84201156287E+03  0.50400001928E-02 0.  1.
    10030    2    1    2    0    0  0.00000000000E+00  0.00000000000E+00  0.46835921862E+03  0.21523823444E+04  0.21008068447E+04 0.  0.
        2    1    3    3  502    0 -0.70175463004E+03  0.77048094103E+03  0.36873122758E+03  0.11054696556E+04  0.25500000920E-02 0. -1.
       -2    1    3    3    0  502  0.70175463004E+03 -0.77048094103E+03  0.99627991045E+02  0.10469126888E+04  0.25500000920E-02 0.  1.
</event>
<event>
 5   0  0.3636435E-06  0.2100096E+04  0.7818609E-02  0.8561201E-01
        2   -1    0    0  501    0  0.00000000000E+00  0.00000000000E+00  0.27394509189E+04  0.27394509189E+04  0.25500000920E-02 0. -1.
       -2   -1    0    0    0  501  0.00000000000E+00  0.00000000000E+00 -0.40248960364E+03  0.40248960365E+03  0.25500000920E-02 0.  1.
    10030    2    1    2    0    0  0.00000000000E+00  0.00000000000E+00  0.23369613152E+04  0.31419405225E+04  0.21000957260E+04 0.  0.
        4    1    3    3  502    0 -0.48633365045E+03  0.91431517098E+03  0.14280702053E+04  0.17640518064E+04  0.12699999809E+01 0. -1.
       -4    1    3    3    0  502  0.48633365045E+03 -0.91431517098E+03  0.90889110993E+03  0.13778887161E+04  0.12699999809E+01 0.  1.
</event>
<event>
 5   0  0.3636435E-06  0.2101372E+04  0.7818609E-02  0.8560639E-01
       -2   -1    0    0    0  501  0.00000000000E+00  0.00000000000E+00  0.94708406222E+03  0.94708406222E+03  0.25500000920E-02 0.  1.
        2   -1    0    0  501    0  0.00000000000E+00  0.00000000000E+00 -0.11656207551E+04  0.11656207551E+04  0.25500000920E-02 0. -1.
    10030    2    1    2    0    0  0.00000000000E+00  0.00000000000E+00 -0.21853669290E+03  0.21127048173E+04  0.21013717803E+04 0.  0.
        4    1    3    3  502    0  0.39238896442E+03 -0.42527510462E+03  0.77245126040E+03  0.96514795580E+03  0.12699999809E+01 0.  1.
       -4    1    3    3    0  502 -0.39238896442E+03  0.42527510462E+03 -0.99098795330E+03  0.11475568615E+04  0.12699999809E+01 0. -1.
</event>
<event>
 5   0  0.1646510E-06  0.2098953E+04  0.7818609E-02  0.8561705E-01
        1   -1    0    0  501    0  0.00000000000E+00  0.00000000000E+00  0.12422902615E+04  0.12422902615E+04  0.50400001928E-02 0. -1.
       -1   -1    0    0    0  501  0.00000000000E+00  0.00000000000E+00 -0.88658926350E+03  0.88658926351E+03  0.50400001928E-02 0.  1.
    10030    2    1    2    0    0  0.00000000000E+00  0.00000000000E+00  0.35570099801E+03  0.21288795250E+04  0.20989532706E+04 0.  0.
        4    1    3    3  502    0  0.53449971752E+03  0.71804008226E+03 -0.37779990629E+03  0.97159965513E+03  0.12699999809E+01 0.  1.
       -4    1    3    3    0  502 -0.53449971752E+03 -0.71804008226E+03  0.73350090430E+03  0.11572798699E+04  0.12699999809E+01 0. -1.
</event>
<event>
 5   0  0.1579820E-06  0.2100322E+04  0.7818609E-02  0.8561101E-01
        1   -1    0    0  501    0  0.00000000000E+00  0.00000000000E+00  0.13951683785E+04  0.13951683785E+04  0.50400001928E-02 0.  1.
       -1   -1    0    0    0  501  0.00000000000E+00  0.00000000000E+00 -0.79046988551E+03  0.79046988553E+03  0.50400001928E-02 0. -1.
    10030    2    1    2    0    0  0.00000000000E+00  0.00000000000E+00  0.60469849300E+03  0.21856382641E+04  0.21003224404E+04 0.  0.
        2    1    3    3  502    0  0.67701810825E+03  0.36545975153E+03 -0.44147540314E+03  0.88702586235E+03  0.25500000920E-02 0. -1.
       -2    1    3    3    0  502 -0.67701810825E+03 -0.36545975153E+03  0.10461738961E+04  0.12986124017E+04  0.25500000920E-02 0.  1.
</event>
<event>
 5   0  0.3705828E-06  0.2100379E+04  0.7818609E-02  0.8561076E-01
        2   -1    0    0  501    0  0.00000000000E+00  0.00000000000E+00  0.15334431049E+04  0.15334431049E+04  0.25500000920E-02 0.  1.
       -2   -1    0    0    0  501  0.00000000000E+00  0.00000000000E+00 -0.71922996711E+03  0.71922996711E+03  0.25500000920E-02 0. -1.
    10030    2    1    2    0    0  0.00000000000E+00  0.00000000000E+00  0.81421313780E+03  0.22526730720E+04  0.21003792361E+04 0.  0.
        5    1    3    3  502    0  0.89257193601E+03 -0.53353163366E+03  0.56449677991E+03  0.11832241417E+04  0.46999998093E+01 0.  1.
       -5    1    3    3    0  502 -0.89257193601E+03  0.53353163366E+03  0.24971635789E+03  0.10694489303E+04  0.46999998093E+01 0. -1.
</event>
<event>
 5   0  0.1257125E-06  0.2099481E+04  0.7818609E-02  0.8561472E-01
        4   -1    0    0  501    0  0.00000000000E+00  0.00000000000E+00  0.22364562677E+04  0.22364566283E+04  0.12699999809E+01 0. -1.
       -4   -1    0    0    0  501  0.00000000000E+00  0.00000000000E+00 -0.49272248629E+03  0.49272412301E+03  0.12699999809E+01 0.  1.
    10030    2    1    2    0    0  0.00000000000E+00  0.00000000000E+00  0.17437337814E+04  0.27291807513E+04  0.20994809056E+04 0.  0.
        2    1    3    3  502    0 -0.71733222713E+03 -0.24799102390E+03  0.18145545125E+04  0.19668942907E+04  0.25500000920E-02 0. -1.
       -2    1    3    3    0  502  0.71733222713E+03  0.24799102390E+03 -0.70820731096E+02  0.76228646058E+03  0.25500000920E-02 0.  1.
</event>
<event>
 5   0  0.1590067E-06  0.2100081E+04  0.7818609E-02  0.8561208E-01
       -1   -1    0    0    0  501  0.00000000000E+00  0.00000000000E+00  0.61115227839E+03  0.61115227841E+03  0.50400001928E-02 0.  1.
        1   -1    0    0  501    0  0.00000000000E+00  0.00000000000E+00 -0.18041077979E+04  0.18041077979E+04  0.50400001928E-02 0. -1.
    10030    2    1    2    0    0  0.00000000000E+00  0.00000000000E+00 -0.11929555196E+04  0.24152600764E+04  0.21000805615E+04 0.  0.
        5    1    3    3  502    0  0.49636529711E+02  0.82828729464E+03  0.14355084446E+03  0.84211196553E+03  0.46999998093E+01 0.  1.
       -5    1    3    3    0  502 -0.49636529711E+02 -0.82828729464E+03 -0.13365063640E+04  0.15731481108E+04  0.46999998093E+01 0. -1.
</event>
<event>
 5   0  0.3547583E-06  0.2100743E+04  0.7818609E-02  0.8560916E-01
       -2   -1    0    0    0  501  0.00000000000E+00  0.00000000000E+00  0.13521573318E+04  0.13521573318E+04  0.25500000920E-02 0.  1.
        2   -1    0    0  501    0  0.00000000000E+00  0.00000000000E+00 -0.81594041351E+03  0.81594041351E+03  0.25500000920E-02 0. -1.
    10030    2    1    2    0    0  0.00000000000E+00  0.00000000000E+00  0.53621691831E+03  0.21680977453E+04  0.21007425472E+04 0.  0.
        2    1    3    3  502    0 -0.67351669998E+03  0.56116904759E+03  0.86522989947E+03  0.12317297691E+04  0.25500000920E-02 0.  1.
       -2    1    3    3    0  502  0.67351669998E+03 -0.56116904759E+03 -0.32901298116E+03  0.93636797623E+03  0.25500000920E-02 0. -1.
</event>
<event>
 5   0  0.1646510E-06  0.2099459E+04  0.7818609E-02  0.8561482E-01
        1   -1    0    0  501    0  0.00000000000E+00  0.00000000000E+00  0.15624549744E+04  0.15624549744E+04  0.50400001928E-02 0. -1.
       -1   -1    0    0    0  501  0.00000000000E+00  0.00000000000E+00 -0.70525675898E+03  0.70525675900E+03  0.50400001928E-02 0.  1.
    10030    2    1    2    0    0  0.00000000000E+00  0.00000000000E+00  0.85719821538E+03  0.22677117334E+04  0.20994589125E+04 0.  0.
        4    1    3    3  502    0  0.34102262815E+03 -0.63731857757E+03  0.12508262184E+04  0.14446588676E+04  0.12699999809E+01 0. -1.
       -4    1    3    3    0  502 -0.34102262815E+03  0.63731857757E+03 -0.39362800300E+03  0.82305286578E+03  0.12699999809E+01 0.  1.
</event>
<event>
 5   0  0.3574927E-06  0.2102201E+04  0.7818609E-02  0.8560274E-01
        2   -1    0    0  501    0  0.00000000000E+00  0.00000000000E+00  0.21378929311E+04  0.21378929311E+04  0.25500000920E-02 0.  1.
       -2   -1    0    0    0  501  0.00000000000E+00  0.00000000000E+00 -0.51677635141E+03  0.51677635142E+03  0.25500000920E-02 0. -1.
    10030    2    1    2    0    0  0.00000000000E+00  0.00000000000E+00  0.16211165797E+04  0.26546692825E+04  0.21022012355E+04 0.  0.
        3    1    3    3  502    0  0.16995050192E+03  0.22781268279E+03  0.20884458059E+04  0.21076972472E+04  0.10100000352E+00 0.  1.
       -3    1    3    3    0  502 -0.16995050192E+03 -0.22781268279E+03 -0.46732922620E+03  0.54697203531E+03  0.10100000352E+00 0. -1.
</event>
<event>
 5   0  0.1257125E-06  0.2101341E+04  0.7818609E-02  0.8560653E-01
        4   -1    0    0  501    0  0.00000000000E+00  0.00000000000E+00  0.17564998120E+04  0.17565002711E+04  0.12699999809E+01 0.  1.
       -4   -1    0    0    0  501  0.00000000000E+00  0.00000000000E+00 -0.62846930507E+03  0.62847058826E+03  0.12699999809E+01 0. -1.
    10030    2    1    2    0    0  0.00000000000E+00  0.00000000000E+00  0.11280305069E+04  0.23849708594E+04  0.21013408042E+04 0.  0.
        5    1    3    3  502    0 -0.75704131460E+03  0.60518395593E+03  0.10364716271E+03  0.97474304146E+03  0.46999998093E+01 0. -1.
       -5    1    3    3    0  502  0.75704131460E+03 -0.60518395593E+03  0.10243833442E+04  0.14102278179E+04  0.46999998093E+01 0.  1.
</event>
<event>
 5   0  0.3547583E-06  0.2099826E+04  0.7818609E-02  0.8561320E-01
        2   -1    0    0  501    0  0.00000000000E+00  0.00000000000E+00  0.14166503285E+04  0.14166503285E+04  0.25500000920E-02 0.  1.
       -2   -1    0    0    0  501  0.00000000000E+00  0.00000000000E+00 -0.77811560322E+03  0.77811560322E+03  0.25500000920E-02 0. -1.
    10030    2    1    2    0    0  0.00000000000E+00  0.00000000000E+00  0.63853472532E+03  0.21947659318E+04  0.20998263975E+04 0.  0.
        2    1    3    3  502    0 -0.32755887454E+03 -0.40411560496E+03 -0.63394944409E+03  0.82005861750E+03  0.25500000920E-02 0. -1.
       -2    1    3    3    0  502  0.32755887454E+03  0.40411560496E+03  0.12724841694E+04  0.13747073143E+04  0.25500000920E-02 0.  1.
</event>
<event>
 5   0  0.1653260E-06  0.2101572E+04  0.7818609E-02  0.8560551E-01
        1   -1    0    0  501    0  0.00000000000E+00  0.00000000000E+00  0.78241748559E+03  0.78241748561E+03  0.50400001928E-02 0. -1.
       -1   -1    0    0    0  501  0.00000000000E+00  0.00000000000E+00 -0.14112042392E+04  0.14112042392E+04  0.50400001928E-02 0.  1.
    10030    2    1    2    0    0  0.00000000000E+00  0.00000000000E+00 -0.62878675361E+03  0.21936217248E+04  0.21015716714E+04 0.  0.
        3    1    3    3  502    0 -0.71803544650E+03  0.62662791166E+03 -0.77640151555E+03  0.12292423543E+04  0.10100000352E+00 0.  1.
       -3    1    3    3    0  502  0.71803544650E+03 -0.62662791166E+03  0.14761476194E+03  0.96437937050E+03  0.10100000352E+00 0. -1.
</event>
<event>
 5   0  0.3547583E-06  0.2100234E+04  0.7818609E-02  0.8561140E-01
        2   -1    0    0  501    0  0.00000000000E+00  0.00000000000E+00  0.88226258159E+03  0.88226258159E+03  0.25500000920E-02 0. -1.
       -2   -1    0    0    0  501  0.00000000000E+00  0.00000000000E+00 -0.12499061136E+04  0.12499061136E+04  0.25500000920E-02 0.  1.
    10030    2    1    2    0    0  0.00000000000E+00  0.00000000000E+00 -0.36764353205E+03  0.21321686952E+04  0.21002336961E+04 0.  0.
        2    1    3    3  502    0  0.22250359393E+03 -0.55321933613E+02  0.85654195169E+03  0.88669751362E+03  0.25500000920E-02 0. -1.
       -2    1    3    3    0  502 -0.22250359393E+03  0.55321933613E+02 -0.12241854837E+04  0.12454711816E+04  0.25500000920E-02 0.  1.
</event>
<event>
 5   0  0.1590067E-06  0.2097153E+04  0.7818609E-02  0.8562499E-01
        1   -1    0    0  501    0  0.00000000000E+00  0.00000000000E+00  0.21874590750E+04  0.21874590750E+04  0.50400001928E-02 0. -1.
       -1   -1    0    0    0  501  0.00000000000E+00  0.00000000000E+00 -0.50264368566E+03  0.50264368568E+03  0.50400001928E-02 0.  1.
    10030    2    1    2    0    0  0.00000000000E+00  0.00000000000E+00  0.16848153894E+04  0.26901027607E+04  0.20971528239E+04 0.  0.
        5    1    3    3  502    0  0.10190116264E+04  0.57763372181E+02  0.11507169705E+04  0.15381459417E+04  0.46999998093E+01 0. -1.
       -5    1    3    3    0  502 -0.10190116264E+04 -0.57763372181E+02  0.53409841888E+03  0.11519568190E+04  0.46999998093E+01 0.  1.
</event>
<event>
 5   0  0.1646510E-06  0.2100991E+04  0.7818609E-02  0.8560807E-01
       -1   -1    0    0    0  501  0.00000000000E+00  0.00000000000E+00  0.51203345993E+03  0.51203345996E+03  0.50400001928E-02 0.  1.
        1   -1    0    0  501    0  0.00000000000E+00  0.00000000000E+00 -0.21552119516E+04  0.21552119516E+04  0.50400001928E-02 0. -1.
    10030    2    1    2    0    0  0.00000000000E+00  0.00000000000E+00 -0.16431784916E+04  0.26672454115E+04  0.21009908448E+04 0.  0.
        4    1    3    3  502    0 -0.16694899459E+03  0.16394028640E+03  0.47853008956E+03  0.53267348706E+03  0.12699999809E+01 0.  1.
       -4    1    3    3    0  502  0.16694899459E+03 -0.16394028640E+03 -0.21217085812E+04  0.21345719245E+04  0.12699999809E+01 0. -1.
</event>
<event>
 5   0  0.3574927E-06  0.2099963E+04  0.7818609E-02  0.8561260E-01
        2   -1    0    0  501    0  0.00000000000E+00  0.00000000000E+00  0.11434062966E+04  0.11434062966E+04  0.25500000920E-02 0.  1.
       -2   -1    0    0    0  501  0.00000000000E+00  0.00000000000E+00 -0.96418982084E+03  0.96418982084E+03  0.25500000920E-02 0. -1.
    10030    2    1    2    0    0  0.00000000000E+00  0.00000000000E+00  0.17921647575E+03  0.21075961174E+04  0.20999625828E+04 0.  0.
        3    1    3    3  502    0  0.72704844380E+02  0.45542773751E+03  0.10363081600E+04  0.11342993570E+04  0.10100000352E+00 0.  1.
       -3    1    3    3    0  502 -0.72704844380E+02 -0.45542773751E+03 -0.85709168427E+03  0.97329676047E+03  0.10100000352E+00 0. -1.
</event>
<event>
 5   0  0.1653260E-06  0.2109590E+04  0.7818609E-02  0.8557031E-01
       -1   -1    0    0    0  501  0.00000000000E+00  0.00000000000E+00  0.85741899328E+03  0.85741899329E+03  0.50400001928E-02 0.  1.
        1   -1    0    0  501    0  0.00000000000E+00  0.00000000000E+00 -0.12976061833E+04  0.12976061833E+04  0.50400001928E-02 0. -1.
    10030    2    1    2    0    0  0.00000000000E+00  0.00000000000E+00 -0.44018718999E+03  0.21550251766E+04  0.21095897112E+04 0.  0.
        3    1    3    3  502    0 -0.54727565710E+02 -0.10424688650E+04 -0.37453080842E+03  0.11090580587E+04  0.10100000352E+00 0. -1.
       -3    1    3    3    0  502  0.54727565710E+02  0.10424688650E+04 -0.65656381564E+02  0.10459671178E+04  0.10100000352E+00 0.  1.
</event>
<event>
 5   0  0.1579820E-06  0.2100507E+04  0.7818609E-02  0.8561020E-01
       -1   -1    0    0    0  501  0.00000000000E+00  0.00000000000E+00  0.33003256116E+03  0.33003256120E+03  0.50400001928E-02 0.  1.
        1   -1    0    0  501    0  0.00000000000E+00  0.00000000000E+00 -0.33421924779E+04  0.33421924779E+04  0.50400001928E-02 0. -1.
    10030    2    1    2    0    0  0.00000000000E+00  0.00000000000E+00 -0.30121599167E+04  0.36722250391E+04  0.21005069326E+04 0.  0.
        2    1    3    3  502    0 -0.76554117607E+03  0.56421432510E+03 -0.22852637040E+04  0.24752416637E+04  0.25500000920E-02 0.  1.
       -2    1    3    3    0  502  0.76554117607E+03 -0.56421432510E+03 -0.72689621277E+03  0.11969833754E+04  0.25500000920E-02 0. -1.
</event>
<event>
 5   0  0.1579820E-06  0.2100723E+04  0.7818609E-02  0.8560925E-01
        1   -1    0    0  501    0  0.00000000000E+00  0.00000000000E+00  0.14522919778E+04  0.14522919778E+04  0.50400001928E-02 0. -1.
       -1   -1    0    0    0  501  0.00000000000E+00  0.00000000000E+00 -0.75966795134E+03  0.75966795135E+03  0.50400001928E-02 0.  1.
    10030    2    1    2    0    0  0.00000000000E+00  0.00000000000E+00  0.69262402648E+03  0.22119599292E+04  0.21007233721E+04 0.  0.
        2    1    3    3  502    0  0.29616484102E+03 -0.75075987673E+03  0.10541474174E+04  0.13276222291E+04  0.25500000920E-02 0. -1.
       -2    1    3    3    0  502 -0.29616484102E+03  0.75075987673E+03 -0.36152339094E+03  0.88433770007E+03  0.25500000920E-02 0.  1.
</event>
<event>
 5   0  0.3636435E-06  0.2099534E+04  0.7818609E-02  0.8561449E-01
        2   -1    0    0  501    0  0.00000000000E+00  0.00000000000E+00  0.18652850212E+04  0.18652850212E+04  0.25500000920E-02 0. -1.
       -2   -1    0    0    0  501  0.00000000000E+00  0.00000000000E+00 -0.59080014937E+03  0.59080014938E+03  0.25500000920E-02 0.  1.
    10030    2    1    2    0    0  0.00000000000E+00  0.00000000000E+00  0.12744848718E+04  0.24560851706E+04  0.20995339189E+04 0.  0.
        4    1    3    3  502    0 -0.69083076550E+03 -0.48466772771E+03  0.13676653139E+04  0.16070656416E+04  0.12699999809E+01 0. -1.
       -4    1    3    3    0  502  0.69083076550E+03  0.48466772771E+03 -0.93180442059E+02  0.84901952894E+03  0.12699999809E+01 0.  1.
</event>
<event>
 5   0  0.1615098E-06  0.2102772E+04  0.7818609E-02  0.8560023E-01
        1   -1    0    0  501    0  0.00000000000E+00  0.00000000000E+00  0.21994583948E+04  0.21994583948E+04  0.50400001928E-02 0. -1.
       -1   -1    0    0    0  501  0.00000000000E+00  0.00000000000E+00 -0.50258391970E+03  0.50258391973E+03  0.50400001928E-02 0.  1.
    10030    2    1    2    0    0  0.00000000000E+00  0.00000000000E+00  0.16968744751E+04  0.27020423145E+04  0.21027719052E+04 0.  0.
        1    1    3    3  502    0  0.45302436159E+03 -0.85975784141E+03  0.13640337311E+04  0.16748142099E+04  0.50400001928E-02 0. -1.
       -1    1    3    3    0  502 -0.45302436159E+03  0.85975784141E+03  0.33284074400E+03  0.10272281046E+04  0.50400001928E-02 0.  1.
</event>
<event>
 5   0  0.1615098E-06  0.2100047E+04  0.7818609E-02  0.8561223E-01
        1   -1    0    0  501    0  0.00000000000E+00  0.00000000000E+00  0.18107847859E+04  0.18107847859E+04  0.50400001928E-02 0. -1.
       -1   -1    0    0    0  501  0.00000000000E+00  0.00000000000E+00 -0.60887906872E+03  0.60887906874E+03  0.50400001928E-02 0.  1.
    10030    2    1    2    0    0  0.00000000000E+00  0.00000000000E+00  0.12019057172E+04  0.24196638547E+04  0.21000466225E+04 0.  0.
        1    1    3    3  502    0  0.51067717279E+03  0.48741002231E+03 -0.29464407352E+03  0.76496721155E+03  0.50400001928E-02 0.  1.
       -1    1    3    3    0  502 -0.51067717279E+03 -0.48741002231E+03  0.14965497907E+04  0.16546966431E+04  0.50400001928E-02 0. -1.
</event>
<event>
 5   0  0.3705828E-06  0.2098318E+04  0.7818609E-02  0.8561985E-01
       -2   -1    0    0    0  501  0.00000000000E+00  0.00000000000E+00  0.61622471812E+03  0.61622471812E+03  0.25500000920E-02 0.  1.
        2   -1    0    0  501    0  0.00000000000E+00  0.00000000000E+00 -0.17862544976E+04  0.17862544976E+04  0.25500000920E-02 0. -1.
    10030    2    1    2    0    0  0.00000000000E+00  0.00000000000E+00 -0.11700297795E+04  0.24024792157E+04  0.20983175873E+04 0.  0.
        5    1    3    3  502    0  0.56155196053E+03  0.43869329111E+03 -0.14666448694E+04  0.16306016285E+04  0.46999998093E+01 0. -1.
       -5    1    3    3    0  502 -0.56155196053E+03 -0.43869329111E+03  0.29661508992E+03  0.77187758719E+03  0.46999998093E+01 0.  1.
</event>
<event>
 5   0  0.3480134E-06  0.2099847E+04  0.7818609E-02  0.8561311E-01
       -2   -1    0    0    0  501  0.00000000000E+00  0.00000000000E+00  0.57551494617E+03  0.57551494617E+03  0.25500000920E-02 0.  1.
        2   -1    0    0  501    0  0.00000000000E+00  0.00000000000E+00 -0.19153972141E+04  0.19153972141E+04  0.25500000920E-02 0. -1.
    10030    2    1    2    0    0  0.00000000000E+00  0.00000000000E+00 -0.13398822679E+04  0.24909121603E+04  0.20998473512E+04 0.  0.
        1    1    3    3  502    0  0.43905843470E+03 -0.75685842894E+03  0.18415268687E+02  0.87518347373E+03  0.50400001928E-02 0.  1.
       -1    1    3    3    0  502 -0.43905843470E+03  0.75685842894E+03 -0.13582975366E+04  0.16157286866E+04  0.50400001928E-02 0. -1.
</event>
<event>
 5   0  0.3480134E-06  0.2099732E+04  0.7818609E-02  0.8561361E-01
       -2   -1    0    0    0  501  0.00000000000E+00  0.00000000000E+00  0.11295819179E+04  0.11295819179E+04  0.25500000920E-02 0. -1.
        2   -1    0    0  501    0  0.00000000000E+00  0.00000000000E+00 -0.97577569491E+03  0.97577569491E+03  0.25500000920E-02 0.  1.
    10030    2    1    2    0    0  0.00000000000E+00  0.00000000000E+00  0.15380622296E+03  0.21053576128E+04  0.20997319647E+04 0.  0.
        1    1    3    3  502    0  0.24254637575E+03  0.35675609668E+02  0.11004795346E+04  0.11274558526E+04  0.50400001928E-02 0. -1.
       -1    1    3    3    0  502 -0.24254637575E+03 -0.35675609668E+02 -0.94667331164E+03  0.97790176015E+03  0.50400001928E-02 0.  1.
</event>
<event>
 5   0  0.1653260E-06  0.2099312E+04  0.7818609E-02  0.8561546E-01
       -1   -1    0    0    0  501  0.00000000000E+00  0.00000000000E+00  0.12749711824E+04  0.12749711824E+04  0.50400001928E-02 0.  1.
        1   -1    0    0  501    0  0.00000000000E+00  0.00000000000E+00 -0.86415894831E+03  0.86415894833E+03  0.50400001928E-02 0. -1.
    10030    2    1    2    0    0  0.00000000000E+00  0.00000000000E+00  0.41081223405E+03  0.21391301307E+04  0.20993120360E+04 0.  0.
        3    1    3    3  502    0  0.48431940016E+03  0.17322129580E+03  0.11377510075E+04  0.12486185422E+04  0.10100000352E+00 0.  1.
       -3    1    3    3    0  502 -0.48431940016E+03 -0.17322129580E+03 -0.72693877345E+03  0.89051158849E+03  0.10100000352E+00 0. -1.
</event>
<event>
 5   0  0.3705828E-06  0.2108570E+04  0.7818609E-02  0.8557478E-01
        2   -1    0    0  501    0  0.00000000000E+00  0.00000000000E+00  0.21423122322E+04  0.21423122322E+04  0.25500000920E-02 0.  1.
       -2   -1    0    0    0  501  0.00000000000E+00  0.00000000000E+00 -0.51883969788E+03  0.51883969788E+03  0.25500000920E-02 0. -1.
    10030    2    1    2    0    0  0.00000000000E+00  0.00000000000E+00  0.16234725344E+04  0.26611519301E+04  0.21085697820E+04 0.  0.
        5    1    3    3  502    0 -0.44117387301E+03  0.72956157111E+03  0.29052420876E+02  0.85308886138E+03  0.46999998093E+01 0. -1.
       -5    1    3    3    0  502  0.44117387301E+03 -0.72956157111E+03  0.15944201135E+04  0.18080630687E+04  0.46999998093E+01 0.  1.
</event>
<event>
 5   0  0.3547583E-06  0.2100632E+04  0.7818609E-02  0.8560965E-01
       -2   -1    0    0    0  501  0.00000000000E+00  0.00000000000E+00  0.56280200701E+03  0.56280200701E+03  0.25500000920E-02 0. -1.
        2   -1    0    0  501    0  0.00000000000E+00  0.00000000000E+00 -0.19601281111E+04  0.19601281111E+04  0.25500000920E-02 0.  1.
    10030    2    1    2    0    0  0.00000000000E+00  0.00000000000E+00 -0.13973261041E+04  0.25229301181E+04  0.21006323190E+04 0.  0.
        2    1    3    3  502    0  0.10432729781E+03 -0.10225327623E+04 -0.43909914380E+03  0.11177054590E+04  0.25500000920E-02 0. -1.
       -2    1    3    3    0  502 -0.10432729781E+03  0.10225327623E+04 -0.95822696026E+03  0.14052246591E+04  0.25500000920E-02 0.  1.
</event>
<event>
 5   0  0.1590067E-06  0.2099877E+04  0.7818609E-02  0.8561298E-01
        1   -1    0    0  501    0  0.00000000000E+00  0.00000000000E+00  0.23131335526E+04  0.23131335526E+04  0.50400001928E-02 0. -1.
       -1   -1    0    0    0  501  0.00000000000E+00  0.00000000000E+00 -0.47657022264E+03  0.47657022267E+03  0.50400001928E-02 0.  1.
    10030    2    1    2    0    0  0.00000000000E+00  0.00000000000E+00  0.18365633300E+04  0.27897037753E+04  0.20998767318E+04 0.  0.
        5    1    3    3  502    0 -0.76531797605E+03  0.32478820149E+02  0.18722043220E+04  0.20228538235E+04  0.46999998093E+01 0. -1.
       -5    1    3    3    0  502  0.76531797605E+03 -0.32478820149E+02 -0.35640991972E+02  0.76684995177E+03  0.46999998093E+01 0.  1.
</event>
<event>
 5   0  0.3480134E-06  0.2099657E+04  0.7818609E-02  0.8561395E-01
        2   -1    0    0  501    0  0.00000000000E+00  0.00000000000E+00  0.18505594576E+04  0.18505594576E+04  0.25500000920E-02 0.  1.
       -2   -1    0    0    0  501  0.00000000000E+00  0.00000000000E+00 -0.59557113604E+03  0.59557113605E+03  0.25500000920E-02 0. -1.
    10030    2    1    2    0    0  0.00000000000E+00  0.00000000000E+00  0.12549883216E+04  0.24461305937E+04  0.20996569229E+04 0.  0.
        1    1    3    3  502    0  0.17613656264E+03  0.10759682772E+03 -0.57170053621E+03  0.60781795725E+03  0.50400001928E-02 0. -1.
       -1    1    3    3    0  502 -0.17613656264E+03 -0.10759682772E+03  0.18266888578E+04  0.18383126364E+04  0.50400001928E-02 0.  1.
</event>
<event>
 5   0  0.3636435E-06  0.2099576E+04  0.7818609E-02  0.8561430E-01
       -2   -1    0    0    0  501  0.00000000000E+00  0.00000000000E+00  0.26037729635E+04  0.26037729635E+04  0.25500000920E-02 0. -1.
        2   -1    0    0  501    0  0.00000000000E+00  0.00000000000E+00 -0.42325303870E+03  0.42325303870E+03  0.25500000920E-02 0.  1.
    10030    2    1    2    0    0  0.00000000000E+00  0.00000000000E+00  0.21805199248E+04  0.30270260022E+04  0.20995759752E+04 0.  0.
        4    1    3    3  502    0 -0.60515672957E+03 -0.62997764354E+03  0.25087133794E+03  0.90885892183E+03  0.12699999809E+01 0.  1.
       -4    1    3    3    0  502  0.60515672957E+03  0.62997764354E+03  0.19296485869E+04  0.21181670804E+04  0.12699999809E+01 0. -1.
</event>
<event>
 5   0  0.3480134E-06  0.2101711E+04  0.7818609E-02  0.8560490E-01
       -2   -1    0    0    0  501  0.00000000000E+00  0.00000000000E+00  0.80479147643E+03  0.80479147643E+03  0.25500000920E-02 0. -1.
        2   -1    0    0  501    0  0.00000000000E+00  0.00000000000E+00 -0.13721527726E+04  0.13721527726E+04  0.25500000920E-02 0.  1.
    10030    2    1    2    0    0  0.00000000000E+00  0.00000000000E+00 -0.56736129622E+03  0.21769442491E+04  0.21017105945E+04 0.  0.
        1    1    3    3  502    0  0.18852159795E+03 -0.46742882734E+03  0.67142627422E+03  0.83954948828E+03  0.50400001928E-02 0. -1.
       -1    1    3    3    0  502 -0.18852159795E+03  0.46742882734E+03 -0.12387875704E+04  0.13373947608E+04  0.50400001928E-02 0.  1.
</event>
<event>
 5   0  0.3547583E-06  0.2100715E+04  0.7818609E-02  0.8560929E-01
       -2   -1    0    0    0  501  0.00000000000E+00  0.00000000000E+00  0.10243483535E+04  0.10243483535E+04  0.25500000920E-02 0. -1.
        2   -1    0    0  501    0  0.00000000000E+00  0.00000000000E+00 -0.10770269369E+04  0.10770269369E+04  0.25500000920E-02 0.  1.
    10030    2    1    2    0    0  0.00000000000E+00  0.00000000000E+00 -0.52678583469E+02  0.21013752904E+04  0.21007148969E+04 0.  0.
        2    1    3    3  502    0 -0.73099855389E+03 -0.42473131319E+03 -0.64982906160E+03  0.10663176748E+04  0.25500000920E-02 0.  1.
       -2    1    3    3    0  502  0.73099855389E+03  0.42473131319E+03  0.59715047813E+03  0.10350576157E+04  0.25500000920E-02 0. -1.
</event>
<event>
 5   0  0.1579820E-06  0.2099290E+04  0.7818609E-02  0.8561556E-01
        1   -1    0    0  501    0  0.00000000000E+00  0.00000000000E+00  0.88233222733E+03  0.88233222734E+03  0.50400001928E-02 0. -1.
       -1   -1    0    0    0  501  0.00000000000E+00  0.00000000000E+00 -0.12486851075E+04  0.12486851076E+04  0.50400001928E-02 0.  1.
    10030    2    1    2    0    0  0.00000000000E+00  0.00000000000E+00 -0.36635288022E+03  0.21310173349E+04  0.20992904632E+04 0.  0.
        2    1    3    3  502    0  0.15591050035E+03  0.95589651631E+03  0.22754801862E+03  0.99489915810E+03  0.25500000920E-02 0. -1.
       -2    1    3    3    0  502 -0.15591050035E+03 -0.95589651631E+03 -0.59390089884E+03  0.11361181768E+04  0.25500000920E-02 0.  1.
</event>
<event>
 5   0  0.1579820E-06  0.2100254E+04  0.7818609E-02  0.8561132E-01
        1   -1    0    0  501    0  0.00000000000E+00  0.00000000000E+00  0.11634104816E+04  0.11634104816E+04  0.50400001928E-02 0.  1.
       -1   -1    0    0    0  501  0.00000000000E+00  0.00000000000E+00 -0.94787384344E+03  0.94787384345E+03  0.50400001928E-02 0. -1.
    10030    2    1    2    0    0  0.00000000000E+00  0.00000000000E+00  0.21553663814E+03  0.21112843250E+04  0.21002536654E+04 0.  0.
        2    1    3    3  502    0 -0.68060469662E+03  0.79284420814E+03  0.26164872220E+01  0.10449074301E+04  0.25500000920E-02 0.  1.
       -2    1    3    3    0  502  0.68060469662E+03 -0.79284420814E+03  0.21292015092E+03  0.10663768950E+04  0.25500000920E-02 0. -1.
</event>
<event>
 5   0  0.3480134E-06  0.2099026E+04  0.7818609E-02  0.8561673E-01
        2   -1    0    0  501    0  0.00000000000E+00  0.00000000000E+00  0.20033497713E+04  0.20033497714E+04  0.25500000920E-02 0. -1.
       -2   -1    0    0    0  501  0.00000000000E+00  0.00000000000E+00 -0.54981766048E+03  0.54981766049E+03  0.25500000920E-02 0.  1.
    10030    2    1    2    0    0  0.00000000000E+00  0.00000000000E+00  0.14535321109E+04  0.25531674318E+04  0.20990255686E+04 0.  0.
        1    1    3    3  502    0 -0.64941942760E+03  0.45077605692E+03 -0.11290232947E+03  0.79855593571E+03  0.50400001928E-02 0.  1.
       -1    1    3    3    0  502  0.64941942760E+03 -0.45077605692E+03  0.15664344403E+04  0.17546114961E+04  0.50400001928E-02 0. -1.
</event>
<event>
 5   0  0.1615098E-06  0.2099695E+04  0.7818609E-02  0.8561378E-01
       -1   -1    0    0    0  501  0.00000000000E+00  0.00000000000E+00  0.94184967732E+03  0.94184967734E+03  0.50400001928E-02 0.  1.
        1   -1    0    0  501    0  0.00000000000E+00  0.00000000000E+00 -0.11702293493E+04  0.11702293493E+04  0.50400001928E-02 0. -1.
    10030    2    1    2    0    0  0.00000000000E+00  0.00000000000E+00 -0.22837967194E+03  0.21120790266E+04  0.20996953446E+04 0.  0.
        1    1    3    3  502    0 -0.62447862426E+03 -0.68529903264E+03 -0.60961042439E+03  0.11096094745E+04  0.50400001928E-02 0. -1.
       -1    1    3    3    0  502  0.62447862426E+03  0.68529903264E+03  0.38123075245E+03  0.10024695521E+04  0.50400001928E-02 0.  1.
</event>
<event>
 5   0  0.1590067E-06  0.2099911E+04  0.7818609E-02  0.8561283E-01
       -1   -1    0    0    0  501  0.00000000000E+00  0.00000000000E+00  0.13621805205E+04  0.13621805205E+04  0.50400001928E-02 0. -1.
        1   -1    0    0  501    0  0.00000000000E+00  0.00000000000E+00 -0.80929527067E+03  0.80929527069E+03  0.50400001928E-02 0.  1.
    10030    2    1    2    0    0  0.00000000000E+00  0.00000000000E+00  0.55288524981E+03  0.21714757912E+04  0.20999107153E+04 0.  0.
        5    1    3    3  502    0 -0.32753650988E+03  0.72086770709E+03 -0.43658819043E+03  0.90419121565E+03  0.46999998093E+01 0.  1.
       -5    1    3    3    0  502  0.32753650988E+03 -0.72086770709E+03  0.98947344025E+03  0.12672845755E+04  0.46999998093E+01 0. -1.
</event>
<event>
 5   0  0.3480134E-06  0.2100105E+04  0.7818609E-02  0.8561197E-01
        2   -1    0    0  501    0  0.00000000000E+00  0.00000000000E+00  0.13126461820E+04  0.13126461820E+04  0.25500000920E-02 0. -1.
       -2   -1    0    0    0  501  0.00000000000E+00  0.00000000000E+00 -0.83999013080E+03  0.83999013080E+03  0.25500000920E-02 0.  1.
    10030    2    1    2    0    0  0.00000000000E+00  0.00000000000E+00  0.47265605121E+03  0.21526363128E+04  0.21001046051E+04 0.  0.
        1    1    3    3  502    0  0.49394638001E+03 -0.45307816973E+02  0.11849915057E+04  0.12846169442E+04  0.50400001928E-02 0. -1.
       -1    1    3    3    0  502 -0.49394638001E+03  0.45307816973E+02 -0.71233545449E+03  0.86801936865E+03  0.50400001928E-02 0.  1.
</event>
<event>
 5   0  0.1646510E-06  0.2099299E+04  0.7818609E-02  0.8561552E-01
       -1   -1    0    0    0  501  0.00000000000E+00  0.00000000000E+00  0.64651809495E+03  0.64651809497E+03  0.50400001928E-02 0. -1.
        1   -1    0    0  501    0  0.00000000000E+00  0.00000000000E+00 -0.17041500124E+04  0.17041500124E+04  0.50400001928E-02 0.  1.
    10030    2    1    2    0    0  0.00000000000E+00  0.00000000000E+00 -0.10576319175E+04  0.23506681074E+04  0.20992987587E+04 0.  0.
        4    1    3    3  502    0 -0.27373864046E+03 -0.52703737218E+03 -0.14979317069E+04  0.16113665773E+04  0.12699999809E+01 0.  1.
       -4    1    3    3    0  502  0.27373864046E+03  0.52703737218E+03  0.44029978943E+03  0.73930153011E+03  0.12699999809E+01 0. -1.
</event>
<event>
 5   0  0.3547583E-06  0.2100001E+04  0.7818609E-02  0.8561243E-01
       -2   -1    0    0    0  501  0.00000000000E+00  0.00000000000E+00  0.49982732843E+03  0.49982732843E+03  0.25500000920E-02 0. -1.
        2   -1    0    0  501    0  0.00000000000E+00  0.00000000000E+00 -0.22057630200E+04  0.22057630200E+04  0.25500000920E-02 0.  1.
    10030    2    1    2    0    0  0.00000000000E+00  0.00000000000E+00 -0.17059356915E+04  0.27055903484E+04  0.21000006071E+04 0.  0.
        2    1    3    3  502    0 -0.53399985479E+03  0.19771138744E+02  0.31153725310E+03  0.61854846449E+03  0.25500000920E-02 0. -1.
       -2    1    3    3    0  502  0.53399985479E+03 -0.19771138744E+02 -0.20174729446E+04  0.20870418839E+04  0.25500000920E-02 0.  1.
</event>
<event>
 5   0  0.1646510E-06  0.2097643E+04  0.7818609E-02  0.8562282E-01
        1   -1    0    0  501    0  0.00000000000E+00  0.00000000000E+00  0.19108521540E+04  0.19108521540E+04  0.50400001928E-02 0.  1.
       -1   -1    0    0    0  501  0.00000000000E+00  0.00000000000E+00 -0.57567315729E+03  0.57567315731E+03  0.50400001928E-02 0. -1.
    10030    2    1    2    0    0  0.00000000000E+00  0.00000000000E+00  0.13351789967E+04  0.24865253113E+04  0.20976427653E+04 0.  0.
        4    1    3    3  502    0 -0.70593009227E+03  0.47994505090E+03 -0.54759874476E+02  0.85538576316E+03  0.12699999809E+01 0. -1.
       -4    1    3    3    0  502  0.70593009227E+03 -0.47994505090E+03  0.13899388712E+04  0.16311395482E+04  0.12699999809E+01 0.  1.
</event>
<event>
 5   0  0.1615098E-06  0.2100226E+04  0.7818609E-02  0.8561144E-01
        1   -1    0    0  501    0  0.00000000000E+00  0.00000000000E+00  0.62503033023E+03  0.62503033025E+03  0.50400001928E-02 0.  1.
       -1   -1    0    0    0  501  0.00000000000E+00  0.00000000000E+00 -0.17642940404E+04  0.17642940404E+04  0.50400001928E-02 0. -1.
    10030    2    1    2    0    0  0.00000000000E+00  0.00000000000E+00 -0.11392637101E+04  0.23893243706E+04  0.21002259752E+04 0.  0.
        1    1    3    3  502    0  0.75093962794E+03 -0.53543833174E+03  0.16148680831E+01  0.92228365470E+03  0.50400001928E-02 0.  1.
       -1    1    3    3    0  502 -0.75093962794E+03  0.53543833174E+03 -0.11408785782E+04  0.14670407159E+04  0.50400001928E-02 0. -1.
</event>
<event>
 5   0  0.3705828E-06  0.2105281E+04  0.7818609E-02  0.8558920E-01
        2   -1    0    0  501    0  0.00000000000E+00  0.00000000000E+00  0.16529879902E+04  0.16529879902E+04  0.25500000920E-02 0. -1.
       -2   -1    0    0    0  501  0.00000000000E+00  0.00000000000E+00 -0.67033307532E+03  0.67033307532E+03  0.25500000920E-02 0.  1.
    10030    2    1    2    0    0  0.00000000000E+00  0.00000000000E+00  0.98265491484E+03  0.23233210655E+04  0.21052814756E+04 0.  0.
        5    1    3    3  502    0 -0.16218786239E+03  0.38927022838E+03 -0.57302600975E+03  0.71148936132E+03  0.46999998093E+01 0.  1.
       -5    1    3    3    0  502  0.16218786239E+03 -0.38927022838E+03  0.15556809246E+04  0.16118317042E+04  0.46999998093E+01 0. -1.
</event>
<event>
 5   0  0.1653260E-06  0.2099535E+04  0.7818609E-02  0.8561448E-01
        1   -1    0    0  501    0  0.00000000000E+00  0.00000000000E+00  0.13160570889E+04  0.13160570889E+04  0.50400001928E-02 0.  1.
       -1   -1    0    0    0  501  0.00000000000E+00  0.00000000000E+00 -0.83735835295E+03  0.83735835297E+03  0.50400001928E-02 0. -1.
    10030    2    1    2    0    0  0.00000000000E+00  0.00000000000E+00  0.47869873598E+03  0.21534154419E+04  0.20995346117E+04 0.  0.
        3    1    3    3  502    0 -0.55252016717E+03 -0.33586248622E+03  0.10875730052E+04  0.12652656625E+04  0.10100000352E+00 0.  1.
       -3    1    3    3    0  502  0.55252016717E+03  0.33586248622E+03 -0.60887426923E+03  0.88814977943E+03  0.10100000352E+00 0. -1.
</event>
<event>
 5   0  0.1653260E-06  0.2100633E+04  0.7818609E-02  0.8560964E-01
       -1   -1    0    0    0  501  0.00000000000E+00  0.00000000000E+00  0.93589092858E+03  0.93589092859E+03  0.50400001928E-02 0. -1.
        1   -1    0    0  501    0  0.00000000000E+00  0.00000000000E+00 -0.11787324529E+04  0.11787324529E+04  0.50400001928E-02 0.  1.
    10030    2    1    2    0    0  0.00000000000E+00  0.00000000000E+00 -0.24284152433E+03  0.21146233815E+04  0.21006332473E+04 0.  0.
        3    1    3    3  502    0  0.76103339410E+03  0.24730402170E+03 -0.80627062415E+03  0.11359592579E+04  0.10100000352E+00 0.  1.
       -3    1    3    3    0  502 -0.76103339410E+03 -0.24730402170E+03  0.56342909982E+03  0.97866412359E+03  0.10100000352E+00 0. -1.
</event>
<event>
 5   0  0.3547583E-06  0.2102045E+04  0.7818609E-02  0.8560343E-01
        2   -1    0    0  501    0  0.00000000000E+00  0.00000000000E+00  0.15610926521E+04  0.15610926521E+04  0.25500000920E-02 0. -1.
       -2   -1    0    0    0  501  0.00000000000E+00  0.00000000000E+00 -0.70761236694E+03  0.70761236694E+03  0.25500000920E-02 0.  1.
    10030    2    1    2    0    0  0.00000000000E+00  0.00000000000E+00  0.85348028520E+03  0.22687050191E+04  0.21020451628E+04 0.  0.
        2    1    3    3  502    0  0.54813527006E+03 -0.38156651691E+03 -0.44914649857E+03  0.80484648120E+03  0.25500000920E-02 0.  1.
       -2    1    3    3    0  502 -0.54813527006E+03  0.38156651691E+03  0.13026267838E+04  0.14638585379E+04  0.25500000920E-02 0. -1.
</event>
<event>
 5   0  0.3636435E-06  0.2100669E+04  0.7818609E-02  0.8560949E-01
        2   -1    0    0  501    0  0.00000000000E+00  0.00000000000E+00  0.19173418065E+04  0.19173418065E+04  0.25500000920E-02 0. -1.
       -2   -1    0    0    0  501  0.00000000000E+00  0.00000000000E+00 -0.57538102633E+03  0.57538102634E+03  0.25500000920E-02 0.  1.
    10030    2    1    2    0    0  0.00000000000E+00  0.00000000000E+00  0.13419607802E+04  0.24927228328E+04  0.21006685569E+04 0.  0.
        4    1    3    3  502    0  0.45581360976E+03  0.71376080783E+03 -0.66242527379E+02  0.84947644050E+03  0.12699999809E+01 0.  1.
       -4    1    3    3    0  502 -0.45581360976E+03 -0.71376080783E+03  0.14082033075E+04  0.16432463923E+04  0.12699999809E+01 0. -1.
</event>
<event>
 5   0  0.1653260E-06  0.2099723E+04  0.7818609E-02  0.8561365E-01
       -1   -1    0    0    0  501  0.00000000000E+00  0.00000000000E+00  0.10764545441E+04  0.10764545441E+04  0.50400001928E-02 0. -1.
        1   -1    0    0  501    0  0.00000000000E+00  0.00000000000E+00 -0.10239252813E+04  0.10239252813E+04  0.50400001928E-02 0.  1.
    10030    2    1    2    0    0  0.00000000000E+00  0.00000000000E+00  0.52529262788E+02  0.21003798255E+04  0.20997228597E+04 0.  0.
        3    1    3    3  502    0  0.76755341190E+02 -0.10109971736E+04  0.29875093335E+03  0.10570046347E+04  0.10100000352E+00 0. -1.
       -3    1    3    3    0  502 -0.76755341190E+02  0.10109971736E+04 -0.24622167056E+03  0.10433751907E+04  0.10100000352E+00 0.  1.
</event>
<event>
 5   0  0.3547583E-06  0.2100351E+04  0.7818609E-02  0.8561089E-01
       -2   -1    0    0    0  501  0.00000000000E+00  0.00000000000E+00  0.95760149920E+03  0.95760149920E+03  0.25500000920E-02 0. -1.
        2   -1    0    0  501    0  0.00000000000E+00  0.00000000000E+00 -0.11516986721E+04  0.11516986721E+04  0.25500000920E-02 0.  1.
    10030    2    1    2    0    0  0.00000000000E+00  0.00000000000E+00 -0.19409717291E+03  0.21093001713E+04  0.21003508041E+04 0.  0.
        2    1    3    3  502    0  0.23612219557E+03 -0.99644341459E+03 -0.33088228768E+03  0.10761673931E+04  0.25500000920E-02 0.  1.
       -2    1    3    3    0  502 -0.23612219557E+03  0.99644341459E+03  0.13678511478E+03  0.10331327782E+04  0.25500000920E-02 0. -1.
</event>
<event>
 5   0  0.3636435E-06  0.2089077E+04  0.7818609E-02  0.8566070E-01
        2   -1    0    0  501    0  0.00000000000E+00  0.00000000000E+00  0.71943078737E+03  0.71943078737E+03  0.25500000920E-02 0. -1.
       -2   -1    0    0    0  501  0.00000000000E+00  0.00000000000E+00 -0.15165617073E+04  0.15165617073E+04  0.25500000920E-02 0.  1.
    10030    2    1    2    0    0  0.00000000000E+00  0.00000000000E+00 -0.79713091995E+03  0.22359924947E+04  0.20890774837E+04 0.  0.
        4    1    3    3  502    0  0.20989475209E+03 -0.68755461414E+03  0.41253523102E+03  0.82883899770E+03  0.12699999809E+01 0. -1.
       -4    1    3    3    0  502 -0.20989475209E+03  0.68755461414E+03 -0.12096661510E+04  0.14071534970E+04  0.12699999809E+01 0.  1.
</event>
<event>
 5   0  0.3574927E-06  0.2099685E+04  0.7818609E-02  0.8561382E-01
        2   -1    0    0  501    0  0.00000000000E+00  0.00000000000E+00  0.89601659893E+03  0.89601659893E+03  0.25500000920E-02 0.  1.
       -2   -1    0    0    0  501  0.00000000000E+00  0.00000000000E+00 -0.12300763801E+04  0.12300763801E+04  0.25500000920E-02 0. -1.
    10030    2    1    2    0    0  0.00000000000E+00  0.00000000000E+00 -0.33405978116E+03  0.21260929790E+04  0.20996845997E+04 0.  0.
        3    1    3    3  502    0 -0.90369237192E+02 -0.75934205807E+03 -0.89538336019E+03  0.11774881452E+04  0.10100000352E+00 0. -1.
       -3    1    3    3    0  502  0.90369237192E+02  0.75934205807E+03  0.56132357903E+03  0.94860483382E+03  0.10100000352E+00 0.  1.
</event>
<event>
 5   0  0.1653260E-06  0.2097849E+04  0.7818609E-02  0.8562192E-01
       -1   -1    0    0    0  501  0.00000000000E+00  0.00000000000E+00  0.52305983694E+03  0.52305983696E+03  0.50400001928E-02 0. -1.
        1   -1    0    0  501    0  0.00000000000E+00  0.00000000000E+00 -0.21034732155E+04  0.21034732155E+04  0.50400001928E-02 0.  1.
    10030    2    1    2    0    0  0.00000000000E+00  0.00000000000E+00 -0.15804133786E+04  0.26265330525E+04  0.20978487621E+04 0.  0.
        3    1    3    3  502    0 -0.55884395460E+03  0.87603654056E+03 -0.96944907592E+03  0.14211186112E+04  0.10100000352E+00 0. -1.
       -3    1    3    3    0  502  0.55884395460E+03 -0.87603654056E+03 -0.61096430264E+03  0.12054144413E+04  0.10100000352E+00 0.  1.
</event>
<event>
 5   0  0.3547583E-06  0.2103252E+04  0.7818609E-02  0.8559812E-01
       -2   -1    0    0    0  501  0.00000000000E+00  0.00000000000E+00  0.38204767955E+03  0.38204767956E+03  0.25500000920E-02 0. -1.
        2   -1    0    0  501    0  0.00000000000E+00  0.00000000000E+00 -0.28947089099E+04  0.28947089099E+04  0.25500000920E-02 0.  1.
    10030    2    1    2    0    0  0.00000000000E+00  0.00000000000E+00 -0.25126612303E+04  0.32767565894E+04  0.21032515988E+04 0.  0.
        2    1    3    3  502    0  0.39559195857E+03 -0.76232068745E+03 -0.31085898248E+03  0.91337787098E+03  0.25500000920E-02 0. -1.
       -2    1    3    3    0  502 -0.39559195857E+03  0.76232068745E+03 -0.22018022478E+04  0.23633787185E+04  0.25500000920E-02 0.  1.
</event>
<event>
 5   0  0.1257125E-06  0.2099644E+04  0.7818609E-02  0.8561400E-01
       -3   -1    0    0    0  501  0.00000000000E+00  0.00000000000E+00  0.12973220550E+04  0.12973220589E+04  0.10100000352E+00 0. -1.
        3   -1    0    0  501    0  0.00000000000E+00  0.00000000000E+00 -0.84953923334E+03  0.84953923935E+03  0.10100000352E+00 0.  1.
    10030    2    1    2    0    0  0.00000000000E+00  0.00000000000E+00  0.44778282163E+03  0.21468612983E+04  0.20996437742E+04 0.  0.
        2    1    3    3  502    0  0.53917157527E+03  0.30877927815E+03 -0.64135087267E+03  0.89296224560E+03  0.25500000920E-02 0.  1.
       -2    1    3    3    0  502 -0.53917157527E+03 -0.30877927815E+03  0.10891336943E+04  0.12538990527E+04  0.25500000920E-02 0. -1.
</event>
<event>
 5   0  0.1646510E-06  0.2099668E+04  0.7818609E-02  0.8561390E-01
        1   -1    0    0  501    0  0.00000000000E+00  0.00000000000E+00  0.95646839663E+03  0.95646839664E+03  0.50400001928E-02 0.  1.
       -1   -1    0    0    0  501  0.00000000000E+00  0.00000000000E+00 -0.11523129368E+04  0.11523129368E+04  0.50400001928E-02 0. -1.
    10030    2    1    2    0    0  0.00000000000E+00  0.00000000000E+00 -0.19584454020E+03  0.21087813335E+04  0.20996675043E+04 0.  0.
        4    1    3    3  502    0  0.53481478250E+03 -0.66075966607E+03  0.52080298603E+03  0.99692906019E+03  0.12699999809E+01 0.  1.
       -4    1    3    3    0  502 -0.53481478250E+03  0.66075966607E+03 -0.71664752623E+03  0.11118522733E+04  0.12699999809E+01 0. -1.
</event>
<event>
 5   0  0.3547583E-06  0.2100461E+04  0.7818609E-02  0.8561040E-01
        2   -1    0    0  501    0  0.00000000000E+00  0.00000000000E+00  0.24887966223E+04  0.24887966223E+04  0.25500000920E-02 0. -1.
       -2   -1    0    0    0  501  0.00000000000E+00  0.00000000000E+00 -0.44317974586E+03  0.44317974586E+03  0.25500000920E-02 0.  1.
    10030    2    1    2    0    0  0.00000000000E+00  0.00000000000E+00  0.20456168765E+04  0.29319763682E+04  0.21004611442E+04 0.  0.
        2    1    3    3  502    0  0.65977067915E+03 -0.49330339510E+02 -0.11570817561E+03  0.67165408758E+03  0.25500000920E-02 0.  1.
       -2    1    3    3    0  502 -0.65977067915E+03  0.49330339510E+02  0.21613250521E+04  0.22603222806E+04  0.25500000920E-02 0. -1.
</event>
<event>
 5   0  0.1590067E-06  0.2100155E+04  0.7818609E-02  0.8561175E-01
        1   -1    0    0  501    0  0.00000000000E+00  0.00000000000E+00  0.13954575714E+04  0.13954575714E+04  0.50400001928E-02 0.  1.
       -1   -1    0    0    0  501  0.00000000000E+00  0.00000000000E+00 -0.79018004635E+03  0.79018004636E+03  0.50400001928E-02 0. -1.
    10030    2    1    2    0    0  0.00000000000E+00  0.00000000000E+00  0.60527752509E+03  0.21856376178E+04  0.21001549738E+04 0.  0.
        5    1    3    3  502    0 -0.76458272704E+03  0.36489257098E+03  0.94830026093E+03  0.12716244767E+04  0.46999998093E+01 0.  1.
       -5    1    3    3    0  502  0.76458272704E+03 -0.36489257098E+03 -0.34302273584E+03  0.91401314112E+03  0.46999998093E+01 0. -1.
</event>
<event>
 5   0  0.1590067E-06  0.2099920E+04  0.7818609E-02  0.8561278E-01
        1   -1    0    0  501    0  0.00000000000E+00  0.00000000000E+00  0.12697761586E+04  0.12697761586E+04  0.50400001928E-02 0.  1.
       -1   -1    0    0    0  501  0.00000000000E+00  0.00000000000E+00 -0.86819742528E+03  0.86819742529E+03  0.50400001928E-02 0. -1.
    10030    2    1    2    0    0  0.00000000000E+00  0.00000000000E+00  0.40157873336E+03  0.21379735839E+04  0.20999203715E+04 0.  0.
        5    1    3    3  502    0 -0.62261147773E+03 -0.82143595969E+03 -0.28150664234E+01  0.10307434708E+04  0.46999998093E+01 0. -1.
       -5    1    3    3    0  502  0.62261147773E+03  0.82143595969E+03  0.40439379978E+03  0.11072301131E+04  0.46999998093E+01 0.  1.
</event>
<event>
 5   0  0.1653260E-06  0.2099586E+04  0.7818609E-02  0.8561426E-01
        1   -1    0    0  501    0  0.00000000000E+00  0.00000000000E+00  0.13885676929E+04  0.13885676929E+04  0.50400001928E-02 0.  1.
       -1   -1    0    0    0  501  0.00000000000E+00  0.00000000000E+00 -0.79367038494E+03  0.79367038495E+03  0.50400001928E-02 0. -1.
    10030    2    1    2    0    0  0.00000000000E+00  0.00000000000E+00  0.59489730797E+03  0.21822380779E+04  0.20995857262E+04 0.  0.
        3    1    3    3  502    0 -0.63474772047E+03 -0.81071925489E+03  0.84709275753E+02  0.10331244119E+04  0.10100000352E+00 0. -1.
       -3    1    3    3    0  502  0.63474772047E+03  0.81071925489E+03  0.51018803222E+03  0.11491136660E+04  0.10100000352E+00 0.  1.
</event>
<event>
 5   0  0.1579820E-06  0.2100303E+04  0.7818609E-02  0.8561110E-01
        1   -1    0    0  501    0  0.00000000000E+00  0.00000000000E+00  0.13263548111E+04  0.13263548112E+04  0.50400001928E-02 0. -1.
       -1   -1    0    0    0  501  0.00000000000E+00  0.00000000000E+00 -0.83146571611E+03  0.83146571612E+03  0.50400001928E-02 0.  1.
    10030    2    1    2    0    0  0.00000000000E+00  0.00000000000E+00  0.49488909503E+03  0.21578205273E+04  0.21003033618E+04 0.  0.
        2    1    3    3  502    0 -0.83994361302E+03  0.48422431029E+03  0.66202991425E+03  0.11739940643E+04  0.25500000920E-02 0. -1.
       -2    1    3    3    0  502  0.83994361302E+03 -0.48422431029E+03 -0.16714081921E+03  0.98382646294E+03  0.25500000920E-02 0.  1.
</event>
<event>
 5   0  0.3705828E-06  0.2099373E+04  0.7818609E-02  0.8561520E-01
        2   -1    0    0  501    0  0.00000000000E+00  0.00000000000E+00  0.12586935471E+04  0.12586935471E+04  0.25500000920E-02 0. -1.
       -2   -1    0    0    0  501  0.00000000000E+00  0.00000000000E+00 -0.87538537680E+03  0.87538537680E+03  0.25500000920E-02 0.  1.
    10030    2    1    2    0    0  0.00000000000E+00  0.00000000000E+00  0.38330817026E+03  0.21340789239E+04  0.20993731683E+04 0.  0.
        5    1    3    3  502    0  0.29858735799E+03 -0.13634781919E+03  0.12051694668E+04  0.12490799301E+04  0.46999998093E+01 0. -1.
       -5    1    3    3    0  502 -0.29858735799E+03  0.13634781919E+03 -0.82186129654E+03  0.88499899373E+03  0.46999998093E+01 0.  1.
</event>
<event>
 5   0  0.1646510E-06  0.2099856E+04  0.7818609E-02  0.8561307E-01
       -1   -1    0    0    0  501  0.00000000000E+00  0.00000000000E+00  0.65827708938E+03  0.65827708940E+03  0.50400001928E-02 0.  1.
        1   -1    0    0  501    0  0.00000000000E+00  0.00000000000E+00 -0.16745970137E+04  0.16745970137E+04  0.50400001928E-02 0. -1.
    10030    2    1    2    0    0  0.00000000000E+00  0.00000000000E+00 -0.10163199243E+04  0.23328741031E+04  0.20998560409E+04 0.  0.
        4    1    3    3  502    0 -0.43923569758E+03 -0.94928581188E+03 -0.60922565159E+03  0.12104664630E+04  0.12699999809E+01 0.  1.
       -4    1    3    3    0  502  0.43923569758E+03  0.94928581188E+03 -0.40709427271E+03  0.11224076401E+04  0.12699999809E+01 0. -1.
</event>
<event>
 5   0  0.1590067E-06  0.2101834E+04  0.7818609E-02  0.8560436E-01
        1   -1    0    0  501    0  0.00000000000E+00  0.00000000000E+00  0.96793775569E+03  0.96793775570E+03  0.50400001928E-02 0.  1.
       -1   -1    0    0    0  501  0.00000000000E+00  0.00000000000E+00 -0.11410098569E+04  0.11410098570E+04  0.50400001928E-02 0. -1.
    10030    2    1    2    0    0  0.00000000000E+00  0.00000000000E+00 -0.17307210126E+03  0.21089476127E+04  0.21018339803E+04 0.  0.
        5    1    3    3  502    0  0.47240345120E+03 -0.53091934594E+02  0.85387701116E+03  0.97729822184E+03  0.46999998093E+01 0.  1.
       -5    1    3    3    0  502 -0.47240345120E+03  0.53091934594E+02 -0.10269491124E+04  0.11316493908E+04  0.46999998093E+01 0. -1.
</event>
<event>
 5   0  0.3547583E-06  0.2100410E+04  0.7818609E-02  0.8561063E-01
        2   -1    0    0  501    0  0.00000000000E+00  0.00000000000E+00  0.68284043843E+03  0.68284043843E+03  0.25500000920E-02 0. -1.
       -2   -1    0    0    0  501  0.00000000000E+00  0.00000000000E+00 -0.16152094499E+04  0.16152094499E+04  0.25500000920E-02 0.  1.
    10030    2    1    2    0    0  0.00000000000E+00  0.00000000000E+00 -0.93236901146E+03  0.22980498883E+04  0.21004097971E+04 0.  0.
        2    1    3    3  502    0  0.98369176178E+03 -0.32442331215E+03 -0.65578335430E+03  0.12259493364E+04  0.25500000920E-02 0. -1.
       -2    1    3    3    0  502 -0.98369176178E+03  0.32442331215E+03 -0.27658565716E+03  0.10721005519E+04  0.25500000920E-02 0.  1.
</event>
<event>
 5   0  0.1579820E-06  0.2099993E+04  0.7818609E-02  0.8561247E-01
       -1   -1    0    0    0  501  0.00000000000E+00  0.00000000000E+00  0.75706213243E+03  0.75706213245E+03  0.50400001928E-02 0.  1.
        1   -1    0    0  501    0  0.00000000000E+00  0.00000000000E+00 -0.14562769677E+04  0.14562769677E+04  0.50400001928E-02 0. -1.
    10030    2    1    2    0    0  0.00000000000E+00  0.00000000000E+00 -0.69921483525E+03  0.22133391001E+04  0.20999925205E+04 0.  0.
        2    1    3    3  502    0 -0.67785062686E+03  0.45044838817E+03 -0.10488201190E+04  0.13275574808E+04  0.25500000920E-02 0. -1.
       -2    1    3    3    0  502  0.67785062686E+03 -0.45044838817E+03  0.34960528376E+03  0.88578161935E+03  0.25500000920E-02 0.  1.
</event>
<event>
 5   0  0.3705828E-06  0.2099458E+04  0.7818609E-02  0.8561482E-01
        2   -1    0    0  501    0  0.00000000000E+00  0.00000000000E+00  0.58215256462E+03  0.58215256463E+03  0.25500000920E-02 0.  1.
       -2   -1    0    0    0  501  0.00000000000E+00  0.00000000000E+00 -0.18928555316E+04  0.18928555316E+04  0.25500000920E-02 0. -1.
    10030    2    1    2    0    0  0.00000000000E+00  0.00000000000E+00 -0.13107029670E+04  0.24750080962E+04  0.20994577416E+04 0.  0.
        5    1    3    3  502    0  0.97447298002E+03 -0.34663940864E+03 -0.44396634340E+03  0.11255597152E+04  0.46999998093E+01 0. -1.
       -5    1    3    3    0  502 -0.97447298002E+03  0.34663940864E+03 -0.86673662356E+03  0.13494483810E+04  0.46999998093E+01 0.  1.
</event>
<event>
 5   0  0.1615098E-06  0.2100858E+04  0.7818609E-02  0.8560865E-01
       -1   -1    0    0    0  501  0.00000000000E+00  0.00000000000E+00  0.33595015804E+03  0.33595015807E+03  0.50400001928E-02 0. -1.
        1   -1    0    0  501    0  0.00000000000E+00  0.00000000000E+00 -0.32844203432E+04  0.32844203432E+04  0.50400001928E-02 0.  1.
    10030    2    1    2    0    0  0.00000000000E+00  0.00000000000E+00 -0.29484701852E+04  0.36203705013E+04  0.21008584278E+04 0.  0.
        1    1    3    3  502    0  0.15506732258E+03  0.10143498550E+04 -0.18613028058E+04  0.21254175209E+04  0.50400001928E-02 0. -1.
       -1    1    3    3    0  502 -0.15506732258E+03 -0.10143498550E+04 -0.10871673794E+04  0.14949529804E+04  0.50400001928E-02 0.  1.
</event>
<event>
 5   0  0.3574927E-06  0.2100084E+04  0.7818609E-02  0.8561206E-01
        2   -1    0    0  501    0  0.00000000000E+00  0.00000000000E+00  0.14648418913E+04  0.14648418913E+04  0.25500000920E-02 0.  1.
       -2   -1    0    0    0  501  0.00000000000E+00  0.00000000000E+00 -0.75270114777E+03  0.75270114778E+03  0.25500000920E-02 0. -1.
    10030    2    1    2    0    0  0.00000000000E+00  0.00000000000E+00  0.71214074350E+03  0.22175430391E+04  0.21000839725E+04 0.  0.
        3    1    3    3  502    0 -0.29706825267E+03 -0.62671977077E+03  0.11885569804E+04  0.13761158831E+04  0.10100000352E+00 0.  1.
       -3    1    3    3    0  502  0.29706825267E+03  0.62671977077E+03 -0.47641623690E+03  0.84142715597E+03  0.10100000352E+00 0. -1.
</event>
<event>
 5   0  0.3705828E-06  0.2100059E+04  0.7818609E-02  0.8561217E-01
        2   -1    0    0  501    0  0.00000000000E+00  0.00000000000E+00  0.28128587448E+04  0.28128587448E+04  0.25500000920E-02 0. -1.
       -2   -1    0    0    0  501  0.00000000000E+00  0.00000000000E+00 -0.39197211832E+03  0.39197211832E+03  0.25500000920E-02 0.  1.
    10030    2    1    2    0    0  0.00000000000E+00  0.00000000000E+00  0.24208866265E+04  0.32048308631E+04  0.21000592380E+04 0.  0.
        5    1    3    3  502    0  0.41403532773E+03  0.95843189284E+03  0.13812208004E+04  0.17314184749E+04  0.46999998093E+01 0.  1.
       -5    1    3    3    0  502 -0.41403532773E+03 -0.95843189284E+03  0.10396658261E+04  0.14734123883E+04  0.46999998093E+01 0. -1.
</event>
<event>
 5   0  0.1615098E-06  0.2099784E+04  0.7818609E-02  0.8561339E-01
       -1   -1    0    0    0  501  0.00000000000E+00  0.00000000000E+00  0.56101906722E+03  0.56101906724E+03  0.50400001928E-02 0. -1.
        1   -1    0    0  501    0  0.00000000000E+00  0.00000000000E+00 -0.19647687236E+04  0.19647687236E+04  0.50400001928E-02 0.  1.
    10030    2    1    2    0    0  0.00000000000E+00  0.00000000000E+00 -0.14037496564E+04  0.25257877909E+04  0.20997835285E+04 0.  0.
        1    1    3    3  502    0 -0.32937180655E+03  0.41178895199E+03  0.39017652985E+03  0.65596772207E+03  0.50400001928E-02 0. -1.
       -1    1    3    3    0  502  0.32937180655E+03 -0.41178895199E+03 -0.17939261863E+04  0.18698200688E+04  0.50400001928E-02 0.  1.
</event>
<event>
 5   0  0.3547583E-06  0.2100129E+04  0.7818609E-02  0.8561186E-01
       -2   -1    0    0    0  501  0.00000000000E+00  0.00000000000E+00  0.85571057629E+03  0.85571057629E+03  0.25500000920E-02 0. -1.
        2   -1    0    0  501    0  0.00000000000E+00  0.00000000000E+00 -0.12885614917E+04  0.12885614917E+04  0.25500000920E-02 0.  1.
    10030    2    1    2    0    0  0.00000000000E+00  0.00000000000E+00 -0.43285091537E+03  0.21442720680E+04  0.21001292309E+04 0.  0.
        2    1    3    3  502    0  0.72785917010E+03 -0.71751927196E+03 -0.46236778752E+03  0.11217828881E+04  0.25500000920E-02 0.  1.
       -2    1    3    3    0  502 -0.72785917010E+03  0.71751927196E+03  0.29516872151E+02  0.10224891798E+04  0.25500000920E-02 0. -1.
</event>
<event>
 5   0  0.3705828E-06  0.2100260E+04  0.7818609E-02  0.8561129E-01
       -2   -1    0    0    0  501  0.00000000000E+00  0.00000000000E+00  0.95353969279E+03  0.95353969279E+03  0.25500000920E-02 0. -1.
        2   -1    0    0  501    0  0.00000000000E+00  0.00000000000E+00 -0.11565044085E+04  0.11565044085E+04  0.25500000920E-02 0.  1.
    10030    2    1    2    0    0  0.00000000000E+00  0.00000000000E+00 -0.20296471575E+03  0.21100441013E+04  0.21002598491E+04 0.  0.
        5    1    3    3  502    0  0.44860843189E+03  0.59055897472E+03  0.64544690818E+03  0.98317507549E+03  0.46999998093E+01 0. -1.
       -5    1    3    3    0  502 -0.44860843189E+03 -0.59055897472E+03 -0.84841162393E+03  0.11268690258E+04  0.46999998093E+01 0.  1.
</event>
<event>
 5   0  0.1579820E-06  0.2101705E+04  0.7818609E-02  0.8560493E-01
        1   -1    0    0  501    0  0.00000000000E+00  0.00000000000E+00  0.13548886412E+04  0.13548886412E+04  0.50400001928E-02 0.  1.
       -1   -1    0    0    0  501  0.00000000000E+00  0.00000000000E+00 -0.81504185725E+03  0.81504185727E+03  0.50400001928E-02 0. -1.
    10030    2    1    2    0    0  0.00000000000E+00  0.00000000000E+00  0.53984678398E+03  0.21699304985E+04  0.21017049789E+04 0.  0.
        2    1    3    3  502    0  0.51524204804E+03  0.40069639696E+03 -0.58037596041E+03  0.87342327999E+03  0.25500000920E-02 0. -1.
       -2    1    3    3    0  502 -0.51524204804E+03 -0.40069639696E+03  0.11202227444E+04  0.12965072185E+04  0.25500000920E-02 0.  1.
</event>
<event>
 5   0  0.3705828E-06  0.2097565E+04  0.7818609E-02  0.8562317E-01
       -2   -1    0    0    0  501  0.00000000000E+00  0.00000000000E+00  0.30836693632E+04  0.30836693632E+04  0.25500000920E-02 0. -1.
        2   -1    0    0  501    0  0.00000000000E+00  0.00000000000E+00 -0.35669988607E+03  0.35669988608E+03  0.25500000920E-02 0.  1.
    10030    2    1    2    0    0  0.00000000000E+00  0.00000000000E+00  0.27269694771E+04  0.34403692493E+04  0.20975647886E+04 0.  0.
        5    1    3    3  502    0 -0.67644933698E+03  0.79904241637E+03  0.12614515790E+04  0.16393092036E+04  0.46999998093E+01 0.  1.
       -5    1    3    3    0  502  0.67644933698E+03 -0.79904241637E+03  0.14655178981E+04  0.18010600457E+04  0.46999998093E+01 0. -1.
</event>
<event>
 5   0  0.1646510E-06  0.2100068E+04  0.7818609E-02  0.8561214E-01
        1   -1    0    0  501    0  0.00000000000E+00  0.00000000000E+00  0.10315754106E+04  0.10315754107E+04  0.50400001928E-02 0.  1.
       -1   -1    0    0    0  501  0.00000000000E+00  0.00000000000E+00 -0.10688223968E+04  0.10688223968E+04  0.50400001928E-02 0. -1.
    10030    2    1    2    0    0  0.00000000000E+00  0.00000000000E+00 -0.37246986131E+02  0.21003978074E+04  0.21000675255E+04 0.  0.
        4    1    3    3  502    0  0.43169859673E+03 -0.74766449318E+02  0.93578838916E+03  0.10332740307E+04  0.12699999809E+01 0.  1.
       -4    1    3    3    0  502 -0.43169859673E+03  0.74766449318E+02 -0.97303537529E+03  0.10671237767E+04  0.12699999809E+01 0. -1.
</event>
<event>
 5   0  0.1590067E-06  0.2103643E+04  0.7818609E-02  0.8559640E-01
       -1   -1    0    0    0  501  0.00000000000E+00  0.00000000000E+00  0.78056336617E+03  0.78056336618E+03  0.50400001928E-02 0. -1.
        1   -1    0    0  501    0  0.00000000000E+00  0.00000000000E+00 -0.14173455239E+04  0.14173455239E+04  0.50400001928E-02 0.  1.
    10030    2    1    2    0    0  0.00000000000E+00  0.00000000000E+00 -0.63678215772E+03  0.21979088901E+04  0.21036425487E+04 0.  0.
        5    1    3    3  502    0 -0.53101665508E+03  0.79552955729E+03 -0.77555999805E+03  0.12314062551E+04  0.46999998093E+01 0. -1.
       -5    1    3    3    0  502  0.53101665508E+03 -0.79552955729E+03  0.13877784033E+03  0.96650263499E+03  0.46999998093E+01 0.  1.
</event>
<event>
 5   0  0.1590067E-06  0.2100600E+04  0.7818609E-02  0.8560979E-01
       -1   -1    0    0    0  501  0.00000000000E+00  0.00000000000E+00  0.12817352855E+04  0.12817352856E+04  0.50400001928E-02 0.  1.
        1   -1    0    0  501    0  0.00000000000E+00  0.00000000000E+00 -0.86065351966E+03  0.86065351967E+03  0.50400001928E-02 0. -1.
    10030    2    1    2    0    0  0.00000000000E+00  0.00000000000E+00  0.42108176589E+03  0.21423888052E+04  0.21005998998E+04 0.  0.
        5    1    3    3  502    0  0.10280861004E+04  0.21321116729E+03  0.23728978632E+03  0.10764518402E+04  0.46999998093E+01 0.  1.
       -5    1    3    3    0  502 -0.10280861004E+04 -0.21321116729E+03  0.18379197956E+03  0.10659369650E+04  0.46999998093E+01 0. -1.
</event>
<event>
 5   0  0.1257125E-06  0.2100371E+04  0.7818609E-02  0.8561080E-01
       -3   -1    0    0    0  501  0.00000000000E+00  0.00000000000E+00  0.69189831449E+03  0.69189832187E+03  0.10100000352E+00 0. -1.
        3   -1    0    0  501    0  0.00000000000E+00  0.00000000000E+00 -0.15940049650E+04  0.15940049682E+04  0.10100000352E+00 0.  1.
    10030    2    1    2    0    0  0.00000000000E+00  0.00000000000E+00 -0.90210665051E+03  0.22859032901E+04  0.21003707869E+04 0.  0.
        4    1    3    3  502    0  0.70918179758E+03  0.41651067543E+03  0.25967724792E+03  0.86246962309E+03  0.12699999809E+01 0. -1.
       -4    1    3    3    0  502 -0.70918179758E+03 -0.41651067543E+03 -0.11617838984E+04  0.14234336670E+04  0.12699999809E+01 0.  1.
</event>
<event>
 5   0  0.3574927E-06  0.2103780E+04  0.7818609E-02  0.8559580E-01
        2   -1    0    0  501    0  0.00000000000E+00  0.00000000000E+00  0.15103356401E+04  0.15103356401E+04  0.25500000920E-02 0.  1.
       -2   -1    0    0    0  501  0.00000000000E+00  0.00000000000E+00 -0.73260022893E+03  0.73260022894E+03  0.25500000920E-02 0. -1.
    10030    2    1    2    0    0  0.00000000000E+00  0.00000000000E+00  0.77773541115E+03  0.22429358690E+04  0.21037796802E+04 0.  0.
        3    1    3    3  502    0 -0.93858713369E+03 -0.27052098246E+03  0.80499906048E+03  0.12657609992E+04  0.10100000352E+00 0. -1.
       -3    1    3    3    0  502  0.93858713369E+03  0.27052098246E+03 -0.27263649332E+02  0.97717486984E+03  0.10100000352E+00 0.  1.
</event>
<event>
 5   0  0.1590067E-06  0.2100016E+04  0.7818609E-02  0.8561236E-01
        1   -1    0    0  501    0  0.00000000000E+00  0.00000000000E+00  0.13507254847E+04  0.13507254847E+04  0.50400001928E-02 0. -1.
       -1   -1    0    0    0  501  0.00000000000E+00  0.00000000000E+00 -0.81624083420E+03  0.81624083421E+03  0.50400001928E-02 0.  1.
    10030    2    1    2    0    0  0.00000000000E+00  0.00000000000E+00  0.53448465047E+03  0.21669663189E+04  0.21000164727E+04 0.  0.
        5    1    3    3  502    0  0.48601856757E+03  0.48541093471E+02 -0.69186555804E+03  0.84691813428E+03  0.46999998093E+01 0.  1.
       -5    1    3    3    0  502 -0.48601856757E+03 -0.48541093471E+02  0.12263502085E+04  0.13200481846E+04  0.46999998093E+01 0. -1.
</event>
<event>
 5   0  0.1590067E-06  0.2100176E+04  0.7818609E-02  0.8561166E-01
       -1   -1    0    0    0  501  0.00000000000E+00  0.00000000000E+00  0.85760079555E+03  0.85760079556E+03  0.50400001928E-02 0.  1.
        1   -1    0    0  501    0  0.00000000000E+00  0.00000000000E+00 -0.12857785483E+04  0.12857785483E+04  0.50400001928E-02 0. -1.
    10030    2    1    2    0    0  0.00000000000E+00  0.00000000000E+00 -0.42817775273E+03  0.21433793439E+04  0.21001759030E+04 0.  0.
        5    1    3    3  502    0  0.30108128311E+03 -0.97605698596E+03  0.34489783891E+02  0.10220317089E+04  0.46999998093E+01 0.  1.
       -5    1    3    3    0  502 -0.30108128311E+03  0.97605698596E+03 -0.46266753662E+03  0.11213476349E+04  0.46999998093E+01 0. -1.
</event>
<event>
 5   0  0.3574927E-06  0.2099276E+04  0.7818609E-02  0.8561563E-01
       -2   -1    0    0    0  501  0.00000000000E+00  0.00000000000E+00  0.73004300597E+03  0.73004300597E+03  0.25500000920E-02 0. -1.
        2   -1    0    0  501    0  0.00000000000E+00  0.00000000000E+00 -0.15091434136E+04  0.15091434136E+04  0.25500000920E-02 0.  1.
    10030    2    1    2    0    0  0.00000000000E+00  0.00000000000E+00 -0.77910040759E+03  0.22391864195E+04  0.20992756790E+04 0.  0.
        3    1    3    3  502    0  0.42776432873E+02  0.94443440325E+03  0.96861268348E+02  0.95035166163E+03  0.10100000352E+00 0. -1.
       -3    1    3    3    0  502 -0.42776432873E+02 -0.94443440325E+03 -0.87596167593E+03  0.12888347579E+04  0.10100000352E+00 0.  1.
</event>
<event>
 5   0  0.3480134E-06  0.2100113E+04  0.7818609E-02  0.8561194E-01
        2   -1    0    0  501    0  0.00000000000E+00  0.00000000000E+00  0.17757925345E+04  0.17757925345E+04  0.25500000920E-02 0.  1.
       -2   -1    0    0    0  501  0.00000000000E+00  0.00000000000E+00 -0.62091633769E+03  0.62091633769E+03  0.25500000920E-02 0. -1.
    10030    2    1    2    0    0  0.00000000000E+00  0.00000000000E+00  0.11548761969E+04  0.23967088722E+04  0.21001129465E+04 0.  0.
        1    1    3    3  502    0  0.86764372247E+03 -0.37040956577E+03  0.51221926852E+02  0.94479233770E+03  0.50400001928E-02 0. -1.
       -1    1    3    3    0  502 -0.86764372247E+03  0.37040956577E+03  0.11036542700E+04  0.14519165345E+04  0.50400001928E-02 0.  1.
</event>
<event>
 5   0  0.3636435E-06  0.2099428E+04  0.7818609E-02  0.8561495E-01
        2   -1    0    0  501    0  0.00000000000E+00  0.00000000000E+00  0.19194308927E+04  0.19194308927E+04  0.25500000920E-02 0. -1.
       -2   -1    0    0    0  501  0.00000000000E+00  0.00000000000E+00 -0.57407631850E+03  0.57407631851E+03  0.25500000920E-02 0.  1.
    10030    2    1    2    0    0  0.00000000000E+00  0.00000000000E+00  0.13453545742E+04  0.24935072112E+04  0.20994283227E+04 0.  0.
        4    1    3    3  502    0  0.66933433308E+03  0.39256018717E+03  0.15123339371E+04  0.16997845452E+04  0.12699999809E+01 0. -1.
       -4    1    3    3    0  502 -0.66933433308E+03 -0.39256018717E+03 -0.16697936288E+03  0.79372266599E+03  0.12699999809E+01 0.  1.
</event>
<event>
 5   0  0.1579820E-06  0.2100606E+04  0.7818609E-02  0.8560976E-01
       -1   -1    0    0    0  501  0.00000000000E+00  0.00000000000E+00  0.87576554296E+03  0.87576554297E+03  0.50400001928E-02 0.  1.
        1   -1    0    0  501    0  0.00000000000E+00  0.00000000000E+00 -0.12596256438E+04  0.12596256438E+04  0.50400001928E-02 0. -1.
    10030    2    1    2    0    0  0.00000000000E+00  0.00000000000E+00 -0.38386010085E+03  0.21353911868E+04  0.21006063276E+04 0.  0.
        2    1    3    3  502    0 -0.84847331517E+03  0.56682041790E+03 -0.44493775295E+03  0.11131765164E+04  0.25500000920E-02 0. -1.
       -2    1    3    3    0  502  0.84847331517E+03 -0.56682041790E+03  0.61077652098E+02  0.10222146704E+04  0.25500000920E-02 0.  1.
</event>
<event>
 5   0  0.3705828E-06  0.2099844E+04  0.7818609E-02  0.8561312E-01
       -2   -1    0    0    0  501  0.00000000000E+00  0.00000000000E+00  0.69471925634E+03  0.69471925635E+03  0.25500000920E-02 0.  1.
        2   -1    0    0  501    0  0.00000000000E+00  0.00000000000E+00 -0.15867362650E+04  0.15867362650E+04  0.25500000920E-02 0. -1.
    10030    2    1    2    0    0  0.00000000000E+00  0.00000000000E+00 -0.89201700870E+03  0.22814555214E+04  0.20998440305E+04 0.  0.
        5    1    3    3  502    0  0.43936129895E+03 -0.33249040523E+03 -0.14170188553E+04  0.15203791458E+04  0.46999998093E+01 0. -1.
       -5    1    3    3    0  502 -0.43936129895E+03  0.33249040523E+03  0.52500184661E+03  0.76107637562E+03  0.46999998093E+01 0.  1.
</event>
<event>
 5   0  0.1646510E-06  0.2099666E+04  0.7818609E-02  0.8561391E-01
        1   -1    0    0  501    0  0.00000000000E+00  0.00000000000E+00  0.21820893612E+04  0.21820893612E+04  0.50400001928E-02 0.  1.
       -1   -1    0    0    0  501  0.00000000000E+00  0.00000000000E+00 -0.50508888458E+03  0.50508888460E+03  0.50400001928E-02 0. -1.
    10030    2    1    2    0    0  0.00000000000E+00  0.00000000000E+00  0.16770004766E+04  0.26871782458E+04  0.20996657653E+04 0.  0.
        4    1    3    3  502    0 -0.55104594973E+03 -0.16105511960E+03 -0.28639374995E+03  0.64157102738E+03  0.12699999809E+01 0. -1.
       -4    1    3    3    0  502  0.55104594973E+03  0.16105511960E+03  0.19633942265E+04  0.20456072184E+04  0.12699999809E+01 0.  1.
</event>
<event>
 5   0  0.3480134E-06  0.2100080E+04  0.7818609E-02  0.8561208E-01
       -2   -1    0    0    0  501  0.00000000000E+00  0.00000000000E+00  0.96370397190E+03  0.96370397191E+03  0.25500000920E-02 0. -1.
        2   -1    0    0  501    0  0.00000000000E+00  0.00000000000E+00 -0.11441110438E+04  0.11441110438E+04  0.25500000920E-02 0.  1.
    10030    2    1    2    0    0  0.00000000000E+00  0.00000000000E+00 -0.18040707189E+03  0.21078150157E+04  0.21000803387E+04 0.  0.
        1    1    3    3  502    0  0.58635220707E+03 -0.84024895460E+03 -0.32073871666E+03  0.10736389248E+04  0.50400001928E-02 0.  1.
       -1    1    3    3    0  502 -0.58635220707E+03  0.84024895460E+03  0.14033164478E+03  0.10341760909E+04  0.50400001928E-02 0. -1.
</event>
<event>
 5   0  0.3705828E-06  0.2100273E+04  0.7818609E-02  0.8561123E-01
        2   -1    0    0  501    0  0.00000000000E+00  0.00000000000E+00  0.11664688860E+04  0.11664688860E+04  0.25500000920E-02 0. -1.
       -2   -1    0    0    0  501  0.00000000000E+00  0.00000000000E+00 -0.94540562491E+03  0.94540562491E+03  0.25500000920E-02 0.  1.
    10030    2    1    2    0    0  0.00000000000E+00  0.00000000000E+00  0.22106326106E+03  0.21118745109E+04  0.21002725976E+04 0.  0.
        5    1    3    3  502    0 -0.24638186718E+03  0.31192431909E+02  0.11365047640E+04  0.11633323518E+04  0.46999998093E+01 0. -1.
       -5    1    3    3    0  502  0.24638186718E+03 -0.31192431909E+02 -0.91544150290E+03  0.94854215906E+03  0.46999998093E+01 0.  1.
</event>
<event>
 5   0  0.3547583E-06  0.2100182E+04  0.7818609E-02  0.8561163E-01
       -2   -1    0    0    0  501  0.00000000000E+00  0.00000000000E+00  0.70637970219E+03  0.70637970220E+03  0.25500000920E-02 0. -1.
        2   -1    0    0  501    0  0.00000000000E+00  0.00000000000E+00 -0.15610461362E+04  0.15610461362E+04  0.25500000920E-02 0.  1.
    10030    2    1    2    0    0  0.00000000000E+00  0.00000000000E+00 -0.85466643403E+03  0.22674258384E+04  0.21001821872E+04 0.  0.
        2    1    3    3  502    0 -0.75249609819E+02  0.77655166149E+03 -0.11861518327E+04  0.14197362984E+04  0.25500000920E-02 0.  1.
       -2    1    3    3    0  502  0.75249609819E+02 -0.77655166149E+03  0.33148539867E+03  0.84768954003E+03  0.25500000920E-02 0. -1.
</event>
<event>
 5   0  0.1615098E-06  0.2100367E+04  0.7818609E-02  0.8561082E-01
       -1   -1    0    0    0  501  0.00000000000E+00  0.00000000000E+00  0.50642637573E+03  0.50642637575E+03  0.50400001928E-02 0.  1.
        1   -1    0    0  501    0  0.00000000000E+00  0.00000000000E+00 -0.21777800151E+04  0.21777800151E+04  0.50400001928E-02 0. -1.
    10030    2    1    2    0    0  0.00000000000E+00  0.00000000000E+00 -0.16713536394E+04  0.26842063908E+04  0.21003668634E+04 0.  0.
        1    1    3    3  502    0 -0.13725322976E+03 -0.15474404923E+03 -0.21514904611E+04  0.21614105057E+04  0.50400001928E-02 0. -1.
       -1    1    3    3    0  502  0.13725322976E+03  0.15474404923E+03  0.48013682178E+03  0.52279588512E+03  0.50400001928E-02 0.  1.
</event>
<event>
 5   0  0.1646510E-06  0.2100249E+04  0.7818609E-02  0.8561134E-01
        1   -1    0    0  501    0  0.00000000000E+00  0.00000000000E+00  0.13956377593E+04  0.13956377593E+04  0.50400001928E-02 0.  1.
       -1   -1    0    0    0  501  0.00000000000E+00  0.00000000000E+00 -0.79014905118E+03  0.79014905120E+03  0.50400001928E-02 0. -1.
    10030    2    1    2    0    0  0.00000000000E+00  0.00000000000E+00  0.60548870813E+03  0.21857868105E+04  0.21002493674E+04 0.  0.
        4    1    3    3  502    0 -0.11191202024E+03 -0.10023628215E+04 -0.15766744639E+01  0.10085928936E+04  0.12699999809E+01 0. -1.
       -4    1    3    3    0  502  0.11191202024E+03  0.10023628215E+04  0.60706538259E+03  0.11771939169E+04  0.12699999809E+01 0.  1.
</event>
<event>
 5   0  0.3547583E-06  0.2099708E+04  0.7818609E-02  0.8561372E-01
        2   -1    0    0  501    0  0.00000000000E+00  0.00000000000E+00  0.20667027349E+04  0.20667027349E+04  0.25500000920E-02 0. -1.
       -2   -1    0    0    0  501  0.00000000000E+00  0.00000000000E+00 -0.53331009057E+03  0.53331009058E+03  0.25500000920E-02 0.  1.
    10030    2    1    2    0    0  0.00000000000E+00  0.00000000000E+00  0.15333926444E+04  0.26000128255E+04  0.20997080014E+04 0.  0.
        2    1    3    3  502    0 -0.95336933635E+03 -0.43855218383E+03  0.72848372838E+03  0.12774700200E+04  0.25500000920E-02 0.  1.
       -2    1    3    3    0  502  0.95336933635E+03  0.43855218383E+03  0.80490891597E+03  0.13225428055E+04  0.25500000920E-02 0. -1.
</event>
<event>
 5   0  0.3705828E-06  0.2099364E+04  0.7818609E-02  0.8561524E-01
        2   -1    0    0  501    0  0.00000000000E+00  0.00000000000E+00  0.13962847820E+04  0.13962847820E+04  0.25500000920E-02 0.  1.
       -2   -1    0    0    0  501  0.00000000000E+00  0.00000000000E+00 -0.78911709506E+03  0.78911709506E+03  0.25500000920E-02 0. -1.
    10030    2    1    2    0    0  0.00000000000E+00  0.00000000000E+00  0.60716768697E+03  0.21854018771E+04  0.20993638952E+04 0.  0.
        5    1    3    3  502    0  0.26286855719E+02 -0.87885372035E+03  0.90043593402E+03  0.12585236676E+04  0.46999998093E+01 0. -1.
       -5    1    3    3    0  502 -0.26286855719E+02  0.87885372035E+03 -0.29326824705E+03  0.92687820952E+03  0.46999998093E+01 0.  1.
</event>
<event>
 5   0  0.1646510E-06  0.2099209E+04  0.7818609E-02  0.8561592E-01
       -1   -1    0    0    0  501  0.00000000000E+00  0.00000000000E+00  0.11852863436E+04  0.11852863436E+04  0.50400001928E-02 0. -1.
        1   -1    0    0  501    0  0.00000000000E+00  0.00000000000E+00 -0.92945433808E+03  0.92945433809E+03  0.50400001928E-02 0.  1.
    10030    2    1    2    0    0  0.00000000000E+00  0.00000000000E+00  0.25583200554E+03  0.21147406817E+04  0.20992089310E+04 0.  0.
        4    1    3    3  502    0  0.65464837713E+03 -0.46780129291E+03  0.80689489233E+03  0.11395102139E+04  0.12699999809E+01 0. -1.
       -4    1    3    3    0  502 -0.65464837713E+03  0.46780129291E+03 -0.55106288679E+03  0.97523046786E+03  0.12699999809E+01 0.  1.
</event>
<event>
 5   0  0.1579820E-06  0.2100889E+04  0.7818609E-02  0.8560852E-01
        1   -1    0    0  501    0  0.00000000000E+00  0.00000000000E+00  0.20853719817E+04  0.20853719817E+04  0.50400001928E-02 0. -1.
       -1   -1    0    0    0  501  0.00000000000E+00  0.00000000000E+00 -0.52913034831E+03  0.52913034833E+03  0.50400001928E-02 0.  1.
    10030    2    1    2    0    0  0.00000000000E+00  0.00000000000E+00  0.15562416334E+04  0.26145023301E+04  0.21008889576E+04 0.  0.
        2    1    3    3  502    0  0.56347032846E+03  0.32530016427E+03  0.18044270869E+04  0.19181439258E+04  0.25500000920E-02 0. -1.
       -2    1    3    3    0  502 -0.56347032846E+03 -0.32530016427E+03 -0.24818545349E+03  0.69635840431E+03  0.25500000920E-02 0.  1.
</event>
<event>
 5   0  0.3636435E-06  0.2100925E+04  0.7818609E-02  0.8560836E-01
        2   -1    0    0  501    0  0.00000000000E+00  0.00000000000E+00  0.12910832346E+04  0.12910832346E+04  0.25500000920E-02 0. -1.
       -2   -1    0    0    0  501  0.00000000000E+00  0.00000000000E+00 -0.85468684692E+03  0.85468684693E+03  0.25500000920E-02 0.  1.
    10030    2    1    2    0    0  0.00000000000E+00  0.00000000000E+00  0.43639638768E+03  0.21457700815E+04  0.21009253760E+04 0.  0.
        4    1    3    3  502    0 -0.52723421967E+03  0.70251024457E+03  0.80666827193E+03  0.11925652519E+04  0.12699999809E+01 0. -1.
       -4    1    3    3    0  502  0.52723421967E+03 -0.70251024457E+03 -0.37027188425E+03  0.95320482966E+03  0.12699999809E+01 0.  1.
</event>
<event>
 5   0  0.1590067E-06  0.2099766E+04  0.7818609E-02  0.8561346E-01
       -1   -1    0    0    0  501  0.00000000000E+00  0.00000000000E+00  0.71815266780E+03  0.71815266782E+03  0.50400001928E-02 0.  1.
        1   -1    0    0  501    0  0.00000000000E+00  0.00000000000E+00 -0.15348472441E+04  0.15348472441E+04  0.50400001928E-02 0. -1.
    10030    2    1    2    0    0  0.00000000000E+00  0.00000000000E+00 -0.81669457629E+03  0.22529999119E+04  0.20997663137E+04 0.  0.
        5    1    3    3  502    0  0.24722675637E+03  0.78034941184E+03  0.29702054269E+03  0.87080971883E+03  0.46999998093E+01 0.  1.
       -5    1    3    3    0  502 -0.24722675637E+03 -0.78034941184E+03 -0.11137151190E+04  0.13821901931E+04  0.46999998093E+01 0. -1.
</event>
<event>
 5   0  0.3636435E-06  0.2100468E+04  0.7818609E-02  0.8561037E-01
        2   -1    0    0  501    0  0.00000000000E+00  0.00000000000E+00  0.20649104879E+04  0.20649104879E+04  0.25500000920E-02 0. -1.
       -2   -1    0    0    0  501  0.00000000000E+00  0.00000000000E+00 -0.53415942375E+03  0.53415942376E+03  0.25500000920E-02 0.  1.
    10030    2    1    2    0    0  0.00000000000E+00  0.00000000000E+00  0.15307510641E+04  0.25990699116E+04  0.21004679444E+04 0.  0.
        4    1    3    3  502    0  0.98583584183E+03 -0.33129652283E+03  0.58453180621E+03  0.11930250368E+04  0.12699999809E+01 0.  1.
       -4    1    3    3    0  502 -0.98583584183E+03  0.33129652283E+03  0.94621925792E+03  0.14060448748E+04  0.12699999809E+01 0. -1.
</event>
<event>
 5   0  0.3636435E-06  0.2099643E+04  0.7818609E-02  0.8561401E-01
       -2   -1    0    0    0  501  0.00000000000E+00  0.00000000000E+00  0.17410875272E+04  0.17410875272E+04  0.25500000920E-02 0.  1.
        2   -1    0    0  501    0  0.00000000000E+00  0.00000000000E+00 -0.63300962622E+03  0.63300962623E+03  0.25500000920E-02 0. -1.
    10030    2    1    2    0    0  0.00000000000E+00  0.00000000000E+00  0.11080779009E+04  0.23740971534E+04  0.20996429837E+04 0.  0.
        4    1    3    3  502    0  0.20695105214E+03  0.18145017723E+01  0.17177918616E+04  0.17302145887E+04  0.12699999809E+01 0.  1.
       -4    1    3    3    0  502 -0.20695105214E+03 -0.18145017723E+01 -0.60971396064E+03  0.64388256468E+03  0.12699999809E+01 0. -1.
</event>
<event>
 5   0  0.3574927E-06  0.2098997E+04  0.7818609E-02  0.8561685E-01
       -2   -1    0    0    0  501  0.00000000000E+00  0.00000000000E+00  0.67300399623E+03  0.67300399624E+03  0.25500000920E-02 0. -1.
        2   -1    0    0  501    0  0.00000000000E+00  0.00000000000E+00 -0.16366126033E+04  0.16366126033E+04  0.25500000920E-02 0.  1.
    10030    2    1    2    0    0  0.00000000000E+00  0.00000000000E+00 -0.96360860709E+03  0.23096165996E+04  0.20989967340E+04 0.  0.
        3    1    3    3  502    0 -0.45216311059E+03  0.11441946759E+03  0.55269585331E+03  0.72319845797E+03  0.10100000352E+00 0. -1.
       -3    1    3    3    0  502  0.45216311059E+03 -0.11441946759E+03 -0.15163044604E+04  0.15864181416E+04  0.10100000352E+00 0.  1.
</event>
<event>
 5   0  0.1579820E-06  0.2097810E+04  0.7818609E-02  0.8562209E-01
       -1   -1    0    0    0  501  0.00000000000E+00  0.00000000000E+00  0.11279037929E+04  0.11279037929E+04  0.50400001928E-02 0.  1.
        1   -1    0    0  501    0  0.00000000000E+00  0.00000000000E+00 -0.97543952407E+03  0.97543952408E+03  0.50400001928E-02 0. -1.
    10030    2    1    2    0    0  0.00000000000E+00  0.00000000000E+00  0.15246426880E+03  0.21033433170E+04  0.20978102287E+04 0.  0.
        2    1    3    3  502    0  0.73394882378E+03 -0.74657728247E+03  0.14077134842E+03  0.10563498886E+04  0.25500000920E-02 0. -1.
       -2    1    3    3    0  502 -0.73394882378E+03  0.74657728247E+03  0.11692920377E+02  0.10469934284E+04  0.25500000920E-02 0.  1.
</event>
<event>
 5   0  0.1615098E-06  0.2100712E+04  0.7818609E-02  0.8560930E-01
       -1   -1    0    0    0  501  0.00000000000E+00  0.00000000000E+00  0.77674224331E+03  0.77674224332E+03  0.50400001928E-02 0. -1.
        1   -1    0    0  501    0  0.00000000000E+00  0.00000000000E+00 -0.14203525297E+04  0.14203525297E+04  0.50400001928E-02 0.  1.
    10030    2    1    2    0    0  0.00000000000E+00  0.00000000000E+00 -0.64361028640E+03  0.21970947730E+04  0.21007120795E+04 0.  0.
        1    1    3    3  502    0  0.64433843723E+03  0.33386038588E+03  0.47238498542E+03  0.86589973635E+03  0.50400001928E-02 0. -1.
       -1    1    3    3    0  502 -0.64433843723E+03 -0.33386038588E+03 -0.11159952718E+04  0.13311950367E+04  0.50400001928E-02 0.  1.
</event>
<event>
 5   0  0.1590067E-06  0.2094399E+04  0.7818609E-02  0.8563715E-01
        1   -1    0    0  501    0  0.00000000000E+00  0.00000000000E+00  0.14558518811E+04  0.14558518811E+04  0.50400001928E-02 0.  1.
       -1   -1    0    0    0  501  0.00000000000E+00  0.00000000000E+00 -0.75325433303E+03  0.75325433304E+03  0.50400001928E-02 0. -1.
    10030    2    1    2    0    0  0.00000000000E+00  0.00000000000E+00  0.70259754809E+03  0.22091062142E+04  0.20943989474E+04 0.  0.
        5    1    3    3  502    0  0.22175360565E+03  0.63624605097E+03  0.11968396857E+04  0.13734740705E+04  0.46999998093E+01 0.  1.
       -5    1    3    3    0  502 -0.22175360565E+03 -0.63624605097E+03 -0.49424213760E+03  0.83563214370E+03  0.46999998093E+01 0. -1.
</event>
<event>
 5   0  0.3480134E-06  0.2098839E+04  0.7818609E-02  0.8561755E-01
       -2   -1    0    0    0  501  0.00000000000E+00  0.00000000000E+00  0.79620055828E+03  0.79620055828E+03  0.25500000920E-02 0. -1.
        2   -1    0    0  501    0  0.00000000000E+00  0.00000000000E+00 -0.13831701648E+04  0.13831701648E+04  0.25500000920E-02 0.  1.
    10030    2    1    2    0    0  0.00000000000E+00  0.00000000000E+00 -0.58696960657E+03  0.21793707231E+04  0.20988385907E+04 0.  0.
        1    1    3    3  502    0 -0.11828547396E+03  0.99692447251E+03 -0.61087796870E+03  0.11751688176E+04  0.50400001928E-02 0. -1.
       -1    1    3    3    0  502  0.11828547396E+03 -0.99692447251E+03  0.23908362129E+02  0.10042019055E+04  0.50400001928E-02 0.  1.
</event>
<event>
 5   0  0.3705828E-06  0.2099102E+04  0.7818609E-02  0.8561639E-01
        2   -1    0    0  501    0  0.00000000000E+00  0.00000000000E+00  0.22037665740E+04  0.22037665740E+04  0.25500000920E-02 0.  1.
       -2   -1    0    0    0  501  0.00000000000E+00  0.00000000000E+00 -0.49985220541E+03  0.49985220541E+03  0.25500000920E-02 0. -1.
    10030    2    1    2    0    0  0.00000000000E+00  0.00000000000E+00  0.17039143686E+04  0.27036187794E+04  0.20991022674E+04 0.  0.
        5    1    3    3  502    0 -0.22948345576E+03  0.91852893236E+03  0.26854344022E+03  0.98412180412E+03  0.46999998093E+01 0. -1.
       -5    1    3    3    0  502  0.22948345576E+03 -0.91852893236E+03  0.14353709284E+04  0.17194969753E+04  0.46999998093E+01 0.  1.
</event>
<event>
 5   0  0.3636435E-06  0.2099465E+04  0.7818609E-02  0.8561479E-01
       -2   -1    0    0    0  501  0.00000000000E+00  0.00000000000E+00  0.77518993156E+03  0.77518993156E+03  0.25500000920E-02 0.  1.
        2   -1    0    0  501    0  0.00000000000E+00  0.00000000000E+00 -0.14215071648E+04  0.14215071648E+04  0.25500000920E-02 0. -1.
    10030    2    1    2    0    0  0.00000000000E+00  0.00000000000E+00 -0.64631723319E+03  0.21966970963E+04  0.20994647335E+04 0.  0.
        4    1    3    3  502    0  0.33252257223E+03  0.90035893738E+03 -0.76795724717E+03  0.12292182164E+04  0.12699999809E+01 0. -1.
       -4    1    3    3    0  502 -0.33252257223E+03 -0.90035893738E+03  0.12164001397E+03  0.96747887991E+03  0.12699999809E+01 0.  1.
</event>
<event>
 5   0  0.1590067E-06  0.2099596E+04  0.7818609E-02  0.8561421E-01
       -1   -1    0    0    0  501  0.00000000000E+00  0.00000000000E+00  0.72245882528E+03  0.72245882530E+03  0.50400001928E-02 0. -1.
        1   -1    0    0  501    0  0.00000000000E+00  0.00000000000E+00 -0.15254520029E+04  0.15254520029E+04  0.50400001928E-02 0.  1.
    10030    2    1    2    0    0  0.00000000000E+00  0.00000000000E+00 -0.80299317765E+03  0.22479108282E+04  0.20995964013E+04 0.  0.
        5    1    3    3  502    0  0.17440751031E+03 -0.98726387845E+03 -0.73485292544E+03  0.12430361448E+04  0.46999998093E+01 0.  1.
       -5    1    3    3    0  502 -0.17440751031E+03  0.98726387845E+03 -0.68140252206E+02  0.10048746834E+04  0.46999998093E+01 0. -1.
</event>
<event>
 5   0  0.1615098E-06  0.2101018E+04  0.7818609E-02  0.8560795E-01
       -1   -1    0    0    0  501  0.00000000000E+00  0.00000000000E+00  0.89250418817E+03  0.89250418818E+03  0.50400001928E-02 0. -1.
        1   -1    0    0  501    0  0.00000000000E+00  0.00000000000E+00 -0.12364859329E+04  0.12364859329E+04  0.50400001928E-02 0.  1.
    10030    2    1    2    0    0  0.00000000000E+00  0.00000000000E+00 -0.34398174474E+03  0.21289901211E+04  0.21010177284E+04 0.  0.
        1    1    3    3  502    0  0.10408738843E+04  0.14187122291E+03 -0.17684916682E+03  0.10652800170E+04  0.50400001928E-02 0. -1.
       -1    1    3    3    0  502 -0.10408738843E+04 -0.14187122291E+03 -0.16713257793E+03  0.10637101041E+04  0.50400001928E-02 0.  1.
</event>
<event>
 5   0  0.1579820E-06  0.2100298E+04  0.7818609E-02  0.8561112E-01
       -1   -1    0    0    0  501  0.00000000000E+00  0.00000000000E+00  0.60428938170E+03  0.60428938172E+03  0.50400001928E-02 0. -1.
        1   -1    0    0  501    0  0.00000000000E+00  0.00000000000E+00 -0.18249754374E+04  0.18249754374E+04  0.50400001928E-02 0.  1.
    10030    2    1    2    0    0  0.00000000000E+00  0.00000000000E+00 -0.12206860557E+04  0.24292648191E+04  0.21002983395E+04 0.  0.
        2    1    3    3  502    0 -0.52565889598E+03 -0.61307877192E+03  0.16609022340E+03  0.82448093842E+03  0.25500000920E-02 0. -1.
       -2    1    3    3    0  502  0.52565889598E+03  0.61307877192E+03 -0.13867762791E+04  0.16047838807E+04  0.25500000920E-02 0.  1.
</event>
<event>
 5   0  0.1579820E-06  0.2100738E+04  0.7818609E-02  0.8560918E-01
        1   -1    0    0  501    0  0.00000000000E+00  0.00000000000E+00  0.99599722552E+03  0.99599722554E+03  0.50400001928E-02 0.  1.
       -1   -1    0    0    0  501  0.00000000000E+00  0.00000000000E+00 -0.11077093872E+04  0.11077093872E+04  0.50400001928E-02 0. -1.
    10030    2    1    2    0    0  0.00000000000E+00  0.00000000000E+00 -0.11171216164E+03  0.21037066127E+04  0.21007384191E+04 0.  0.
        2    1    3    3  502    0  0.77998773005E+03  0.68120913929E+03  0.12003013672E+03  0.10425133017E+04  0.25500000920E-02 0.  1.
       -2    1    3    3    0  502 -0.77998773005E+03 -0.68120913929E+03 -0.23174229836E+03  0.10611933110E+04  0.25500000920E-02 0. -1.
</event>
<event>
 5   0  0.1590067E-06  0.2095133E+04  0.7818609E-02  0.8563390E-01
       -1   -1    0    0    0  501  0.00000000000E+00  0.00000000000E+00  0.72127168471E+03  0.72127168473E+03  0.50400001928E-02 0.  1.
        1   -1    0    0  501    0  0.00000000000E+00  0.00000000000E+00 -0.15214737332E+04  0.15214737332E+04  0.50400001928E-02 0. -1.
    10030    2    1    2    0    0  0.00000000000E+00  0.00000000000E+00 -0.80020204844E+03  0.22427454179E+04  0.20951333349E+04 0.  0.
        5    1    3    3  502    0  0.73514232754E+03  0.71512885155E+03 -0.17168916602E+03  0.10398763272E+04  0.46999998093E+01 0. -1.
       -5    1    3    3    0  502 -0.73514232754E+03 -0.71512885155E+03 -0.62851288242E+03  0.12028690907E+04  0.46999998093E+01 0.  1.
</event>
<event>
 5   0  0.3480134E-06  0.2100080E+04  0.7818609E-02  0.8561208E-01
       -2   -1    0    0    0  501  0.00000000000E+00  0.00000000000E+00  0.14509635766E+04  0.14509635766E+04  0.25500000920E-02 0.  1.
        2   -1    0    0  501    0  0.00000000000E+00  0.00000000000E+00 -0.75989761672E+03  0.75989761673E+03  0.25500000920E-02 0. -1.
    10030    2    1    2    0    0  0.00000000000E+00  0.00000000000E+00  0.69106595987E+03  0.22108611933E+04  0.21000797735E+04 0.  0.
        1    1    3    3  502    0  0.39482217491E+03 -0.19974481493E+02 -0.67856181386E+03  0.78532137687E+03  0.50400001928E-02 0. -1.
       -1    1    3    3    0  502 -0.39482217491E+03  0.19974481493E+02  0.13696277737E+04  0.14255398165E+04  0.50400001928E-02 0.  1.
</event>
<event>
 5   0  0.1579820E-06  0.2100336E+04  0.7818609E-02  0.8561095E-01
       -1   -1    0    0    0  501  0.00000000000E+00  0.00000000000E+00  0.83348356596E+03  0.83348356597E+03  0.50400001928E-02 0.  1.
        1   -1    0    0  501    0  0.00000000000E+00  0.00000000000E+00 -0.13231853025E+04  0.13231853025E+04  0.50400001928E-02 0. -1.
    10030    2    1    2    0    0  0.00000000000E+00  0.00000000000E+00 -0.48970173654E+03  0.21566688685E+04  0.21003363582E+04 0.  0.
        2    1    3    3  502    0 -0.65489272598E+03 -0.73593080371E+03 -0.61844229958E+03  0.11631635776E+04  0.25500000920E-02 0. -1.
       -2    1    3    3    0  502  0.65489272598E+03  0.73593080371E+03  0.12874056304E+03  0.99350529086E+03  0.25500000920E-02 0.  1.
</event>
<event>
 5   0  0.1615098E-06  0.2099949E+04  0.7818609E-02  0.8561266E-01
       -1   -1    0    0    0  501  0.00000000000E+00  0.00000000000E+00  0.74769423012E+03  0.74769423013E+03  0.50400001928E-02 0. -1.
        1   -1    0    0  501    0  0.00000000000E+00  0.00000000000E+00 -0.14744617536E+04  0.14744617536E+04  0.50400001928E-02 0.  1.
    10030    2    1    2    0    0  0.00000000000E+00  0.00000000000E+00 -0.72676752349E+03  0.22221559837E+04  0.20999490905E+04 0.  0.
        1    1    3    3  502    0  0.23848044674E+03  0.57051592284E+03  0.53457774161E+03  0.81739507188E+03  0.50400001928E-02 0. -1.
       -1    1    3    3    0  502 -0.23848044674E+03 -0.57051592284E+03 -0.12613452651E+04  0.14047609119E+04  0.50400001928E-02 0.  1.
</event>
<event>
 5   0  0.3636435E-06  0.2104186E+04  0.7818609E-02  0.8559402E-01
       -2   -1    0    0    0  501  0.00000000000E+00  0.00000000000E+00  0.13235791737E+04  0.13235791737E+04  0.25500000920E-02 0.  1.
        2   -1    0    0  501    0  0.00000000000E+00  0.00000000000E+00 -0.83629253502E+03  0.83629253502E+03  0.25500000920E-02 0. -1.
    10030    2    1    2    0    0  0.00000000000E+00  0.00000000000E+00  0.48728663864E+03  0.21598717087E+04  0.21041857166E+04 0.  0.
        4    1    3    3  502    0  0.30707674464E+03  0.63535581131E+03 -0.55734403564E+03  0.89922584540E+03  0.12699999809E+01 0. -1.
       -4    1    3    3    0  502 -0.30707674464E+03 -0.63535581131E+03  0.10446306743E+04  0.12606458633E+04  0.12699999809E+01 0.  1.
</event>
<event>
 5   0  0.1590067E-06  0.2100906E+04  0.7818609E-02  0.8560845E-01
        1   -1    0    0  501    0  0.00000000000E+00  0.00000000000E+00  0.12630716217E+04  0.12630716217E+04  0.50400001928E-02 0.  1.
       -1   -1    0    0    0  501  0.00000000000E+00  0.00000000000E+00 -0.87362516178E+03  0.87362516179E+03  0.50400001928E-02 0. -1.
    10030    2    1    2    0    0  0.00000000000E+00  0.00000000000E+00  0.38944645991E+03  0.21366967835E+04  0.21009056617E+04 0.  0.
        5    1    3    3  502    0 -0.16648614296E+03  0.91751366524E+03 -0.29712711295E+03  0.97870096197E+03  0.46999998093E+01 0. -1.
       -5    1    3    3    0  502  0.16648614296E+03 -0.91751366524E+03  0.68657357286E+03  0.11579958215E+04  0.46999998093E+01 0.  1.
</event>
<event>
 5   0  0.1590067E-06  0.2099790E+04  0.7818609E-02  0.8561336E-01
       -1   -1    0    0    0  501  0.00000000000E+00  0.00000000000E+00  0.12867809078E+04  0.12867809079E+04  0.50400001928E-02 0. -1.
        1   -1    0    0  501    0  0.00000000000E+00  0.00000000000E+00 -0.85661795922E+03  0.85661795923E+03  0.50400001928E-02 0.  1.
    10030    2    1    2    0    0  0.00000000000E+00  0.00000000000E+00  0.43016294863E+03  0.21433988671E+04  0.20997901183E+04 0.  0.
        5    1    3    3  502    0 -0.46543758463E+02  0.29180174192E+03 -0.81328504434E+03  0.86531452743E+03  0.46999998093E+01 0.  1.
       -5    1    3    3    0  502  0.46543758463E+02 -0.29180174192E+03  0.12434479930E+04  0.12780843397E+04  0.46999998093E+01 0. -1.
</event>
<event>
 5   0  0.1579820E-06  0.2100530E+04  0.7818609E-02  0.8561010E-01
       -1   -1    0    0    0  501  0.00000000000E+00  0.00000000000E+00  0.14347847846E+04  0.14347847846E+04  0.50400001928E-02 0. -1.
        1   -1    0    0  501    0  0.00000000000E+00  0.00000000000E+00 -0.76879613759E+03  0.76879613761E+03  0.50400001928E-02 0.  1.
    10030    2    1    2    0    0  0.00000000000E+00  0.00000000000E+00  0.66598864698E+03  0.22035809222E+04  0.21005304098E+04 0.  0.
        2    1    3    3  502    0  0.48592761634E+03  0.56973121535E+03  0.11055591396E+04  0.13352828604E+04  0.25500000920E-02 0. -1.
       -2    1    3    3    0  502 -0.48592761634E+03 -0.56973121535E+03 -0.43957049266E+03  0.86829806177E+03  0.25500000920E-02 0.  1.
</event>
<event>
 5   0  0.3480134E-06  0.2101636E+04  0.7818609E-02  0.8560523E-01
        2   -1    0    0  501    0  0.00000000000E+00  0.00000000000E+00  0.11446937704E+04  0.11446937704E+04  0.25500000920E-02 0. -1.
       -2   -1    0    0    0  501  0.00000000000E+00  0.00000000000E+00 -0.96464124808E+03  0.96464124808E+03  0.25500000920E-02 0.  1.
    10030    2    1    2    0    0  0.00000000000E+00  0.00000000000E+00  0.18005252234E+03  0.21093350185E+04  0.21016363409E+04 0.  0.
        1    1    3    3  502    0  0.59461019439E+03  0.76027337646E+03  0.50705035118E+03  0.10902646233E+04  0.50400001928E-02 0. -1.
       -1    1    3    3    0  502 -0.59461019439E+03 -0.76027337646E+03 -0.32699782884E+03  0.10190703952E+04  0.50400001928E-02 0.  1.
</event>
<event>
 5   0  0.1646510E-06  0.2100392E+04  0.7818609E-02  0.8561071E-01
       -1   -1    0    0    0  501  0.00000000000E+00  0.00000000000E+00  0.48792850532E+03  0.48792850534E+03  0.50400001928E-02 0.  1.
        1   -1    0    0  501    0  0.00000000000E+00  0.00000000000E+00 -0.22603968429E+04  0.22603968429E+04  0.50400001928E-02 0. -1.
    10030    2    1    2    0    0  0.00000000000E+00  0.00000000000E+00 -0.17724683376E+04  0.27483253483E+04  0.21003923948E+04 0.  0.
        4    1    3    3  502    0 -0.46317667482E+03 -0.41874200069E+03 -0.19911329755E+04  0.20867413914E+04  0.12699999809E+01 0. -1.
       -4    1    3    3    0  502  0.46317667482E+03  0.41874200069E+03  0.21866463794E+03  0.66158395690E+03  0.12699999809E+01 0.  1.
</event>
<event>
 5   0  0.3480134E-06  0.2099904E+04  0.7818609E-02  0.8561286E-01
        2   -1    0    0  501    0  0.00000000000E+00  0.00000000000E+00  0.87051867114E+03  0.87051867114E+03  0.25500000920E-02 0.  1.
       -2   -1    0    0    0  501  0.00000000000E+00  0.00000000000E+00 -0.12663709062E+04  0.12663709062E+04  0.25500000920E-02 0. -1.
    10030    2    1    2    0    0  0.00000000000E+00  0.00000000000E+00 -0.39585223506E+03  0.21368895773E+04  0.20999043011E+04 0.  0.
        1    1    3    3  502    0 -0.66353791080E+03 -0.29248505450E+03 -0.97062163379E+03  0.12115842613E+04  0.50400001928E-02 0. -1.
       -1    1    3    3    0  502  0.66353791080E+03  0.29248505450E+03  0.57476939874E+03  0.92530531606E+03  0.50400001928E-02 0.  1.
</event>
<event>
 5   0  0.3574927E-06  0.2099586E+04  0.7818609E-02  0.8561426E-01
        2   -1    0    0  501    0  0.00000000000E+00  0.00000000000E+00  0.12810268868E+04  0.12810268868E+04  0.25500000920E-02 0. -1.
       -2   -1    0    0    0  501  0.00000000000E+00  0.00000000000E+00 -0.86029833193E+03  0.86029833193E+03  0.25500000920E-02 0.  1.
    10030    2    1    2    0    0  0.00000000000E+00  0.00000000000E+00  0.42072855488E+03  0.21413252187E+04  0.20995859534E+04 0.  0.
        3    1    3    3  502    0 -0.11559189966E+03 -0.16503097040E+02  0.12743835958E+04  0.12797216100E+04  0.10100000352E+00 0. -1.
       -3    1    3    3    0  502  0.11559189966E+03  0.16503097040E+02 -0.85365504096E+03  0.86160360877E+03  0.10100000352E+00 0.  1.
</event>
<event>
 5   0  0.3574927E-06  0.2099589E+04  0.7818609E-02  0.8561425E-01
       -2   -1    0    0    0  501  0.00000000000E+00  0.00000000000E+00  0.12660966979E+04  0.12660966979E+04  0.25500000920E-02 0. -1.
        2   -1    0    0  501    0  0.00000000000E+00  0.00000000000E+00 -0.87044534265E+03  0.87044534265E+03  0.25500000920E-02 0.  1.
    10030    2    1    2    0    0  0.00000000000E+00  0.00000000000E+00  0.39565135529E+03  0.21365420406E+04  0.20995885064E+04 0.  0.
        3    1    3    3  502    0 -0.60654304106E+02 -0.30178073905E+03  0.12191423583E+04  0.12574015505E+04  0.10100000352E+00 0. -1.
       -3    1    3    3    0  502  0.60654304106E+02  0.30178073905E+03 -0.82349100304E+03  0.87914049011E+03  0.10100000352E+00 0.  1.
</event>
<event>
 5   0  0.1615098E-06  0.2095041E+04  0.7818609E-02  0.8563431E-01
        1   -1    0    0  501    0  0.00000000000E+00  0.00000000000E+00  0.98543036491E+03  0.98543036492E+03  0.50400001928E-02 0.  1.
       -1   -1    0    0    0  501  0.00000000000E+00  0.00000000000E+00 -0.11135228311E+04  0.11135228311E+04  0.50400001928E-02 0. -1.
    10030    2    1    2    0    0  0.00000000000E+00  0.00000000000E+00 -0.12809246619E+03  0.20989531960E+04  0.20950410113E+04 0.  0.
        1    1    3    3  502    0 -0.84567170621E+03 -0.10420554113E+03  0.54641891500E+03  0.10122218434E+04  0.50400001928E-02 0.  1.
       -1    1    3    3    0  502  0.84567170621E+03  0.10420554113E+03 -0.67451138118E+03  0.10867313527E+04  0.50400001928E-02 0. -1.
</event>
<event>
 5   0  0.1590067E-06  0.2099921E+04  0.7818609E-02  0.8561278E-01
        1   -1    0    0  501    0  0.00000000000E+00  0.00000000000E+00  0.12178293189E+04  0.12178293189E+04  0.50400001928E-02 0. -1.
       -1   -1    0    0    0  501  0.00000000000E+00  0.00000000000E+00 -0.90523100067E+03  0.90523100069E+03  0.50400001928E-02 0.  1.
    10030    2    1    2    0    0  0.00000000000E+00  0.00000000000E+00  0.31259831818E+03  0.21230603196E+04  0.20999208109E+04 0.  0.
        5    1    3    3  502    0 -0.41545194011E+03  0.91603128219E+03 -0.14815218643E+03  0.10167028990E+04  0.46999998093E+01 0.  1.
       -5    1    3    3    0  502  0.41545194011E+03 -0.91603128219E+03  0.46075050461E+03  0.11063574205E+04  0.46999998093E+01 0. -1.
</event>
<event>
 5   0  0.3574927E-06  0.2095040E+04  0.7818609E-02  0.8563431E-01
        2   -1    0    0  501    0  0.00000000000E+00  0.00000000000E+00  0.12933513205E+04  0.12933513205E+04  0.25500000920E-02 0.  1.
       -2   -1    0    0    0  501  0.00000000000E+00  0.00000000000E+00 -0.84841487670E+03  0.84841487670E+03  0.25500000920E-02 0. -1.
    10030    2    1    2    0    0  0.00000000000E+00  0.00000000000E+00  0.44493644383E+03  0.21417661972E+04  0.20950403348E+04 0.  0.
        3    1    3    3  502    0 -0.31820407126E+03  0.47197245832E+02 -0.79666955355E+03  0.85916459350E+03  0.10100000352E+00 0. -1.
       -3    1    3    3    0  502  0.31820407126E+03 -0.47197245832E+02  0.12416059974E+04  0.12826016037E+04  0.10100000352E+00 0.  1.
</event>
<event>
 5   0  0.1590067E-06  0.2099613E+04  0.7818609E-02  0.8561414E-01
        1   -1    0    0  501    0  0.00000000000E+00  0.00000000000E+00  0.25245152456E+04  0.25245152457E+04  0.50400001928E-02 0.  1.
       -1   -1    0    0    0  501  0.00000000000E+00  0.00000000000E+00 -0.43655649215E+03  0.43655649218E+03  0.50400001928E-02 0. -1.
    10030    2    1    2    0    0  0.00000000000E+00  0.00000000000E+00  0.20879587535E+04  0.29610717378E+04  0.20996128406E+04 0.  0.
        5    1    3    3  502    0 -0.25691474459E+03  0.54890685108E+03 -0.16490476947E+03  0.62810794466E+03  0.46999998093E+01 0. -1.
       -5    1    3    3    0  502  0.25691474459E+03 -0.54890685108E+03  0.22528635230E+04  0.23329637932E+04  0.46999998093E+01 0.  1.
</event>
<event>
 5   0  0.3547583E-06  0.2100075E+04  0.7818609E-02  0.8561210E-01
       -2   -1    0    0    0  501  0.00000000000E+00  0.00000000000E+00  0.75062949719E+03  0.75062949720E+03  0.25500000920E-02 0.  1.
        2   -1    0    0  501    0  0.00000000000E+00  0.00000000000E+00 -0.14688719321E+04  0.14688719321E+04  0.25500000920E-02 0. -1.
    10030    2    1    2    0    0  0.00000000000E+00  0.00000000000E+00 -0.71824243493E+03  0.22195014293E+04  0.21000748557E+04 0.  0.
        2    1    3    3  502    0 -0.62502973099E+01 -0.86893157996E+03  0.26389085244E+03  0.90814070434E+03  0.25500000920E-02 0.  1.
       -2    1    3    3    0  502  0.62502973099E+01  0.86893157996E+03 -0.98213328737E+03  0.13113607250E+04  0.25500000920E-02 0. -1.
</event>
<event>
 5   0  0.1653260E-06  0.2100193E+04  0.7818609E-02  0.8561158E-01
       -1   -1    0    0    0  501  0.00000000000E+00  0.00000000000E+00  0.92889958988E+03  0.92889958990E+03  0.50400001928E-02 0.  1.
        1   -1    0    0  501    0  0.00000000000E+00  0.00000000000E+00 -0.11871067006E+04  0.11871067007E+04  0.50400001928E-02 0. -1.
    10030    2    1    2    0    0  0.00000000000E+00  0.00000000000E+00 -0.25820711076E+03  0.21160062905E+04  0.21001932553E+04 0.  0.
        3    1    3    3  502    0 -0.67005425127E+03 -0.65742242538E+03 -0.60331280477E+03  0.11158688523E+04  0.10100000352E+00 0. -1.
       -3    1    3    3    0  502  0.67005425127E+03  0.65742242538E+03  0.34510569401E+03  0.10001374382E+04  0.10100000352E+00 0.  1.
</event>
<event>
 5   0  0.1615098E-06  0.2103475E+04  0.7818609E-02  0.8559714E-01
       -1   -1    0    0    0  501  0.00000000000E+00  0.00000000000E+00  0.52651583529E+03  0.52651583532E+03  0.50400001928E-02 0.  1.
        1   -1    0    0  501    0  0.00000000000E+00  0.00000000000E+00 -0.21008906331E+04  0.21008906332E+04  0.50400001928E-02 0. -1.
    10030    2    1    2    0    0  0.00000000000E+00  0.00000000000E+00 -0.15743747979E+04  0.26274064685E+04  0.21034753972E+04 0.  0.
        1    1    3    3  502    0 -0.53390864365E+03 -0.59716137028E+03 -0.16384802144E+04  0.18238085302E+04  0.50400001928E-02 0. -1.
       -1    1    3    3    0  502  0.53390864365E+03  0.59716137028E+03  0.64105416529E+02  0.80359793826E+03  0.50400001928E-02 0.  1.
</event>
<event>
 5   0  0.1646510E-06  0.2100034E+04  0.7818609E-02  0.8561228E-01
        1   -1    0    0  501    0  0.00000000000E+00  0.00000000000E+00  0.20105875035E+04  0.20105875035E+04  0.50400001928E-02 0. -1.
       -1   -1    0    0    0  501  0.00000000000E+00  0.00000000000E+00 -0.54836500320E+03  0.54836500322E+03  0.50400001928E-02 0.  1.
    10030    2    1    2    0    0  0.00000000000E+00  0.00000000000E+00  0.14622225003E+04  0.25589525067E+04  0.21000341167E+04 0.  0.
        4    1    3    3  502    0  0.17547599438E+03 -0.10344264513E+04  0.68080648000E+03  0.12507313796E+04  0.12699999809E+01 0. -1.
       -4    1    3    3    0  502 -0.17547599438E+03  0.10344264513E+04  0.78141602027E+03  0.13082211271E+04  0.12699999809E+01 0.  1.
</event>
<event>
 5   0  0.3636435E-06  0.2099255E+04  0.7818609E-02  0.8561572E-01
       -2   -1    0    0    0  501  0.00000000000E+00  0.00000000000E+00  0.14117954889E+04  0.14117954889E+04  0.25500000920E-02 0. -1.
        2   -1    0    0  501    0  0.00000000000E+00  0.00000000000E+00 -0.78036667738E+03  0.78036667738E+03  0.25500000920E-02 0.  1.
    10030    2    1    2    0    0  0.00000000000E+00  0.00000000000E+00  0.63142881156E+03  0.21921621663E+04  0.20992552535E+04 0.  0.
        4    1    3    3  502    0 -0.32908511355E+02  0.10025944146E+04 -0.68883854541E+01  0.10031588075E+04  0.12699999809E+01 0.  1.
       -4    1    3    3    0  502  0.32908511355E+02 -0.10025944146E+04  0.63831719701E+03  0.11890033588E+04  0.12699999809E+01 0. -1.
</event>
<event>
 5   0  0.1653260E-06  0.2100298E+04  0.7818609E-02  0.8561112E-01
       -1   -1    0    0    0  501  0.00000000000E+00  0.00000000000E+00  0.77173112994E+03  0.77173112995E+03  0.50400001928E-02 0.  1.
        1   -1    0    0  501    0  0.00000000000E+00  0.00000000000E+00 -0.14290117519E+04  0.14290117519E+04  0.50400001928E-02 0. -1.
    10030    2    1    2    0    0  0.00000000000E+00  0.00000000000E+00 -0.65728062197E+03  0.22007428819E+04  0.21002979351E+04 0.  0.
        3    1    3    3  502    0  0.72053863238E+03 -0.53359319906E+03 -0.90151866848E+03  0.12714690490E+04  0.10100000352E+00 0. -1.
       -3    1    3    3    0  502 -0.72053863238E+03  0.53359319906E+03  0.24423804651E+03  0.92927383284E+03  0.10100000352E+00 0.  1.
</event>
<event>
 5   0  0.1590067E-06  0.2100452E+04  0.7818609E-02  0.8561044E-01
       -1   -1    0    0    0  501  0.00000000000E+00  0.00000000000E+00  0.12842072605E+04  0.12842072605E+04  0.50400001928E-02 0.  1.
        1   -1    0    0  501    0  0.00000000000E+00  0.00000000000E+00 -0.85887592526E+03  0.85887592527E+03  0.50400001928E-02 0. -1.
    10030    2    1    2    0    0  0.00000000000E+00  0.00000000000E+00  0.42533133528E+03  0.21430831858E+04  0.21004520458E+04 0.  0.
        5    1    3    3  502    0  0.40007374783E+03  0.72065832346E+03 -0.45134664606E+03  0.93975704721E+03  0.46999998093E+01 0. -1.
       -5    1    3    3    0  502 -0.40007374783E+03 -0.72065832346E+03  0.87667798134E+03  0.12033261386E+04  0.46999998093E+01 0.  1.
</event>
<event>
 5   0  0.1646510E-06  0.2100746E+04  0.7818609E-02  0.8560915E-01
        1   -1    0    0  501    0  0.00000000000E+00  0.00000000000E+00  0.75800556161E+03  0.75800556163E+03  0.50400001928E-02 0.  1.
       -1   -1    0    0    0  501  0.00000000000E+00  0.00000000000E+00 -0.14555082610E+04  0.14555082610E+04  0.50400001928E-02 0. -1.
    10030    2    1    2    0    0  0.00000000000E+00  0.00000000000E+00 -0.69750269937E+03  0.22135138226E+04  0.21007459216E+04 0.  0.
        4    1    3    3  502    0  0.12514207279E+03  0.71036909390E+03 -0.11532806268E+04  0.13602729891E+04  0.12699999809E+01 0. -1.
       -4    1    3    3    0  502 -0.12514207279E+03 -0.71036909390E+03  0.45577792740E+03  0.85324083350E+03  0.12699999809E+01 0.  1.
</event>
<event>
 5   0  0.3547583E-06  0.2100423E+04  0.7818609E-02  0.8561057E-01
        2   -1    0    0  501    0  0.00000000000E+00  0.00000000000E+00  0.10655984775E+04  0.10655984775E+04  0.25500000920E-02 0. -1.
       -2   -1    0    0    0  501  0.00000000000E+00  0.00000000000E+00 -0.10350466220E+04  0.10350466220E+04  0.25500000920E-02 0.  1.
    10030    2    1    2    0    0  0.00000000000E+00  0.00000000000E+00  0.30551855529E+02  0.21006450996E+04  0.21004229142E+04 0.  0.
        2    1    3    3  502    0  0.10000701596E+04  0.18427353204E+03  0.27769088944E+03  0.10541391221E+04  0.25500000920E-02 0. -1.
       -2    1    3    3    0  502 -0.10000701596E+04 -0.18427353204E+03 -0.24713903391E+03  0.10465059774E+04  0.25500000920E-02 0.  1.
</event>
<event>
 5   0  0.3636435E-06  0.2099634E+04  0.7818609E-02  0.8561405E-01
        2   -1    0    0  501    0  0.00000000000E+00  0.00000000000E+00  0.20979651933E+04  0.20979651933E+04  0.25500000920E-02 0. -1.
       -2   -1    0    0    0  501  0.00000000000E+00  0.00000000000E+00 -0.52532594542E+03  0.52532594543E+03  0.25500000920E-02 0.  1.
    10030    2    1    2    0    0  0.00000000000E+00  0.00000000000E+00  0.15726392479E+04  0.26232911387E+04  0.20996338239E+04 0.  0.
        4    1    3    3  502    0 -0.91989319578E+03 -0.22753742549E+02  0.14177234092E+04  0.16901664126E+04  0.12699999809E+01 0. -1.
       -4    1    3    3    0  502  0.91989319578E+03  0.22753742549E+02  0.15491583864E+03  0.93312472607E+03  0.12699999809E+01 0.  1.
</event>
<event>
 5   0  0.3636435E-06  0.2099705E+04  0.7818609E-02  0.8561373E-01
       -2   -1    0    0    0  501  0.00000000000E+00  0.00000000000E+00  0.22720506277E+04  0.22720506277E+04  0.25500000920E-02 0. -1.
        2   -1    0    0  501    0  0.00000000000E+00  0.00000000000E+00 -0.48510814099E+03  0.48510814100E+03  0.25500000920E-02 0.  1.
    10030    2    1    2    0    0  0.00000000000E+00  0.00000000000E+00  0.17869424867E+04  0.27571587687E+04  0.20997049852E+04 0.  0.
        4    1    3    3  502    0  0.79471000472E+03 -0.63364154375E+03  0.54823615518E+03  0.11548290316E+04  0.12699999809E+01 0.  1.
       -4    1    3    3    0  502 -0.79471000472E+03  0.63364154375E+03  0.12387063315E+04  0.16023297370E+04  0.12699999809E+01 0. -1.
</event>
<event>
 5   0  0.1646510E-06  0.2100188E+04  0.7818609E-02  0.8561160E-01
        1   -1    0    0  501    0  0.00000000000E+00  0.00000000000E+00  0.14671531490E+04  0.14671531490E+04  0.50400001928E-02 0. -1.
       -1   -1    0    0    0  501  0.00000000000E+00  0.00000000000E+00 -0.75159006462E+03  0.75159006463E+03  0.50400001928E-02 0.  1.
    10030    2    1    2    0    0  0.00000000000E+00  0.00000000000E+00  0.71556308438E+03  0.22187432136E+04  0.21001883059E+04 0.  0.
        4    1    3    3  502    0 -0.62046271092E+03  0.17527526304E+02  0.12525980975E+04  0.13979573658E+04  0.12699999809E+01 0. -1.
       -4    1    3    3    0  502  0.62046271092E+03 -0.17527526304E+02 -0.53703501311E+03  0.82078584785E+03  0.12699999809E+01 0.  1.
</event>
<event>
 5   0  0.3547583E-06  0.2097148E+04  0.7818609E-02  0.8562501E-01
       -2   -1    0    0    0  501  0.00000000000E+00  0.00000000000E+00  0.74074598219E+03  0.74074598219E+03  0.25500000920E-02 0.  1.
        2   -1    0    0  501    0  0.00000000000E+00  0.00000000000E+00 -0.14843242575E+04  0.14843242575E+04  0.25500000920E-02 0. -1.
    10030    2    1    2    0    0  0.00000000000E+00  0.00000000000E+00 -0.74357827529E+03  0.22250702397E+04  0.20971478059E+04 0.  0.
        2    1    3    3  502    0  0.88626319112E+03  0.33211918499E+03 -0.85069987706E+03  0.12725784368E+04  0.25500000920E-02 0. -1.
       -2    1    3    3    0  502 -0.88626319112E+03 -0.33211918499E+03  0.10712160177E+03  0.95249180287E+03  0.25500000920E-02 0.  1.
</event>
<event>
 5   0  0.3636435E-06  0.2100528E+04  0.7818609E-02  0.8561011E-01
       -2   -1    0    0    0  501  0.00000000000E+00  0.00000000000E+00  0.99210085115E+03  0.99210085115E+03  0.25500000920E-02 0.  1.
        2   -1    0    0  501    0  0.00000000000E+00  0.00000000000E+00 -0.11118372053E+04  0.11118372053E+04  0.25500000920E-02 0. -1.
    10030    2    1    2    0    0  0.00000000000E+00  0.00000000000E+00 -0.11973635416E+03  0.21039380565E+04  0.21005281600E+04 0.  0.
        4    1    3    3  502    0  0.92844886906E+03  0.19184260708E+03 -0.51252230106E+03  0.10777298411E+04  0.12699999809E+01 0. -1.
       -4    1    3    3    0  502 -0.92844886906E+03 -0.19184260708E+03  0.39278594689E+03  0.10262082154E+04  0.12699999809E+01 0.  1.
</event>
<event>
 5   0  0.3705828E-06  0.2101711E+04  0.7818609E-02  0.8560490E-01
       -2   -1    0    0    0  501  0.00000000000E+00  0.00000000000E+00  0.10806881734E+04  0.10806881734E+04  0.25500000920E-02 0.  1.
        2   -1    0    0  501    0  0.00000000000E+00  0.00000000000E+00 -0.10218466654E+04  0.10218466654E+04  0.25500000920E-02 0. -1.
    10030    2    1    2    0    0  0.00000000000E+00  0.00000000000E+00  0.58841508012E+02  0.21025348388E+04  0.21017113087E+04 0.  0.
        5    1    3    3  502    0  0.59573275656E+03 -0.81604517735E+03  0.31840808384E+03  0.10593550144E+04  0.46999998093E+01 0. -1.
       -5    1    3    3    0  502 -0.59573275656E+03  0.81604517735E+03 -0.25956657583E+03  0.10431798244E+04  0.46999998093E+01 0.  1.
</event>
<event>
 5   0  0.1579820E-06  0.2101147E+04  0.7818609E-02  0.8560738E-01
       -1   -1    0    0    0  501  0.00000000000E+00  0.00000000000E+00  0.69207857854E+03  0.69207857856E+03  0.50400001928E-02 0. -1.
        1   -1    0    0  501    0  0.00000000000E+00  0.00000000000E+00 -0.15947681294E+04  0.15947681294E+04  0.50400001928E-02 0.  1.
    10030    2    1    2    0    0  0.00000000000E+00  0.00000000000E+00 -0.90268955084E+03  0.22868467080E+04  0.21011471725E+04 0.  0.
        2    1    3    3  502    0 -0.26270493356E+03  0.18255049759E+03 -0.15404681157E+04  0.15733342244E+04  0.25500000920E-02 0.  1.
       -2    1    3    3    0  502  0.26270493356E+03 -0.18255049759E+03  0.63777856488E+03  0.71351248350E+03  0.25500000920E-02 0. -1.
</event>
<event>
 5   0  0.3705828E-06  0.2100842E+04  0.7818609E-02  0.8560873E-01
       -2   -1    0    0    0  501  0.00000000000E+00  0.00000000000E+00  0.89026710610E+03  0.89026710610E+03  0.25500000920E-02 0.  1.
        2   -1    0    0  501    0  0.00000000000E+00  0.00000000000E+00 -0.12393852012E+04  0.12393852012E+04  0.25500000920E-02 0. -1.
    10030    2    1    2    0    0  0.00000000000E+00  0.00000000000E+00 -0.34911809506E+03  0.21296523073E+04  0.21008416184E+04 0.  0.
        5    1    3    3  502    0  0.12529551290E+03 -0.10416039772E+04 -0.12165157802E+03  0.10561529280E+04  0.46999998093E+01 0. -1.
       -5    1    3    3    0  502 -0.12529551290E+03  0.10416039772E+04 -0.22746651703E+03  0.10734993793E+04  0.46999998093E+01 0.  1.
</event>
<event>
 5   0  0.1590067E-06  0.2100757E+04  0.7818609E-02  0.8560910E-01
        1   -1    0    0  501    0  0.00000000000E+00  0.00000000000E+00  0.83792932057E+03  0.83792932058E+03  0.50400001928E-02 0.  1.
       -1   -1    0    0    0  501  0.00000000000E+00  0.00000000000E+00 -0.13166918206E+04  0.13166918206E+04  0.50400001928E-02 0. -1.
    10030    2    1    2    0    0  0.00000000000E+00  0.00000000000E+00 -0.47876250003E+03  0.21546211412E+04  0.21007567043E+04 0.  0.
        5    1    3    3  502    0 -0.57278098521E+03 -0.85714436436E+03 -0.44578251038E+03  0.11231734750E+04  0.46999998093E+01 0.  1.
       -5    1    3    3    0  502  0.57278098521E+03  0.85714436436E+03 -0.32979989655E+02  0.10314476662E+04  0.46999998093E+01 0. -1.
</event>
<event>
 5   0  0.1579820E-06  0.2099701E+04  0.7818609E-02  0.8561375E-01
       -1   -1    0    0    0  501  0.00000000000E+00  0.00000000000E+00  0.39133531866E+03  0.39133531869E+03  0.50400001928E-02 0. -1.
        1   -1    0    0  501    0  0.00000000000E+00  0.00000000000E+00 -0.28164739502E+04  0.28164739502E+04  0.50400001928E-02 0.  1.
    10030    2    1    2    0    0  0.00000000000E+00  0.00000000000E+00 -0.24251386316E+04  0.32078092689E+04  0.20997006747E+04 0.  0.
        2    1    3    3  502    0 -0.10242848337E+04  0.14865927874E+03 -0.14812386785E+04  0.18070215894E+04  0.25500000920E-02 0.  1.
       -2    1    3    3    0  502  0.10242848337E+04 -0.14865927874E+03 -0.94389995308E+03  0.14007876796E+04  0.25500000920E-02 0. -1.
</event>
<event>
 5   0  0.3480134E-06  0.2095819E+04  0.7818609E-02  0.8563087E-01
        2   -1    0    0  501    0  0.00000000000E+00  0.00000000000E+00  0.95475700081E+03  0.95475700081E+03  0.25500000920E-02 0. -1.
       -2   -1    0    0    0  501  0.00000000000E+00  0.00000000000E+00 -0.11501503083E+04  0.11501503083E+04  0.25500000920E-02 0.  1.
    10030    2    1    2    0    0  0.00000000000E+00  0.00000000000E+00 -0.19539330750E+03  0.21049073091E+04  0.20958187506E+04 0.  0.
        1    1    3    3  502    0 -0.15451041908E+03  0.10286704489E+04  0.29651065315E+02  0.10406322827E+04  0.50400001928E-02 0. -1.
       -1    1    3    3    0  502  0.15451041908E+03 -0.10286704489E+04 -0.22504437281E+03  0.10642750264E+04  0.50400001928E-02 0.  1.
</event>
<event>
 5   0  0.1646510E-06  0.2098511E+04  0.7818609E-02  0.8561900E-01
       -1   -1    0    0    0  501  0.00000000000E+00  0.00000000000E+00  0.12588525660E+04  0.12588525660E+04  0.50400001928E-02 0. -1.
        1   -1    0    0  501    0  0.00000000000E+00  0.00000000000E+00 -0.87455610854E+03  0.87455610856E+03  0.50400001928E-02 0.  1.
    10030    2    1    2    0    0  0.00000000000E+00  0.00000000000E+00  0.38429645743E+03  0.21334086745E+04  0.20985110925E+04 0.  0.
        4    1    3    3  502    0  0.59143115063E+03  0.57376935381E+03 -0.46821791183E+03  0.94775086556E+03  0.12699999809E+01 0.  1.
       -4    1    3    3    0  502 -0.59143115063E+03 -0.57376935381E+03  0.85251436927E+03  0.11856578090E+04  0.12699999809E+01 0. -1.
</event>
<event>
 5   0  0.3574927E-06  0.2101567E+04  0.7818609E-02  0.8560554E-01
       -2   -1    0    0    0  501  0.00000000000E+00  0.00000000000E+00  0.85792755630E+03  0.85792755631E+03  0.25500000920E-02 0.  1.
        2   -1    0    0  501    0  0.00000000000E+00  0.00000000000E+00 -0.12869914968E+04  0.12869914968E+04  0.25500000920E-02 0. -1.
    10030    2    1    2    0    0  0.00000000000E+00  0.00000000000E+00 -0.42906394048E+03  0.21449190531E+04  0.21015665298E+04 0.  0.
        3    1    3    3  502    0 -0.48796240038E+03 -0.38380376220E+03 -0.10798016876E+04  0.12455457948E+04  0.10100000352E+00 0. -1.
       -3    1    3    3    0  502  0.48796240038E+03  0.38380376220E+03  0.65073774713E+03  0.89937325834E+03  0.10100000352E+00 0.  1.
</event>
<event>
 5   0  0.1590067E-06  0.2100332E+04  0.7818609E-02  0.8561097E-01
        1   -1    0    0  501    0  0.00000000000E+00  0.00000000000E+00  0.13553632078E+04  0.13553632078E+04  0.50400001928E-02 0.  1.
       -1   -1    0    0    0  501  0.00000000000E+00  0.00000000000E+00 -0.81369263738E+03  0.81369263739E+03  0.50400001928E-02 0. -1.
    10030    2    1    2    0    0  0.00000000000E+00  0.00000000000E+00  0.54167057039E+03  0.21690558452E+04  0.21003324148E+04 0.  0.
        5    1    3    3  502    0 -0.68119831917E+03 -0.34090981020E+03 -0.47571241794E+03  0.89809523064E+03  0.46999998093E+01 0. -1.
       -5    1    3    3    0  502  0.68119831917E+03  0.34090981020E+03  0.10173829883E+04  0.12709606145E+04  0.46999998093E+01 0.  1.
</event>
<event>
 5   0  0.1653260E-06  0.2100036E+04  0.7818609E-02  0.8561228E-01
        1   -1    0    0  501    0  0.00000000000E+00  0.00000000000E+00  0.10359245355E+04  0.10359245355E+04  0.50400001928E-02 0. -1.
       -1   -1    0    0    0  501  0.00000000000E+00  0.00000000000E+00 -0.10643029665E+04  0.10643029666E+04  0.50400001928E-02 0.  1.
    10030    2    1    2    0    0  0.00000000000E+00  0.00000000000E+00 -0.28378431098E+02  0.21002275020E+04  0.21000357675E+04 0.  0.
        3    1    3    3  502    0  0.85770148802E+03 -0.35450361642E+03  0.47698991387E+03  0.10434769019E+04  0.10100000352E+00 0. -1.
       -3    1    3    3    0  502 -0.85770148802E+03  0.35450361642E+03 -0.50536834497E+03  0.10567506001E+04  0.10100000352E+00 0.  1.
</event>
<event>
 5   0  0.1257125E-06  0.2100641E+04  0.7818609E-02  0.8560961E-01
       -3   -1    0    0    0  501  0.00000000000E+00  0.00000000000E+00  0.58930895572E+03  0.58930896437E+03  0.10100000352E+00 0. -1.
        3   -1    0    0  501    0  0.00000000000E+00  0.00000000000E+00 -0.18719783371E+04  0.18719783398E+04  0.10100000352E+00 0.  1.
    10030    2    1    2    0    0  0.00000000000E+00  0.00000000000E+00 -0.12826693814E+04  0.24612873042E+04  0.21006414382E+04 0.  0.
        4    1    3    3  502    0 -0.44512151433E+03 -0.14652948743E+03  0.46002799771E+03  0.65668213375E+03  0.12699999809E+01 0. -1.
       -4    1    3    3    0  502  0.44512151433E+03  0.14652948743E+03 -0.17426973791E+04  0.18046051705E+04  0.12699999809E+01 0.  1.
</event>
<event>
 5   0  0.3547583E-06  0.2100048E+04  0.7818609E-02  0.8561222E-01
       -2   -1    0    0    0  501  0.00000000000E+00  0.00000000000E+00  0.65776391640E+03  0.65776391641E+03  0.25500000920E-02 0. -1.
        2   -1    0    0  501    0  0.00000000000E+00  0.00000000000E+00 -0.16762105573E+04  0.16762105573E+04  0.25500000920E-02 0.  1.
    10030    2    1    2    0    0  0.00000000000E+00  0.00000000000E+00 -0.10184466409E+04  0.23339744737E+04  0.21000484003E+04 0.  0.
        2    1    3    3  502    0  0.50782371939E+03  0.43112699318E+03  0.39285049981E+03  0.77336080159E+03  0.25500000920E-02 0. -1.
       -2    1    3    3    0  502 -0.50782371939E+03 -0.43112699318E+03 -0.14112971407E+04  0.15606136721E+04  0.25500000920E-02 0.  1.
</event>
<event>
 5   0  0.3705828E-06  0.2100252E+04  0.7818609E-02  0.8561133E-01
       -2   -1    0    0    0  501  0.00000000000E+00  0.00000000000E+00  0.65896147862E+03  0.65896147863E+03  0.25500000920E-02 0.  1.
        2   -1    0    0  501    0  0.00000000000E+00  0.00000000000E+00 -0.16734880829E+04  0.16734880829E+04  0.25500000920E-02 0. -1.
    10030    2    1    2    0    0  0.00000000000E+00  0.00000000000E+00 -0.10145266042E+04  0.23324495615E+04  0.21002515864E+04 0.  0.
        5    1    3    3  502    0  0.86026583048E+03 -0.50145322767E+03 -0.87764612742E+03  0.13273271841E+04  0.46999998093E+01 0. -1.
       -5    1    3    3    0  502 -0.86026583048E+03  0.50145322767E+03 -0.13688047682E+03  0.10051223774E+04  0.46999998093E+01 0.  1.
</event>
<event>
 5   0  0.1646510E-06  0.2099297E+04  0.7818609E-02  0.8561553E-01
       -1   -1    0    0    0  501  0.00000000000E+00  0.00000000000E+00  0.43819129300E+03  0.43819129303E+03  0.50400001928E-02 0.  1.
        1   -1    0    0  501    0  0.00000000000E+00  0.00000000000E+00 -0.25143394370E+04  0.25143394370E+04  0.50400001928E-02 0. -1.
    10030    2    1    2    0    0  0.00000000000E+00  0.00000000000E+00 -0.20761481440E+04  0.29525307300E+04  0.20992966908E+04 0.  0.
        4    1    3    3  502    0  0.10449604031E+04 -0.31244793154E+02 -0.90582734529E+03  0.13832726678E+04  0.12699999809E+01 0. -1.
       -4    1    3    3    0  502 -0.10449604031E+04  0.31244793154E+02 -0.11703207987E+04  0.15692580622E+04  0.12699999809E+01 0.  1.
</event>
<event>
 5   0  0.3636435E-06  0.2102301E+04  0.7818609E-02  0.8560231E-01
        2   -1    0    0  501    0  0.00000000000E+00  0.00000000000E+00  0.65035467891E+03  0.65035467891E+03  0.25500000920E-02 0. -1.
       -2   -1    0    0    0  501  0.00000000000E+00  0.00000000000E+00 -0.16989456084E+04  0.16989456084E+04  0.25500000920E-02 0.  1.
    10030    2    1    2    0    0  0.00000000000E+00  0.00000000000E+00 -0.10485909295E+04  0.23493002874E+04  0.21023008592E+04 0.  0.
        4    1    3    3  502    0  0.26334956332E+03 -0.96624162553E+03 -0.16750320218E+03  0.10153988414E+04  0.12699999809E+01 0. -1.
       -4    1    3    3    0  502 -0.26334956332E+03  0.96624162553E+03 -0.88108772736E+03  0.13339014460E+04  0.12699999809E+01 0.  1.
</event>
<event>
 5   0  0.1590067E-06  0.2099929E+04  0.7818609E-02  0.8561275E-01
        1   -1    0    0  501    0  0.00000000000E+00  0.00000000000E+00  0.17241136944E+04  0.17241136944E+04  0.50400001928E-02 0.  1.
       -1   -1    0    0    0  501  0.00000000000E+00  0.00000000000E+00 -0.63941580227E+03  0.63941580229E+03  0.50400001928E-02 0. -1.
    10030    2    1    2    0    0  0.00000000000E+00  0.00000000000E+00  0.10846978921E+04  0.23635294967E+04  0.20999290856E+04 0.  0.
        5    1    3    3  502    0  0.27879873749E+03  0.53672260913E+03  0.15083404423E+04  0.16250885745E+04  0.46999998093E+01 0.  1.
       -5    1    3    3    0  502 -0.27879873749E+03 -0.53672260913E+03 -0.42364255019E+03  0.73844092215E+03  0.46999998093E+01 0. -1.
</event>
<event>
 5   0  0.3547583E-06  0.2089404E+04  0.7818609E-02  0.8565925E-01
       -2   -1    0    0    0  501  0.00000000000E+00  0.00000000000E+00  0.58466474773E+03  0.58466474774E+03  0.25500000920E-02 0. -1.
        2   -1    0    0  501    0  0.00000000000E+00  0.00000000000E+00 -0.18667150963E+04  0.18667150963E+04  0.25500000920E-02 0.  1.
    10030    2    1    2    0    0  0.00000000000E+00  0.00000000000E+00 -0.12820503486E+04  0.24513798440E+04  0.20894042317E+04 0.  0.
        2    1    3    3  502    0 -0.27336207798E+03 -0.16884161298E+03 -0.18073071845E+04  0.18356452749E+04  0.25500000920E-02 0.  1.
       -2    1    3    3    0  502  0.27336207798E+03  0.16884161298E+03  0.52525683595E+03  0.61573456917E+03  0.25500000920E-02 0. -1.
</event>
<event>
 5   0  0.3574927E-06  0.2099912E+04  0.7818609E-02  0.8561282E-01
       -2   -1    0    0    0  501  0.00000000000E+00  0.00000000000E+00  0.46854692012E+03  0.46854692013E+03  0.25500000920E-02 0.  1.
        2   -1    0    0  501    0  0.00000000000E+00  0.00000000000E+00 -0.23528219446E+04  0.23528219446E+04  0.25500000920E-02 0. -1.
    10030    2    1    2    0    0  0.00000000000E+00  0.00000000000E+00 -0.18842750245E+04  0.28213688647E+04  0.20999118798E+04 0.  0.
        3    1    3    3  502    0  0.81834621113E+03  0.24197375724E+03 -0.17639840946E+04  0.19595616134E+04  0.10100000352E+00 0. -1.
       -3    1    3    3    0  502 -0.81834621113E+03 -0.24197375724E+03 -0.12029092990E+03  0.86180725135E+03  0.10100000352E+00 0.  1.
</event>
<event>
 5   0  0.1579820E-06  0.2099450E+04  0.7818609E-02  0.8561486E-01
       -1   -1    0    0    0  501  0.00000000000E+00  0.00000000000E+00  0.11199709489E+04  0.11199709489E+04  0.50400001928E-02 0.  1.
        1   -1    0    0  501    0  0.00000000000E+00  0.00000000000E+00 -0.98388466534E+03  0.98388466535E+03  0.50400001928E-02 0. -1.
    10030    2    1    2    0    0  0.00000000000E+00  0.00000000000E+00  0.13608628357E+03  0.21038556143E+04  0.20994496824E+04 0.  0.
        2    1    3    3  502    0 -0.80321390306E+03 -0.34568606572E+03 -0.51392584297E+03  0.10142835906E+04  0.25500000920E-02 0. -1.
       -2    1    3    3    0  502  0.80321390306E+03  0.34568606572E+03  0.65001212653E+03  0.10895720237E+04  0.25500000920E-02 0.  1.
</event>
<event>
 5   0  0.1590067E-06  0.2100004E+04  0.7818609E-02  0.8561242E-01
        1   -1    0    0  501    0  0.00000000000E+00  0.00000000000E+00  0.13557268266E+04  0.13557268266E+04  0.50400001928E-02 0.  1.
       -1   -1    0    0    0  501  0.00000000000E+00  0.00000000000E+00 -0.81321963574E+03  0.81321963576E+03  0.50400001928E-02 0. -1.
    10030    2    1    2    0    0  0.00000000000E+00  0.00000000000E+00  0.54250719084E+03  0.21689464623E+04  0.21000035010E+04 0.  0.
        5    1    3    3  502    0 -0.94417700050E+03  0.36931596767E+03  0.55338275722E+03  0.11550407171E+04  0.46999998093E+01 0. -1.
       -5    1    3    3    0  502  0.94417700050E+03 -0.36931596767E+03 -0.10875566381E+02  0.10139057452E+04  0.46999998093E+01 0.  1.
</event>
<event>
 5   0  0.3574927E-06  0.2100742E+04  0.7818609E-02  0.8560916E-01
       -2   -1    0    0    0  501  0.00000000000E+00  0.00000000000E+00  0.12043126185E+04  0.12043126185E+04  0.25500000920E-02 0.  1.
        2   -1    0    0  501    0  0.00000000000E+00  0.00000000000E+00 -0.91610732200E+03  0.91610732200E+03  0.25500000920E-02 0. -1.
    10030    2    1    2    0    0  0.00000000000E+00  0.00000000000E+00  0.28820529654E+03  0.21204199405E+04  0.21007423524E+04 0.  0.
        3    1    3    3  502    0 -0.31086121149E+03 -0.84257990555E+03  0.69391031900E+03  0.11349392632E+04  0.10100000352E+00 0.  1.
       -3    1    3    3    0  502  0.31086121149E+03  0.84257990555E+03 -0.40570502246E+03  0.98548067738E+03  0.10100000352E+00 0. -1.
</event>
<event>
 5   0  0.3574927E-06  0.2101894E+04  0.7818609E-02  0.8560410E-01
       -2   -1    0    0    0  501  0.00000000000E+00  0.00000000000E+00  0.84539218936E+03  0.84539218936E+03  0.25500000920E-02 0.  1.
        2   -1    0    0  501    0  0.00000000000E+00  0.00000000000E+00 -0.13064817479E+04  0.13064817479E+04  0.25500000920E-02 0. -1.
    10030    2    1    2    0    0  0.00000000000E+00  0.00000000000E+00 -0.46108955855E+03  0.21518739373E+04  0.21018938748E+04 0.  0.
        3    1    3    3  502    0 -0.54167955629E+03  0.90059486861E+03 -0.22925142713E+03  0.10756598375E+04  0.10100000352E+00 0. -1.
       -3    1    3    3    0  502  0.54167955629E+03 -0.90059486861E+03 -0.23183813141E+03  0.10762140997E+04  0.10100000352E+00 0.  1.
</event>
<event>
 5   0  0.3547583E-06  0.2100977E+04  0.7818609E-02  0.8560813E-01
       -2   -1    0    0    0  501  0.00000000000E+00  0.00000000000E+00  0.69731663151E+03  0.69731663152E+03  0.25500000920E-02 0. -1.
        2   -1    0    0  501    0  0.00000000000E+00  0.00000000000E+00 -0.15825322814E+04  0.15825322814E+04  0.25500000920E-02 0.  1.
    10030    2    1    2    0    0  0.00000000000E+00  0.00000000000E+00 -0.88521564992E+03  0.22798489130E+04  0.21009769915E+04 0.  0.
        2    1    3    3  502    0  0.35499701972E+03  0.47583507991E+03 -0.13830434571E+04  0.15050751183E+04  0.25500000920E-02 0.  1.
       -2    1    3    3    0  502 -0.35499701972E+03 -0.47583507991E+03  0.49782780722E+03  0.77477379469E+03  0.25500000920E-02 0. -1.
</event>
<event>
 5   0  0.1615098E-06  0.2100004E+04  0.7818609E-02  0.8561241E-01
        1   -1    0    0  501    0  0.00000000000E+00  0.00000000000E+00  0.85169009632E+03  0.85169009633E+03  0.50400001928E-02 0.  1.
       -1   -1    0    0    0  501  0.00000000000E+00  0.00000000000E+00 -0.12944902660E+04  0.12944902660E+04  0.50400001928E-02 0. -1.
    10030    2    1    2    0    0  0.00000000000E+00  0.00000000000E+00 -0.44280016966E+03  0.21461803623E+04  0.21000043232E+04 0.  0.
        1    1    3    3  502    0  0.87717592274E+03 -0.57283571408E+03 -0.29313017341E+03  0.10878895410E+04  0.50400001928E-02 0. -1.
       -1    1    3    3    0  502 -0.87717592274E+03  0.57283571408E+03 -0.14966999625E+03  0.10582908214E+04  0.50400001928E-02 0.  1.
</event>
<event>
 5   0  0.3636435E-06  0.2099739E+04  0.7818609E-02  0.8561358E-01
       -2   -1    0    0    0  501  0.00000000000E+00  0.00000000000E+00  0.84005946744E+03  0.84005946745E+03  0.25500000920E-02 0. -1.
        2   -1    0    0  501    0  0.00000000000E+00  0.00000000000E+00 -0.13120805473E+04  0.13120805473E+04  0.25500000920E-02 0.  1.
    10030    2    1    2    0    0  0.00000000000E+00  0.00000000000E+00 -0.47202107984E+03  0.21521400147E+04  0.20997387321E+04 0.  0.
        4    1    3    3  502    0 -0.86243827986E+03  0.53568419115E+03 -0.51001474621E+03  0.11361663582E+04  0.12699999809E+01 0.  1.
       -4    1    3    3    0  502  0.86243827986E+03 -0.53568419115E+03  0.37993666370E+02  0.10159736566E+04  0.12699999809E+01 0. -1.
</event>
<event>
 5   0  0.3574927E-06  0.2096638E+04  0.7818609E-02  0.8562726E-01
        2   -1    0    0  501    0  0.00000000000E+00  0.00000000000E+00  0.20291724531E+04  0.20291724531E+04  0.25500000920E-02 0.  1.
       -2   -1    0    0    0  501  0.00000000000E+00  0.00000000000E+00 -0.54158654236E+03  0.54158654237E+03  0.25500000920E-02 0. -1.
    10030    2    1    2    0    0  0.00000000000E+00  0.00000000000E+00  0.14875859108E+04  0.25707589955E+04  0.20966377777E+04 0.  0.
        3    1    3    3  502    0  0.85937054033E+03  0.59712593583E+03  0.82031957371E+03  0.13296621082E+04  0.10100000352E+00 0.  1.
       -3    1    3    3    0  502 -0.85937054033E+03 -0.59712593583E+03  0.66726633706E+03  0.12410968873E+04  0.10100000352E+00 0. -1.
</event>
<event>
 5   0  0.1579820E-06  0.2100647E+04  0.7818609E-02  0.8560959E-01
        1   -1    0    0  501    0  0.00000000000E+00  0.00000000000E+00  0.12798331672E+04  0.12798331672E+04  0.50400001928E-02 0.  1.
       -1   -1    0    0    0  501  0.00000000000E+00  0.00000000000E+00 -0.86197100029E+03  0.86197100030E+03  0.50400001928E-02 0. -1.
    10030    2    1    2    0    0  0.00000000000E+00  0.00000000000E+00  0.41786216692E+03  0.21418041675E+04  0.21006466389E+04 0.  0.
        2    1    3    3  502    0  0.91301987938E+03 -0.18564705417E+03 -0.28544941776E+03  0.97444933115E+03  0.25500000920E-02 0. -1.
       -2    1    3    3    0  502 -0.91301987938E+03  0.18564705417E+03  0.70331158468E+03  0.11673548364E+04  0.25500000920E-02 0.  1.
</event>
<event>
 5   0  0.1615098E-06  0.2100377E+04  0.7818609E-02  0.8561077E-01
        1   -1    0    0  501    0  0.00000000000E+00  0.00000000000E+00  0.15001936361E+04  0.15001936361E+04  0.50400001928E-02 0.  1.
       -1   -1    0    0    0  501  0.00000000000E+00  0.00000000000E+00 -0.73516894752E+03  0.73516894754E+03  0.50400001928E-02 0. -1.
    10030    2    1    2    0    0  0.00000000000E+00  0.00000000000E+00  0.76502468854E+03  0.22353625836E+04  0.21003768962E+04 0.  0.
        1    1    3    3  502    0 -0.34460320922E+03 -0.75985138412E+02 -0.67018240254E+03  0.75740977401E+03  0.50400001928E-02 0. -1.
       -1    1    3    3    0  502  0.34460320922E+03  0.75985138412E+02  0.14352070911E+04  0.14779528096E+04  0.50400001928E-02 0.  1.
</event>
<event>
 5   0  0.3480134E-06  0.2099995E+04  0.7818609E-02  0.8561246E-01
       -2   -1    0    0    0  501  0.00000000000E+00  0.00000000000E+00  0.64047129098E+03  0.64047129099E+03  0.25500000920E-02 0.  1.
        2   -1    0    0  501    0  0.00000000000E+00  0.00000000000E+00 -0.17213800029E+04  0.17213800029E+04  0.25500000920E-02 0. -1.
    10030    2    1    2    0    0  0.00000000000E+00  0.00000000000E+00 -0.10809087119E+04  0.23618512939E+04  0.20999947360E+04 0.  0.
        1    1    3    3  502    0 -0.58629999081E+03  0.16457965937E+01 -0.15201293058E+04  0.16292769851E+04  0.50400001928E-02 0. -1.
       -1    1    3    3    0  502  0.58629999081E+03 -0.16457965937E+01  0.43922059383E+03  0.73257430882E+03  0.50400001928E-02 0.  1.
</event>
<event>
 5   0  0.1590067E-06  0.2100246E+04  0.7818609E-02  0.8561135E-01
       -1   -1    0    0    0  501  0.00000000000E+00  0.00000000000E+00  0.10328837260E+04  0.10328837260E+04  0.50400001928E-02 0. -1.
        1   -1    0    0  501    0  0.00000000000E+00  0.00000000000E+00 -0.10676503942E+04  0.10676503942E+04  0.50400001928E-02 0.  1.
    10030    2    1    2    0    0  0.00000000000E+00  0.00000000000E+00 -0.34766668207E+02  0.21005341202E+04  0.21002463829E+04 0.  0.
        5    1    3    3  502    0  0.80981937285E+03 -0.48235802617E+03 -0.48032896492E+03  0.10579294337E+04  0.46999998093E+01 0.  1.
       -5    1    3    3    0  502 -0.80981937285E+03  0.48235802617E+03  0.44556229672E+03  0.10426046865E+04  0.46999998093E+01 0. -1.
</event>
<event>
 5   0  0.1615098E-06  0.2104852E+04  0.7818609E-02  0.8559109E-01
       -1   -1    0    0    0  501  0.00000000000E+00  0.00000000000E+00  0.12641408168E+04  0.12641408168E+04  0.50400001928E-02 0.  1.
        1   -1    0    0  501    0  0.00000000000E+00  0.00000000000E+00 -0.87616898143E+03  0.87616898144E+03  0.50400001928E-02 0. -1.
    10030    2    1    2    0    0  0.00000000000E+00  0.00000000000E+00  0.38797183534E+03  0.21403097982E+04  0.21048524621E+04 0.  0.
        1    1    3    3  502    0 -0.60177109187E+03 -0.38622634599E+02  0.10710591337E+04  0.12291410915E+04  0.50400001928E-02 0.  1.
       -1    1    3    3    0  502  0.60177109187E+03  0.38622634599E+02 -0.68308729835E+03  0.91116870672E+03  0.50400001928E-02 0. -1.
</event>
<event>
 5   0  0.3574927E-06  0.2100000E+04  0.7818609E-02  0.8561243E-01
       -2   -1    0    0    0  501  0.00000000000E+00  0.00000000000E+00  0.64161549669E+03  0.64161549670E+03  0.25500000920E-02 0.  1.
        2   -1    0    0  501    0  0.00000000000E+00  0.00000000000E+00 -0.17183188337E+04  0.17183188337E+04  0.25500000920E-02 0. -1.
    10030    2    1    2    0    0  0.00000000000E+00  0.00000000000E+00 -0.10767033370E+04  0.23599343304E+04  0.20999999924E+04 0.  0.
        3    1    3    3  502    0  0.83259329085E+03  0.33583003046E+03  0.73572767104E+02  0.90078097204E+03  0.10100000352E+00 0.  1.
       -3    1    3    3    0  502 -0.83259329085E+03 -0.33583003046E+03 -0.11502761041E+04  0.14591533584E+04  0.10100000352E+00 0. -1.
</event>
<event>
 5   0  0.1615098E-06  0.2103332E+04  0.7818609E-02  0.8559777E-01
       -1   -1    0    0    0  501  0.00000000000E+00  0.00000000000E+00  0.12653440984E+04  0.12653440985E+04  0.50400001928E-02 0. -1.
        1   -1    0    0  501    0  0.00000000000E+00  0.00000000000E+00 -0.87407134891E+03  0.87407134893E+03  0.50400001928E-02 0.  1.
    10030    2    1    2    0    0  0.00000000000E+00  0.00000000000E+00  0.39127274953E+03  0.21394154474E+04  0.21033316648E+04 0.  0.
        1    1    3    3  502    0  0.53059331188E+03  0.52117207301E+03 -0.56065924682E+03  0.93139056436E+03  0.50400001928E-02 0.  1.
       -1    1    3    3    0  502 -0.53059331188E+03 -0.52117207301E+03  0.95193199636E+03  0.12080248830E+04  0.50400001928E-02 0. -1.
</event>
<event>
 5   0  0.1615098E-06  0.2100219E+04  0.7818609E-02  0.8561147E-01
       -1   -1    0    0    0  501  0.00000000000E+00  0.00000000000E+00  0.10765420607E+04  0.10765420607E+04  0.50400001928E-02 0.  1.
        1   -1    0    0  501    0  0.00000000000E+00  0.00000000000E+00 -0.10243263473E+04  0.10243263473E+04  0.50400001928E-02 0. -1.
    10030    2    1    2    0    0  0.00000000000E+00  0.00000000000E+00  0.52215713410E+02  0.21008684081E+04  0.21002194141E+04 0.  0.
        1    1    3    3  502    0 -0.92101569191E+02  0.75545560046E+03 -0.69767259405E+03  0.10324451132E+04  0.50400001928E-02 0.  1.
       -1    1    3    3    0  502  0.92101569191E+02 -0.75545560046E+03  0.74988830746E+03  0.10684232949E+04  0.50400001928E-02 0. -1.
</event>
<event>
 5   0  0.1579820E-06  0.2100695E+04  0.7818609E-02  0.8560937E-01
       -1   -1    0    0    0  501  0.00000000000E+00  0.00000000000E+00  0.93443938193E+03  0.93443938194E+03  0.50400001928E-02 0.  1.
        1   -1    0    0  501    0  0.00000000000E+00  0.00000000000E+00 -0.11806329507E+04  0.11806329507E+04  0.50400001928E-02 0. -1.
    10030    2    1    2    0    0  0.00000000000E+00  0.00000000000E+00 -0.24619356877E+03  0.21150723326E+04  0.21006950514E+04 0.  0.
        2    1    3    3  502    0  0.57374174066E+03  0.87818722269E+03 -0.17672993823E+03  0.10637790439E+04  0.25500000920E-02 0. -1.
       -2    1    3    3    0  502 -0.57374174066E+03 -0.87818722269E+03 -0.69463630542E+02  0.10512932888E+04  0.25500000920E-02 0.  1.
</event>
<event>
 5   0  0.3480134E-06  0.2098031E+04  0.7818609E-02  0.8562111E-01
       -2   -1    0    0    0  501  0.00000000000E+00  0.00000000000E+00  0.68636227913E+03  0.68636227914E+03  0.25500000920E-02 0.  1.
        2   -1    0    0  501    0  0.00000000000E+00  0.00000000000E+00 -0.16032834130E+04  0.16032834130E+04  0.25500000920E-02 0. -1.
    10030    2    1    2    0    0  0.00000000000E+00  0.00000000000E+00 -0.91692113385E+03  0.22896456921E+04  0.20980307504E+04 0.  0.
        1    1    3    3  502    0 -0.38549669009E+03 -0.97254796015E+03 -0.37409550676E+03  0.11110376596E+04  0.50400001928E-02 0.  1.
       -1    1    3    3    0  502  0.38549669009E+03  0.97254796015E+03 -0.54282562709E+03  0.11786080325E+04  0.50400001928E-02 0. -1.
</event>
<event>
 5   0  0.1257125E-06  0.2096525E+04  0.7818609E-02  0.8562776E-01
       -3   -1    0    0    0  501  0.00000000000E+00  0.00000000000E+00  0.93338199697E+03  0.93338200243E+03  0.10100000352E+00 0. -1.
        3   -1    0    0  501    0  0.00000000000E+00  0.00000000000E+00 -0.11772819152E+04  0.11772819195E+04  0.10100000352E+00 0.  1.
    10030    2    1    2    0    0  0.00000000000E+00  0.00000000000E+00 -0.24389991823E+03  0.21106639220E+04  0.20965245101E+04 0.  0.
        4    1    3    3  502    0 -0.44673019165E+03  0.83346220853E+03 -0.57735571536E+03  0.11079568368E+04  0.12699999809E+01 0.  1.
       -4    1    3    3    0  502  0.44673019165E+03 -0.83346220853E+03  0.33345579713E+03  0.10027070852E+04  0.12699999809E+01 0. -1.
</event>
<event>
 5   0  0.3574927E-06  0.2099174E+04  0.7818609E-02  0.8561607E-01
       -2   -1    0    0    0  501  0.00000000000E+00  0.00000000000E+00  0.75756623287E+03  0.75756623287E+03  0.25500000920E-02 0. -1.
        2   -1    0    0  501    0  0.00000000000E+00  0.00000000000E+00 -0.14541743281E+04  0.14541743281E+04  0.25500000920E-02 0.  1.
    10030    2    1    2    0    0  0.00000000000E+00  0.00000000000E+00 -0.69660809524E+03  0.22117405610E+04  0.20991744736E+04 0.  0.
        3    1    3    3  502    0 -0.21884692385E+03  0.91095692014E+03  0.15024702859E+03  0.94884701940E+03  0.10100000352E+00 0. -1.
       -3    1    3    3    0  502  0.21884692385E+03 -0.91095692014E+03 -0.84685512383E+03  0.12628935416E+04  0.10100000352E+00 0.  1.
</event>
<event>
 5   0  0.3547583E-06  0.2098867E+04  0.7818609E-02  0.8561743E-01
       -2   -1    0    0    0  501  0.00000000000E+00  0.00000000000E+00  0.62200676628E+03  0.62200676628E+03  0.25500000920E-02 0.  1.
        2   -1    0    0  501    0  0.00000000000E+00  0.00000000000E+00 -0.17705770985E+04  0.17705770985E+04  0.25500000920E-02 0. -1.
    10030    2    1    2    0    0  0.00000000000E+00  0.00000000000E+00 -0.11485703322E+04  0.23925838648E+04  0.20988672521E+04 0.  0.
        2    1    3    3  502    0 -0.99681678877E+01  0.17213308863E+03  0.60574974676E+03  0.62981101949E+03  0.25500000920E-02 0.  1.
       -2    1    3    3    0  502  0.99681678877E+01 -0.17213308863E+03 -0.17543200790E+04  0.17627728453E+04  0.25500000920E-02 0. -1.
</event>
<event>
 5   0  0.3480134E-06  0.2100294E+04  0.7818609E-02  0.8561114E-01
       -2   -1    0    0    0  501  0.00000000000E+00  0.00000000000E+00  0.81495685811E+03  0.81495685811E+03  0.25500000920E-02 0.  1.
        2   -1    0    0  501    0  0.00000000000E+00  0.00000000000E+00 -0.13532108615E+04  0.13532108615E+04  0.25500000920E-02 0. -1.
    10030    2    1    2    0    0  0.00000000000E+00  0.00000000000E+00 -0.53825400337E+03  0.21681677196E+04  0.21002937623E+04 0.  0.
        1    1    3    3  502    0  0.82504987126E+03 -0.29205292869E+03  0.32997795777E+03  0.93535429430E+03  0.50400001928E-02 0.  1.
       -1    1    3    3    0  502 -0.82504987126E+03  0.29205292869E+03 -0.86823196114E+03  0.12328134253E+04  0.50400001928E-02 0. -1.
</event>
<event>
 5   0  0.3574927E-06  0.2099567E+04  0.7818609E-02  0.8561434E-01
        2   -1    0    0  501    0  0.00000000000E+00  0.00000000000E+00  0.15935322647E+04  0.15935322647E+04  0.25500000920E-02 0.  1.
       -2   -1    0    0    0  501  0.00000000000E+00  0.00000000000E+00 -0.69157421766E+03  0.69157421767E+03  0.25500000920E-02 0. -1.
    10030    2    1    2    0    0  0.00000000000E+00  0.00000000000E+00  0.90195804705E+03  0.22851064824E+04  0.20995674119E+04 0.  0.
        3    1    3    3  502    0 -0.50425658998E+03  0.65698562093E+03 -0.25111758398E+03  0.86542756244E+03  0.10100000352E+00 0. -1.
       -3    1    3    3    0  502  0.50425658998E+03 -0.65698562093E+03  0.11530756310E+04  0.14196789199E+04  0.10100000352E+00 0.  1.
</event>
<event>
 5   0  0.1615098E-06  0.2100000E+04  0.7818609E-02  0.8561243E-01
       -1   -1    0    0    0  501  0.00000000000E+00  0.00000000000E+00  0.57709341825E+03  0.57709341828E+03  0.50400001928E-02 0.  1.
        1   -1    0    0  501    0  0.00000000000E+00  0.00000000000E+00 -0.19104363032E+04  0.19104363032E+04  0.50400001928E-02 0. -1.
    10030    2    1    2    0    0  0.00000000000E+00  0.00000000000E+00 -0.13333428849E+04  0.24875297214E+04  0.21000002063E+04 0.  0.
        1    1    3    3  502    0  0.40536936920E+03  0.82843218216E+02  0.47646152180E+03  0.63103320520E+03  0.50400001928E-02 0.  1.
       -1    1    3    3    0  502 -0.40536936920E+03 -0.82843218216E+02 -0.18098044067E+04  0.18564965162E+04  0.50400001928E-02 0. -1.
</event>
<event>
 5   0  0.1257125E-06  0.2100131E+04  0.7818609E-02  0.8561186E-01
       -3   -1    0    0    0  501  0.00000000000E+00  0.00000000000E+00  0.13799783367E+04  0.13799783404E+04  0.10100000352E+00 0.  1.
        3   -1    0    0  501    0  0.00000000000E+00  0.00000000000E+00 -0.79902516741E+03  0.79902517380E+03  0.10100000352E+00 0. -1.
    10030    2    1    2    0    0  0.00000000000E+00  0.00000000000E+00  0.58095316925E+03  0.21790035142E+04  0.21001308840E+04 0.  0.
        2    1    3    3  502    0 -0.75200015207E+03 -0.71901897669E+03  0.14321336626E+03  0.10502392993E+04  0.25500000920E-02 0.  1.
       -2    1    3    3    0  502  0.75200015207E+03  0.71901897669E+03  0.43773980298E+03  0.11287642148E+04  0.25500000920E-02 0. -1.
</event>
<event>
 5   0  0.1257125E-06  0.2099963E+04  0.7818609E-02  0.8561260E-01
        3   -1    0    0  501    0  0.00000000000E+00  0.00000000000E+00  0.76435774556E+03  0.76435775223E+03  0.10100000352E+00 0. -1.
       -3   -1    0    0    0  501  0.00000000000E+00  0.00000000000E+00 -0.14423364556E+04  0.14423364591E+04  0.10100000352E+00 0.  1.
    10030    2    1    2    0    0  0.00000000000E+00  0.00000000000E+00 -0.67797871002E+03  0.22066942113E+04  0.20999629071E+04 0.  0.
        3    1    3    3  502    0 -0.26025419310E+03 -0.41189020508E+03 -0.13163559183E+04  0.14036305425E+04  0.10100000352E+00 0.  1.
       -3    1    3    3    0  502  0.26025419310E+03  0.41189020508E+03  0.63837720823E+03  0.80306366887E+03  0.10100000352E+00 0. -1.
</event>
<event>
 5   0  0.3636435E-06  0.2103004E+04  0.7818609E-02  0.8559921E-01
       -2   -1    0    0    0  501  0.00000000000E+00  0.00000000000E+00  0.86311843256E+03  0.86311843256E+03  0.25500000920E-02 0. -1.
        2   -1    0    0  501    0  0.00000000000E+00  0.00000000000E+00 -0.12810017724E+04  0.12810017724E+04  0.25500000920E-02 0.  1.
    10030    2    1    2    0    0  0.00000000000E+00  0.00000000000E+00 -0.41788333988E+03  0.21441202050E+04  0.21030037964E+04 0.  0.
        4    1    3    3  502    0  0.10297197660E+04  0.73579052659E+02 -0.41264269656E+03  0.11117608922E+04  0.12699999809E+01 0.  1.
       -4    1    3    3    0  502 -0.10297197660E+04 -0.73579052659E+02 -0.52406433267E+01  0.10323593128E+04  0.12699999809E+01 0. -1.
</event>
<event>
 5   0  0.3547583E-06  0.2097342E+04  0.7818609E-02  0.8562415E-01
       -2   -1    0    0    0  501  0.00000000000E+00  0.00000000000E+00  0.83121541982E+03  0.83121541983E+03  0.25500000920E-02 0. -1.
        2   -1    0    0  501    0  0.00000000000E+00  0.00000000000E+00 -0.13230160119E+04  0.13230160119E+04  0.25500000920E-02 0.  1.
    10030    2    1    2    0    0  0.00000000000E+00  0.00000000000E+00 -0.49180059207E+03  0.21542314317E+04  0.20973424229E+04 0.  0.
        2    1    3    3  502    0  0.56200070251E+03 -0.58770837676E+03 -0.92602832495E+03  0.12323856476E+04  0.25500000920E-02 0.  1.
       -2    1    3    3    0  502 -0.56200070251E+03  0.58770837676E+03  0.43422773289E+03  0.92184578414E+03  0.25500000920E-02 0. -1.
</event>
<event>
 5   0  0.1579820E-06  0.2090807E+04  0.7818609E-02  0.8565304E-01
        1   -1    0    0  501    0  0.00000000000E+00  0.00000000000E+00  0.18168361601E+04  0.18168361601E+04  0.50400001928E-02 0.  1.
       -1   -1    0    0    0  501  0.00000000000E+00  0.00000000000E+00 -0.60152299987E+03  0.60152299989E+03  0.50400001928E-02 0. -1.
    10030    2    1    2    0    0  0.00000000000E+00  0.00000000000E+00  0.12153131602E+04  0.24183591600E+04  0.20908072482E+04 0.  0.
        2    1    3    3  502    0  0.84183681583E+02  0.36759443129E+03  0.17354213946E+04  0.17759222886E+04  0.25500000920E-02 0.  1.
       -2    1    3    3    0  502 -0.84183681583E+02 -0.36759443129E+03 -0.52010823444E+03  0.64243687137E+03  0.25500000920E-02 0. -1.
</event>
<event>
 5   0  0.1579820E-06  0.2084141E+04  0.7818609E-02  0.8568262E-01
       -1   -1    0    0    0  501  0.00000000000E+00  0.00000000000E+00  0.81740813964E+03  0.81740813965E+03  0.50400001928E-02 0.  1.
        1   -1    0    0  501    0  0.00000000000E+00  0.00000000000E+00 -0.13284804994E+04  0.13284804994E+04  0.50400001928E-02 0. -1.
    10030    2    1    2    0    0  0.00000000000E+00  0.00000000000E+00 -0.51107235971E+03  0.21458886390E+04  0.20841408528E+04 0.  0.
        2    1    3    3  502    0 -0.30116393082E+03  0.44880529417E+03  0.66180633527E+03  0.85446681077E+03  0.25500000920E-02 0.  1.
       -2    1    3    3    0  502  0.30116393082E+03 -0.44880529417E+03 -0.11728786950E+04  0.12914218282E+04  0.25500000920E-02 0. -1.
</event>
<event>
 5   0  0.3480134E-06  0.2099792E+04  0.7818609E-02  0.8561335E-01
       -2   -1    0    0    0  501  0.00000000000E+00  0.00000000000E+00  0.74612678224E+03  0.74612678224E+03  0.25500000920E-02 0.  1.
        2   -1    0    0  501    0  0.00000000000E+00  0.00000000000E+00 -0.14773375188E+04  0.14773375188E+04  0.25500000920E-02 0. -1.
    10030    2    1    2    0    0  0.00000000000E+00  0.00000000000E+00 -0.73121073655E+03  0.22234643010E+04  0.20997915032E+04 0.  0.
        1    1    3    3  502    0  0.41005943543E+03  0.31749145644E+03 -0.13322412059E+04  0.14296209974E+04  0.50400001928E-02 0. -1.
       -1    1    3    3    0  502 -0.41005943543E+03 -0.31749145644E+03  0.60103046939E+03  0.79384330359E+03  0.50400001928E-02 0.  1.
</event>
<event>
 5   0  0.1615098E-06  0.2100005E+04  0.7818609E-02  0.8561241E-01
        1   -1    0    0  501    0  0.00000000000E+00  0.00000000000E+00  0.73030219498E+03  0.73030219499E+03  0.50400001928E-02 0.  1.
       -1   -1    0    0    0  501  0.00000000000E+00  0.00000000000E+00 -0.15096569070E+04  0.15096569070E+04  0.50400001928E-02 0. -1.
    10030    2    1    2    0    0  0.00000000000E+00  0.00000000000E+00 -0.77935471203E+03  0.22399591020E+04  0.21000054789E+04 0.  0.
        1    1    3    3  502    0 -0.48178107207E+03  0.17027349291E+03  0.58873253551E+03  0.77955888950E+03  0.50400001928E-02 0.  1.
       -1    1    3    3    0  502  0.48178107207E+03 -0.17027349291E+03 -0.13680872475E+04  0.14604002125E+04  0.50400001928E-02 0. -1.
</event>
<event>
 5   0  0.1590067E-06  0.2099911E+04  0.7818609E-02  0.8561283E-01
        1   -1    0    0  501    0  0.00000000000E+00  0.00000000000E+00  0.10372012960E+04  0.10372012961E+04  0.50400001928E-02 0.  1.
       -1   -1    0    0    0  501  0.00000000000E+00  0.00000000000E+00 -0.10628665081E+04  0.10628665082E+04  0.50400001928E-02 0. -1.
    10030    2    1    2    0    0  0.00000000000E+00  0.00000000000E+00 -0.25665212100E+02  0.21000678042E+04  0.20999109693E+04 0.  0.
        5    1    3    3  502    0 -0.98445534302E+03  0.35109838922E+03 -0.11265002239E+03  0.10512537842E+04  0.46999998093E+01 0. -1.
       -5    1    3    3    0  502  0.98445534302E+03 -0.35109838922E+03  0.86984810286E+02  0.10488140200E+04  0.46999998093E+01 0.  1.
</event>
<event>
 5   0  0.1615098E-06  0.2099904E+04  0.7818609E-02  0.8561286E-01
        1   -1    0    0  501    0  0.00000000000E+00  0.00000000000E+00  0.12362795292E+04  0.12362795292E+04  0.50400001928E-02 0.  1.
       -1   -1    0    0    0  501  0.00000000000E+00  0.00000000000E+00 -0.89170686579E+03  0.89170686581E+03  0.50400001928E-02 0. -1.
    10030    2    1    2    0    0  0.00000000000E+00  0.00000000000E+00  0.34457266338E+03  0.21279863950E+04  0.20999037542E+04 0.  0.
        1    1    3    3  502    0  0.41299345041E+03  0.59381625948E+03  0.94352773019E+03  0.11888759051E+04  0.50400001928E-02 0.  1.
       -1    1    3    3    0  502 -0.41299345041E+03 -0.59381625948E+03 -0.59895506681E+03  0.93911048987E+03  0.50400001928E-02 0. -1.
</event>
<event>
 5   0  0.1653260E-06  0.2099870E+04  0.7818609E-02  0.8561301E-01
        1   -1    0    0  501    0  0.00000000000E+00  0.00000000000E+00  0.13456906279E+04  0.13456906279E+04  0.50400001928E-02 0. -1.
       -1   -1    0    0    0  501  0.00000000000E+00  0.00000000000E+00 -0.81918042641E+03  0.81918042642E+03  0.50400001928E-02 0.  1.
    10030    2    1    2    0    0  0.00000000000E+00  0.00000000000E+00  0.52651020149E+03  0.21648710543E+04  0.20998699221E+04 0.  0.
        3    1    3    3  502    0  0.41261828197E+03 -0.93421149446E+03  0.51443270501E+03  0.11435234939E+04  0.10100000352E+00 0. -1.
       -3    1    3    3    0  502 -0.41261828197E+03  0.93421149446E+03  0.12077496480E+02  0.10213475604E+04  0.10100000352E+00 0.  1.
</event>
<event>
 5   0  0.3574927E-06  0.2100419E+04  0.7818609E-02  0.8561059E-01
       -2   -1    0    0    0  501  0.00000000000E+00  0.00000000000E+00  0.51427938856E+03  0.51427938856E+03  0.25500000920E-02 0.  1.
        2   -1    0    0  501    0  0.00000000000E+00  0.00000000000E+00 -0.21446316626E+04  0.21446316626E+04  0.25500000920E-02 0. -1.
    10030    2    1    2    0    0  0.00000000000E+00  0.00000000000E+00 -0.16303522741E+04  0.26589110512E+04  0.21004188727E+04 0.  0.
        3    1    3    3  502    0  0.54880897693E+03 -0.47022250861E+03 -0.17797847364E+04  0.19209201490E+04  0.10100000352E+00 0. -1.
       -3    1    3    3    0  502 -0.54880897693E+03  0.47022250861E+03  0.14943246230E+03  0.73799090221E+03  0.10100000352E+00 0.  1.
</event>
<event>
 5   0  0.3480134E-06  0.2098689E+04  0.7818609E-02  0.8561821E-01
        2   -1    0    0  501    0  0.00000000000E+00  0.00000000000E+00  0.10572425152E+04  0.10572425152E+04  0.25500000920E-02 0. -1.
       -2   -1    0    0    0  501  0.00000000000E+00  0.00000000000E+00 -0.10415051143E+04  0.10415051143E+04  0.25500000920E-02 0.  1.
    10030    2    1    2    0    0  0.00000000000E+00  0.00000000000E+00  0.15737400938E+02  0.20987476295E+04  0.20986886254E+04 0.  0.
        1    1    3    3  502    0 -0.49345891782E+03 -0.75684610688E+03  0.54155565760E+03  0.10533756516E+04  0.50400001928E-02 0. -1.
       -1    1    3    3    0  502  0.49345891782E+03  0.75684610688E+03 -0.52581825667E+03  0.10453719779E+04  0.50400001928E-02 0.  1.
</event>
<event>
 5   0  0.1257125E-06  0.2100986E+04  0.7818609E-02  0.8560809E-01
        3   -1    0    0  501    0  0.00000000000E+00  0.00000000000E+00  0.10492197599E+04  0.10492197648E+04  0.10100000352E+00 0. -1.
       -3   -1    0    0    0  501  0.00000000000E+00  0.00000000000E+00 -0.10517677082E+04  0.10517677131E+04  0.10100000352E+00 0.  1.
    10030    2    1    2    0    0  0.00000000000E+00  0.00000000000E+00 -0.25479482928E+01  0.21009874779E+04  0.21009859329E+04 0.  0.
        4    1    3    3  502    0  0.52758424210E+03 -0.39238241208E+03  0.81800971114E+03  0.10495001621E+04  0.12699999809E+01 0. -1.
       -4    1    3    3    0  502 -0.52758424210E+03  0.39238241208E+03 -0.82055765944E+03  0.10514873158E+04  0.12699999809E+01 0.  1.
</event>
<event>
 5   0  0.3636435E-06  0.2099087E+04  0.7818609E-02  0.8561646E-01
       -2   -1    0    0    0  501  0.00000000000E+00  0.00000000000E+00  0.72750034225E+03  0.72750034226E+03  0.25500000920E-02 0. -1.
        2   -1    0    0  501    0  0.00000000000E+00  0.00000000000E+00 -0.15141453200E+04  0.15141453200E+04  0.25500000920E-02 0.  1.
    10030    2    1    2    0    0  0.00000000000E+00  0.00000000000E+00 -0.78664497774E+03  0.22416456623E+04  0.20990866952E+04 0.  0.
        4    1    3    3  502    0 -0.45263350250E+03 -0.93550582478E+03 -0.54987817278E+03  0.11757618184E+04  0.12699999809E+01 0.  1.
       -4    1    3    3    0  502  0.45263350250E+03  0.93550582478E+03 -0.23676680496E+03  0.10658838439E+04  0.12699999809E+01 0. -1.
</event>
<event>
 5   0  0.1579820E-06  0.2111208E+04  0.7818609E-02  0.8556322E-01
        1   -1    0    0  501    0  0.00000000000E+00  0.00000000000E+00  0.17124345722E+04  0.17124345722E+04  0.50400001928E-02 0.  1.
       -1   -1    0    0    0  501  0.00000000000E+00  0.00000000000E+00 -0.65071074639E+03  0.65071074641E+03  0.50400001928E-02 0. -1.
    10030    2    1    2    0    0  0.00000000000E+00  0.00000000000E+00  0.10617238258E+04  0.23631453186E+04  0.21112077857E+04 0.  0.
        2    1    3    3  502    0 -0.82644930467E+02  0.10419905587E+04  0.69584523284E+03  0.12556970562E+04  0.25500000920E-02 0.  1.
       -2    1    3    3    0  502  0.82644930467E+02 -0.10419905587E+04  0.36587859294E+03  0.11074482623E+04  0.25500000920E-02 0. -1.
</event>
<event>
 5   0  0.3705828E-06  0.2101729E+04  0.7818609E-02  0.8560482E-01
       -2   -1    0    0    0  501  0.00000000000E+00  0.00000000000E+00  0.13560797546E+04  0.13560797546E+04  0.25500000920E-02 0.  1.
        2   -1    0    0  501    0  0.00000000000E+00  0.00000000000E+00 -0.81434476439E+03  0.81434476439E+03  0.25500000920E-02 0. -1.
    10030    2    1    2    0    0  0.00000000000E+00  0.00000000000E+00  0.54173499018E+03  0.21704245190E+04  0.21017292387E+04 0.  0.
        5    1    3    3  502    0  0.78937043402E+03  0.33063836098E+01 -0.44547495282E+03  0.90641416464E+03  0.46999998093E+01 0. -1.
       -5    1    3    3    0  502 -0.78937043402E+03 -0.33063836098E+01  0.98720994300E+03  0.12640103543E+04  0.46999998093E+01 0.  1.
</event>
<event>
 5   0  0.3705828E-06  0.2102114E+04  0.7818609E-02  0.8560313E-01
        2   -1    0    0  501    0  0.00000000000E+00  0.00000000000E+00  0.15009360774E+04  0.15009360774E+04  0.25500000920E-02 0. -1.
       -2   -1    0    0    0  501  0.00000000000E+00  0.00000000000E+00 -0.73602098594E+03  0.73602098595E+03  0.25500000920E-02 0.  1.
    10030    2    1    2    0    0  0.00000000000E+00  0.00000000000E+00  0.76491509141E+03  0.22369570633E+04  0.21021136520E+04 0.  0.
        5    1    3    3  502    0  0.12779732022E+03 -0.40924311586E+03  0.14036426152E+04  0.14676671163E+04  0.46999998093E+01 0. -1.
       -5    1    3    3    0  502 -0.12779732022E+03  0.40924311586E+03 -0.63872752381E+03  0.76928994703E+03  0.46999998093E+01 0.  1.
</event>
<event>
 5   0  0.3574927E-06  0.2100051E+04  0.7818609E-02  0.8561221E-01
       -2   -1    0    0    0  501  0.00000000000E+00  0.00000000000E+00  0.85228778425E+03  0.85228778425E+03  0.25500000920E-02 0. -1.
        2   -1    0    0  501    0  0.00000000000E+00  0.00000000000E+00 -0.12936405726E+04  0.12936405726E+04  0.25500000920E-02 0.  1.
    10030    2    1    2    0    0  0.00000000000E+00  0.00000000000E+00 -0.44135278837E+03  0.21459283569E+04  0.21000514825E+04 0.  0.
        3    1    3    3  502    0  0.96466190566E+03 -0.98105595561E+02  0.19106112895E+03  0.98828217899E+03  0.10100000352E+00 0. -1.
       -3    1    3    3    0  502 -0.96466190566E+03  0.98105595561E+02 -0.63241391732E+03  0.11576461779E+04  0.10100000352E+00 0.  1.
</event>
<event>
 5   0  0.3705828E-06  0.2090714E+04  0.7818609E-02  0.8565345E-01
       -2   -1    0    0    0  501  0.00000000000E+00  0.00000000000E+00  0.90049618785E+03  0.90049618786E+03  0.25500000920E-02 0. -1.
        2   -1    0    0  501    0  0.00000000000E+00  0.00000000000E+00 -0.12135207616E+04  0.12135207616E+04  0.25500000920E-02 0.  1.
    10030    2    1    2    0    0  0.00000000000E+00  0.00000000000E+00 -0.31302457378E+03  0.21140169495E+04  0.20907135813E+04 0.  0.
        5    1    3    3  502    0  0.45517338527E+03 -0.21126437171E+03  0.77073313069E+03  0.91971033165E+03  0.46999998093E+01 0. -1.
       -5    1    3    3    0  502 -0.45517338527E+03  0.21126437171E+03 -0.10837577045E+04  0.11943066178E+04  0.46999998093E+01 0.  1.
</event>
<event>
 5   0  0.3547583E-06  0.2097896E+04  0.7818609E-02  0.8562171E-01
       -2   -1    0    0    0  501  0.00000000000E+00  0.00000000000E+00  0.60795268411E+03  0.60795268411E+03  0.25500000920E-02 0. -1.
        2   -1    0    0  501    0  0.00000000000E+00  0.00000000000E+00 -0.18098312599E+04  0.18098312599E+04  0.25500000920E-02 0.  1.
    10030    2    1    2    0    0  0.00000000000E+00  0.00000000000E+00 -0.12018785758E+04  0.24177839440E+04  0.20978958718E+04 0.  0.
        2    1    3    3  502    0  0.39505049135E+03 -0.38832691110E+03  0.42562847223E+03  0.69858591238E+03  0.25500000920E-02 0. -1.
       -2    1    3    3    0  502 -0.39505049135E+03  0.38832691110E+03 -0.16275070480E+04  0.17191980316E+04  0.25500000920E-02 0.  1.
</event>
<event>
 5   0  0.3705828E-06  0.2100198E+04  0.7818609E-02  0.8561156E-01
       -2   -1    0    0    0  501  0.00000000000E+00  0.00000000000E+00  0.72634669043E+03  0.72634669044E+03  0.25500000920E-02 0.  1.
        2   -1    0    0  501    0  0.00000000000E+00  0.00000000000E+00 -0.15181567307E+04  0.15181567307E+04  0.25500000920E-02 0. -1.
    10030    2    1    2    0    0  0.00000000000E+00  0.00000000000E+00 -0.79181004028E+03  0.22445034211E+04  0.21001981972E+04 0.  0.
        5    1    3    3  502    0 -0.45071046324E+03 -0.23724134444E+03 -0.13772945554E+04  0.14684637413E+04  0.46999998093E+01 0. -1.
       -5    1    3    3    0  502  0.45071046324E+03  0.23724134444E+03  0.58548451515E+03  0.77603967983E+03  0.46999998093E+01 0.  1.
</event>
<event>
 5   0  0.3547583E-06  0.2100073E+04  0.7818609E-02  0.8561211E-01
       -2   -1    0    0    0  501  0.00000000000E+00  0.00000000000E+00  0.97267379863E+03  0.97267379863E+03  0.25500000920E-02 0.  1.
        2   -1    0    0  501    0  0.00000000000E+00  0.00000000000E+00 -0.11335524990E+04  0.11335524990E+04  0.25500000920E-02 0. -1.
    10030    2    1    2    0    0  0.00000000000E+00  0.00000000000E+00 -0.16087870033E+03  0.21062262976E+04  0.21000731560E+04 0.  0.
        2    1    3    3  502    0  0.32396825001E+03  0.23372888497E+02  0.92102280427E+03  0.97661902752E+03  0.25500000920E-02 0.  1.
       -2    1    3    3    0  502 -0.32396825001E+03 -0.23372888497E+02 -0.10819015046E+04  0.11296072701E+04  0.25500000920E-02 0. -1.
</event>
<event>
 5   0  0.3636435E-06  0.2094439E+04  0.7818609E-02  0.8563697E-01
        2   -1    0    0  501    0  0.00000000000E+00  0.00000000000E+00  0.12295986868E+04  0.12295986868E+04  0.25500000920E-02 0. -1.
       -2   -1    0    0    0  501  0.00000000000E+00  0.00000000000E+00 -0.89189184261E+03  0.89189184261E+03  0.25500000920E-02 0.  1.
    10030    2    1    2    0    0  0.00000000000E+00  0.00000000000E+00  0.33770684419E+03  0.21214905294E+04  0.20944393412E+04 0.  0.
        4    1    3    3  502    0  0.10136663841E+04 -0.22279422620E+03  0.31033791657E+03  0.10832672988E+04  0.12699999809E+01 0.  1.
       -4    1    3    3    0  502 -0.10136663841E+04  0.22279422620E+03  0.27368927624E+02  0.10382232306E+04  0.12699999809E+01 0. -1.
</event>
<event>
 5   0  0.3480134E-06  0.2099880E+04  0.7818609E-02  0.8561296E-01
       -2   -1    0    0    0  501  0.00000000000E+00  0.00000000000E+00  0.53240697848E+03  0.53240697849E+03  0.25500000920E-02 0. -1.
        2   -1    0    0  501    0  0.00000000000E+00  0.00000000000E+00 -0.20705473496E+04  0.20705473496E+04  0.25500000920E-02 0.  1.
    10030    2    1    2    0    0  0.00000000000E+00  0.00000000000E+00 -0.15381403711E+04  0.26029543281E+04  0.20998798615E+04 0.  0.
        1    1    3    3  502    0  0.46231014843E+03  0.90545171303E+03 -0.44393234379E+03  0.11093463859E+04  0.50400001928E-02 0.  1.
       -1    1    3    3    0  502 -0.46231014843E+03 -0.90545171303E+03 -0.10942080273E+04  0.14936079422E+04  0.50400001928E-02 0. -1.
</event>
<event>
 5   0  0.1615098E-06  0.2100537E+04  0.7818609E-02  0.8561007E-01
        1   -1    0    0  501    0  0.00000000000E+00  0.00000000000E+00  0.12009720667E+04  0.12009720667E+04  0.50400001928E-02 0.  1.
       -1   -1    0    0    0  501  0.00000000000E+00  0.00000000000E+00 -0.91847565070E+03  0.91847565072E+03  0.50400001928E-02 0. -1.
    10030    2    1    2    0    0  0.00000000000E+00  0.00000000000E+00  0.28249641601E+03  0.21194477174E+04  0.21005366938E+04 0.  0.
        1    1    3    3  502    0  0.77096275050E+03  0.79458872083E+02  0.85640735120E+03  0.11550458113E+04  0.50400001928E-02 0.  1.
       -1    1    3    3    0  502 -0.77096275050E+03 -0.79458872083E+02 -0.57391093518E+03  0.96440190614E+03  0.50400001928E-02 0. -1.
</event>
<event>
 5   0  0.1590067E-06  0.2103441E+04  0.7818609E-02  0.8559729E-01
        1   -1    0    0  501    0  0.00000000000E+00  0.00000000000E+00  0.12320091042E+04  0.12320091042E+04  0.50400001928E-02 0.  1.
       -1   -1    0    0    0  501  0.00000000000E+00  0.00000000000E+00 -0.89781454728E+03  0.89781454730E+03  0.50400001928E-02 0. -1.
    10030    2    1    2    0    0  0.00000000000E+00  0.00000000000E+00  0.33419455688E+03  0.21298236515E+04  0.21034407015E+04 0.  0.
        5    1    3    3  502    0  0.30352653097E+03 -0.95612528706E+03  0.48695453032E+03  0.11151012170E+04  0.46999998093E+01 0. -1.
       -5    1    3    3    0  502 -0.30352653097E+03  0.95612528706E+03 -0.15275997344E+03  0.10147224345E+04  0.46999998093E+01 0.  1.
</event>
<event>
 5   0  0.1579820E-06  0.2099102E+04  0.7818609E-02  0.8561639E-01
        1   -1    0    0  501    0  0.00000000000E+00  0.00000000000E+00  0.71193161385E+03  0.71193161387E+03  0.50400001928E-02 0. -1.
       -1   -1    0    0    0  501  0.00000000000E+00  0.00000000000E+00 -0.15472794006E+04  0.15472794006E+04  0.50400001928E-02 0.  1.
    10030    2    1    2    0    0  0.00000000000E+00  0.00000000000E+00 -0.83534778674E+03  0.22592110145E+04  0.20991018277E+04 0.  0.
        2    1    3    3  502    0  0.35304842208E+03  0.98544165721E+03 -0.33557538749E+03  0.10992494206E+04  0.25500000920E-02 0. -1.
       -2    1    3    3    0  502 -0.35304842208E+03 -0.98544165721E+03 -0.49977239925E+03  0.11599615938E+04  0.25500000920E-02 0.  1.
</event>
<event>
 5   0  0.1590067E-06  0.2099673E+04  0.7818609E-02  0.8561387E-01
       -1   -1    0    0    0  501  0.00000000000E+00  0.00000000000E+00  0.48304135855E+03  0.48304135858E+03  0.50400001928E-02 0.  1.
        1   -1    0    0  501    0  0.00000000000E+00  0.00000000000E+00 -0.22817029868E+04  0.22817029868E+04  0.50400001928E-02 0. -1.
    10030    2    1    2    0    0  0.00000000000E+00  0.00000000000E+00 -0.17986616283E+04  0.27647443454E+04  0.20996732228E+04 0.  0.
        5    1    3    3  502    0 -0.32630474419E+03 -0.87183531238E+03 -0.26024818624E+03  0.96660374840E+03  0.46999998093E+01 0.  1.
       -5    1    3    3    0  502  0.32630474419E+03  0.87183531238E+03 -0.15384134420E+04  0.17981405970E+04  0.46999998093E+01 0. -1.
</event>
<event>
 5   0  0.3480134E-06  0.2098423E+04  0.7818609E-02  0.8561938E-01
       -2   -1    0    0    0  501  0.00000000000E+00  0.00000000000E+00  0.10057876560E+04  0.10057876560E+04  0.25500000920E-02 0.  1.
        2   -1    0    0  501    0  0.00000000000E+00  0.00000000000E+00 -0.10945100933E+04  0.10945100933E+04  0.25500000920E-02 0. -1.
    10030    2    1    2    0    0  0.00000000000E+00  0.00000000000E+00 -0.88722437240E+02  0.21002977493E+04  0.20984229709E+04 0.  0.
        1    1    3    3  502    0  0.32240731528E+03 -0.41694862106E+03  0.86367150944E+03  0.10117910386E+04  0.50400001928E-02 0.  1.
       -1    1    3    3    0  502 -0.32240731528E+03  0.41694862106E+03 -0.95239394668E+03  0.10885067107E+04  0.50400001928E-02 0. -1.
</event>
<event>
 5   0  0.3636435E-06  0.2099857E+04  0.7818609E-02  0.8561306E-01
       -2   -1    0    0    0  501  0.00000000000E+00  0.00000000000E+00  0.14967092715E+04  0.14967092715E+04  0.25500000920E-02 0.  1.
        2   -1    0    0  501    0  0.00000000000E+00  0.00000000000E+00 -0.73651561148E+03  0.73651561148E+03  0.25500000920E-02 0. -1.
    10030    2    1    2    0    0  0.00000000000E+00  0.00000000000E+00  0.76019366003E+03  0.22332248830E+04  0.20998568945E+04 0.  0.
        4    1    3    3  502    0  0.98887394507E+03 -0.28972353796E+03  0.59422168518E+03  0.11895009171E+04  0.12699999809E+01 0.  1.
       -4    1    3    3    0  502 -0.98887394507E+03  0.28972353796E+03  0.16597197485E+03  0.10437239659E+04  0.12699999809E+01 0. -1.
</event>
<event>
 5   0  0.1646510E-06  0.2101353E+04  0.7818609E-02  0.8560647E-01
        1   -1    0    0  501    0  0.00000000000E+00  0.00000000000E+00  0.14774897886E+04  0.14774897887E+04  0.50400001928E-02 0. -1.
       -1   -1    0    0    0  501  0.00000000000E+00  0.00000000000E+00 -0.74716007104E+03  0.74716007106E+03  0.50400001928E-02 0.  1.
    10030    2    1    2    0    0  0.00000000000E+00  0.00000000000E+00  0.73032971761E+03  0.22246498597E+04  0.21013532549E+04 0.  0.
        4    1    3    3  502    0 -0.71324925914E+03  0.77087012215E+03  0.39787280109E+03  0.11230626116E+04  0.12699999809E+01 0. -1.
       -4    1    3    3    0  502  0.71324925914E+03 -0.77087012215E+03  0.33245691652E+03  0.11015872481E+04  0.12699999809E+01 0.  1.
</event>
<event>
 5   0  0.1579820E-06  0.2100840E+04  0.7818609E-02  0.8560873E-01
        1   -1    0    0  501    0  0.00000000000E+00  0.00000000000E+00  0.97443749476E+03  0.97443749477E+03  0.50400001928E-02 0.  1.
       -1   -1    0    0    0  501  0.00000000000E+00  0.00000000000E+00 -0.11323277521E+04  0.11323277521E+04  0.50400001928E-02 0. -1.
    10030    2    1    2    0    0  0.00000000000E+00  0.00000000000E+00 -0.15789025733E+03  0.21067652469E+04  0.21008404204E+04 0.  0.
        2    1    3    3  502    0 -0.64504667699E+03  0.36880335363E+03  0.66563216128E+03  0.99758072520E+03  0.25500000920E-02 0.  1.
       -2    1    3    3    0  502  0.64504667699E+03 -0.36880335363E+03 -0.82352241862E+03  0.11091845217E+04  0.25500000920E-02 0. -1.
</event>
<event>
 5   0  0.1579820E-06  0.2099330E+04  0.7818609E-02  0.8561538E-01
       -1   -1    0    0    0  501  0.00000000000E+00  0.00000000000E+00  0.12459397156E+04  0.12459397156E+04  0.50400001928E-02 0. -1.
        1   -1    0    0  501    0  0.00000000000E+00  0.00000000000E+00 -0.88431013438E+03  0.88431013439E+03  0.50400001928E-02 0.  1.
    10030    2    1    2    0    0  0.00000000000E+00  0.00000000000E+00  0.36162958123E+03  0.21302498500E+04  0.20993304812E+04 0.  0.
        2    1    3    3  502    0  0.10012060938E+04  0.85556674223E+01  0.50059149736E+03  0.11194099736E+04  0.25500000920E-02 0. -1.
       -2    1    3    3    0  502 -0.10012060938E+04 -0.85556674223E+01 -0.13896191613E+03  0.10108398764E+04  0.25500000920E-02 0.  1.
</event>
<event>
 5   0  0.3547583E-06  0.2100111E+04  0.7818609E-02  0.8561195E-01
       -2   -1    0    0    0  501  0.00000000000E+00  0.00000000000E+00  0.66636964436E+03  0.66636964437E+03  0.25500000920E-02 0. -1.
        2   -1    0    0  501    0  0.00000000000E+00  0.00000000000E+00 -0.16546615254E+04  0.16546615254E+04  0.25500000920E-02 0.  1.
    10030    2    1    2    0    0  0.00000000000E+00  0.00000000000E+00 -0.98829188107E+03  0.23210311698E+04  0.21001106754E+04 0.  0.
        2    1    3    3  502    0 -0.26554210158E+03 -0.60788466802E+03  0.40547156426E+03  0.77745968819E+03  0.25500000920E-02 0. -1.
       -2    1    3    3    0  502  0.26554210158E+03  0.60788466802E+03 -0.13937634453E+04  0.15435714816E+04  0.25500000920E-02 0.  1.
</event>
<event>
 5   0  0.1615098E-06  0.2100383E+04  0.7818609E-02  0.8561075E-01
       -1   -1    0    0    0  501  0.00000000000E+00  0.00000000000E+00  0.77100011495E+03  0.77100011497E+03  0.50400001928E-02 0.  1.
        1   -1    0    0  501    0  0.00000000000E+00  0.00000000000E+00 -0.14304818990E+04  0.14304818990E+04  0.50400001928E-02 0. -1.
    10030    2    1    2    0    0  0.00000000000E+00  0.00000000000E+00 -0.65948178405E+03  0.22014820140E+04  0.21003825448E+04 0.  0.
        1    1    3    3  502    0  0.62569438415E+03  0.35185941310E+01 -0.12137818972E+04  0.13655666724E+04  0.50400001928E-02 0. -1.
       -1    1    3    3    0  502 -0.62569438415E+03 -0.35185941310E+01  0.55430011312E+03  0.83591534158E+03  0.50400001928E-02 0.  1.
</event>
<event>
 5   0  0.1646510E-06  0.2099440E+04  0.7818609E-02  0.8561490E-01
        1   -1    0    0  501    0  0.00000000000E+00  0.00000000000E+00  0.10411461684E+04  0.10411461684E+04  0.50400001928E-02 0.  1.
       -1   -1    0    0    0  501  0.00000000000E+00  0.00000000000E+00 -0.10583645364E+04  0.10583645364E+04  0.50400001928E-02 0. -1.
    10030    2    1    2    0    0  0.00000000000E+00  0.00000000000E+00 -0.17218367950E+02  0.20995107048E+04  0.20994400986E+04 0.  0.
        4    1    3    3  502    0  0.11659849156E+02 -0.55560406325E+03  0.88197045129E+03  0.10424515898E+04  0.12699999809E+01 0.  1.
       -4    1    3    3    0  502 -0.11659849156E+02  0.55560406325E+03 -0.89918881924E+03  0.10570591151E+04  0.12699999809E+01 0. -1.
</event>
<event>
 5   0  0.1653260E-06  0.2099720E+04  0.7818609E-02  0.8561367E-01
       -1   -1    0    0    0  501  0.00000000000E+00  0.00000000000E+00  0.45448000339E+03  0.45448000342E+03  0.50400001928E-02 0.  1.
        1   -1    0    0  501    0  0.00000000000E+00  0.00000000000E+00 -0.24252026330E+04  0.24252026330E+04  0.50400001928E-02 0. -1.
    10030    2    1    2    0    0  0.00000000000E+00  0.00000000000E+00 -0.19707226296E+04  0.28796826364E+04  0.20997200774E+04 0.  0.
        3    1    3    3  502    0  0.50322608486E+03 -0.88956885286E+03 -0.13146170598E+04  0.16651688385E+04  0.10100000352E+00 0. -1.
       -3    1    3    3    0  502 -0.50322608486E+03  0.88956885286E+03 -0.65610556978E+03  0.12145137979E+04  0.10100000352E+00 0.  1.
</event>
<event>
 5   0  0.1646510E-06  0.2099911E+04  0.7818609E-02  0.8561283E-01
       -1   -1    0    0    0  501  0.00000000000E+00  0.00000000000E+00  0.14497449068E+04  0.14497449068E+04  0.50400001928E-02 0. -1.
        1   -1    0    0  501    0  0.00000000000E+00  0.00000000000E+00 -0.76041422685E+03  0.76041422687E+03  0.50400001928E-02 0.  1.
    10030    2    1    2    0    0  0.00000000000E+00  0.00000000000E+00  0.68933067991E+03  0.22101591336E+04  0.20999110957E+04 0.  0.
        4    1    3    3  502    0  0.47981064519E+03  0.50202374181E+03 -0.48418122688E+03  0.84656905563E+03  0.12699999809E+01 0.  1.
       -4    1    3    3    0  502 -0.47981064519E+03 -0.50202374181E+03  0.11735119068E+04  0.13635900780E+04  0.12699999809E+01 0. -1.
</event>
<event>
 5   0  0.3636435E-06  0.2102660E+04  0.7818609E-02  0.8560073E-01
        2   -1    0    0  501    0  0.00000000000E+00  0.00000000000E+00  0.19123609975E+04  0.19123609975E+04  0.25500000920E-02 0.  1.
       -2   -1    0    0    0  501  0.00000000000E+00  0.00000000000E+00 -0.57797369810E+03  0.57797369811E+03  0.25500000920E-02 0. -1.
    10030    2    1    2    0    0  0.00000000000E+00  0.00000000000E+00  0.13343872994E+04  0.24903346957E+04  0.21026596090E+04 0.  0.
        4    1    3    3  502    0 -0.46431060456E+03 -0.68241868662E+03  0.14384138682E+04  0.16584075707E+04  0.12699999809E+01 0.  1.
       -4    1    3    3    0  502  0.46431060456E+03  0.68241868662E+03 -0.10402656877E+03  0.83192712497E+03  0.12699999809E+01 0. -1.
</event>
<event>
 5   0  0.3547583E-06  0.2098847E+04  0.7818609E-02  0.8561751E-01
        2   -1    0    0  501    0  0.00000000000E+00  0.00000000000E+00  0.21366487739E+04  0.21366487739E+04  0.25500000920E-02 0.  1.
       -2   -1    0    0    0  501  0.00000000000E+00  0.00000000000E+00 -0.51542849556E+03  0.51542849557E+03  0.25500000920E-02 0. -1.
    10030    2    1    2    0    0  0.00000000000E+00  0.00000000000E+00  0.16212202784E+04  0.26520772695E+04  0.20988469816E+04 0.  0.
        2    1    3    3  502    0  0.10323431239E+04 -0.18535699224E+03  0.76683593303E+03  0.12992793727E+04  0.25500000920E-02 0. -1.
       -2    1    3    3    0  502 -0.10323431239E+04  0.18535699224E+03  0.85438434534E+03  0.13527978968E+04  0.25500000920E-02 0.  1.
</event>
<event>
 5   0  0.3705828E-06  0.2100023E+04  0.7818609E-02  0.8561233E-01
        2   -1    0    0  501    0  0.00000000000E+00  0.00000000000E+00  0.10816244527E+04  0.10816244527E+04  0.25500000920E-02 0. -1.
       -2   -1    0    0    0  501  0.00000000000E+00  0.00000000000E+00 -0.10193224916E+04  0.10193224916E+04  0.25500000920E-02 0.  1.
    10030    2    1    2    0    0  0.00000000000E+00  0.00000000000E+00  0.62301961067E+02  0.21009469442E+04  0.21000229828E+04 0.  0.
        5    1    3    3  502    0 -0.56528838688E+03  0.16052289642E+03  0.90169673717E+03  0.10762888350E+04  0.46999998093E+01 0. -1.
       -5    1    3    3    0  502  0.56528838688E+03 -0.16052289642E+03 -0.83939477610E+03  0.10246581092E+04  0.46999998093E+01 0.  1.
</event>
<event>
 5   0  0.3574927E-06  0.2100132E+04  0.7818609E-02  0.8561185E-01
        2   -1    0    0  501    0  0.00000000000E+00  0.00000000000E+00  0.16142583802E+04  0.16142583802E+04  0.25500000920E-02 0.  1.
       -2   -1    0    0    0  501  0.00000000000E+00  0.00000000000E+00 -0.68306228011E+03  0.68306228012E+03  0.25500000920E-02 0. -1.
    10030    2    1    2    0    0  0.00000000000E+00  0.00000000000E+00  0.93119610011E+03  0.22973206603E+04  0.21001323862E+04 0.  0.
        3    1    3    3  502    0  0.19962654347E+03  0.50398876989E+02  0.15919619352E+04  0.16052207378E+04  0.10100000352E+00 0.  1.
       -3    1    3    3    0  502 -0.19962654347E+03 -0.50398876989E+02 -0.66076583514E+03  0.69209992252E+03  0.10100000352E+00 0. -1.
</event>
<event>
 5   0  0.3480134E-06  0.2103295E+04  0.7818609E-02  0.8559793E-01
        2   -1    0    0  501    0  0.00000000000E+00  0.00000000000E+00  0.19969996533E+04  0.19969996533E+04  0.25500000920E-02 0.  1.
       -2   -1    0    0    0  501  0.00000000000E+00  0.00000000000E+00 -0.55381201580E+03  0.55381201580E+03  0.25500000920E-02 0. -1.
    10030    2    1    2    0    0  0.00000000000E+00  0.00000000000E+00  0.14431876375E+04  0.25508116691E+04  0.21032949423E+04 0.  0.
        1    1    3    3  502    0  0.39078807019E+03  0.72661348984E+03 -0.69295405623E+02  0.82793981224E+03  0.50400001928E-02 0. -1.
       -1    1    3    3    0  502 -0.39078807019E+03 -0.72661348984E+03  0.15124830431E+04  0.17228718568E+04  0.50400001928E-02 0.  1.
</event>
<event>
 5   0  0.1653260E-06  0.2100475E+04  0.7818609E-02  0.8561034E-01
        1   -1    0    0  501    0  0.00000000000E+00  0.00000000000E+00  0.13750820009E+04  0.13750820009E+04  0.50400001928E-02 0. -1.
       -1   -1    0    0    0  501  0.00000000000E+00  0.00000000000E+00 -0.80213297834E+03  0.80213297835E+03  0.50400001928E-02 0.  1.
    10030    2    1    2    0    0  0.00000000000E+00  0.00000000000E+00  0.57294902259E+03  0.21772149793E+04  0.21004748234E+04 0.  0.
        3    1    3    3  502    0 -0.38193861565E+02  0.99873823313E+03 -0.47897148606E+02  0.10006152989E+04  0.10100000352E+00 0.  1.
       -3    1    3    3    0  502  0.38193861565E+02 -0.99873823313E+03  0.62084617119E+03  0.11765996804E+04  0.10100000352E+00 0. -1.
</event>
<event>
 5   0  0.1653260E-06  0.2099714E+04  0.7818609E-02  0.8561370E-01
        1   -1    0    0  501    0  0.00000000000E+00  0.00000000000E+00  0.12616196265E+04  0.12616196265E+04  0.50400001928E-02 0. -1.
       -1   -1    0    0    0  501  0.00000000000E+00  0.00000000000E+00 -0.87363829611E+03  0.87363829613E+03  0.50400001928E-02 0.  1.
    10030    2    1    2    0    0  0.00000000000E+00  0.00000000000E+00  0.38798133038E+03  0.21352579226E+04  0.20997135241E+04 0.  0.
        3    1    3    3  502    0 -0.54963598595E+03 -0.18061027080E+03  0.10848798091E+04  0.12295055907E+04  0.10100000352E+00 0. -1.
       -3    1    3    3    0  502  0.54963598595E+03  0.18061027080E+03 -0.69689847876E+03  0.90575233197E+03  0.10100000352E+00 0.  1.
</event>
<event>
 5   0  0.3705828E-06  0.2100578E+04  0.7818609E-02  0.8560989E-01
        2   -1    0    0  501    0  0.00000000000E+00  0.00000000000E+00  0.15976074881E+04  0.15976074881E+04  0.25500000920E-02 0.  1.
       -2   -1    0    0    0  501  0.00000000000E+00  0.00000000000E+00 -0.69047457267E+03  0.69047457268E+03  0.25500000920E-02 0. -1.
    10030    2    1    2    0    0  0.00000000000E+00  0.00000000000E+00  0.90713291546E+03  0.22880820608E+04  0.21005783467E+04 0.  0.
        5    1    3    3  502    0 -0.62536605341E+03  0.77216917323E+03  0.82965145620E+02  0.99711245014E+03  0.46999998093E+01 0. -1.
       -5    1    3    3    0  502  0.62536605341E+03 -0.77216917323E+03  0.82416776984E+03  0.12909696107E+04  0.46999998093E+01 0.  1.
</event>
<event>
 5   0  0.1646510E-06  0.2100683E+04  0.7818609E-02  0.8560943E-01
       -1   -1    0    0    0  501  0.00000000000E+00  0.00000000000E+00  0.70304600419E+03  0.70304600421E+03  0.50400001928E-02 0. -1.
        1   -1    0    0  501    0  0.00000000000E+00  0.00000000000E+00 -0.15691957871E+04  0.15691957871E+04  0.50400001928E-02 0.  1.
    10030    2    1    2    0    0  0.00000000000E+00  0.00000000000E+00 -0.86614978287E+03  0.22722417913E+04  0.21006825823E+04 0.  0.
        4    1    3    3  502    0  0.54977973864E+03 -0.32711086802E+03 -0.13341480552E+04  0.14795985696E+04  0.12699999809E+01 0.  1.
       -4    1    3    3    0  502 -0.54977973864E+03  0.32711086802E+03  0.46799827238E+03  0.79264322166E+03  0.12699999809E+01 0. -1.
</event>
<event>
 5   0  0.3480134E-06  0.2100681E+04  0.7818609E-02  0.8560944E-01
        2   -1    0    0  501    0  0.00000000000E+00  0.00000000000E+00  0.26491868521E+04  0.26491868521E+04  0.25500000920E-02 0. -1.
       -2   -1    0    0    0  501  0.00000000000E+00  0.00000000000E+00 -0.41643526643E+03  0.41643526644E+03  0.25500000920E-02 0.  1.
    10030    2    1    2    0    0  0.00000000000E+00  0.00000000000E+00  0.22327515856E+04  0.30656221185E+04  0.21006806826E+04 0.  0.
        1    1    3    3  502    0  0.51164485543E+03 -0.85936078809E+03  0.64817002441E+03  0.11918077877E+04  0.50400001928E-02 0.  1.
       -1    1    3    3    0  502 -0.51164485543E+03  0.85936078809E+03  0.15845815612E+04  0.18738143308E+04  0.50400001928E-02 0. -1.
</event>
<event>
 5   0  0.3574927E-06  0.2099430E+04  0.7818609E-02  0.8561494E-01
        2   -1    0    0  501    0  0.00000000000E+00  0.00000000000E+00  0.15317996443E+04  0.15317996443E+04  0.25500000920E-02 0.  1.
       -2   -1    0    0    0  501  0.00000000000E+00  0.00000000000E+00 -0.71935102392E+03  0.71935102392E+03  0.25500000920E-02 0. -1.
    10030    2    1    2    0    0  0.00000000000E+00  0.00000000000E+00  0.81244862036E+03  0.22511506682E+04  0.20994300584E+04 0.  0.
        3    1    3    3  502    0 -0.19269141481E+03 -0.11315769141E+03  0.15060002337E+04  0.15224885414E+04  0.10100000352E+00 0.  1.
       -3    1    3    3    0  502  0.19269141481E+03  0.11315769141E+03 -0.69355161336E+03  0.72866212682E+03  0.10100000352E+00 0. -1.
</event>
<event>
 5   0  0.1653260E-06  0.2100203E+04  0.7818609E-02  0.8561154E-01
        1   -1    0    0  501    0  0.00000000000E+00  0.00000000000E+00  0.14400679536E+04  0.14400679536E+04  0.50400001928E-02 0.  1.
       -1   -1    0    0    0  501  0.00000000000E+00  0.00000000000E+00 -0.76573662441E+03  0.76573662443E+03  0.50400001928E-02 0. -1.
    10030    2    1    2    0    0  0.00000000000E+00  0.00000000000E+00  0.67433132920E+03  0.22058045780E+04  0.21002026319E+04 0.  0.
        3    1    3    3  502    0 -0.88774774508E+03 -0.16599708774E+02 -0.25168674588E+03  0.92288560368E+03  0.10100000352E+00 0. -1.
       -3    1    3    3    0  502  0.88774774508E+03  0.16599708774E+02  0.92601807508E+03  0.12829189744E+04  0.10100000352E+00 0.  1.
</event>
<event>
 5   0  0.3574927E-06  0.2105101E+04  0.7818609E-02  0.8559000E-01
        2   -1    0    0  501    0  0.00000000000E+00  0.00000000000E+00  0.13458657763E+04  0.13458657763E+04  0.25500000920E-02 0. -1.
       -2   -1    0    0    0  501  0.00000000000E+00  0.00000000000E+00 -0.82315956595E+03  0.82315956595E+03  0.25500000920E-02 0.  1.
    10030    2    1    2    0    0  0.00000000000E+00  0.00000000000E+00  0.52270621038E+03  0.21690253423E+04  0.21051007465E+04 0.  0.
        3    1    3    3  502    0  0.28725438342E+03  0.18452534950E+03 -0.76452028920E+03  0.83729085042E+03  0.10100000352E+00 0.  1.
       -3    1    3    3    0  502 -0.28725438342E+03 -0.18452534950E+03  0.12872264996E+04  0.13317344919E+04  0.10100000352E+00 0. -1.
</event>
<event>
 5   0  0.3480134E-06  0.2100638E+04  0.7818609E-02  0.8560962E-01
        2   -1    0    0  501    0  0.00000000000E+00  0.00000000000E+00  0.69281799946E+03  0.69281799947E+03  0.25500000920E-02 0.  1.
       -2   -1    0    0    0  501  0.00000000000E+00  0.00000000000E+00 -0.15922947033E+04  0.15922947033E+04  0.25500000920E-02 0. -1.
    10030    2    1    2    0    0  0.00000000000E+00  0.00000000000E+00 -0.89947670386E+03  0.22851127028E+04  0.21006384086E+04 0.  0.
        1    1    3    3  502    0  0.40164645236E+03  0.95162901360E+03 -0.24261599838E+03  0.10610278860E+04  0.50400001928E-02 0.  1.
       -1    1    3    3    0  502 -0.40164645236E+03 -0.95162901360E+03 -0.65686070548E+03  0.12240848168E+04  0.50400001928E-02 0. -1.
</event>
<event>
 5   0  0.1579820E-06  0.2100536E+04  0.7818609E-02  0.8561007E-01
       -1   -1    0    0    0  501  0.00000000000E+00  0.00000000000E+00  0.85878029505E+03  0.85878029507E+03  0.50400001928E-02 0. -1.
        1   -1    0    0  501    0  0.00000000000E+00  0.00000000000E+00 -0.12844533048E+04  0.12844533048E+04  0.50400001928E-02 0.  1.
    10030    2    1    2    0    0  0.00000000000E+00  0.00000000000E+00 -0.42567300970E+03  0.21432335998E+04  0.21005363011E+04 0.  0.
        2    1    3    3  502    0 -0.22023585757E+03  0.10170916704E+03  0.82980305396E+03  0.86453553772E+03  0.25500000920E-02 0. -1.
       -2    1    3    3    0  502  0.22023585757E+03 -0.10170916704E+03 -0.12554760637E+04  0.12786980621E+04  0.25500000920E-02 0.  1.
</event>
<event>
 5   0  0.3636435E-06  0.2099974E+04  0.7818609E-02  0.8561255E-01
       -2   -1    0    0    0  501  0.00000000000E+00  0.00000000000E+00  0.10760980510E+04  0.10760980510E+04  0.25500000920E-02 0. -1.
        2   -1    0    0  501    0  0.00000000000E+00  0.00000000000E+00 -0.10245092379E+04  0.10245092379E+04  0.25500000920E-02 0.  1.
    10030    2    1    2    0    0  0.00000000000E+00  0.00000000000E+00  0.51588813054E+02  0.21006072889E+04  0.20999737085E+04 0.  0.
        4    1    3    3  502    0  0.99960603052E+03  0.22832039386E+03  0.25197844467E+03  0.10558584981E+04  0.12699999809E+01 0. -1.
       -4    1    3    3    0  502 -0.99960603052E+03 -0.22832039386E+03 -0.20038963162E+03  0.10447487908E+04  0.12699999809E+01 0.  1.
</event>
<event>
 5   0  0.3547583E-06  0.2100037E+04  0.7818609E-02  0.8561227E-01
        2   -1    0    0  501    0  0.00000000000E+00  0.00000000000E+00  0.70106399748E+03  0.70106399749E+03  0.25500000920E-02 0. -1.
       -2   -1    0    0    0  501  0.00000000000E+00  0.00000000000E+00 -0.15726644443E+04  0.15726644443E+04  0.25500000920E-02 0.  1.
    10030    2    1    2    0    0  0.00000000000E+00  0.00000000000E+00 -0.87160044682E+03  0.22737284418E+04  0.21000365921E+04 0.  0.
        2    1    3    3  502    0 -0.26348349539E+03  0.14731154982E+03  0.65307032342E+03  0.71946166846E+03  0.25500000920E-02 0. -1.
       -2    1    3    3    0  502  0.26348349539E+03 -0.14731154982E+03 -0.15246707702E+04  0.15542667733E+04  0.25500000920E-02 0.  1.
</event>
<event>
 5   0  0.1653260E-06  0.2095522E+04  0.7818609E-02  0.8563218E-01
        1   -1    0    0  501    0  0.00000000000E+00  0.00000000000E+00  0.17769730806E+04  0.17769730806E+04  0.50400001928E-02 0.  1.
       -1   -1    0    0    0  501  0.00000000000E+00  0.00000000000E+00 -0.61779404053E+03  0.61779404055E+03  0.50400001928E-02 0. -1.
    10030    2    1    2    0    0  0.00000000000E+00  0.00000000000E+00  0.11591790401E+04  0.23947671212E+04  0.20955222541E+04 0.  0.
        3    1    3    3  502    0 -0.75260115229E+03  0.39729998651E+03  0.12780534483E+04  0.15354726961E+04  0.10100000352E+00 0.  1.
       -3    1    3    3    0  502  0.75260115229E+03 -0.39729998651E+03 -0.11887440822E+03  0.85929442501E+03  0.10100000352E+00 0. -1.
</event>
<event>
 5   0  0.1646510E-06  0.2100532E+04  0.7818609E-02  0.8561009E-01
       -1   -1    0    0    0  501  0.00000000000E+00  0.00000000000E+00  0.76334608816E+03  0.76334608818E+03  0.50400001928E-02 0.  1.
        1   -1    0    0  501    0  0.00000000000E+00  0.00000000000E+00 -0.14450303185E+04  0.14450303185E+04  0.50400001928E-02 0. -1.
    10030    2    1    2    0    0  0.00000000000E+00  0.00000000000E+00 -0.68168423035E+03  0.22083764067E+04  0.21005315907E+04 0.  0.
        4    1    3    3  502    0  0.48151191154E+03  0.79495607001E+03  0.17340020647E+03  0.94545127780E+03  0.12699999809E+01 0. -1.
       -4    1    3    3    0  502 -0.48151191154E+03 -0.79495607001E+03 -0.85508443682E+03  0.12629251289E+04  0.12699999809E+01 0.  1.
</event>
<event>
 5   0  0.1590067E-06  0.2111339E+04  0.7818609E-02  0.8556265E-01
        1   -1    0    0  501    0  0.00000000000E+00  0.00000000000E+00  0.10233084674E+04  0.10233084674E+04  0.50400001928E-02 0. -1.
       -1   -1    0    0    0  501  0.00000000000E+00  0.00000000000E+00 -0.10890539499E+04  0.10890539499E+04  0.50400001928E-02 0.  1.
    10030    2    1    2    0    0  0.00000000000E+00  0.00000000000E+00 -0.65745482492E+02  0.21123624173E+04  0.21113390334E+04 0.  0.
        5    1    3    3  502    0  0.33126466519E+02 -0.62496634636E+03  0.81767798840E+03  0.10297085411E+04  0.46999998093E+01 0. -1.
       -5    1    3    3    0  502 -0.33126466519E+02  0.62496634636E+03 -0.88342347089E+03  0.10826538763E+04  0.46999998093E+01 0.  1.
</event>
<event>
 5   0  0.1646510E-06  0.2099544E+04  0.7818609E-02  0.8561444E-01
        1   -1    0    0  501    0  0.00000000000E+00  0.00000000000E+00  0.10803970457E+04  0.10803970457E+04  0.50400001928E-02 0. -1.
       -1   -1    0    0    0  501  0.00000000000E+00  0.00000000000E+00 -0.10200151348E+04  0.10200151348E+04  0.50400001928E-02 0.  1.
    10030    2    1    2    0    0  0.00000000000E+00  0.00000000000E+00  0.60381910908E+02  0.21004121806E+04  0.20995440822E+04 0.  0.
        4    1    3    3  502    0  0.33542736535E+03  0.48178051031E+02 -0.96379274486E+03  0.10216313963E+04  0.12699999809E+01 0.  1.
       -4    1    3    3    0  502 -0.33542736535E+03 -0.48178051031E+02  0.10241746558E+04  0.10787807842E+04  0.12699999809E+01 0. -1.
</event>
<event>
 5   0  0.1615098E-06  0.2100186E+04  0.7818609E-02  0.8561161E-01
        1   -1    0    0  501    0  0.00000000000E+00  0.00000000000E+00  0.10186664297E+04  0.10186664297E+04  0.50400001928E-02 0. -1.
       -1   -1    0    0    0  501  0.00000000000E+00  0.00000000000E+00 -0.10824893335E+04  0.10824893335E+04  0.50400001928E-02 0.  1.
    10030    2    1    2    0    0  0.00000000000E+00  0.00000000000E+00 -0.63822903763E+02  0.21011557632E+04  0.21001862247E+04 0.  0.
        1    1    3    3  502    0 -0.67388883383E+03  0.12018351796E+03  0.76477601615E+03  0.10263783870E+04  0.50400001928E-02 0. -1.
       -1    1    3    3    0  502  0.67388883383E+03 -0.12018351796E+03 -0.82859891992E+03  0.10747773762E+04  0.50400001928E-02 0.  1.
</event>
<event>
 5   0  0.3705828E-06  0.2099772E+04  0.7818609E-02  0.8561344E-01
       -2   -1    0    0    0  501  0.00000000000E+00  0.00000000000E+00  0.47381753706E+03  0.47381753707E+03  0.25500000920E-02 0. -1.
        2   -1    0    0  501    0  0.00000000000E+00  0.00000000000E+00 -0.23263407594E+04  0.23263407594E+04  0.25500000920E-02 0.  1.
    10030    2    1    2    0    0  0.00000000000E+00  0.00000000000E+00 -0.18525232223E+04  0.28001582964E+04  0.20997724153E+04 0.  0.
        5    1    3    3  502    0 -0.56667862437E+03 -0.97439526475E+02  0.24515680782E+03  0.62509445291E+03  0.46999998093E+01 0. -1.
       -5    1    3    3    0  502  0.56667862437E+03  0.97439526475E+02 -0.20976800301E+04  0.21750638435E+04  0.46999998093E+01 0.  1.
</event>
<event>
 5   0  0.1646510E-06  0.2099738E+04  0.7818609E-02  0.8561359E-01
        1   -1    0    0  501    0  0.00000000000E+00  0.00000000000E+00  0.29613392060E+04  0.29613392060E+04  0.50400001928E-02 0. -1.
       -1   -1    0    0    0  501  0.00000000000E+00  0.00000000000E+00 -0.37220480474E+03  0.37220480477E+03  0.50400001928E-02 0.  1.
    10030    2    1    2    0    0  0.00000000000E+00  0.00000000000E+00  0.25891344012E+04  0.33335440108E+04  0.20997377750E+04 0.  0.
        4    1    3    3  502    0  0.93952225806E+03 -0.56514806744E+02  0.55615890487E+03  0.10932567572E+04  0.12699999809E+01 0.  1.
       -4    1    3    3    0  502 -0.93952225806E+03  0.56514806744E+02  0.20329754964E+04  0.22402872536E+04  0.12699999809E+01 0. -1.
</event>
<event>
 5   0  0.1257125E-06  0.2099617E+04  0.7818609E-02  0.8561412E-01
       -4   -1    0    0    0  501  0.00000000000E+00  0.00000000000E+00  0.10106910841E+04  0.10106918820E+04  0.12699999809E+01 0.  1.
        4   -1    0    0  501    0  0.00000000000E+00  0.00000000000E+00 -0.10904378033E+04  0.10904385428E+04  0.12699999809E+01 0. -1.
    10030    2    1    2    0    0  0.00000000000E+00  0.00000000000E+00 -0.79746719177E+02  0.21011304248E+04  0.20996165181E+04 0.  0.
        5    1    3    3  502    0 -0.38443003563E+03  0.42147983717E+03  0.84203591620E+03  0.10170930536E+04  0.46999998093E+01 0.  1.
       -5    1    3    3    0  502  0.38443003563E+03 -0.42147983717E+03 -0.92178263538E+03  0.10840373713E+04  0.46999998093E+01 0. -1.
</event>
<event>
 5   0  0.3574927E-06  0.2101594E+04  0.7818609E-02  0.8560542E-01
        2   -1    0    0  501    0  0.00000000000E+00  0.00000000000E+00  0.90796968640E+03  0.90796968641E+03  0.25500000920E-02 0. -1.
       -2   -1    0    0    0  501  0.00000000000E+00  0.00000000000E+00 -0.12160914503E+04  0.12160914503E+04  0.25500000920E-02 0.  1.
    10030    2    1    2    0    0  0.00000000000E+00  0.00000000000E+00 -0.30812176385E+03  0.21240611367E+04  0.21015938454E+04 0.  0.
        3    1    3    3  502    0 -0.43856512990E+03 -0.13922964890E+03 -0.11088559041E+04  0.12005355865E+04  0.10100000352E+00 0.  1.
       -3    1    3    3    0  502  0.43856512990E+03  0.13922964890E+03  0.80073414021E+03  0.92352555016E+03  0.10100000352E+00 0. -1.
</event>
<event>
 5   0  0.3574927E-06  0.2099324E+04  0.7818609E-02  0.8561541E-01
        2   -1    0    0  501    0  0.00000000000E+00  0.00000000000E+00  0.73944038425E+03  0.73944038425E+03  0.25500000920E-02 0. -1.
       -2   -1    0    0    0  501  0.00000000000E+00  0.00000000000E+00 -0.14900325814E+04  0.14900325814E+04  0.25500000920E-02 0.  1.
    10030    2    1    2    0    0  0.00000000000E+00  0.00000000000E+00 -0.75059219719E+03  0.22294729657E+04  0.20993239527E+04 0.  0.
        3    1    3    3  502    0 -0.23459828291E+03 -0.11561564284E+03  0.70428240983E+03  0.75127694907E+03  0.10100000352E+00 0. -1.
       -3    1    3    3    0  502  0.23459828291E+03  0.11561564284E+03 -0.14548746070E+04  0.14781960166E+04  0.10100000352E+00 0.  1.
</event>
<event>
 5   0  0.1590067E-06  0.2099710E+04  0.7818609E-02  0.8561371E-01
       -1   -1    0    0    0  501  0.00000000000E+00  0.00000000000E+00  0.62455163919E+03  0.62455163921E+03  0.50400001928E-02 0. -1.
        1   -1    0    0  501    0  0.00000000000E+00  0.00000000000E+00 -0.17647784493E+04  0.17647784493E+04  0.50400001928E-02 0.  1.
    10030    2    1    2    0    0  0.00000000000E+00  0.00000000000E+00 -0.11402268101E+04  0.23893300885E+04  0.20997097641E+04 0.  0.
        5    1    3    3  502    0 -0.73455897738E+03  0.54425573567E+03 -0.11574259951E+04  0.14749400738E+04  0.46999998093E+01 0. -1.
       -5    1    3    3    0  502  0.73455897738E+03 -0.54425573567E+03  0.17199185017E+02  0.91439001472E+03  0.46999998093E+01 0.  1.
</event>
<event>
 5   0  0.3705828E-06  0.2100067E+04  0.7818609E-02  0.8561214E-01
       -2   -1    0    0    0  501  0.00000000000E+00  0.00000000000E+00  0.10616639682E+04  0.10616639682E+04  0.25500000920E-02 0.  1.
        2   -1    0    0  501    0  0.00000000000E+00  0.00000000000E+00 -0.10385301148E+04  0.10385301148E+04  0.25500000920E-02 0. -1.
    10030    2    1    2    0    0  0.00000000000E+00  0.00000000000E+00  0.23133853391E+02  0.21001940830E+04  0.21000666682E+04 0.  0.
        5    1    3    3  502    0 -0.53874417262E+03 -0.18903075272E+03  0.89285248676E+03  0.10598044924E+04  0.46999998093E+01 0.  1.
       -5    1    3    3    0  502  0.53874417262E+03  0.18903075272E+03 -0.86971863337E+03  0.10403895906E+04  0.46999998093E+01 0. -1.
</event>
<event>
 5   0  0.3574927E-06  0.2100720E+04  0.7818609E-02  0.8560926E-01
        2   -1    0    0  501    0  0.00000000000E+00  0.00000000000E+00  0.12283137102E+04  0.12283137102E+04  0.25500000920E-02 0.  1.
       -2   -1    0    0    0  501  0.00000000000E+00  0.00000000000E+00 -0.89818780910E+03  0.89818780911E+03  0.25500000920E-02 0. -1.
    10030    2    1    2    0    0  0.00000000000E+00  0.00000000000E+00  0.33012590107E+03  0.21265015193E+04  0.21007202577E+04 0.  0.
        3    1    3    3  502    0  0.23864457956E+02 -0.10150944166E+04  0.43719338268E+03  0.11054972868E+04  0.10100000352E+00 0.  1.
       -3    1    3    3    0  502 -0.23864457956E+02  0.10150944166E+04 -0.10706748160E+03  0.10210042325E+04  0.10100000352E+00 0. -1.
</event>
<event>
 5   0  0.1653260E-06  0.2101184E+04  0.7818609E-02  0.8560722E-01
        1   -1    0    0  501    0  0.00000000000E+00  0.00000000000E+00  0.22330923773E+04  0.22330923773E+04  0.50400001928E-02 0.  1.
       -1   -1    0    0    0  501  0.00000000000E+00  0.00000000000E+00 -0.49426671876E+03  0.49426671879E+03  0.50400001928E-02 0. -1.
    10030    2    1    2    0    0  0.00000000000E+00  0.00000000000E+00  0.17388256586E+04  0.27273590961E+04  0.21011837065E+04 0.  0.
        3    1    3    3  502    0  0.94697502388E+03  0.39951264321E+03  0.11519238654E+04  0.15437942382E+04  0.10100000352E+00 0. -1.
       -3    1    3    3    0  502 -0.94697502388E+03 -0.39951264321E+03  0.58690179316E+03  0.11835648579E+04  0.10100000352E+00 0.  1.
</event>
<event>
 5   0  0.1653260E-06  0.2101884E+04  0.7818609E-02  0.8560414E-01
        1   -1    0    0  501    0  0.00000000000E+00  0.00000000000E+00  0.98552119001E+03  0.98552119003E+03  0.50400001928E-02 0. -1.
       -1   -1    0    0    0  501  0.00000000000E+00  0.00000000000E+00 -0.11207055906E+04  0.11207055906E+04  0.50400001928E-02 0.  1.
    10030    2    1    2    0    0  0.00000000000E+00  0.00000000000E+00 -0.13518440062E+03  0.21062267807E+04  0.21018840190E+04 0.  0.
        3    1    3    3  502    0  0.77494937397E+02  0.96981372199E+03 -0.46582363863E+03  0.10786731633E+04  0.10100000352E+00 0. -1.
       -3    1    3    3    0  502 -0.77494937397E+02 -0.96981372199E+03  0.33063923801E+03  0.10275536174E+04  0.10100000352E+00 0.  1.
</event>
<event>
 5   0  0.1646510E-06  0.2100484E+04  0.7818609E-02  0.8561030E-01
       -1   -1    0    0    0  501  0.00000000000E+00  0.00000000000E+00  0.68918769282E+03  0.68918769284E+03  0.50400001928E-02 0.  1.
        1   -1    0    0  501    0  0.00000000000E+00  0.00000000000E+00 -0.16004464715E+04  0.16004464715E+04  0.50400001928E-02 0. -1.
    10030    2    1    2    0    0  0.00000000000E+00  0.00000000000E+00 -0.91125877870E+03  0.22896341644E+04  0.21004837645E+04 0.  0.
        4    1    3    3  502    0 -0.86325199944E+03  0.33197529741E+03  0.86767905430E+02  0.92894665882E+03  0.12699999809E+01 0.  1.
       -4    1    3    3    0  502  0.86325199944E+03 -0.33197529741E+03 -0.99802668413E+03  0.13606875055E+04  0.12699999809E+01 0. -1.
</event>
<event>
 5   0  0.3480134E-06  0.2099911E+04  0.7818609E-02  0.8561282E-01
        2   -1    0    0  501    0  0.00000000000E+00  0.00000000000E+00  0.26523661580E+04  0.26523661580E+04  0.25500000920E-02 0. -1.
       -2   -1    0    0    0  501  0.00000000000E+00  0.00000000000E+00 -0.41563152708E+03  0.41563152709E+03  0.25500000920E-02 0.  1.
    10030    2    1    2    0    0  0.00000000000E+00  0.00000000000E+00  0.22367346309E+04  0.30679976851E+04  0.20999114235E+04 0.  0.
        1    1    3    3  502    0  0.94400203865E+03 -0.40045977096E+03  0.14479839996E+04  0.17743070592E+04  0.50400001928E-02 0.  1.
       -1    1    3    3    0  502 -0.94400203865E+03  0.40045977096E+03  0.78875063132E+03  0.12936906259E+04  0.50400001928E-02 0. -1.
</event>
<event>
 5   0  0.1257125E-06  0.2099276E+04  0.7818609E-02  0.8561562E-01
       -4   -1    0    0    0  501  0.00000000000E+00  0.00000000000E+00  0.15438726798E+04  0.15438732021E+04  0.12699999809E+01 0.  1.
        4   -1    0    0  501    0  0.00000000000E+00  0.00000000000E+00 -0.71361995644E+03  0.71362108652E+03  0.12699999809E+01 0. -1.
    10030    2    1    2    0    0  0.00000000000E+00  0.00000000000E+00  0.83025272336E+03  0.22574942887E+04  0.20992762750E+04 0.  0.
        1    1    3    3  502    0  0.81813841131E+03 -0.22799810630E+03  0.10783822243E+04  0.13726768805E+04  0.50400001928E-02 0.  1.
       -1    1    3    3    0  502 -0.81813841131E+03  0.22799810630E+03 -0.24812950095E+03  0.88481740817E+03  0.50400001928E-02 0. -1.
</event>
<event>
 5   0  0.3547583E-06  0.2100696E+04  0.7818609E-02  0.8560937E-01
        2   -1    0    0  501    0  0.00000000000E+00  0.00000000000E+00  0.12492677152E+04  0.12492677152E+04  0.25500000920E-02 0. -1.
       -2   -1    0    0    0  501  0.00000000000E+00  0.00000000000E+00 -0.88310198728E+03  0.88310198729E+03  0.25500000920E-02 0.  1.
    10030    2    1    2    0    0  0.00000000000E+00  0.00000000000E+00  0.36616572794E+03  0.21323697025E+04  0.21006958866E+04 0.  0.
        2    1    3    3  502    0 -0.90621982182E+03  0.30208696326E+02  0.72125013373E+03  0.11585977241E+04  0.25500000920E-02 0. -1.
       -2    1    3    3    0  502  0.90621982182E+03 -0.30208696326E+02 -0.35508440578E+03  0.97377197846E+03  0.25500000920E-02 0.  1.
</event>
<event>
 5   0  0.3574927E-06  0.2099405E+04  0.7818609E-02  0.8561505E-01
        2   -1    0    0  501    0  0.00000000000E+00  0.00000000000E+00  0.82939663167E+03  0.82939663167E+03  0.25500000920E-02 0. -1.
       -2   -1    0    0    0  501  0.00000000000E+00  0.00000000000E+00 -0.13285268971E+04  0.13285268971E+04  0.25500000920E-02 0.  1.
    10030    2    1    2    0    0  0.00000000000E+00  0.00000000000E+00 -0.49913026542E+03  0.21579235288E+04  0.20994053763E+04 0.  0.
        3    1    3    3  502    0 -0.87192463990E+03  0.15738042161E+03 -0.82815352732E+03  0.12127899446E+04  0.10100000352E+00 0.  1.
       -3    1    3    3    0  502  0.87192463990E+03 -0.15738042161E+03  0.32902326190E+03  0.94513358413E+03  0.10100000352E+00 0. -1.
</event>
<event>
 5   0  0.1579820E-06  0.2100762E+04  0.7818609E-02  0.8560908E-01
       -1   -1    0    0    0  501  0.00000000000E+00  0.00000000000E+00  0.42196899433E+03  0.42196899436E+03  0.50400001928E-02 0.  1.
        1   -1    0    0  501    0  0.00000000000E+00  0.00000000000E+00 -0.26146485309E+04  0.26146485309E+04  0.50400001928E-02 0. -1.
    10030    2    1    2    0    0  0.00000000000E+00  0.00000000000E+00 -0.21926795366E+04  0.30366175253E+04  0.21007623485E+04 0.  0.
        2    1    3    3  502    0  0.97022788782E+03 -0.19136825015E+03 -0.58459641581E+03  0.11487893327E+04  0.25500000920E-02 0.  1.
       -2    1    3    3    0  502 -0.97022788782E+03  0.19136825015E+03 -0.16080831208E+04  0.18878281926E+04  0.25500000920E-02 0. -1.
</event>
<event>
 5   0  0.1615098E-06  0.2101378E+04  0.7818609E-02  0.8560637E-01
       -1   -1    0    0    0  501  0.00000000000E+00  0.00000000000E+00  0.10292035924E+04  0.10292035924E+04  0.50400001928E-02 0. -1.
        1   -1    0    0  501    0  0.00000000000E+00  0.00000000000E+00 -0.10726229830E+04  0.10726229830E+04  0.50400001928E-02 0.  1.
    10030    2    1    2    0    0  0.00000000000E+00  0.00000000000E+00 -0.43419390609E+02  0.21018265754E+04  0.21013780502E+04 0.  0.
        1    1    3    3  502    0  0.18924982690E+03  0.73012562316E+03  0.70991653053E+03  0.10357994028E+04  0.50400001928E-02 0. -1.
       -1    1    3    3    0  502 -0.18924982690E+03 -0.73012562316E+03 -0.75333592114E+03  0.10660271726E+04  0.50400001928E-02 0.  1.
</event>
<event>
 5   0  0.3574927E-06  0.2100081E+04  0.7818609E-02  0.8561208E-01
       -2   -1    0    0    0  501  0.00000000000E+00  0.00000000000E+00  0.66695814991E+03  0.66695814992E+03  0.25500000920E-02 0. -1.
        2   -1    0    0  501    0  0.00000000000E+00  0.00000000000E+00 -0.16531548717E+04  0.16531548717E+04  0.25500000920E-02 0.  1.
    10030    2    1    2    0    0  0.00000000000E+00  0.00000000000E+00 -0.98619672175E+03  0.23201130216E+04  0.21000810601E+04 0.  0.
        3    1    3    3  502    0 -0.85751861736E+03  0.32624264796E+03 -0.10573039937E+04  0.13998800626E+04  0.10100000352E+00 0.  1.
       -3    1    3    3    0  502  0.85751861736E+03 -0.32624264796E+03  0.71107271908E+02  0.92023295898E+03  0.10100000352E+00 0. -1.
</event>
<event>
 5   0  0.3705828E-06  0.2099336E+04  0.7818609E-02  0.8561536E-01
        2   -1    0    0  501    0  0.00000000000E+00  0.00000000000E+00  0.13964678104E+04  0.13964678104E+04  0.25500000920E-02 0. -1.
       -2   -1    0    0    0  501  0.00000000000E+00  0.00000000000E+00 -0.78899281285E+03  0.78899281285E+03  0.25500000920E-02 0.  1.
    10030    2    1    2    0    0  0.00000000000E+00  0.00000000000E+00  0.60747499756E+03  0.21854606233E+04  0.20993361482E+04 0.  0.
        5    1    3    3  502    0  0.52519078695E+03  0.39309609242E+03  0.11567624229E+04  0.13298388224E+04  0.46999998093E+01 0. -1.
       -5    1    3    3    0  502 -0.52519078695E+03 -0.39309609242E+03 -0.54928742530E+03  0.85562180089E+03  0.46999998093E+01 0.  1.
</event>
<event>
 5   0  0.1653260E-06  0.2099652E+04  0.7818609E-02  0.8561397E-01
       -1   -1    0    0    0  501  0.00000000000E+00  0.00000000000E+00  0.10309199975E+04  0.10309199975E+04  0.50400001928E-02 0. -1.
        1   -1    0    0  501    0  0.00000000000E+00  0.00000000000E+00 -0.10690785384E+04  0.10690785384E+04  0.50400001928E-02 0.  1.
    10030    2    1    2    0    0  0.00000000000E+00  0.00000000000E+00 -0.38158540842E+02  0.20999985359E+04  0.20996518227E+04 0.  0.
        3    1    3    3  502    0 -0.71675370278E+03 -0.72936502663E+03 -0.25665843167E+03  0.10543162587E+04  0.10100000352E+00 0.  1.
       -3    1    3    3    0  502  0.71675370278E+03  0.72936502663E+03  0.21849989083E+03  0.10456822773E+04  0.10100000352E+00 0. -1.
</event>
<event>
 5   0  0.1646510E-06  0.2099115E+04  0.7818609E-02  0.8561633E-01
        1   -1    0    0  501    0  0.00000000000E+00  0.00000000000E+00  0.17400897014E+04  0.17400897015E+04  0.50400001928E-02 0. -1.
       -1   -1    0    0    0  501  0.00000000000E+00  0.00000000000E+00 -0.63305418573E+03  0.63305418575E+03  0.50400001928E-02 0.  1.
    10030    2    1    2    0    0  0.00000000000E+00  0.00000000000E+00  0.11070355157E+04  0.23731438872E+04  0.20991151174E+04 0.  0.
        4    1    3    3  502    0  0.60593346510E+03 -0.46260443125E+03  0.13690875758E+04  0.15670228547E+04  0.12699999809E+01 0. -1.
       -4    1    3    3    0  502 -0.60593346510E+03  0.46260443125E+03 -0.26205206012E+03  0.80612103250E+03  0.12699999809E+01 0.  1.
</event>
<event>
 5   0  0.1579820E-06  0.2100705E+04  0.7818609E-02  0.8560933E-01
       -1   -1    0    0    0  501  0.00000000000E+00  0.00000000000E+00  0.81182658048E+03  0.81182658049E+03  0.50400001928E-02 0. -1.
        1   -1    0    0  501    0  0.00000000000E+00  0.00000000000E+00 -0.13589609065E+04  0.13589609065E+04  0.50400001928E-02 0.  1.
    10030    2    1    2    0    0  0.00000000000E+00  0.00000000000E+00 -0.54713432602E+03  0.21707874870E+04  0.21007052014E+04 0.  0.
        2    1    3    3  502    0  0.58474729998E+02 -0.42332275856E+03  0.71793164675E+03  0.83549225094E+03  0.25500000920E-02 0. -1.
       -2    1    3    3    0  502 -0.58474729998E+02  0.42332275856E+03 -0.12650659728E+04  0.13352952361E+04  0.25500000920E-02 0.  1.
</event>
<event>
 5   0  0.3636435E-06  0.2099945E+04  0.7818609E-02  0.8561267E-01
       -2   -1    0    0    0  501  0.00000000000E+00  0.00000000000E+00  0.80570819261E+03  0.80570819261E+03  0.25500000920E-02 0.  1.
        2   -1    0    0  501    0  0.00000000000E+00  0.00000000000E+00 -0.13682901050E+04  0.13682901050E+04  0.25500000920E-02 0. -1.
    10030    2    1    2    0    0  0.00000000000E+00  0.00000000000E+00 -0.56258191241E+03  0.21739982976E+04  0.20999452826E+04 0.  0.
        4    1    3    3  502    0  0.62912339637E+02  0.10043928799E+04  0.28732084695E+02  0.10067721517E+04  0.12699999809E+01 0.  1.
       -4    1    3    3    0  502 -0.62912339637E+02 -0.10043928799E+04 -0.59131399711E+03  0.11672261460E+04  0.12699999809E+01 0. -1.
</event>
<event>
 5   0  0.1590067E-06  0.2100313E+04  0.7818609E-02  0.8561105E-01
       -1   -1    0    0    0  501  0.00000000000E+00  0.00000000000E+00  0.62575895540E+03  0.62575895542E+03  0.50400001928E-02 0. -1.
        1   -1    0    0  501    0  0.00000000000E+00  0.00000000000E+00 -0.17623862238E+04  0.17623862238E+04  0.50400001928E-02 0.  1.
    10030    2    1    2    0    0  0.00000000000E+00  0.00000000000E+00 -0.11366272684E+04  0.23881451792E+04  0.21003132742E+04 0.  0.
        5    1    3    3  502    0 -0.10257443948E+03 -0.10421669591E+04 -0.65765207512E+03  0.12365928304E+04  0.46999998093E+01 0.  1.
       -5    1    3    3    0  502  0.10257443948E+03  0.10421669591E+04 -0.47897519328E+03  0.11515523488E+04  0.46999998093E+01 0. -1.
</event>
<event>
 5   0  0.3705828E-06  0.2099506E+04  0.7818609E-02  0.8561461E-01
        2   -1    0    0  501    0  0.00000000000E+00  0.00000000000E+00  0.66047652261E+03  0.66047652261E+03  0.25500000920E-02 0.  1.
       -2   -1    0    0    0  501  0.00000000000E+00  0.00000000000E+00 -0.16684635077E+04  0.16684635077E+04  0.25500000920E-02 0. -1.
    10030    2    1    2    0    0  0.00000000000E+00  0.00000000000E+00 -0.10079869851E+04  0.23289400303E+04  0.20995056329E+04 0.  0.
        5    1    3    3  502    0  0.51589054026E+03  0.46024800031E+03  0.37225895935E+03  0.78521977442E+03  0.46999998093E+01 0.  1.
       -5    1    3    3    0  502 -0.51589054026E+03 -0.46024800031E+03 -0.13802459445E+04  0.15437202559E+04  0.46999998093E+01 0. -1.
</event>
<event>
 5   0  0.1579820E-06  0.2101027E+04  0.7818609E-02  0.8560791E-01
        1   -1    0    0  501    0  0.00000000000E+00  0.00000000000E+00  0.91870273351E+03  0.91870273353E+03  0.50400001928E-02 0.  1.
       -1   -1    0    0    0  501  0.00000000000E+00  0.00000000000E+00 -0.12012353404E+04  0.12012353404E+04  0.50400001928E-02 0. -1.
    10030    2    1    2    0    0  0.00000000000E+00  0.00000000000E+00 -0.28253260686E+03  0.21199380739E+04  0.21010265975E+04 0.  0.
        2    1    3    3  502    0 -0.47325166966E+03 -0.77254565009E+03 -0.67782748022E+03  0.11314786862E+04  0.25500000920E-02 0. -1.
       -2    1    3    3    0  502  0.47325166966E+03  0.77254565009E+03  0.39529487336E+03  0.98845938774E+03  0.25500000920E-02 0.  1.
</event>
<event>
 5   0  0.3480134E-06  0.2100411E+04  0.7818609E-02  0.8561062E-01
        2   -1    0    0  501    0  0.00000000000E+00  0.00000000000E+00  0.15513458363E+04  0.15513458363E+04  0.25500000920E-02 0.  1.
       -2   -1    0    0    0  501  0.00000000000E+00  0.00000000000E+00 -0.71095174977E+03  0.71095174978E+03  0.25500000920E-02 0. -1.
    10030    2    1    2    0    0  0.00000000000E+00  0.00000000000E+00  0.84039408648E+03  0.22622975860E+04  0.21004114233E+04 0.  0.
        1    1    3    3  502    0 -0.81217372141E+03  0.43930213867E+03  0.95907784792E+03  0.13313312289E+04  0.50400001928E-02 0.  1.
       -1    1    3    3    0  502  0.81217372141E+03 -0.43930213867E+03 -0.11868376143E+03  0.93096635709E+03  0.50400001928E-02 0. -1.
</event>
<event>
 5   0  0.1590067E-06  0.2100559E+04  0.7818609E-02  0.8560997E-01
       -1   -1    0    0    0  501  0.00000000000E+00  0.00000000000E+00  0.82513065220E+03  0.82513065221E+03  0.50400001928E-02 0.  1.
        1   -1    0    0  501    0  0.00000000000E+00  0.00000000000E+00 -0.13368639716E+04  0.13368639716E+04  0.50400001928E-02 0. -1.
    10030    2    1    2    0    0  0.00000000000E+00  0.00000000000E+00 -0.51173331940E+03  0.21619946238E+04  0.21005593929E+04 0.  0.
        5    1    3    3  502    0  0.90814272338E+03 -0.37736922652E+03 -0.63534297018E+03  0.11708174576E+04  0.46999998093E+01 0. -1.
       -5    1    3    3    0  502 -0.90814272338E+03  0.37736922652E+03  0.12360965079E+03  0.99117716626E+03  0.46999998093E+01 0.  1.
</event>
<event>
 5   0  0.1579820E-06  0.2099840E+04  0.7818609E-02  0.8561314E-01
       -1   -1    0    0    0  501  0.00000000000E+00  0.00000000000E+00  0.80264686710E+03  0.80264686712E+03  0.50400001928E-02 0.  1.
        1   -1    0    0  501    0  0.00000000000E+00  0.00000000000E+00 -0.13733707372E+04  0.13733707372E+04  0.50400001928E-02 0. -1.
    10030    2    1    2    0    0  0.00000000000E+00  0.00000000000E+00 -0.57072387005E+03  0.21760176043E+04  0.20998397268E+04 0.  0.
        2    1    3    3  502    0  0.72600252626E+03  0.24912937114E+03 -0.10277208254E+04  0.12827140003E+04  0.25500000920E-02 0. -1.
       -2    1    3    3    0  502 -0.72600252626E+03 -0.24912937114E+03  0.45699695532E+03  0.89330360397E+03  0.25500000920E-02 0.  1.
</event>
<event>
 5   0  0.3547583E-06  0.2098678E+04  0.7818609E-02  0.8561826E-01
       -2   -1    0    0    0  501  0.00000000000E+00  0.00000000000E+00  0.11834188396E+04  0.11834188396E+04  0.25500000920E-02 0. -1.
        2   -1    0    0  501    0  0.00000000000E+00  0.00000000000E+00 -0.93044982124E+03  0.93044982124E+03  0.25500000920E-02 0.  1.
    10030    2    1    2    0    0  0.00000000000E+00  0.00000000000E+00  0.25296901831E+03  0.21138686608E+04  0.20986775338E+04 0.  0.
        2    1    3    3  502    0 -0.83895605405E+02 -0.42183664066E+02 -0.92620923865E+03  0.93095729649E+03  0.25500000920E-02 0.  1.
       -2    1    3    3    0  502  0.83895605405E+02  0.42183664066E+02  0.11791782570E+04  0.11829113643E+04  0.25500000920E-02 0. -1.
</event>
<event>
 5   0  0.3547583E-06  0.2099971E+04  0.7818609E-02  0.8561256E-01
       -2   -1    0    0    0  501  0.00000000000E+00  0.00000000000E+00  0.15895351667E+04  0.15895351667E+04  0.25500000920E-02 0.  1.
        2   -1    0    0  501    0  0.00000000000E+00  0.00000000000E+00 -0.69357957558E+03  0.69357957558E+03  0.25500000920E-02 0. -1.
    10030    2    1    2    0    0  0.00000000000E+00  0.00000000000E+00  0.89595559109E+03  0.22831147423E+04  0.20999705962E+04 0.  0.
        2    1    3    3  502    0 -0.79310767248E+03 -0.19420189384E+03 -0.26969375850E+03  0.85992376353E+03  0.25500000920E-02 0. -1.
       -2    1    3    3    0  502  0.79310767248E+03  0.19420189384E+03  0.11656493496E+04  0.14231909787E+04  0.25500000920E-02 0.  1.
</event>
<event>
 5   0  0.3636435E-06  0.2100297E+04  0.7818609E-02  0.8561112E-01
       -2   -1    0    0    0  501  0.00000000000E+00  0.00000000000E+00  0.10274355118E+04  0.10274355118E+04  0.25500000920E-02 0.  1.
        2   -1    0    0  501    0  0.00000000000E+00  0.00000000000E+00 -0.10733640645E+04  0.10733640645E+04  0.25500000920E-02 0. -1.
    10030    2    1    2    0    0  0.00000000000E+00  0.00000000000E+00 -0.45928552620E+02  0.21007995763E+04  0.21002974617E+04 0.  0.
        4    1    3    3  502    0  0.75669894428E+03 -0.66657685272E+02  0.70231196534E+03  0.10345434978E+04  0.12699999809E+01 0.  1.
       -4    1    3    3    0  502 -0.75669894428E+03  0.66657685272E+02 -0.74824051796E+03  0.10662560785E+04  0.12699999809E+01 0. -1.
</event>
<event>
 5   0  0.3547583E-06  0.2099707E+04  0.7818609E-02  0.8561372E-01
       -2   -1    0    0    0  501  0.00000000000E+00  0.00000000000E+00  0.26279804709E+04  0.26279804709E+04  0.25500000920E-02 0. -1.
        2   -1    0    0  501    0  0.00000000000E+00  0.00000000000E+00 -0.41940677820E+03  0.41940677821E+03  0.25500000920E-02 0.  1.
    10030    2    1    2    0    0  0.00000000000E+00  0.00000000000E+00  0.22085736927E+04  0.30473872491E+04  0.20997074296E+04 0.  0.
        2    1    3    3  502    0 -0.23302406669E+03  0.13954596407E+03 -0.36753084533E+03  0.45700351642E+03  0.25500000920E-02 0.  1.
       -2    1    3    3    0  502  0.23302406669E+03 -0.13954596407E+03  0.25761045381E+04  0.25903837327E+04  0.25500000920E-02 0. -1.
</event>
<event>
 5   0  0.3547583E-06  0.2099886E+04  0.7818609E-02  0.8561294E-01
       -2   -1    0    0    0  501  0.00000000000E+00  0.00000000000E+00  0.90415538693E+03  0.90415538694E+03  0.25500000920E-02 0. -1.
        2   -1    0    0  501    0  0.00000000000E+00  0.00000000000E+00 -0.12192377730E+04  0.12192377730E+04  0.25500000920E-02 0.  1.
    10030    2    1    2    0    0  0.00000000000E+00  0.00000000000E+00 -0.31508238603E+03  0.21233931599E+04  0.20998860925E+04 0.  0.
        2    1    3    3  502    0  0.56228886585E+03  0.34308361885E+03  0.66923334231E+03  0.93901459236E+03  0.25500000920E-02 0. -1.
       -2    1    3    3    0  502 -0.56228886585E+03 -0.34308361885E+03 -0.98431572834E+03  0.11843785675E+04  0.25500000920E-02 0.  1.
</event>
<event>
 5   0  0.3574927E-06  0.2099840E+04  0.7818609E-02  0.8561314E-01
        2   -1    0    0  501    0  0.00000000000E+00  0.00000000000E+00  0.11949242063E+04  0.11949242063E+04  0.25500000920E-02 0. -1.
       -2   -1    0    0    0  501  0.00000000000E+00  0.00000000000E+00 -0.92251248469E+03  0.92251248470E+03  0.25500000920E-02 0.  1.
    10030    2    1    2    0    0  0.00000000000E+00  0.00000000000E+00  0.27241172163E+03  0.21174366910E+04  0.20998404688E+04 0.  0.
        3    1    3    3  502    0  0.52263245976E+03  0.28910660033E+02  0.10539710666E+04  0.11767903525E+04  0.10100000352E+00 0. -1.
       -3    1    3    3    0  502 -0.52263245976E+03 -0.28910660033E+02 -0.78155934498E+03  0.94064633853E+03  0.10100000352E+00 0.  1.
</event>
<event>
 5   0  0.1646510E-06  0.2100157E+04  0.7818609E-02  0.8561174E-01
       -1   -1    0    0    0  501  0.00000000000E+00  0.00000000000E+00  0.70092940191E+03  0.70092940193E+03  0.50400001928E-02 0. -1.
        1   -1    0    0  501    0  0.00000000000E+00  0.00000000000E+00 -0.15731460947E+04  0.15731460947E+04  0.50400001928E-02 0.  1.
    10030    2    1    2    0    0  0.00000000000E+00  0.00000000000E+00 -0.87221669277E+03  0.22740754966E+04  0.21001565192E+04 0.  0.
        4    1    3    3  502    0  0.48764967278E+03  0.67929459725E+02 -0.14404109255E+04  0.15222358103E+04  0.12699999809E+01 0.  1.
       -4    1    3    3    0  502 -0.48764967278E+03 -0.67929459725E+02  0.56819423277E+03  0.75183968631E+03  0.12699999809E+01 0. -1.
</event>
<event>
 5   0  0.1615098E-06  0.2100812E+04  0.7818609E-02  0.8560886E-01
        1   -1    0    0  501    0  0.00000000000E+00  0.00000000000E+00  0.45562086919E+03  0.45562086921E+03  0.50400001928E-02 0. -1.
       -1   -1    0    0    0  501  0.00000000000E+00  0.00000000000E+00 -0.24216465424E+04  0.24216465424E+04  0.50400001928E-02 0.  1.
    10030    2    1    2    0    0  0.00000000000E+00  0.00000000000E+00 -0.19660256732E+04  0.28772674116E+04  0.21008119407E+04 0.  0.
        1    1    3    3  502    0 -0.59606831987E+03 -0.75943023479E+03 -0.15499022197E+04  0.18259870247E+04  0.50400001928E-02 0.  1.
       -1    1    3    3    0  502  0.59606831987E+03  0.75943023479E+03 -0.41612345349E+03  0.10512803870E+04  0.50400001928E-02 0. -1.
</event>
<event>
 5   0  0.1653260E-06  0.2099931E+04  0.7818609E-02  0.8561274E-01
        1   -1    0    0  501    0  0.00000000000E+00  0.00000000000E+00  0.10986296560E+04  0.10986296560E+04  0.50400001928E-02 0.  1.
       -1   -1    0    0    0  501  0.00000000000E+00  0.00000000000E+00 -0.10034567214E+04  0.10034567214E+04  0.50400001928E-02 0. -1.
    10030    2    1    2    0    0  0.00000000000E+00  0.00000000000E+00  0.95172934609E+02  0.21020863774E+04  0.20999307728E+04 0.  0.
        3    1    3    3  502    0 -0.69679580435E+03  0.28246275259E+02 -0.73814286608E+03  0.10154689291E+04  0.10100000352E+00 0. -1.
       -3    1    3    3    0  502  0.69679580435E+03 -0.28246275259E+02  0.83331580068E+03  0.10866174483E+04  0.10100000352E+00 0.  1.
</event>
<event>
 5   0  0.1579820E-06  0.2100207E+04  0.7818609E-02  0.8561152E-01
       -1   -1    0    0    0  501  0.00000000000E+00  0.00000000000E+00  0.46335191179E+03  0.46335191181E+03  0.50400001928E-02 0.  1.
        1   -1    0    0  501    0  0.00000000000E+00  0.00000000000E+00 -0.23798695045E+04  0.23798695045E+04  0.50400001928E-02 0. -1.
    10030    2    1    2    0    0  0.00000000000E+00  0.00000000000E+00 -0.19165175927E+04  0.28432214164E+04  0.21002067372E+04 0.  0.
        2    1    3    3  502    0  0.32103176520E+03  0.90095040126E+03 -0.15451572191E+04  0.18172187132E+04  0.25500000920E-02 0. -1.
       -2    1    3    3    0  502 -0.32103176520E+03 -0.90095040126E+03 -0.37136037367E+03  0.10260027032E+04  0.25500000920E-02 0.  1.
</event>
<event>
 5   0  0.1615098E-06  0.2097592E+04  0.7818609E-02  0.8562305E-01
        1   -1    0    0  501    0  0.00000000000E+00  0.00000000000E+00  0.20947690458E+04  0.20947690458E+04  0.50400001928E-02 0.  1.
       -1   -1    0    0    0  501  0.00000000000E+00  0.00000000000E+00 -0.52510474994E+03  0.52510474996E+03  0.50400001928E-02 0. -1.
    10030    2    1    2    0    0  0.00000000000E+00  0.00000000000E+00  0.15696642959E+04  0.26198737958E+04  0.20975921205E+04 0.  0.
        1    1    3    3  502    0  0.38949240945E+03  0.65796871704E+03  0.16814528985E+04  0.18471358963E+04  0.50400001928E-02 0.  1.
       -1    1    3    3    0  502 -0.38949240945E+03 -0.65796871704E+03 -0.11178860258E+03  0.77273789949E+03  0.50400001928E-02 0. -1.
</event>
<event>
 5   0  0.3636435E-06  0.2099432E+04  0.7818609E-02  0.8561494E-01
        2   -1    0    0  501    0  0.00000000000E+00  0.00000000000E+00  0.12444069875E+04  0.12444069875E+04  0.25500000920E-02 0.  1.
       -2   -1    0    0    0  501  0.00000000000E+00  0.00000000000E+00 -0.88548516435E+03  0.88548516436E+03  0.25500000920E-02 0. -1.
    10030    2    1    2    0    0  0.00000000000E+00  0.00000000000E+00  0.35892182312E+03  0.21298921518E+04  0.20994322336E+04 0.  0.
        4    1    3    3  502    0 -0.50221346507E+03  0.92175134546E+03  0.18721414650E+03  0.10662526234E+04  0.12699999809E+01 0. -1.
       -4    1    3    3    0  502  0.50221346507E+03 -0.92175134546E+03  0.17170767662E+03  0.10636395284E+04  0.12699999809E+01 0.  1.
</event>
<event>
 5   0  0.3636435E-06  0.2099698E+04  0.7818609E-02  0.8561377E-01
        2   -1    0    0  501    0  0.00000000000E+00  0.00000000000E+00  0.13137537885E+04  0.13137537885E+04  0.25500000920E-02 0. -1.
       -2   -1    0    0    0  501  0.00000000000E+00  0.00000000000E+00 -0.83895684034E+03  0.83895684035E+03  0.25500000920E-02 0.  1.
    10030    2    1    2    0    0  0.00000000000E+00  0.00000000000E+00  0.47479694820E+03  0.21527106289E+04  0.20996978139E+04 0.  0.
        4    1    3    3  502    0  0.10025035542E+04 -0.30754859151E+03  0.18530617603E+03  0.10648659560E+04  0.12699999809E+01 0.  1.
       -4    1    3    3    0  502 -0.10025035542E+04  0.30754859151E+03  0.28949077217E+03  0.10878446729E+04  0.12699999809E+01 0. -1.
</event>
<event>
 5   0  0.3547583E-06  0.2100576E+04  0.7818609E-02  0.8560990E-01
        2   -1    0    0  501    0  0.00000000000E+00  0.00000000000E+00  0.10871689953E+04  0.10871689953E+04  0.25500000920E-02 0.  1.
       -2   -1    0    0    0  501  0.00000000000E+00  0.00000000000E+00 -0.10146577655E+04  0.10146577655E+04  0.25500000920E-02 0. -1.
    10030    2    1    2    0    0  0.00000000000E+00  0.00000000000E+00  0.72511229873E+02  0.21018267608E+04  0.21005756006E+04 0.  0.
        2    1    3    3  502    0  0.70255553758E+02 -0.91641172699E+03  0.54484781827E+03  0.10684593775E+04  0.25500000920E-02 0.  1.
       -2    1    3    3    0  502 -0.70255553758E+02  0.91641172699E+03 -0.47233658839E+03  0.10333673833E+04  0.25500000920E-02 0. -1.
</event>
<event>
 5   0  0.1257125E-06  0.2102201E+04  0.7818609E-02  0.8560274E-01
        3   -1    0    0  501    0  0.00000000000E+00  0.00000000000E+00  0.10196480365E+04  0.10196480415E+04  0.10100000352E+00 0. -1.
       -3   -1    0    0    0  501  0.00000000000E+00  0.00000000000E+00 -0.10835230625E+04  0.10835230672E+04  0.10100000352E+00 0.  1.
    10030    2    1    2    0    0  0.00000000000E+00  0.00000000000E+00 -0.63875026023E+02  0.21031711087E+04  0.21022009165E+04 0.  0.
        2    1    3    3  502    0 -0.13891497540E+03  0.84900905132E+03  0.57224386474E+03  0.10332360719E+04  0.25500000920E-02 0. -1.
       -2    1    3    3    0  502  0.13891497540E+03 -0.84900905132E+03 -0.63611889076E+03  0.10699350367E+04  0.25500000920E-02 0.  1.
</event>
<event>
 5   0  0.1646510E-06  0.2100168E+04  0.7818609E-02  0.8561169E-01
       -1   -1    0    0    0  501  0.00000000000E+00  0.00000000000E+00  0.13940690500E+04  0.13940690500E+04  0.50400001928E-02 0.  1.
        1   -1    0    0  501    0  0.00000000000E+00  0.00000000000E+00 -0.79097686846E+03  0.79097686847E+03  0.50400001928E-02 0. -1.
    10030    2    1    2    0    0  0.00000000000E+00  0.00000000000E+00  0.60309218156E+03  0.21850459185E+04  0.21001679663E+04 0.  0.
        4    1    3    3  502    0  0.77405541605E+03  0.70719042972E+03  0.36216458903E+03  0.11092542060E+04  0.12699999809E+01 0. -1.
       -4    1    3    3    0  502 -0.77405541605E+03 -0.70719042972E+03  0.24092759252E+03  0.10757917125E+04  0.12699999809E+01 0.  1.
</event>
<event>
 5   0  0.1653260E-06  0.2099580E+04  0.7818609E-02  0.8561428E-01
        1   -1    0    0  501    0  0.00000000000E+00  0.00000000000E+00  0.12475595534E+04  0.12475595534E+04  0.50400001928E-02 0.  1.
       -1   -1    0    0    0  501  0.00000000000E+00  0.00000000000E+00 -0.88337177214E+03  0.88337177216E+03  0.50400001928E-02 0. -1.
    10030    2    1    2    0    0  0.00000000000E+00  0.00000000000E+00  0.36418778128E+03  0.21309313256E+04  0.20995798566E+04 0.  0.
        3    1    3    3  502    0 -0.86345003439E+03 -0.16374765582E+03  0.76486267897E+03  0.11650640259E+04  0.10100000352E+00 0.  1.
       -3    1    3    3    0  502  0.86345003439E+03  0.16374765582E+03 -0.40067489769E+03  0.96586729964E+03  0.10100000352E+00 0. -1.
</event>
<event>
 5   0  0.1646510E-06  0.2100635E+04  0.7818609E-02  0.8560964E-01
        1   -1    0    0  501    0  0.00000000000E+00  0.00000000000E+00  0.19510747816E+04  0.19510747816E+04  0.50400001928E-02 0. -1.
       -1   -1    0    0    0  501  0.00000000000E+00  0.00000000000E+00 -0.56541489430E+03  0.56541489432E+03  0.50400001928E-02 0.  1.
    10030    2    1    2    0    0  0.00000000000E+00  0.00000000000E+00  0.13856598873E+04  0.25164896760E+04  0.21006348959E+04 0.  0.
        4    1    3    3  502    0 -0.46591612835E+03  0.15674052570E+03  0.18047592660E+04  0.18705087682E+04  0.12699999809E+01 0. -1.
       -4    1    3    3    0  502  0.46591612835E+03 -0.15674052570E+03 -0.41909937864E+03  0.64598090771E+03  0.12699999809E+01 0.  1.
</event>
<event>
 5   0  0.1646510E-06  0.2099664E+04  0.7818609E-02  0.8561391E-01
        1   -1    0    0  501    0  0.00000000000E+00  0.00000000000E+00  0.11079927621E+04  0.11079927621E+04  0.50400001928E-02 0.  1.
       -1   -1    0    0    0  501  0.00000000000E+00  0.00000000000E+00 -0.99472447046E+03  0.99472447048E+03  0.50400001928E-02 0. -1.
    10030    2    1    2    0    0  0.00000000000E+00  0.00000000000E+00  0.11326829165E+03  0.21027172326E+04  0.20996642718E+04 0.  0.
        4    1    3    3  502    0  0.73986937567E+02  0.79329041648E+03  0.74126707513E+03  0.10882381363E+04  0.12699999809E+01 0.  1.
       -4    1    3    3    0  502 -0.73986937567E+02 -0.79329041648E+03 -0.62799878348E+03  0.10144790963E+04  0.12699999809E+01 0. -1.
</event>
<event>
 5   0  0.3480134E-06  0.2099930E+04  0.7818609E-02  0.8561274E-01
        2   -1    0    0  501    0  0.00000000000E+00  0.00000000000E+00  0.14767745769E+04  0.14767745769E+04  0.25500000920E-02 0. -1.
       -2   -1    0    0    0  501  0.00000000000E+00  0.00000000000E+00 -0.74650972029E+03  0.74650972029E+03  0.25500000920E-02 0.  1.
    10030    2    1    2    0    0  0.00000000000E+00  0.00000000000E+00  0.73026485660E+03  0.22232842972E+04  0.20999300715E+04 0.  0.
        1    1    3    3  502    0  0.36893216793E+03 -0.60036432130E+03 -0.45897318394E+03  0.84095460426E+03  0.50400001928E-02 0.  1.
       -1    1    3    3    0  502 -0.36893216793E+03  0.60036432130E+03  0.11892380405E+04  0.13823296929E+04  0.50400001928E-02 0. -1.
</event>
<event>
 5   0  0.3547583E-06  0.2099125E+04  0.7818609E-02  0.8561629E-01
       -2   -1    0    0    0  501  0.00000000000E+00  0.00000000000E+00  0.19010165135E+04  0.19010165135E+04  0.25500000920E-02 0. -1.
        2   -1    0    0  501    0  0.00000000000E+00  0.00000000000E+00 -0.57946978027E+03  0.57946978027E+03  0.25500000920E-02 0.  1.
    10030    2    1    2    0    0  0.00000000000E+00  0.00000000000E+00  0.13215467332E+04  0.24804862937E+04  0.20991251714E+04 0.  0.
        2    1    3    3  502    0 -0.36722665606E+03 -0.36396270194E+03 -0.41854239070E+03  0.66520823668E+03  0.25500000920E-02 0.  1.
       -2    1    3    3    0  502  0.36722665606E+03  0.36396270194E+03  0.17400891239E+04  0.18152780570E+04  0.25500000920E-02 0. -1.
</event>
<event>
 5   0  0.3574927E-06  0.2099841E+04  0.7818609E-02  0.8561313E-01
        2   -1    0    0  501    0  0.00000000000E+00  0.00000000000E+00  0.11524986642E+04  0.11524986642E+04  0.25500000920E-02 0.  1.
       -2   -1    0    0    0  501  0.00000000000E+00  0.00000000000E+00 -0.95647259599E+03  0.95647259600E+03  0.25500000920E-02 0. -1.
    10030    2    1    2    0    0  0.00000000000E+00  0.00000000000E+00  0.19602606820E+03  0.21089712602E+04  0.20998413171E+04 0.  0.
        3    1    3    3  502    0  0.27819593949E+03  0.35414649070E+03 -0.85454129767E+03  0.96594697434E+03  0.10100000352E+00 0. -1.
       -3    1    3    3    0  502 -0.27819593949E+03 -0.35414649070E+03  0.10505673659E+04  0.11430242859E+04  0.10100000352E+00 0.  1.
</event>
<event>
 5   0  0.3705828E-06  0.2099988E+04  0.7818609E-02  0.8561249E-01
       -2   -1    0    0    0  501  0.00000000000E+00  0.00000000000E+00  0.86362689661E+03  0.86362689662E+03  0.25500000920E-02 0.  1.
        2   -1    0    0  501    0  0.00000000000E+00  0.00000000000E+00 -0.12765778825E+04  0.12765778825E+04  0.25500000920E-02 0. -1.
    10030    2    1    2    0    0  0.00000000000E+00  0.00000000000E+00 -0.41295098587E+03  0.21402047791E+04  0.20999876142E+04 0.  0.
        5    1    3    3  502    0 -0.57906533105E+03 -0.43659203823E+03  0.56736539981E+03  0.92079034115E+03  0.46999998093E+01 0.  1.
       -5    1    3    3    0  502  0.57906533105E+03  0.43659203823E+03 -0.98031638567E+03  0.12194144379E+04  0.46999998093E+01 0. -1.
</event>
<event>
 5   0  0.1590067E-06  0.2095753E+04  0.7818609E-02  0.8563116E-01
        1   -1    0    0  501    0  0.00000000000E+00  0.00000000000E+00  0.11548830790E+04  0.11548830790E+04  0.50400001928E-02 0. -1.
       -1   -1    0    0    0  501  0.00000000000E+00  0.00000000000E+00 -0.95078474596E+03  0.95078474597E+03  0.50400001928E-02 0.  1.
    10030    2    1    2    0    0  0.00000000000E+00  0.00000000000E+00  0.20409833303E+03  0.21056678250E+04  0.20957530531E+04 0.  0.
        5    1    3    3  502    0 -0.24869189382E+03  0.69087126560E+02  0.11224336125E+04  0.11517378146E+04  0.46999998093E+01 0. -1.
       -5    1    3    3    0  502  0.24869189382E+03 -0.69087126560E+02 -0.91833527949E+03  0.95393001036E+03  0.46999998093E+01 0.  1.
</event>
<event>
 5   0  0.1579820E-06  0.2100337E+04  0.7818609E-02  0.8561095E-01
       -1   -1    0    0    0  501  0.00000000000E+00  0.00000000000E+00  0.86579610070E+03  0.86579610071E+03  0.50400001928E-02 0. -1.
        1   -1    0    0  501    0  0.00000000000E+00  0.00000000000E+00 -0.12738034163E+04  0.12738034163E+04  0.50400001928E-02 0.  1.
    10030    2    1    2    0    0  0.00000000000E+00  0.00000000000E+00 -0.40800731557E+03  0.21395995170E+04  0.21003371452E+04 0.  0.
        2    1    3    3  502    0 -0.66336871848E+03  0.81409943762E+03 -0.21028990363E+03  0.10709985035E+04  0.25500000920E-02 0.  1.
       -2    1    3    3    0  502  0.66336871848E+03 -0.81409943762E+03 -0.19771741194E+03  0.10686010135E+04  0.25500000920E-02 0. -1.
</event>
<event>
 5   0  0.1590067E-06  0.2100296E+04  0.7818609E-02  0.8561113E-01
       -1   -1    0    0    0  501  0.00000000000E+00  0.00000000000E+00  0.10343417820E+04  0.10343417820E+04  0.50400001928E-02 0. -1.
        1   -1    0    0  501    0  0.00000000000E+00  0.00000000000E+00 -0.10661962556E+04  0.10661962556E+04  0.50400001928E-02 0.  1.
    10030    2    1    2    0    0  0.00000000000E+00  0.00000000000E+00 -0.31854473616E+02  0.21005380376E+04  0.21002964886E+04 0.  0.
        5    1    3    3  502    0  0.56474959648E+03 -0.53719498951E+03 -0.71976145513E+03  0.10609426025E+04  0.46999998093E+01 0.  1.
       -5    1    3    3    0  502 -0.56474959648E+03  0.53719498951E+03  0.68790698152E+03  0.10395954351E+04  0.46999998093E+01 0. -1.
</event>
<event>
 5   0  0.3547583E-06  0.2105987E+04  0.7818609E-02  0.8558610E-01
       -2   -1    0    0    0  501  0.00000000000E+00  0.00000000000E+00  0.44643728865E+03  0.44643728865E+03  0.25500000920E-02 0. -1.
        2   -1    0    0  501    0  0.00000000000E+00  0.00000000000E+00 -0.24836539880E+04  0.24836539880E+04  0.25500000920E-02 0.  1.
    10030    2    1    2    0    0  0.00000000000E+00  0.00000000000E+00 -0.20372166993E+04  0.29300912766E+04  0.21059874191E+04 0.  0.
        2    1    3    3  502    0 -0.50730808842E+03 -0.69136293845E+03 -0.18688502554E+04  0.20561968501E+04  0.25500000920E-02 0.  1.
       -2    1    3    3    0  502  0.50730808842E+03  0.69136293845E+03 -0.16836644390E+03  0.87389442651E+03  0.25500000920E-02 0. -1.
</event>
<event>
 5   0  0.3480134E-06  0.2099953E+04  0.7818609E-02  0.8561264E-01
       -2   -1    0    0    0  501  0.00000000000E+00  0.00000000000E+00  0.47063120679E+03  0.47063120680E+03  0.25500000920E-02 0.  1.
        2   -1    0    0  501    0  0.00000000000E+00  0.00000000000E+00 -0.23424945377E+04  0.23424945377E+04  0.25500000920E-02 0. -1.
    10030    2    1    2    0    0  0.00000000000E+00  0.00000000000E+00 -0.18718633309E+04  0.28131257445E+04  0.20999533625E+04 0.  0.
        1    1    3    3  502    0 -0.69006180561E+03 -0.55008026629E+03 -0.16980733373E+04  0.19136945038E+04  0.50400001928E-02 0.  1.
       -1    1    3    3    0  502  0.69006180561E+03  0.55008026629E+03 -0.17378999364E+03  0.89943124075E+03  0.50400001928E-02 0. -1.
</event>
<event>
 5   0  0.3480134E-06  0.2098580E+04  0.7818609E-02  0.8561869E-01
        2   -1    0    0  501    0  0.00000000000E+00  0.00000000000E+00  0.28608590474E+04  0.28608590474E+04  0.25500000920E-02 0. -1.
       -2   -1    0    0    0  501  0.00000000000E+00  0.00000000000E+00 -0.38485282012E+03  0.38485282013E+03  0.25500000920E-02 0.  1.
    10030    2    1    2    0    0  0.00000000000E+00  0.00000000000E+00  0.24760062272E+04  0.32457118675E+04  0.20985801604E+04 0.  0.
        1    1    3    3  502    0 -0.77015483024E+03  0.71213281082E+03  0.11959853394E+04  0.15908024814E+04  0.50400001928E-02 0.  1.
       -1    1    3    3    0  502  0.77015483024E+03 -0.71213281082E+03  0.12800208879E+04  0.16549093861E+04  0.50400001928E-02 0. -1.
</event>
<event>
 5   0  0.3574927E-06  0.2100672E+04  0.7818609E-02  0.8560948E-01
        2   -1    0    0  501    0  0.00000000000E+00  0.00000000000E+00  0.96336604712E+03  0.96336604713E+03  0.25500000920E-02 0.  1.
       -2   -1    0    0    0  501  0.00000000000E+00  0.00000000000E+00 -0.11451570703E+04  0.11451570703E+04  0.25500000920E-02 0. -1.
    10030    2    1    2    0    0  0.00000000000E+00  0.00000000000E+00 -0.18179102318E+03  0.21085231174E+04  0.21006717403E+04 0.  0.
        3    1    3    3  502    0 -0.71992152381E+01 -0.10474691013E+04 -0.13392392019E+02  0.10475794544E+04  0.10100000352E+00 0.  1.
       -3    1    3    3    0  502  0.71992152381E+01  0.10474691013E+04 -0.16839863116E+03  0.10609436630E+04  0.10100000352E+00 0. -1.
</event>
<event>
 5   0  0.1646510E-06  0.2099246E+04  0.7818609E-02  0.8561576E-01
        1   -1    0    0  501    0  0.00000000000E+00  0.00000000000E+00  0.14190042622E+04  0.14190042622E+04  0.50400001928E-02 0.  1.
       -1   -1    0    0    0  501  0.00000000000E+00  0.00000000000E+00 -0.77639542045E+03  0.77639542046E+03  0.50400001928E-02 0. -1.
    10030    2    1    2    0    0  0.00000000000E+00  0.00000000000E+00  0.64260884171E+03  0.21953996826E+04  0.20992459701E+04 0.  0.
        4    1    3    3  502    0 -0.31891127297E+03 -0.76664412959E+03  0.99278805866E+03  0.12942477984E+04  0.12699999809E+01 0.  1.
       -4    1    3    3    0  502  0.31891127297E+03  0.76664412959E+03 -0.35017921695E+03  0.90115188418E+03  0.12699999809E+01 0. -1.
</event>
<event>
 5   0  0.3574927E-06  0.2100576E+04  0.7818609E-02  0.8560990E-01
       -2   -1    0    0    0  501  0.00000000000E+00  0.00000000000E+00  0.12416464960E+04  0.12416464960E+04  0.25500000920E-02 0. -1.
        2   -1    0    0  501    0  0.00000000000E+00  0.00000000000E+00 -0.88842121036E+03  0.88842121036E+03  0.25500000920E-02 0.  1.
    10030    2    1    2    0    0  0.00000000000E+00  0.00000000000E+00  0.35322528564E+03  0.21300677064E+04  0.21005761903E+04 0.  0.
        3    1    3    3  502    0  0.73172621864E+03 -0.13043534611E+03 -0.57587619254E+03  0.94024998691E+03  0.10100000352E+00 0.  1.
       -3    1    3    3    0  502 -0.73172621864E+03  0.13043534611E+03  0.92910147819E+03  0.11898177195E+04  0.10100000352E+00 0. -1.
</event>
<event>
 5   0  0.1579820E-06  0.2100284E+04  0.7818609E-02  0.8561118E-01
        1   -1    0    0  501    0  0.00000000000E+00  0.00000000000E+00  0.11270779077E+04  0.11270779077E+04  0.50400001928E-02 0. -1.
       -1   -1    0    0    0  501  0.00000000000E+00  0.00000000000E+00 -0.97845812008E+03  0.97845812009E+03  0.50400001928E-02 0.  1.
    10030    2    1    2    0    0  0.00000000000E+00  0.00000000000E+00  0.14861978765E+03  0.21055360278E+04  0.21002842958E+04 0.  0.
        2    1    3    3  502    0 -0.91663762773E+02  0.10449814224E+04  0.25094243405E+02  0.10492941149E+04  0.25500000920E-02 0. -1.
       -2    1    3    3    0  502  0.91663762773E+02 -0.10449814224E+04  0.12352554425E+03  0.10562419129E+04  0.25500000920E-02 0.  1.
</event>
<event>
 5   0  0.1257125E-06  0.2099693E+04  0.7818609E-02  0.8561379E-01
        4   -1    0    0  501    0  0.00000000000E+00  0.00000000000E+00  0.14317005350E+04  0.14317010983E+04  0.12699999809E+01 0.  1.
       -4   -1    0    0    0  501  0.00000000000E+00  0.00000000000E+00 -0.76983695915E+03  0.76983800671E+03  0.12699999809E+01 0. -1.
    10030    2    1    2    0    0  0.00000000000E+00  0.00000000000E+00  0.66186357583E+03  0.22015391050E+04  0.20996930818E+04 0.  0.
        4    1    3    3  502    0  0.44686209374E+03 -0.71676300802E+03  0.98466549117E+03  0.12973059326E+04  0.12699999809E+01 0.  1.
       -4    1    3    3    0  502 -0.44686209374E+03  0.71676300802E+03 -0.32280191534E+03  0.90423317233E+03  0.12699999809E+01 0. -1.
</event>
<event>
 5   0  0.3574927E-06  0.2100686E+04  0.7818609E-02  0.8560941E-01
       -2   -1    0    0    0  501  0.00000000000E+00  0.00000000000E+00  0.10206615283E+04  0.10206615284E+04  0.25500000920E-02 0.  1.
        2   -1    0    0  501    0  0.00000000000E+00  0.00000000000E+00 -0.10808880274E+04  0.10808880274E+04  0.25500000920E-02 0. -1.
    10030    2    1    2    0    0  0.00000000000E+00  0.00000000000E+00 -0.60226499021E+02  0.21015495557E+04  0.21006863888E+04 0.  0.
        3    1    3    3  502    0  0.43764216722E+03 -0.40898747057E+02 -0.98445356791E+03  0.10781243952E+04  0.10100000352E+00 0. -1.
       -3    1    3    3    0  502 -0.43764216722E+03  0.40898747057E+02  0.92422706889E+03  0.10234251605E+04  0.10100000352E+00 0.  1.
</event>
<event>
 5   0  0.1579820E-06  0.2096173E+04  0.7818609E-02  0.8562931E-01
       -1   -1    0    0    0  501  0.00000000000E+00  0.00000000000E+00  0.82875249752E+03  0.82875249753E+03  0.50400001928E-02 0.  1.
        1   -1    0    0  501    0  0.00000000000E+00  0.00000000000E+00 -0.13254683685E+04  0.13254683685E+04  0.50400001928E-02 0. -1.
    10030    2    1    2    0    0  0.00000000000E+00  0.00000000000E+00 -0.49671587100E+03  0.21542208661E+04  0.20961729135E+04 0.  0.
        2    1    3    3  502    0 -0.10417166574E+04  0.83345446726E+02 -0.33034925805E+03  0.10960158256E+04  0.25500000920E-02 0. -1.
       -2    1    3    3    0  502  0.10417166574E+04 -0.83345446726E+02 -0.16636661295E+03  0.10582050404E+04  0.25500000920E-02 0.  1.
</event>
<event>
 5   0  0.1579820E-06  0.2100665E+04  0.7818609E-02  0.8560951E-01
        1   -1    0    0  501    0  0.00000000000E+00  0.00000000000E+00  0.16713496302E+04  0.16713496302E+04  0.50400001928E-02 0. -1.
       -1   -1    0    0    0  501  0.00000000000E+00  0.00000000000E+00 -0.66006431885E+03  0.66006431887E+03  0.50400001928E-02 0.  1.
    10030    2    1    2    0    0  0.00000000000E+00  0.00000000000E+00  0.10112853113E+04  0.23314139491E+04  0.21006648997E+04 0.  0.
        2    1    3    3  502    0  0.80475052222E+02 -0.41025606761E+03  0.15750249265E+04  0.16295673641E+04  0.25500000920E-02 0. -1.
       -2    1    3    3    0  502 -0.80475052222E+02  0.41025606761E+03 -0.56373961519E+03  0.70184658493E+03  0.25500000920E-02 0.  1.
</event>
<event>
 5   0  0.1590067E-06  0.2099629E+04  0.7818609E-02  0.8561407E-01
       -1   -1    0    0    0  501  0.00000000000E+00  0.00000000000E+00  0.60210700440E+03  0.60210700443E+03  0.50400001928E-02 0. -1.
        1   -1    0    0  501    0  0.00000000000E+00  0.00000000000E+00 -0.18304225459E+04  0.18304225459E+04  0.50400001928E-02 0.  1.
    10030    2    1    2    0    0  0.00000000000E+00  0.00000000000E+00 -0.12283155415E+04  0.24325295504E+04  0.20996287633E+04 0.  0.
        5    1    3    3  502    0 -0.11973942330E+03  0.42246711870E+03 -0.17189040711E+04  0.17741108453E+04  0.46999998093E+01 0.  1.
       -5    1    3    3    0  502  0.11973942330E+03 -0.42246711870E+03  0.49058852953E+03  0.65841870507E+03  0.46999998093E+01 0. -1.
</event>
<event>
 5   0  0.3547583E-06  0.2099241E+04  0.7818609E-02  0.8561578E-01
       -2   -1    0    0    0  501  0.00000000000E+00  0.00000000000E+00  0.83111914351E+03  0.83111914352E+03  0.25500000920E-02 0. -1.
        2   -1    0    0  501    0  0.00000000000E+00  0.00000000000E+00 -0.13255661242E+04  0.13255661242E+04  0.25500000920E-02 0.  1.
    10030    2    1    2    0    0  0.00000000000E+00  0.00000000000E+00 -0.49444698066E+03  0.21566852677E+04  0.20992411789E+04 0.  0.
        2    1    3    3  502    0  0.34387966319E+03 -0.15176241446E+03 -0.12540500291E+04  0.13091701679E+04  0.25500000920E-02 0.  1.
       -2    1    3    3    0  502 -0.34387966319E+03  0.15176241446E+03  0.75960304840E+03  0.84751509977E+03  0.25500000920E-02 0. -1.
</event>
<event>
 5   0  0.3547583E-06  0.2098947E+04  0.7818609E-02  0.8561707E-01
        2   -1    0    0  501    0  0.00000000000E+00  0.00000000000E+00  0.11878481431E+04  0.11878481431E+04  0.25500000920E-02 0.  1.
       -2   -1    0    0    0  501  0.00000000000E+00  0.00000000000E+00 -0.92721842856E+03  0.92721842856E+03  0.25500000920E-02 0. -1.
    10030    2    1    2    0    0  0.00000000000E+00  0.00000000000E+00  0.26062971450E+03  0.21150665716E+04  0.20989470585E+04 0.  0.
        2    1    3    3  502    0 -0.79304927397E+03 -0.32665434421E+03 -0.47911442700E+03  0.98243617894E+03  0.25500000920E-02 0. -1.
       -2    1    3    3    0  502  0.79304927397E+03  0.32665434421E+03  0.73974414149E+03  0.11326303927E+04  0.25500000920E-02 0.  1.
</event>
<event>
 5   0  0.1653260E-06  0.2100170E+04  0.7818609E-02  0.8561168E-01
        1   -1    0    0  501    0  0.00000000000E+00  0.00000000000E+00  0.93206709191E+03  0.93206709192E+03  0.50400001928E-02 0. -1.
       -1   -1    0    0    0  501  0.00000000000E+00  0.00000000000E+00 -0.11830467405E+04  0.11830467405E+04  0.50400001928E-02 0.  1.
    10030    2    1    2    0    0  0.00000000000E+00  0.00000000000E+00 -0.25097964862E+03  0.21151138325E+04  0.21001704074E+04 0.  0.
        3    1    3    3  502    0 -0.24640421823E+03  0.98102031587E+03  0.15858638012E+03  0.10238484014E+04  0.10100000352E+00 0. -1.
       -3    1    3    3    0  502  0.24640421823E+03 -0.98102031587E+03 -0.40956602875E+03  0.10912654311E+04  0.10100000352E+00 0.  1.
</event>
<event>
 5   0  0.3636435E-06  0.2100444E+04  0.7818609E-02  0.8561048E-01
        2   -1    0    0  501    0  0.00000000000E+00  0.00000000000E+00  0.13927086227E+04  0.13927086227E+04  0.25500000920E-02 0. -1.
       -2   -1    0    0    0  501  0.00000000000E+00  0.00000000000E+00 -0.79195790086E+03  0.79195790086E+03  0.25500000920E-02 0.  1.
    10030    2    1    2    0    0  0.00000000000E+00  0.00000000000E+00  0.60075072183E+03  0.21846665235E+04  0.21004443314E+04 0.  0.
        4    1    3    3  502    0  0.76299428193E+03 -0.72048591519E+03  0.25743110168E+03  0.10805242308E+04  0.12699999809E+01 0. -1.
       -4    1    3    3    0  502 -0.76299428193E+03  0.72048591519E+03  0.34331962015E+03  0.11041422928E+04  0.12699999809E+01 0.  1.
</event>
<event>
 5   0  0.1615098E-06  0.2099840E+04  0.7818609E-02  0.8561314E-01
        1   -1    0    0  501    0  0.00000000000E+00  0.00000000000E+00  0.66632117269E+03  0.66632117271E+03  0.50400001928E-02 0.  1.
       -1   -1    0    0    0  501  0.00000000000E+00  0.00000000000E+00 -0.16543552456E+04  0.16543552456E+04  0.50400001928E-02 0. -1.
    10030    2    1    2    0    0  0.00000000000E+00  0.00000000000E+00 -0.98803407291E+03  0.23206764183E+04  0.20998399247E+04 0.  0.
        1    1    3    3  502    0  0.36592678331E+03  0.32909966871E+03  0.53094708153E+03  0.72395704714E+03  0.50400001928E-02 0.  1.
       -1    1    3    3    0  502 -0.36592678331E+03 -0.32909966871E+03 -0.15189811544E+04  0.15967193712E+04  0.50400001928E-02 0. -1.
</event>
<event>
 5   0  0.3547583E-06  0.2099098E+04  0.7818609E-02  0.8561641E-01
        2   -1    0    0  501    0  0.00000000000E+00  0.00000000000E+00  0.16033247923E+04  0.16033247923E+04  0.25500000920E-02 0. -1.
       -2   -1    0    0    0  501  0.00000000000E+00  0.00000000000E+00 -0.68704280975E+03  0.68704280975E+03  0.25500000920E-02 0.  1.
    10030    2    1    2    0    0  0.00000000000E+00  0.00000000000E+00  0.91628198253E+03  0.22903676020E+04  0.20990976826E+04 0.  0.
        2    1    3    3  502    0 -0.42317616987E+03  0.93054073322E+03  0.19862721087E+03  0.10413629991E+04  0.25500000920E-02 0.  1.
       -2    1    3    3    0  502  0.42317616987E+03 -0.93054073322E+03  0.71765477166E+03  0.12490046030E+04  0.25500000920E-02 0. -1.
</event>
<event>
 5   0  0.1653260E-06  0.2099844E+04  0.7818609E-02  0.8561312E-01
        1   -1    0    0  501    0  0.00000000000E+00  0.00000000000E+00  0.11128735853E+04  0.11128735853E+04  0.50400001928E-02 0. -1.
       -1   -1    0    0    0  501  0.00000000000E+00  0.00000000000E+00 -0.99053092930E+03  0.99053092931E+03  0.50400001928E-02 0.  1.
    10030    2    1    2    0    0  0.00000000000E+00  0.00000000000E+00  0.12234265601E+03  0.21034045146E+04  0.20998435243E+04 0.  0.
        3    1    3    3  502    0 -0.57335352596E+03 -0.39638150012E+03  0.84766723940E+03  0.10974480937E+04  0.10100000352E+00 0. -1.
       -3    1    3    3    0  502  0.57335352596E+03  0.39638150012E+03 -0.72532458339E+03  0.10059564209E+04  0.10100000352E+00 0.  1.
</event>
<event>
 5   0  0.3480134E-06  0.2099832E+04  0.7818609E-02  0.8561317E-01
       -2   -1    0    0    0  501  0.00000000000E+00  0.00000000000E+00  0.11950110999E+04  0.11950110999E+04  0.25500000920E-02 0.  1.
        2   -1    0    0  501    0  0.00000000000E+00  0.00000000000E+00 -0.92243796691E+03  0.92243796691E+03  0.25500000920E-02 0. -1.
    10030    2    1    2    0    0  0.00000000000E+00  0.00000000000E+00  0.27257313300E+03  0.21174490668E+04  0.20998320023E+04 0.  0.
        1    1    3    3  502    0 -0.75203948086E+02 -0.10320082378E+04  0.31561833645E+03  0.10818093968E+04  0.50400001928E-02 0.  1.
       -1    1    3    3    0  502  0.75203948086E+02  0.10320082378E+04 -0.43045203450E+02  0.10356396701E+04  0.50400001928E-02 0. -1.
</event>
<event>
 5   0  0.1257125E-06  0.2098285E+04  0.7818609E-02  0.8561999E-01
       -4   -1    0    0    0  501  0.00000000000E+00  0.00000000000E+00  0.10337053749E+04  0.10337061550E+04  0.12699999809E+01 0.  1.
        4   -1    0    0  501    0  0.00000000000E+00  0.00000000000E+00 -0.10648085909E+04  0.10648093483E+04  0.12699999809E+01 0. -1.
    10030    2    1    2    0    0  0.00000000000E+00  0.00000000000E+00 -0.31103216052E+02  0.20985155033E+04  0.20982849920E+04 0.  0.
        4    1    3    3  502    0 -0.74524747268E+03  0.17799697019E+03 -0.73230435697E+03  0.10598811259E+04  0.12699999809E+01 0. -1.
       -4    1    3    3    0  502  0.74524747268E+03 -0.17799697019E+03  0.70120114092E+03  0.10386343774E+04  0.12699999809E+01 0.  1.
</event>
<event>
 5   0  0.1615098E-06  0.2100103E+04  0.7818609E-02  0.8561198E-01
       -1   -1    0    0    0  501  0.00000000000E+00  0.00000000000E+00  0.13053802568E+04  0.13053802568E+04  0.50400001928E-02 0. -1.
        1   -1    0    0  501    0  0.00000000000E+00  0.00000000000E+00 -0.84466442177E+03  0.84466442179E+03  0.50400001928E-02 0.  1.
    10030    2    1    2    0    0  0.00000000000E+00  0.00000000000E+00  0.46071583501E+03  0.21500446786E+04  0.21001031021E+04 0.  0.
        1    1    3    3  502    0  0.60997294781E+03  0.64833351773E+03  0.80056315741E+03  0.11972070482E+04  0.50400001928E-02 0. -1.
       -1    1    3    3    0  502 -0.60997294781E+03 -0.64833351773E+03 -0.33984732240E+03  0.95283763036E+03  0.50400001928E-02 0.  1.
</event>
<event>
 5   0  0.1646510E-06  0.2099798E+04  0.7818609E-02  0.8561333E-01
        1   -1    0    0  501    0  0.00000000000E+00  0.00000000000E+00  0.92605210916E+03  0.92605210917E+03  0.50400001928E-02 0.  1.
       -1   -1    0    0    0  501  0.00000000000E+00  0.00000000000E+00 -0.11903081972E+04  0.11903081972E+04  0.50400001928E-02 0. -1.
    10030    2    1    2    0    0  0.00000000000E+00  0.00000000000E+00 -0.26425608802E+03  0.21163603064E+04  0.20997975298E+04 0.  0.
        4    1    3    3  502    0  0.45806719878E+03 -0.33349386767E+03 -0.10229789013E+04  0.11694148810E+04  0.12699999809E+01 0. -1.
       -4    1    3    3    0  502 -0.45806719878E+03  0.33349386767E+03  0.75872281330E+03  0.94694542540E+03  0.12699999809E+01 0.  1.
</event>
<event>
 5   0  0.1646510E-06  0.2100403E+04  0.7818609E-02  0.8561066E-01
       -1   -1    0    0    0  501  0.00000000000E+00  0.00000000000E+00  0.48322049090E+03  0.48322049093E+03  0.50400001928E-02 0. -1.
        1   -1    0    0  501    0  0.00000000000E+00  0.00000000000E+00 -0.22824426978E+04  0.22824426978E+04  0.50400001928E-02 0.  1.
    10030    2    1    2    0    0  0.00000000000E+00  0.00000000000E+00 -0.17992222069E+04  0.27656631887E+04  0.21004028956E+04 0.  0.
        4    1    3    3  502    0  0.75768438789E+03 -0.40724782542E+03 -0.10630454051E+03  0.86674026744E+03  0.12699999809E+01 0. -1.
       -4    1    3    3    0  502 -0.75768438789E+03  0.40724782542E+03 -0.16929176664E+04  0.18989229213E+04  0.12699999809E+01 0.  1.
</event>
<event>
 5   0  0.3547583E-06  0.2099480E+04  0.7818609E-02  0.8561472E-01
        2   -1    0    0  501    0  0.00000000000E+00  0.00000000000E+00  0.16043946010E+04  0.16043946010E+04  0.25500000920E-02 0. -1.
       -2   -1    0    0    0  501  0.00000000000E+00  0.00000000000E+00 -0.68683499258E+03  0.68683499259E+03  0.25500000920E-02 0.  1.
    10030    2    1    2    0    0  0.00000000000E+00  0.00000000000E+00  0.91755960840E+03  0.22912295936E+04  0.20994802727E+04 0.  0.
        2    1    3    3  502    0 -0.62426962865E+02 -0.35812818247E+03  0.15335069599E+04  0.15760065091E+04  0.25500000920E-02 0. -1.
       -2    1    3    3    0  502  0.62426962865E+02  0.35812818247E+03 -0.61594735147E+03  0.71522308447E+03  0.25500000920E-02 0.  1.
</event>
<event>
 5   0  0.3547583E-06  0.2099974E+04  0.7818609E-02  0.8561255E-01
        2   -1    0    0  501    0  0.00000000000E+00  0.00000000000E+00  0.20513769572E+04  0.20513769572E+04  0.25500000920E-02 0. -1.
       -2   -1    0    0    0  501  0.00000000000E+00  0.00000000000E+00 -0.53743069326E+03  0.53743069327E+03  0.25500000920E-02 0.  1.
    10030    2    1    2    0    0  0.00000000000E+00  0.00000000000E+00  0.15139462640E+04  0.25888076505E+04  0.20999742287E+04 0.  0.
        2    1    3    3  502    0 -0.79069163734E+03 -0.38654239663E+03  0.14628567707E+04  0.17072077264E+04  0.25500000920E-02 0.  1.
       -2    1    3    3    0  502  0.79069163734E+03  0.38654239663E+03  0.51089493302E+02  0.88159992405E+03  0.25500000920E-02 0. -1.
</event>
<event>
 5   0  0.3636435E-06  0.2100615E+04  0.7818609E-02  0.8560973E-01
       -2   -1    0    0    0  501  0.00000000000E+00  0.00000000000E+00  0.56451061713E+03  0.56451061713E+03  0.25500000920E-02 0.  1.
        2   -1    0    0  501    0  0.00000000000E+00  0.00000000000E+00 -0.19541624549E+04  0.19541624549E+04  0.25500000920E-02 0. -1.
    10030    2    1    2    0    0  0.00000000000E+00  0.00000000000E+00 -0.13896518377E+04  0.25186730720E+04  0.21006146276E+04 0.  0.
        4    1    3    3  502    0 -0.42327380973E+03  0.36737456389E+03  0.37022202610E+03  0.67170733932E+03  0.12699999809E+01 0.  1.
       -4    1    3    3    0  502  0.42327380973E+03 -0.36737456389E+03 -0.17598738638E+04  0.18469657327E+04  0.12699999809E+01 0. -1.
</event>
<event>
 5   0  0.3705828E-06  0.2098705E+04  0.7818609E-02  0.8561814E-01
       -2   -1    0    0    0  501  0.00000000000E+00  0.00000000000E+00  0.83215782226E+03  0.83215782227E+03  0.25500000920E-02 0.  1.
        2   -1    0    0  501    0  0.00000000000E+00  0.00000000000E+00 -0.13232349291E+04  0.13232349291E+04  0.25500000920E-02 0. -1.
    10030    2    1    2    0    0  0.00000000000E+00  0.00000000000E+00 -0.49107710687E+03  0.21553927514E+04  0.20987046452E+04 0.  0.
        5    1    3    3  502    0  0.78104578957E+03 -0.70071534075E+03 -0.25493403785E+03  0.10798370098E+04  0.46999998093E+01 0. -1.
       -5    1    3    3    0  502 -0.78104578957E+03  0.70071534075E+03 -0.23614306902E+03  0.10755557416E+04  0.46999998093E+01 0.  1.
</event>
<event>
 5   0  0.3547583E-06  0.2100174E+04  0.7818609E-02  0.8561167E-01
        2   -1    0    0  501    0  0.00000000000E+00  0.00000000000E+00  0.14221764200E+04  0.14221764200E+04  0.25500000920E-02 0. -1.
       -2   -1    0    0    0  501  0.00000000000E+00  0.00000000000E+00 -0.77534864196E+03  0.77534864196E+03  0.25500000920E-02 0.  1.
    10030    2    1    2    0    0  0.00000000000E+00  0.00000000000E+00  0.64682777802E+03  0.21975250619E+04  0.21001738555E+04 0.  0.
        2    1    3    3  502    0 -0.83799970136E+03  0.22294271335E+03 -0.29626758903E+03  0.91636315794E+03  0.25500000920E-02 0.  1.
       -2    1    3    3    0  502  0.83799970136E+03 -0.22294271335E+03  0.94309536704E+03  0.12811619040E+04  0.25500000920E-02 0. -1.
</event>
<event>
 5   0  0.3480134E-06  0.2099967E+04  0.7818609E-02  0.8561258E-01
        2   -1    0    0  501    0  0.00000000000E+00  0.00000000000E+00  0.75443425397E+03  0.75443425398E+03  0.25500000920E-02 0.  1.
       -2   -1    0    0    0  501  0.00000000000E+00  0.00000000000E+00 -0.14613135480E+04  0.14613135480E+04  0.25500000920E-02 0. -1.
    10030    2    1    2    0    0  0.00000000000E+00  0.00000000000E+00 -0.70687929402E+03  0.22157478020E+04  0.20999666630E+04 0.  0.
        1    1    3    3  502    0  0.14225989316E+03  0.10160923022E+04 -0.11801557379E+03  0.10327676987E+04  0.50400001928E-02 0. -1.
       -1    1    3    3    0  502 -0.14225989316E+03 -0.10160923022E+04 -0.58886372023E+03  0.11829801033E+04  0.50400001928E-02 0.  1.
</event>
<event>
 5   0  0.3636435E-06  0.2099619E+04  0.7818609E-02  0.8561411E-01
       -2   -1    0    0    0  501  0.00000000000E+00  0.00000000000E+00  0.73484604330E+03  0.73484604330E+03  0.25500000920E-02 0.  1.
        2   -1    0    0  501    0  0.00000000000E+00  0.00000000000E+00 -0.14997697677E+04  0.14997697677E+04  0.25500000920E-02 0. -1.
    10030    2    1    2    0    0  0.00000000000E+00  0.00000000000E+00 -0.76492372437E+03  0.22346158110E+04  0.20996188984E+04 0.  0.
        4    1    3    3  502    0  0.61112108677E+03  0.56600935326E+03 -0.10624983939E+04  0.13500888936E+04  0.12699999809E+01 0. -1.
       -4    1    3    3    0  502 -0.61112108677E+03 -0.56600935326E+03  0.29757466956E+03  0.88452691736E+03  0.12699999809E+01 0.  1.
</event>
<event>
 5   0  0.3636435E-06  0.2098968E+04  0.7818609E-02  0.8561698E-01
        2   -1    0    0  501    0  0.00000000000E+00  0.00000000000E+00  0.12155418218E+04  0.12155418218E+04  0.25500000920E-02 0.  1.
       -2   -1    0    0    0  501  0.00000000000E+00  0.00000000000E+00 -0.90611139983E+03  0.90611139984E+03  0.25500000920E-02 0. -1.
    10030    2    1    2    0    0  0.00000000000E+00  0.00000000000E+00  0.30943042200E+03  0.21216532217E+04  0.20989676527E+04 0.  0.
        4    1    3    3  502    0  0.25380002623E+03  0.97667612829E+03 -0.13667808547E+03  0.10183286428E+04  0.12699999809E+01 0. -1.
       -4    1    3    3    0  502 -0.25380002623E+03 -0.97667612829E+03  0.44610850747E+03  0.11033245788E+04  0.12699999809E+01 0.  1.
</event>
<event>
 5   0  0.3705828E-06  0.2096475E+04  0.7818609E-02  0.8562798E-01
        2   -1    0    0  501    0  0.00000000000E+00  0.00000000000E+00  0.11112246387E+04  0.11112246387E+04  0.25500000920E-02 0.  1.
       -2   -1    0    0    0  501  0.00000000000E+00  0.00000000000E+00 -0.98882019262E+03  0.98882019262E+03  0.25500000920E-02 0. -1.
    10030    2    1    2    0    0  0.00000000000E+00  0.00000000000E+00  0.12240444610E+03  0.21000448313E+04  0.20964745277E+04 0.  0.
        5    1    3    3  502    0 -0.33262772056E+03 -0.67805777404E+03  0.78933470400E+03  0.10924627730E+04  0.46999998093E+01 0.  1.
       -5    1    3    3    0  502  0.33262772056E+03  0.67805777404E+03 -0.66693025790E+03  0.10075820584E+04  0.46999998093E+01 0. -1.
</event>
<event>
 5   0  0.1646510E-06  0.2100329E+04  0.7818609E-02  0.8561099E-01
        1   -1    0    0  501    0  0.00000000000E+00  0.00000000000E+00  0.24653662368E+04  0.24653662368E+04  0.50400001928E-02 0. -1.
       -1   -1    0    0    0  501  0.00000000000E+00  0.00000000000E+00 -0.44733530615E+03  0.44733530618E+03  0.50400001928E-02 0.  1.
    10030    2    1    2    0    0  0.00000000000E+00  0.00000000000E+00  0.20180309307E+04  0.29127015430E+04  0.21003288889E+04 0.  0.
        4    1    3    3  502    0 -0.70733272452E+03 -0.20484430765E+03  0.20473107561E+04  0.21757214248E+04  0.12699999809E+01 0. -1.
       -4    1    3    3    0  502  0.70733272452E+03  0.20484430765E+03 -0.29279825388E+02  0.73698011821E+03  0.12699999809E+01 0.  1.
</event>
<event>
 5   0  0.3705828E-06  0.2099654E+04  0.7818609E-02  0.8561396E-01
       -2   -1    0    0    0  501  0.00000000000E+00  0.00000000000E+00  0.70588112031E+03  0.70588112031E+03  0.25500000920E-02 0. -1.
        2   -1    0    0  501    0  0.00000000000E+00  0.00000000000E+00 -0.15613635444E+04  0.15613635444E+04  0.25500000920E-02 0.  1.
    10030    2    1    2    0    0  0.00000000000E+00  0.00000000000E+00 -0.85548242405E+03  0.22672446647E+04  0.20996543029E+04 0.  0.
        5    1    3    3  502    0 -0.10380651216E+04 -0.13766340831E+03 -0.34704659280E+03  0.11031744369E+04  0.46999998093E+01 0.  1.
       -5    1    3    3    0  502  0.10380651216E+04  0.13766340831E+03 -0.50843583125E+03  0.11640702278E+04  0.46999998093E+01 0. -1.
</event>
<event>
 5   0  0.3574927E-06  0.2101988E+04  0.7818609E-02  0.8560368E-01
       -2   -1    0    0    0  501  0.00000000000E+00  0.00000000000E+00  0.93924850309E+03  0.93924850310E+03  0.25500000920E-02 0. -1.
        2   -1    0    0  501    0  0.00000000000E+00  0.00000000000E+00 -0.11760344582E+04  0.11760344582E+04  0.25500000920E-02 0.  1.
    10030    2    1    2    0    0  0.00000000000E+00  0.00000000000E+00 -0.23678595509E+03  0.21152829613E+04  0.21019882059E+04 0.  0.
        3    1    3    3  502    0  0.49762200983E+03  0.12250779972E+03  0.80499041843E+03  0.95427742802E+03  0.10100000352E+00 0. -1.
       -3    1    3    3    0  502 -0.49762200983E+03 -0.12250779972E+03 -0.10417763735E+04  0.11610055333E+04  0.10100000352E+00 0.  1.
</event>
<event>
 5   0  0.1257125E-06  0.2100286E+04  0.7818609E-02  0.8561118E-01
       -4   -1    0    0    0  501  0.00000000000E+00  0.00000000000E+00  0.16819355367E+04  0.16819360162E+04  0.12699999809E+01 0.  1.
        4   -1    0    0  501    0  0.00000000000E+00  0.00000000000E+00 -0.65567191177E+03  0.65567314172E+03  0.12699999809E+01 0. -1.
    10030    2    1    2    0    0  0.00000000000E+00  0.00000000000E+00  0.10262636249E+04  0.23376091579E+04  0.21002855871E+04 0.  0.
        5    1    3    3  502    0  0.79800283072E+03 -0.67514412130E+03  0.40100227467E+03  0.11195771598E+04  0.46999998093E+01 0.  1.
       -5    1    3    3    0  502 -0.79800283072E+03  0.67514412130E+03  0.62526135025E+03  0.12180319981E+04  0.46999998093E+01 0. -1.
</event>
<event>
 5   0  0.1615098E-06  0.2100072E+04  0.7818609E-02  0.8561212E-01
       -1   -1    0    0    0  501  0.00000000000E+00  0.00000000000E+00  0.91458203711E+03  0.91458203712E+03  0.50400001928E-02 0. -1.
        1   -1    0    0  501    0  0.00000000000E+00  0.00000000000E+00 -0.12055512825E+04  0.12055512825E+04  0.50400001928E-02 0.  1.
    10030    2    1    2    0    0  0.00000000000E+00  0.00000000000E+00 -0.29096924535E+03  0.21201333196E+04  0.21000719490E+04 0.  0.
        1    1    3    3  502    0  0.58981360293E+03 -0.34416719881E+03 -0.95075362902E+03  0.11705825943E+04  0.50400001928E-02 0.  1.
       -1    1    3    3    0  502 -0.58981360293E+03  0.34416719881E+03  0.65978438367E+03  0.94955072529E+03  0.50400001928E-02 0. -1.
</event>
<event>
 5   0  0.1590067E-06  0.2100676E+04  0.7818609E-02  0.8560946E-01
       -1   -1    0    0    0  501  0.00000000000E+00  0.00000000000E+00  0.80696563093E+03  0.80696563095E+03  0.50400001928E-02 0.  1.
        1   -1    0    0  501    0  0.00000000000E+00  0.00000000000E+00 -0.13671088145E+04  0.13671088145E+04  0.50400001928E-02 0. -1.
    10030    2    1    2    0    0  0.00000000000E+00  0.00000000000E+00 -0.56014318352E+03  0.21740744454E+04  0.21006759170E+04 0.  0.
        5    1    3    3  502    0  0.68941075617E+03  0.24823837938E+03  0.49873621573E+03  0.88637993355E+03  0.46999998093E+01 0.  1.
       -5    1    3    3    0  502 -0.68941075617E+03 -0.24823837938E+03 -0.10588793993E+04  0.12876945119E+04  0.46999998093E+01 0. -1.
</event>
<event>
 5   0  0.1590067E-06  0.2099976E+04  0.7818609E-02  0.8561254E-01
        1   -1    0    0  501    0  0.00000000000E+00  0.00000000000E+00  0.81243388685E+03  0.81243388686E+03  0.50400001928E-02 0. -1.
       -1   -1    0    0    0  501  0.00000000000E+00  0.00000000000E+00 -0.13570029968E+04  0.13570029968E+04  0.50400001928E-02 0.  1.
    10030    2    1    2    0    0  0.00000000000E+00  0.00000000000E+00 -0.54456910993E+03  0.21694368837E+04  0.20999763991E+04 0.  0.
        5    1    3    3  502    0  0.99683057904E+03  0.36338395401E+02  0.66371579974E+02  0.99970943725E+03  0.46999998093E+01 0. -1.
       -5    1    3    3    0  502 -0.99683057904E+03 -0.36338395401E+02 -0.61094068991E+03  0.11697274464E+04  0.46999998093E+01 0.  1.
</event>
<event>
 5   0  0.3480134E-06  0.2099980E+04  0.7818609E-02  0.8561252E-01
       -2   -1    0    0    0  501  0.00000000000E+00  0.00000000000E+00  0.70695797012E+03  0.70695797013E+03  0.25500000920E-02 0. -1.
        2   -1    0    0  501    0  0.00000000000E+00  0.00000000000E+00 -0.15594686109E+04  0.15594686109E+04  0.25500000920E-02 0.  1.
    10030    2    1    2    0    0  0.00000000000E+00  0.00000000000E+00 -0.85251064080E+03  0.22664265810E+04  0.20999797748E+04 0.  0.
        1    1    3    3  502    0 -0.35602028722E+03 -0.92693748690E+03 -0.57856813154E+02  0.99464112141E+03  0.50400001928E-02 0. -1.
       -1    1    3    3    0  502  0.35602028722E+03  0.92693748690E+03 -0.79465382764E+03  0.12717854596E+04  0.50400001928E-02 0.  1.
</event>
<event>
 5   0  0.3480134E-06  0.2098762E+04  0.7818609E-02  0.8561789E-01
        2   -1    0    0  501    0  0.00000000000E+00  0.00000000000E+00  0.56610335493E+03  0.56610335494E+03  0.25500000920E-02 0.  1.
       -2   -1    0    0    0  501  0.00000000000E+00  0.00000000000E+00 -0.19452289709E+04  0.19452289709E+04  0.25500000920E-02 0. -1.
    10030    2    1    2    0    0  0.00000000000E+00  0.00000000000E+00 -0.13791256160E+04  0.25113323258E+04  0.20987621557E+04 0.  0.
        1    1    3    3  502    0  0.49054878126E+02  0.26989266005E+03  0.52244252183E+03  0.59008017900E+03  0.50400001928E-02 0.  1.
       -1    1    3    3    0  502 -0.49054878126E+02 -0.26989266005E+03 -0.19015681378E+04  0.19212521468E+04  0.50400001928E-02 0. -1.
</event>
<event>
 5   0  0.1646510E-06  0.2107079E+04  0.7818609E-02  0.8558132E-01
        1   -1    0    0  501    0  0.00000000000E+00  0.00000000000E+00  0.88345564065E+03  0.88345564067E+03  0.50400001928E-02 0.  1.
       -1   -1    0    0    0  501  0.00000000000E+00  0.00000000000E+00 -0.12563677788E+04  0.12563677789E+04  0.50400001928E-02 0. -1.
    10030    2    1    2    0    0  0.00000000000E+00  0.00000000000E+00 -0.37291213819E+03  0.21398234195E+04  0.21070787370E+04 0.  0.
        4    1    3    3  502    0  0.37470782186E+03 -0.41928115517E+03 -0.10912226794E+04  0.12275875479E+04  0.12699999809E+01 0. -1.
       -4    1    3    3    0  502 -0.37470782186E+03  0.41928115517E+03  0.71831054124E+03  0.91223587158E+03  0.12699999809E+01 0.  1.
</event>
<event>
 5   0  0.3547583E-06  0.2099852E+04  0.7818609E-02  0.8561308E-01
        2   -1    0    0  501    0  0.00000000000E+00  0.00000000000E+00  0.20194663717E+04  0.20194663717E+04  0.25500000920E-02 0.  1.
       -2   -1    0    0    0  501  0.00000000000E+00  0.00000000000E+00 -0.54585953913E+03  0.54585953914E+03  0.25500000920E-02 0. -1.
    10030    2    1    2    0    0  0.00000000000E+00  0.00000000000E+00  0.14736068326E+04  0.25653259109E+04  0.20998523595E+04 0.  0.
        2    1    3    3  502    0  0.10459319535E+04 -0.91451113166E+02  0.73334249843E+03  0.12806748914E+04  0.25500000920E-02 0. -1.
       -2    1    3    3    0  502 -0.10459319535E+04  0.91451113166E+02  0.74026433415E+03  0.12846510195E+04  0.25500000920E-02 0.  1.
</event>
<event>
 5   0  0.1257125E-06  0.2100275E+04  0.7818609E-02  0.8561122E-01
       -3   -1    0    0    0  501  0.00000000000E+00  0.00000000000E+00  0.17286755960E+04  0.17286755989E+04  0.10100000352E+00 0. -1.
        3   -1    0    0  501    0  0.00000000000E+00  0.00000000000E+00 -0.63793828594E+03  0.63793829393E+03  0.10100000352E+00 0.  1.
    10030    2    1    2    0    0  0.00000000000E+00  0.00000000000E+00  0.10907373100E+04  0.23666138928E+04  0.21002746102E+04 0.  0.
        1    1    3    3  502    0  0.78095148144E+02 -0.19566040877E+03 -0.61388261118E+03  0.64902519833E+03  0.50400001928E-02 0.  1.
       -1    1    3    3    0  502 -0.78095148144E+02  0.19566040877E+03  0.17046199212E+04  0.17175886945E+04  0.50400001928E-02 0. -1.
</event>
<event>
 5   0  0.3705828E-06  0.2099980E+04  0.7818609E-02  0.8561252E-01
       -2   -1    0    0    0  501  0.00000000000E+00  0.00000000000E+00  0.60990841892E+03  0.60990841893E+03  0.25500000920E-02 0.  1.
        2   -1    0    0  501    0  0.00000000000E+00  0.00000000000E+00 -0.18076144977E+04  0.18076144977E+04  0.25500000920E-02 0. -1.
    10030    2    1    2    0    0  0.00000000000E+00  0.00000000000E+00 -0.11977060788E+04  0.24175229166E+04  0.20999802859E+04 0.  0.
        5    1    3    3  502    0  0.17020664496E+03  0.62131115382E+03  0.35565347365E+03  0.73587317873E+03  0.46999998093E+01 0.  1.
       -5    1    3    3    0  502 -0.17020664496E+03 -0.62131115382E+03 -0.15533595525E+04  0.16816497379E+04  0.46999998093E+01 0. -1.
</event>
<event>
 5   0  0.3705828E-06  0.2105290E+04  0.7818609E-02  0.8558917E-01
       -2   -1    0    0    0  501  0.00000000000E+00  0.00000000000E+00  0.10181838623E+04  0.10181838623E+04  0.25500000920E-02 0.  1.
        2   -1    0    0  501    0  0.00000000000E+00  0.00000000000E+00 -0.10882725017E+04  0.10882725017E+04  0.25500000920E-02 0. -1.
    10030    2    1    2    0    0  0.00000000000E+00  0.00000000000E+00 -0.70088639398E+02  0.21064563640E+04  0.21052900028E+04 0.  0.
        5    1    3    3  502    0 -0.10518783504E+04 -0.38586734909E+02 -0.45169648451E+02  0.10535650845E+04  0.46999998093E+01 0.  1.
       -5    1    3    3    0  502  0.10518783504E+04  0.38586734909E+02 -0.24918990947E+02  0.10528912794E+04  0.46999998093E+01 0. -1.
</event>
<event>
 5   0  0.1615098E-06  0.2097242E+04  0.7818609E-02  0.8562459E-01
        1   -1    0    0  501    0  0.00000000000E+00  0.00000000000E+00  0.94912498229E+03  0.94912498231E+03  0.50400001928E-02 0.  1.
       -1   -1    0    0    0  501  0.00000000000E+00  0.00000000000E+00 -0.11585468657E+04  0.11585468657E+04  0.50400001928E-02 0. -1.
    10030    2    1    2    0    0  0.00000000000E+00  0.00000000000E+00 -0.20942188339E+03  0.21076718480E+04  0.20972417823E+04 0.  0.
        1    1    3    3  502    0 -0.56324230814E+03 -0.16790217731E+03 -0.97746104131E+03  0.11405538681E+04  0.50400001928E-02 0. -1.
       -1    1    3    3    0  502  0.56324230814E+03  0.16790217731E+03  0.76803915792E+03  0.96711797986E+03  0.50400001928E-02 0.  1.
</event>
<event>
 5   0  0.1646510E-06  0.2100467E+04  0.7818609E-02  0.8561038E-01
        1   -1    0    0  501    0  0.00000000000E+00  0.00000000000E+00  0.13557778509E+04  0.13557778509E+04  0.50400001928E-02 0. -1.
       -1   -1    0    0    0  501  0.00000000000E+00  0.00000000000E+00 -0.81354834996E+03  0.81354834998E+03  0.50400001928E-02 0.  1.
    10030    2    1    2    0    0  0.00000000000E+00  0.00000000000E+00  0.54222950097E+03  0.21693262009E+04  0.21004674085E+04 0.  0.
        4    1    3    3  502    0 -0.96953529125E+03  0.37212187651E+03  0.43282307624E+03  0.11250825748E+04  0.12699999809E+01 0. -1.
       -4    1    3    3    0  502  0.96953529125E+03 -0.37212187651E+03  0.10940642472E+03  0.10442436261E+04  0.12699999809E+01 0.  1.
</event>
<event>
 5   0  0.3574927E-06  0.2102014E+04  0.7818609E-02  0.8560357E-01
       -2   -1    0    0    0  501  0.00000000000E+00  0.00000000000E+00  0.64857424653E+03  0.64857424654E+03  0.25500000920E-02 0. -1.
        2   -1    0    0  501    0  0.00000000000E+00  0.00000000000E+00 -0.17031440976E+04  0.17031440976E+04  0.25500000920E-02 0.  1.
    10030    2    1    2    0    0  0.00000000000E+00  0.00000000000E+00 -0.10545698511E+04  0.23517183442E+04  0.21020137011E+04 0.  0.
        3    1    3    3  502    0  0.96812558272E+03 -0.26945755243E+03 -0.18292036085E+03  0.10214374112E+04  0.10100000352E+00 0.  1.
       -3    1    3    3    0  502 -0.96812558272E+03  0.26945755243E+03 -0.87164949025E+03  0.13302809329E+04  0.10100000352E+00 0. -1.
</event>
<event>
 5   0  0.3480134E-06  0.2099882E+04  0.7818609E-02  0.8561295E-01
        2   -1    0    0  501    0  0.00000000000E+00  0.00000000000E+00  0.17356932073E+04  0.17356932073E+04  0.25500000920E-02 0. -1.
       -2   -1    0    0    0  501  0.00000000000E+00  0.00000000000E+00 -0.63512153537E+03  0.63512153538E+03  0.25500000920E-02 0.  1.
    10030    2    1    2    0    0  0.00000000000E+00  0.00000000000E+00  0.11005716719E+04  0.23708147426E+04  0.20998820298E+04 0.  0.
        1    1    3    3  502    0  0.32015465231E+03 -0.71749440162E+03  0.13366232172E+04  0.15504382743E+04  0.50400001928E-02 0.  1.
       -1    1    3    3    0  502 -0.32015465231E+03  0.71749440162E+03 -0.23605154527E+03  0.82037646834E+03  0.50400001928E-02 0. -1.
</event>
<event>
 5   0  0.3705828E-06  0.2098570E+04  0.7818609E-02  0.8561874E-01
       -2   -1    0    0    0  501  0.00000000000E+00  0.00000000000E+00  0.56139676705E+03  0.56139676705E+03  0.25500000920E-02 0. -1.
        2   -1    0    0  501    0  0.00000000000E+00  0.00000000000E+00 -0.19611773490E+04  0.19611773490E+04  0.25500000920E-02 0.  1.
    10030    2    1    2    0    0  0.00000000000E+00  0.00000000000E+00 -0.13997805820E+04  0.25225741161E+04  0.20985696303E+04 0.  0.
        5    1    3    3  502    0  0.15362158945E+03 -0.59211945000E+03 -0.17246439907E+04  0.18299245942E+04  0.46999998093E+01 0.  1.
       -5    1    3    3    0  502 -0.15362158945E+03  0.59211945000E+03  0.32486340873E+03  0.69264952187E+03  0.46999998093E+01 0. -1.
</event>
<event>
 5   0  0.1579820E-06  0.2099967E+04  0.7818609E-02  0.8561258E-01
        1   -1    0    0  501    0  0.00000000000E+00  0.00000000000E+00  0.71563119337E+03  0.71563119338E+03  0.50400001928E-02 0. -1.
       -1   -1    0    0    0  501  0.00000000000E+00  0.00000000000E+00 -0.15405490965E+04  0.15405490965E+04  0.50400001928E-02 0.  1.
    10030    2    1    2    0    0  0.00000000000E+00  0.00000000000E+00 -0.82491790312E+03  0.22561802899E+04  0.20999666553E+04 0.  0.
        2    1    3    3  502    0  0.81572270679E+03  0.50501207744E+03 -0.87083934600E+03  0.12956858799E+04  0.25500000920E-02 0.  1.
       -2    1    3    3    0  502 -0.81572270679E+03 -0.50501207744E+03  0.45921442881E+02  0.96049441001E+03  0.25500000920E-02 0. -1.
</event>
<event>
 5   0  0.3574927E-06  0.2100418E+04  0.7818609E-02  0.8561059E-01
       -2   -1    0    0    0  501  0.00000000000E+00  0.00000000000E+00  0.51209712947E+03  0.51209712947E+03  0.25500000920E-02 0. -1.
        2   -1    0    0  501    0  0.00000000000E+00  0.00000000000E+00 -0.21537682016E+04  0.21537682016E+04  0.25500000920E-02 0.  1.
    10030    2    1    2    0    0  0.00000000000E+00  0.00000000000E+00 -0.16416710721E+04  0.26658653311E+04  0.21004175905E+04 0.  0.
        3    1    3    3  502    0 -0.89320771944E+03 -0.39717245050E+03 -0.33359791753E+03  0.10328860374E+04  0.10100000352E+00 0. -1.
       -3    1    3    3    0  502  0.89320771944E+03  0.39717245050E+03 -0.13080731546E+04  0.16329792937E+04  0.10100000352E+00 0.  1.
</event>
<event>
 5   0  0.3636435E-06  0.2100451E+04  0.7818609E-02  0.8561045E-01
        2   -1    0    0  501    0  0.00000000000E+00  0.00000000000E+00  0.15432799222E+04  0.15432799222E+04  0.25500000920E-02 0. -1.
       -2   -1    0    0    0  501  0.00000000000E+00  0.00000000000E+00 -0.71469437467E+03  0.71469437468E+03  0.25500000920E-02 0.  1.
    10030    2    1    2    0    0  0.00000000000E+00  0.00000000000E+00  0.82858554749E+03  0.22579742968E+04  0.21004508839E+04 0.  0.
        4    1    3    3  502    0 -0.25102367610E+02  0.82786921576E+03 -0.27986965952E+03  0.87425751726E+03  0.12699999809E+01 0.  1.
       -4    1    3    3    0  502  0.25102367610E+02 -0.82786921576E+03  0.11084552070E+04  0.13837167796E+04  0.12699999809E+01 0. -1.
</event>
<event>
 5   0  0.1257125E-06  0.2101165E+04  0.7818609E-02  0.8560730E-01
        3   -1    0    0  501    0  0.00000000000E+00  0.00000000000E+00  0.72396151576E+03  0.72396152280E+03  0.10100000352E+00 0.  1.
       -3   -1    0    0    0  501  0.00000000000E+00  0.00000000000E+00 -0.15245612539E+04  0.15245612572E+04  0.10100000352E+00 0. -1.
    10030    2    1    2    0    0  0.00000000000E+00  0.00000000000E+00 -0.80059973810E+03  0.22485227800E+04  0.21011650938E+04 0.  0.
        2    1    3    3  502    0  0.59833542245E+03  0.10757825129E+03 -0.13172128785E+04  0.14507336507E+04  0.25500000920E-02 0. -1.
       -2    1    3    3    0  502 -0.59833542245E+03 -0.10757825129E+03  0.51661314045E+03  0.79778912928E+03  0.25500000920E-02 0.  1.
</event>
<event>
 5   0  0.3574927E-06  0.2097563E+04  0.7818609E-02  0.8562318E-01
        2   -1    0    0  501    0  0.00000000000E+00  0.00000000000E+00  0.91644637744E+03  0.91644637744E+03  0.25500000920E-02 0. -1.
       -2   -1    0    0    0  501  0.00000000000E+00  0.00000000000E+00 -0.12002261133E+04  0.12002261133E+04  0.25500000920E-02 0.  1.
    10030    2    1    2    0    0  0.00000000000E+00  0.00000000000E+00 -0.28377973583E+03  0.21166724907E+04  0.20975632278E+04 0.  0.
        3    1    3    3  502    0  0.24296822815E+03 -0.61471799907E+02 -0.11695637335E+04  0.11961152449E+04  0.10100000352E+00 0.  1.
       -3    1    3    3    0  502 -0.24296822815E+03  0.61471799907E+02  0.88578399770E+03  0.92055724583E+03  0.10100000352E+00 0. -1.
</event>
<event>
 5   0  0.3636435E-06  0.2100750E+04  0.7818609E-02  0.8560913E-01
        2   -1    0    0  501    0  0.00000000000E+00  0.00000000000E+00  0.66348618494E+03  0.66348618495E+03  0.25500000920E-02 0. -1.
       -2   -1    0    0    0  501  0.00000000000E+00  0.00000000000E+00 -0.16628649050E+04  0.16628649050E+04  0.25500000920E-02 0.  1.
    10030    2    1    2    0    0  0.00000000000E+00  0.00000000000E+00 -0.99937872007E+03  0.23263510900E+04  0.21007502392E+04 0.  0.
        4    1    3    3  502    0 -0.26113553679E+03  0.95491185049E+03 -0.11093710122E+03  0.99617120221E+03  0.12699999809E+01 0. -1.
       -4    1    3    3    0  502  0.26113553679E+03 -0.95491185049E+03 -0.88844161885E+03  0.13301798878E+04  0.12699999809E+01 0.  1.
</event>
<event>
 5   0  0.3480134E-06  0.2100115E+04  0.7818609E-02  0.8561193E-01
       -2   -1    0    0    0  501  0.00000000000E+00  0.00000000000E+00  0.12238370654E+04  0.12238370654E+04  0.25500000920E-02 0.  1.
        2   -1    0    0  501    0  0.00000000000E+00  0.00000000000E+00 -0.90095359725E+03  0.90095359725E+03  0.25500000920E-02 0. -1.
    10030    2    1    2    0    0  0.00000000000E+00  0.00000000000E+00  0.32288346815E+03  0.21247906627E+04  0.21001146698E+04 0.  0.
        1    1    3    3  502    0  0.29150879744E+03  0.32392958191E+03 -0.80514354437E+03  0.91551290547E+03  0.50400001928E-02 0. -1.
       -1    1    3    3    0  502 -0.29150879744E+03 -0.32392958191E+03  0.11280270125E+04  0.12092777572E+04  0.50400001928E-02 0.  1.
</event>
<event>
 5   0  0.1646510E-06  0.2100547E+04  0.7818609E-02  0.8561002E-01
        1   -1    0    0  501    0  0.00000000000E+00  0.00000000000E+00  0.15027044716E+04  0.15027044716E+04  0.50400001928E-02 0.  1.
       -1   -1    0    0    0  501  0.00000000000E+00  0.00000000000E+00 -0.73405958759E+03  0.73405958761E+03  0.50400001928E-02 0. -1.
    10030    2    1    2    0    0  0.00000000000E+00  0.00000000000E+00  0.76864488403E+03  0.22367640592E+04  0.21005471904E+04 0.  0.
        4    1    3    3  502    0  0.82013945317E+03 -0.65559328399E+03  0.35734718114E+03  0.11091122114E+04  0.12699999809E+01 0.  1.
       -4    1    3    3    0  502 -0.82013945317E+03  0.65559328399E+03  0.41129770289E+03  0.11276518479E+04  0.12699999809E+01 0. -1.
</event>
<event>
 5   0  0.3574927E-06  0.2100914E+04  0.7818609E-02  0.8560841E-01
       -2   -1    0    0    0  501  0.00000000000E+00  0.00000000000E+00  0.89736692413E+03  0.89736692413E+03  0.25500000920E-02 0.  1.
        2   -1    0    0  501    0  0.00000000000E+00  0.00000000000E+00 -0.12296638030E+04  0.12296638030E+04  0.25500000920E-02 0. -1.
    10030    2    1    2    0    0  0.00000000000E+00  0.00000000000E+00 -0.33229687890E+03  0.21270307272E+04  0.21009137294E+04 0.  0.
        3    1    3    3  502    0  0.99638256011E+03  0.32262302971E+03 -0.83924378322E+02  0.10506698515E+04  0.10100000352E+00 0.  1.
       -3    1    3    3    0  502 -0.99638256011E+03 -0.32262302971E+03 -0.24837250057E+03  0.10763608757E+04  0.10100000352E+00 0. -1.
</event>
<event>
 5   0  0.3705828E-06  0.2100726E+04  0.7818609E-02  0.8560924E-01
       -2   -1    0    0    0  501  0.00000000000E+00  0.00000000000E+00  0.62831175027E+03  0.62831175028E+03  0.25500000920E-02 0.  1.
        2   -1    0    0  501    0  0.00000000000E+00  0.00000000000E+00 -0.17559154660E+04  0.17559154660E+04  0.25500000920E-02 0. -1.
    10030    2    1    2    0    0  0.00000000000E+00  0.00000000000E+00 -0.11276037157E+04  0.23842272162E+04  0.21007258934E+04 0.  0.
        5    1    3    3  502    0  0.42379857026E+03  0.34340826635E+03 -0.15825491983E+04  0.16739230928E+04  0.46999998093E+01 0. -1.
       -5    1    3    3    0  502 -0.42379857026E+03 -0.34340826635E+03  0.45494548265E+03  0.71030412341E+03  0.46999998093E+01 0.  1.
</event>
<event>
 5   0  0.1653260E-06  0.2100092E+04  0.7818609E-02  0.8561203E-01
       -1   -1    0    0    0  501  0.00000000000E+00  0.00000000000E+00  0.71016709776E+03  0.71016709778E+03  0.50400001928E-02 0.  1.
        1   -1    0    0  501    0  0.00000000000E+00  0.00000000000E+00 -0.15525877863E+04  0.15525877863E+04  0.50400001928E-02 0. -1.
    10030    2    1    2    0    0  0.00000000000E+00  0.00000000000E+00 -0.84242068854E+03  0.22627548841E+04  0.21000921525E+04 0.  0.
        3    1    3    3  502    0  0.57100339552E+03 -0.88005495730E+03 -0.47005539315E+03  0.11495623900E+04  0.10100000352E+00 0. -1.
       -3    1    3    3    0  502 -0.57100339552E+03  0.88005495730E+03 -0.37236529539E+03  0.11131924941E+04  0.10100000352E+00 0.  1.
</event>
<event>
 5   0  0.1646510E-06  0.2100024E+04  0.7818609E-02  0.8561233E-01
        1   -1    0    0  501    0  0.00000000000E+00  0.00000000000E+00  0.23314691358E+04  0.23314691358E+04  0.50400001928E-02 0. -1.
       -1   -1    0    0    0  501  0.00000000000E+00  0.00000000000E+00 -0.47288854824E+03  0.47288854827E+03  0.50400001928E-02 0.  1.
    10030    2    1    2    0    0  0.00000000000E+00  0.00000000000E+00  0.18585805876E+04  0.28043576841E+04  0.21000238617E+04 0.  0.
        4    1    3    3  502    0 -0.83626460036E+03  0.49025858644E+03  0.14681532870E+04  0.17593088559E+04  0.12699999809E+01 0. -1.
       -4    1    3    3    0  502  0.83626460036E+03 -0.49025858644E+03  0.39042730058E+03  0.10450488282E+04  0.12699999809E+01 0.  1.
</event>
<event>
 5   0  0.3636435E-06  0.2100222E+04  0.7818609E-02  0.8561146E-01
       -2   -1    0    0    0  501  0.00000000000E+00  0.00000000000E+00  0.13780548678E+04  0.13780548678E+04  0.25500000920E-02 0. -1.
        2   -1    0    0  501    0  0.00000000000E+00  0.00000000000E+00 -0.80020979693E+03  0.80020979693E+03  0.25500000920E-02 0.  1.
    10030    2    1    2    0    0  0.00000000000E+00  0.00000000000E+00  0.57784507082E+03  0.21782646647E+04  0.21002218986E+04 0.  0.
        4    1    3    3  502    0  0.59017522057E+03  0.33443793250E+03 -0.54247296727E+03  0.86858163393E+03  0.12699999809E+01 0.  1.
       -4    1    3    3    0  502 -0.59017522057E+03 -0.33443793250E+03  0.11203180381E+04  0.13096830308E+04  0.12699999809E+01 0. -1.
</event>
<event>
 5   0  0.1653260E-06  0.2100018E+04  0.7818609E-02  0.8561235E-01
        1   -1    0    0  501    0  0.00000000000E+00  0.00000000000E+00  0.10650248838E+04  0.10650248839E+04  0.50400001928E-02 0. -1.
       -1   -1    0    0    0  501  0.00000000000E+00  0.00000000000E+00 -0.10352047582E+04  0.10352047582E+04  0.50400001928E-02 0.  1.
    10030    2    1    2    0    0  0.00000000000E+00  0.00000000000E+00  0.29820125607E+02  0.21002296421E+04  0.21000179308E+04 0.  0.
        3    1    3    3  502    0 -0.47864043321E+03  0.21568366628E+03  0.92434364709E+03  0.10630274203E+04  0.10100000352E+00 0. -1.
       -3    1    3    3    0  502  0.47864043321E+03 -0.21568366628E+03 -0.89452352148E+03  0.10372022218E+04  0.10100000352E+00 0.  1.
</event>
<event>
 5   0  0.3705828E-06  0.2100874E+04  0.7818609E-02  0.8560859E-01
        2   -1    0    0  501    0  0.00000000000E+00  0.00000000000E+00  0.15467309762E+04  0.15467309762E+04  0.25500000920E-02 0. -1.
       -2   -1    0    0    0  501  0.00000000000E+00  0.00000000000E+00 -0.71338699694E+03  0.71338699695E+03  0.25500000920E-02 0.  1.
    10030    2    1    2    0    0  0.00000000000E+00  0.00000000000E+00  0.83334397922E+03  0.22601179731E+04  0.21008738812E+04 0.  0.
        5    1    3    3  502    0 -0.37351539486E+03  0.68990724142E+03  0.11681234851E+04  0.14071319477E+04  0.46999998093E+01 0. -1.
       -5    1    3    3    0  502  0.37351539486E+03 -0.68990724142E+03 -0.33477950585E+03  0.85298602538E+03  0.46999998093E+01 0.  1.
</event>
<event>
 5   0  0.3547583E-06  0.2099432E+04  0.7818609E-02  0.8561494E-01
       -2   -1    0    0    0  501  0.00000000000E+00  0.00000000000E+00  0.10141015729E+04  0.10141015729E+04  0.25500000920E-02 0.  1.
        2   -1    0    0  501    0  0.00000000000E+00  0.00000000000E+00 -0.10865809321E+04  0.10865809321E+04  0.25500000920E-02 0. -1.
    10030    2    1    2    0    0  0.00000000000E+00  0.00000000000E+00 -0.72479359235E+02  0.21006825050E+04  0.20994317634E+04 0.  0.
        2    1    3    3  502    0 -0.40870979687E+03  0.48633920064E+02  0.92999314879E+03  0.10170035462E+04  0.25500000920E-02 0.  1.
       -2    1    3    3    0  502  0.40870979687E+03 -0.48633920064E+02 -0.10024725080E+04  0.10836789587E+04  0.25500000920E-02 0. -1.
</event>
<event>
 5   0  0.3705828E-06  0.2103084E+04  0.7818609E-02  0.8559886E-01
       -2   -1    0    0    0  501  0.00000000000E+00  0.00000000000E+00  0.11589325720E+04  0.11589325720E+04  0.25500000920E-02 0. -1.
        2   -1    0    0  501    0  0.00000000000E+00  0.00000000000E+00 -0.95410260347E+03  0.95410260347E+03  0.25500000920E-02 0.  1.
    10030    2    1    2    0    0  0.00000000000E+00  0.00000000000E+00  0.20482996856E+03  0.21130351755E+04  0.21030840061E+04 0.  0.
        5    1    3    3  502    0 -0.18370140450E+03  0.37035293880E+03 -0.86901613255E+03  0.96235057746E+03  0.46999998093E+01 0.  1.
       -5    1    3    3    0  502  0.18370140450E+03 -0.37035293880E+03  0.10738461011E+04  0.11506845980E+04  0.46999998093E+01 0. -1.
</event>
<event>
 5   0  0.1590067E-06  0.2099658E+04  0.7818609E-02  0.8561394E-01
       -1   -1    0    0    0  501  0.00000000000E+00  0.00000000000E+00  0.83790718701E+03  0.83790718703E+03  0.50400001928E-02 0. -1.
        1   -1    0    0  501    0  0.00000000000E+00  0.00000000000E+00 -0.13153493148E+04  0.13153493148E+04  0.50400001928E-02 0.  1.
    10030    2    1    2    0    0  0.00000000000E+00  0.00000000000E+00 -0.47744212783E+03  0.21532565019E+04  0.20996577286E+04 0.  0.
        5    1    3    3  502    0  0.26921537610E+03  0.85771281321E+03 -0.79475210684E+03  0.11999171596E+04  0.46999998093E+01 0.  1.
       -5    1    3    3    0  502 -0.26921537610E+03 -0.85771281321E+03  0.31730997902E+03  0.95333934224E+03  0.46999998093E+01 0. -1.
</event>
<event>
 5   0  0.1646510E-06  0.2100737E+04  0.7818609E-02  0.8560919E-01
       -1   -1    0    0    0  501  0.00000000000E+00  0.00000000000E+00  0.55786283066E+03  0.55786283069E+03  0.50400001928E-02 0.  1.
        1   -1    0    0  501    0  0.00000000000E+00  0.00000000000E+00 -0.19776795509E+04  0.19776795509E+04  0.50400001928E-02 0. -1.
    10030    2    1    2    0    0  0.00000000000E+00  0.00000000000E+00 -0.14198167202E+04  0.25355423816E+04  0.21007369302E+04 0.  0.
        4    1    3    3  502    0 -0.87420722774E+03  0.56392343468E+03 -0.88491753884E+03  0.13657703250E+04  0.12699999809E+01 0. -1.
       -4    1    3    3    0  502  0.87420722774E+03 -0.56392343468E+03 -0.53489918138E+03  0.11697720566E+04  0.12699999809E+01 0.  1.
</event>
<event>
 5   0  0.3574927E-06  0.2100202E+04  0.7818609E-02  0.8561154E-01
       -2   -1    0    0    0  501  0.00000000000E+00  0.00000000000E+00  0.62805352962E+03  0.62805352963E+03  0.25500000920E-02 0. -1.
        2   -1    0    0  501    0  0.00000000000E+00  0.00000000000E+00 -0.17557621231E+04  0.17557621231E+04  0.25500000920E-02 0.  1.
    10030    2    1    2    0    0  0.00000000000E+00  0.00000000000E+00 -0.11277085934E+04  0.23838156527E+04  0.21002024651E+04 0.  0.
        3    1    3    3  502    0  0.43481555619E+03  0.27397932619E+03  0.47555027021E+03  0.70019804968E+03  0.10100000352E+00 0. -1.
       -3    1    3    3    0  502 -0.43481555619E+03 -0.27397932619E+03 -0.16032588637E+04  0.16836176030E+04  0.10100000352E+00 0.  1.
</event>
<event>
 5   0  0.1579820E-06  0.2099710E+04  0.7818609E-02  0.8561371E-01
        1   -1    0    0  501    0  0.00000000000E+00  0.00000000000E+00  0.10869543114E+04  0.10869543115E+04  0.50400001928E-02 0. -1.
       -1   -1    0    0    0  501  0.00000000000E+00  0.00000000000E+00 -0.10140216898E+04  0.10140216898E+04  0.50400001928E-02 0.  1.
    10030    2    1    2    0    0  0.00000000000E+00  0.00000000000E+00  0.72932621649E+02  0.21009760013E+04  0.20997097396E+04 0.  0.
        2    1    3    3  502    0 -0.71652461103E+03 -0.42800995801E+03 -0.60078132817E+03  0.10283667861E+04  0.25500000920E-02 0.  1.
       -2    1    3    3    0  502  0.71652461103E+03  0.42800995801E+03  0.67371394982E+03  0.10726092152E+04  0.25500000920E-02 0. -1.
</event>
<event>
 5   0  0.3636435E-06  0.2099521E+04  0.7818609E-02  0.8561454E-01
       -2   -1    0    0    0  501  0.00000000000E+00  0.00000000000E+00  0.61229302824E+03  0.61229302825E+03  0.25500000920E-02 0. -1.
        2   -1    0    0  501    0  0.00000000000E+00  0.00000000000E+00 -0.17997873073E+04  0.17997873073E+04  0.25500000920E-02 0.  1.
    10030    2    1    2    0    0  0.00000000000E+00  0.00000000000E+00 -0.11874942790E+04  0.24120803355E+04  0.20995211078E+04 0.  0.
        4    1    3    3  502    0 -0.11843051503E+03  0.99930444961E+03 -0.93718183427E+03  0.13751169308E+04  0.12699999809E+01 0.  1.
       -4    1    3    3    0  502  0.11843051503E+03 -0.99930444961E+03 -0.25031244476E+03  0.10369634048E+04  0.12699999809E+01 0. -1.
</event>
<event>
 5   0  0.1646510E-06  0.2098311E+04  0.7818609E-02  0.8561988E-01
        1   -1    0    0  501    0  0.00000000000E+00  0.00000000000E+00  0.21408901474E+04  0.21408901474E+04  0.50400001928E-02 0.  1.
       -1   -1    0    0    0  501  0.00000000000E+00  0.00000000000E+00 -0.51414474364E+03  0.51414474367E+03  0.50400001928E-02 0. -1.
    10030    2    1    2    0    0  0.00000000000E+00  0.00000000000E+00  0.16267454038E+04  0.26550348911E+04  0.20983111457E+04 0.  0.
        4    1    3    3  502    0 -0.93820489375E+03 -0.38929173363E+03  0.11456229851E+04  0.15310878856E+04  0.12699999809E+01 0. -1.
       -4    1    3    3    0  502  0.93820489375E+03  0.38929173363E+03  0.48112241870E+03  0.11239470055E+04  0.12699999809E+01 0.  1.
</event>
<event>
 5   0  0.1615098E-06  0.2098154E+04  0.7818609E-02  0.8562057E-01
       -1   -1    0    0    0  501  0.00000000000E+00  0.00000000000E+00  0.63188607741E+03  0.63188607743E+03  0.50400001928E-02 0.  1.
        1   -1    0    0  501    0  0.00000000000E+00  0.00000000000E+00 -0.17417102821E+04  0.17417102821E+04  0.50400001928E-02 0. -1.
    10030    2    1    2    0    0  0.00000000000E+00  0.00000000000E+00 -0.11098242047E+04  0.23735963595E+04  0.20981539297E+04 0.  0.
        1    1    3    3  502    0 -0.36298487203E+03  0.15819775068E+03 -0.16539291514E+04  0.17006663939E+04  0.50400001928E-02 0. -1.
       -1    1    3    3    0  502  0.36298487203E+03 -0.15819775068E+03  0.54410494666E+03  0.67292996563E+03  0.50400001928E-02 0.  1.
</event>
<event>
 5   0  0.1590067E-06  0.2101014E+04  0.7818609E-02  0.8560797E-01
        1   -1    0    0  501    0  0.00000000000E+00  0.00000000000E+00  0.24491456075E+04  0.24491456075E+04  0.50400001928E-02 0.  1.
       -1   -1    0    0    0  501  0.00000000000E+00  0.00000000000E+00 -0.45059194107E+03  0.45059194110E+03  0.50400001928E-02 0. -1.
    10030    2    1    2    0    0  0.00000000000E+00  0.00000000000E+00  0.19985536664E+04  0.28997375486E+04  0.21010143010E+04 0.  0.
        5    1    3    3  502    0  0.19660511135E+02  0.56573765671E+03 -0.22206607984E+03  0.60809626354E+03  0.46999998093E+01 0. -1.
       -5    1    3    3    0  502 -0.19660511135E+02 -0.56573765671E+03  0.22206197463E+04  0.22916412851E+04  0.46999998093E+01 0.  1.
</event>
<event>
 5   0  0.1653260E-06  0.2101475E+04  0.7818609E-02  0.8560594E-01
       -1   -1    0    0    0  501  0.00000000000E+00  0.00000000000E+00  0.11508935344E+04  0.11508935344E+04  0.50400001928E-02 0. -1.
        1   -1    0    0  501    0  0.00000000000E+00  0.00000000000E+00 -0.95929793509E+03  0.95929793510E+03  0.50400001928E-02 0.  1.
    10030    2    1    2    0    0  0.00000000000E+00  0.00000000000E+00  0.19159559928E+03  0.21101914695E+04  0.21014754731E+04 0.  0.
        3    1    3    3  502    0  0.40513733031E+02  0.65673159040E+03 -0.72681422096E+03  0.98040637819E+03  0.10100000352E+00 0.  1.
       -3    1    3    3    0  502 -0.40513733031E+02 -0.65673159040E+03  0.91840982024E+03  0.11297850913E+04  0.10100000352E+00 0. -1.
</event>
<event>
 5   0  0.3547583E-06  0.2100075E+04  0.7818609E-02  0.8561210E-01
       -2   -1    0    0    0  501  0.00000000000E+00  0.00000000000E+00  0.47877257723E+03  0.47877257724E+03  0.25500000920E-02 0.  1.
        2   -1    0    0  501    0  0.00000000000E+00  0.00000000000E+00 -0.23029283895E+04  0.23029283895E+04  0.25500000920E-02 0. -1.
    10030    2    1    2    0    0  0.00000000000E+00  0.00000000000E+00 -0.18241558122E+04  0.27817009667E+04  0.21000751989E+04 0.  0.
        2    1    3    3  502    0  0.82607820000E+03  0.12542745302E+03 -0.17544492232E+04  0.19432522521E+04  0.25500000920E-02 0. -1.
       -2    1    3    3    0  502 -0.82607820000E+03 -0.12542745302E+03 -0.69706589050E+02  0.83844871462E+03  0.25500000920E-02 0.  1.
</event>
<event>
 5   0  0.1646510E-06  0.2099530E+04  0.7818609E-02  0.8561450E-01
        1   -1    0    0  501    0  0.00000000000E+00  0.00000000000E+00  0.10636755519E+04  0.10636755519E+04  0.50400001928E-02 0. -1.
       -1   -1    0    0    0  501  0.00000000000E+00  0.00000000000E+00 -0.10360367114E+04  0.10360367114E+04  0.50400001928E-02 0.  1.
    10030    2    1    2    0    0  0.00000000000E+00  0.00000000000E+00  0.27638840533E+02  0.20997122633E+04  0.20995303483E+04 0.  0.
        4    1    3    3  502    0 -0.72825121528E+03  0.13696004081E+03 -0.72981573153E+03  0.10400675460E+04  0.12699999809E+01 0.  1.
       -4    1    3    3    0  502  0.72825121528E+03 -0.13696004081E+03  0.75745457207E+03  0.10596447173E+04  0.12699999809E+01 0. -1.
</event>
<event>
 5   0  0.3705828E-06  0.2099466E+04  0.7818609E-02  0.8561479E-01
       -2   -1    0    0    0  501  0.00000000000E+00  0.00000000000E+00  0.98838224358E+03  0.98838224359E+03  0.25500000920E-02 0. -1.
        2   -1    0    0  501    0  0.00000000000E+00  0.00000000000E+00 -0.11148918653E+04  0.11148918653E+04  0.25500000920E-02 0.  1.
    10030    2    1    2    0    0  0.00000000000E+00  0.00000000000E+00 -0.12650962175E+03  0.21032741089E+04  0.20994659542E+04 0.  0.
        5    1    3    3  502    0  0.12104775787E+03 -0.57126713524E+03 -0.93714350472E+03  0.11042004972E+04  0.46999998093E+01 0.  1.
       -5    1    3    3    0  502 -0.12104775787E+03  0.57126713524E+03  0.81063388297E+03  0.99907361176E+03  0.46999998093E+01 0. -1.
</event>
<event>
 5   0  0.3636435E-06  0.2103217E+04  0.7818609E-02  0.8559828E-01
       -2   -1    0    0    0  501  0.00000000000E+00  0.00000000000E+00  0.64227273650E+03  0.64227273651E+03  0.25500000920E-02 0. -1.
        2   -1    0    0  501    0  0.00000000000E+00  0.00000000000E+00 -0.17218237362E+04  0.17218237362E+04  0.25500000920E-02 0.  1.
    10030    2    1    2    0    0  0.00000000000E+00  0.00000000000E+00 -0.10795509997E+04  0.23640964727E+04  0.21032170053E+04 0.  0.
        4    1    3    3  502    0 -0.32029168997E+03 -0.78432091503E+03  0.16050375961E+03  0.86226975720E+03  0.12699999809E+01 0. -1.
       -4    1    3    3    0  502  0.32029168997E+03  0.78432091503E+03 -0.12400547593E+04  0.15018267155E+04  0.12699999809E+01 0.  1.
</event>
<event>
 5   0  0.1615098E-06  0.2099683E+04  0.7818609E-02  0.8561383E-01
        1   -1    0    0  501    0  0.00000000000E+00  0.00000000000E+00  0.93249926834E+03  0.93249926835E+03  0.50400001928E-02 0.  1.
       -1   -1    0    0    0  501  0.00000000000E+00  0.00000000000E+00 -0.11819493758E+04  0.11819493759E+04  0.50400001928E-02 0. -1.
    10030    2    1    2    0    0  0.00000000000E+00  0.00000000000E+00 -0.24945010750E+03  0.21144486442E+04  0.20996827648E+04 0.  0.
        1    1    3    3  502    0  0.24760914928E+02 -0.10862255313E+03  0.92652949147E+03  0.93320354722E+03  0.50400001928E-02 0.  1.
       -1    1    3    3    0  502 -0.24760914928E+02  0.10862255313E+03 -0.11759795990E+04  0.11812450970E+04  0.50400001928E-02 0. -1.
</event>
<event>
 5   0  0.3705828E-06  0.2100506E+04  0.7818609E-02  0.8561021E-01
       -2   -1    0    0    0  501  0.00000000000E+00  0.00000000000E+00  0.10629278796E+04  0.10629278796E+04  0.25500000920E-02 0. -1.
        2   -1    0    0  501    0  0.00000000000E+00  0.00000000000E+00 -0.10377289515E+04  0.10377289515E+04  0.25500000920E-02 0.  1.
    10030    2    1    2    0    0  0.00000000000E+00  0.00000000000E+00  0.25198928046E+02  0.21006568311E+04  0.21005056858E+04 0.  0.
        5    1    3    3  502    0  0.66687827372E+03  0.46724621429E+03 -0.65074554886E+03  0.10423711029E+04  0.46999998093E+01 0.  1.
       -5    1    3    3    0  502 -0.66687827372E+03 -0.46724621429E+03  0.67594447690E+03  0.10582857282E+04  0.46999998093E+01 0. -1.
</event>
<event>
 5   0  0.3480134E-06  0.2099796E+04  0.7818609E-02  0.8561333E-01
       -2   -1    0    0    0  501  0.00000000000E+00  0.00000000000E+00  0.10587417090E+04  0.10587417090E+04  0.25500000920E-02 0. -1.
        2   -1    0    0  501    0  0.00000000000E+00  0.00000000000E+00 -0.10411280114E+04  0.10411280114E+04  0.25500000920E-02 0.  1.
    10030    2    1    2    0    0  0.00000000000E+00  0.00000000000E+00  0.17613697610E+02  0.20998697204E+04  0.20997958473E+04 0.  0.
        1    1    3    3  502    0  0.97213785853E+03  0.20983106829E+03 -0.32766383681E+03  0.10471125456E+04  0.50400001928E-02 0.  1.
       -1    1    3    3    0  502 -0.97213785853E+03 -0.20983106829E+03  0.34527753442E+03  0.10527571748E+04  0.50400001928E-02 0. -1.
</event>
<event>
 5   0  0.3574927E-06  0.2100653E+04  0.7818609E-02  0.8560956E-01
        2   -1    0    0  501    0  0.00000000000E+00  0.00000000000E+00  0.15007857234E+04  0.15007857234E+04  0.25500000920E-02 0. -1.
       -2   -1    0    0    0  501  0.00000000000E+00  0.00000000000E+00 -0.73507240947E+03  0.73507240947E+03  0.25500000920E-02 0.  1.
    10030    2    1    2    0    0  0.00000000000E+00  0.00000000000E+00  0.76571331394E+03  0.22358581329E+04  0.21006534010E+04 0.  0.
        3    1    3    3  502    0 -0.45967884006E+03  0.73345638366E+02 -0.61928632521E+03  0.77472561689E+03  0.10100000352E+00 0.  1.
       -3    1    3    3    0  502  0.45967884006E+03 -0.73345638366E+02  0.13849996391E+04  0.14611325160E+04  0.10100000352E+00 0. -1.
</event>
<event>
 5   0  0.1615098E-06  0.2096579E+04  0.7818609E-02  0.8562752E-01
        1   -1    0    0  501    0  0.00000000000E+00  0.00000000000E+00  0.17524822201E+04  0.17524822201E+04  0.50400001928E-02 0. -1.
       -1   -1    0    0    0  501  0.00000000000E+00  0.00000000000E+00 -0.62705991373E+03  0.62705991375E+03  0.50400001928E-02 0.  1.
    10030    2    1    2    0    0  0.00000000000E+00  0.00000000000E+00  0.11254223063E+04  0.23795421338E+04  0.20965794521E+04 0.  0.
        1    1    3    3  502    0  0.86465452722E+01 -0.25825409137E+03 -0.59034823338E+03  0.64442297843E+03  0.50400001928E-02 0.  1.
       -1    1    3    3    0  502 -0.86465452722E+01  0.25825409137E+03  0.17157705397E+04  0.17351191554E+04  0.50400001928E-02 0. -1.
</event>
<event>
 5   0  0.1579820E-06  0.2099357E+04  0.7818609E-02  0.8561527E-01
       -1   -1    0    0    0  501  0.00000000000E+00  0.00000000000E+00  0.17789307639E+04  0.17789307639E+04  0.50400001928E-02 0. -1.
        1   -1    0    0  501    0  0.00000000000E+00  0.00000000000E+00 -0.61937473665E+03  0.61937473667E+03  0.50400001928E-02 0.  1.
    10030    2    1    2    0    0  0.00000000000E+00  0.00000000000E+00  0.11595560273E+04  0.23983055006E+04  0.20993568286E+04 0.  0.
        2    1    3    3  502    0  0.22765920101E+03  0.71767046596E+03 -0.25577281510E+03  0.79517252371E+03  0.25500000920E-02 0.  1.
       -2    1    3    3    0  502 -0.22765920101E+03 -0.71767046596E+03  0.14153288424E+04  0.16031329769E+04  0.25500000920E-02 0. -1.
</event>
<event>
 5   0  0.3480134E-06  0.2101204E+04  0.7818609E-02  0.8560713E-01
       -2   -1    0    0    0  501  0.00000000000E+00  0.00000000000E+00  0.84347998020E+03  0.84347998020E+03  0.25500000920E-02 0.  1.
        2   -1    0    0  501    0  0.00000000000E+00  0.00000000000E+00 -0.13085846556E+04  0.13085846556E+04  0.25500000920E-02 0. -1.
    10030    2    1    2    0    0  0.00000000000E+00  0.00000000000E+00 -0.46510467542E+03  0.21520646358E+04  0.21012043779E+04 0.  0.
        1    1    3    3  502    0 -0.85086818684E+03  0.54325932871E+03  0.65450201011E+02  0.10116279447E+04  0.50400001928E-02 0.  1.
       -1    1    3    3    0  502  0.85086818684E+03 -0.54325932871E+03 -0.53055487643E+03  0.11404366912E+04  0.50400001928E-02 0. -1.
</event>
<event>
 5   0  0.3574927E-06  0.2100878E+04  0.7818609E-02  0.8560857E-01
        2   -1    0    0  501    0  0.00000000000E+00  0.00000000000E+00  0.19622496974E+04  0.19622496974E+04  0.25500000920E-02 0.  1.
       -2   -1    0    0    0  501  0.00000000000E+00  0.00000000000E+00 -0.56232493699E+03  0.56232493700E+03  0.25500000920E-02 0. -1.
    10030    2    1    2    0    0  0.00000000000E+00  0.00000000000E+00  0.13999247604E+04  0.25245746344E+04  0.21008778522E+04 0.  0.
        3    1    3    3  502    0  0.16850775559E+03 -0.63448107214E+03  0.16853813279E+04  0.18087209086E+04  0.10100000352E+00 0.  1.
       -3    1    3    3    0  502 -0.16850775559E+03  0.63448107214E+03 -0.28545656750E+03  0.71585372579E+03  0.10100000352E+00 0. -1.
</event>
<event>
 5   0  0.1590067E-06  0.2100275E+04  0.7818609E-02  0.8561122E-01
        1   -1    0    0  501    0  0.00000000000E+00  0.00000000000E+00  0.46800562332E+03  0.46800562335E+03  0.50400001928E-02 0. -1.
       -1   -1    0    0    0  501  0.00000000000E+00  0.00000000000E+00 -0.23563580201E+04  0.23563580201E+04  0.50400001928E-02 0.  1.
    10030    2    1    2    0    0  0.00000000000E+00  0.00000000000E+00 -0.18883523968E+04  0.28243636434E+04  0.21002750334E+04 0.  0.
        5    1    3    3  502    0  0.10147259092E+03  0.57976435007E+03 -0.21136861779E+04  0.21941090986E+04  0.46999998093E+01 0.  1.
       -5    1    3    3    0  502 -0.10147259092E+03 -0.57976435007E+03  0.22533378109E+03  0.63025454478E+03  0.46999998093E+01 0. -1.
</event>
<event>
 5   0  0.3574927E-06  0.2100176E+04  0.7818609E-02  0.8561166E-01
       -2   -1    0    0    0  501  0.00000000000E+00  0.00000000000E+00  0.55609302630E+03  0.55609302630E+03  0.25500000920E-02 0.  1.
        2   -1    0    0  501    0  0.00000000000E+00  0.00000000000E+00 -0.19829134700E+04  0.19829134700E+04  0.25500000920E-02 0. -1.
    10030    2    1    2    0    0  0.00000000000E+00  0.00000000000E+00 -0.14268204437E+04  0.25390064963E+04  0.21001755664E+04 0.  0.
        3    1    3    3  502    0  0.43463538501E+03 -0.25434800371E+03 -0.18274056683E+04  0.18955242842E+04  0.10100000352E+00 0. -1.
       -3    1    3    3    0  502 -0.43463538501E+03  0.25434800371E+03  0.40058522467E+03  0.64348221212E+03  0.10100000352E+00 0.  1.
</event>
<event>
 5   0  0.1646510E-06  0.2097236E+04  0.7818609E-02  0.8562462E-01
        1   -1    0    0  501    0  0.00000000000E+00  0.00000000000E+00  0.87560620139E+03  0.87560620140E+03  0.50400001928E-02 0. -1.
       -1   -1    0    0    0  501  0.00000000000E+00  0.00000000000E+00 -0.12558158694E+04  0.12558158695E+04  0.50400001928E-02 0.  1.
    10030    2    1    2    0    0  0.00000000000E+00  0.00000000000E+00 -0.38020966805E+03  0.21314220709E+04  0.20972364322E+04 0.  0.
        4    1    3    3  502    0 -0.85474964041E+03  0.19919315356E+03 -0.77332636903E+03  0.11697478985E+04  0.12699999809E+01 0.  1.
       -4    1    3    3    0  502  0.85474964041E+03 -0.19919315356E+03  0.39311670098E+03  0.96167417231E+03  0.12699999809E+01 0. -1.
</event>
<event>
 5   0  0.1646510E-06  0.2100272E+04  0.7818609E-02  0.8561124E-01
        1   -1    0    0  501    0  0.00000000000E+00  0.00000000000E+00  0.12858643250E+04  0.12858643250E+04  0.50400001928E-02 0.  1.
       -1   -1    0    0    0  501  0.00000000000E+00  0.00000000000E+00 -0.85762191507E+03  0.85762191509E+03  0.50400001928E-02 0. -1.
    10030    2    1    2    0    0  0.00000000000E+00  0.00000000000E+00  0.42824240992E+03  0.21434862401E+04  0.21002718157E+04 0.  0.
        4    1    3    3  502    0 -0.48257765290E+03  0.89775941101E+03 -0.43926376233E+02  0.10201883603E+04  0.12699999809E+01 0. -1.
       -4    1    3    3    0  502  0.48257765290E+03 -0.89775941101E+03  0.47216878615E+03  0.11232978797E+04  0.12699999809E+01 0.  1.
</event>
<event>
 5   0  0.3574927E-06  0.2100053E+04  0.7818609E-02  0.8561220E-01
       -2   -1    0    0    0  501  0.00000000000E+00  0.00000000000E+00  0.10565814139E+04  0.10565814139E+04  0.25500000920E-02 0.  1.
        2   -1    0    0  501    0  0.00000000000E+00  0.00000000000E+00 -0.10435126156E+04  0.10435126156E+04  0.25500000920E-02 0. -1.
    10030    2    1    2    0    0  0.00000000000E+00  0.00000000000E+00  0.13068798362E+02  0.21000940295E+04  0.21000533658E+04 0.  0.
        3    1    3    3  502    0  0.38413607361E+03 -0.20859416024E+03 -0.94820078750E+03  0.10441057371E+04  0.10100000352E+00 0. -1.
       -3    1    3    3    0  502 -0.38413607361E+03  0.20859416024E+03  0.96126958586E+03  0.10559882924E+04  0.10100000352E+00 0.  1.
</event>
<event>
 5   0  0.1653260E-06  0.2100292E+04  0.7818609E-02  0.8561115E-01
        1   -1    0    0  501    0  0.00000000000E+00  0.00000000000E+00  0.11673186616E+04  0.11673186616E+04  0.50400001928E-02 0.  1.
       -1   -1    0    0    0  501  0.00000000000E+00  0.00000000000E+00 -0.94473442468E+03  0.94473442470E+03  0.50400001928E-02 0. -1.
    10030    2    1    2    0    0  0.00000000000E+00  0.00000000000E+00  0.22258423689E+03  0.21120530863E+04  0.21002915266E+04 0.  0.
        3    1    3    3  502    0 -0.14374982948E+03 -0.27787176750E+03  0.11193675297E+04  0.11622652062E+04  0.10100000352E+00 0.  1.
       -3    1    3    3    0  502  0.14374982948E+03  0.27787176750E+03 -0.89678329285E+03  0.94978788010E+03  0.10100000352E+00 0. -1.
</event>
<event>
 5   0  0.1615098E-06  0.2100040E+04  0.7818609E-02  0.8561226E-01
        1   -1    0    0  501    0  0.00000000000E+00  0.00000000000E+00  0.14731442834E+04  0.14731442834E+04  0.50400001928E-02 0. -1.
       -1   -1    0    0    0  501  0.00000000000E+00  0.00000000000E+00 -0.74842779639E+03  0.74842779640E+03  0.50400001928E-02 0.  1.
    10030    2    1    2    0    0  0.00000000000E+00  0.00000000000E+00  0.72471648702E+03  0.22215720798E+04  0.21000401233E+04 0.  0.
        1    1    3    3  502    0 -0.33000474200E+03  0.13327273461E+03 -0.68267580765E+03  0.76987726938E+03  0.50400001928E-02 0.  1.
       -1    1    3    3    0  502  0.33000474200E+03 -0.13327273461E+03  0.14073922947E+04  0.14516948104E+04  0.50400001928E-02 0. -1.
</event>
<event>
 5   0  0.1646510E-06  0.2107506E+04  0.7818609E-02  0.8557944E-01
        1   -1    0    0  501    0  0.00000000000E+00  0.00000000000E+00  0.14618102398E+04  0.14618102398E+04  0.50400001928E-02 0.  1.
       -1   -1    0    0    0  501  0.00000000000E+00  0.00000000000E+00 -0.75960270180E+03  0.75960270181E+03  0.50400001928E-02 0. -1.
    10030    2    1    2    0    0  0.00000000000E+00  0.00000000000E+00  0.70220753803E+03  0.22214129417E+04  0.21075056420E+04 0.  0.
        4    1    3    3  502    0 -0.10204760628E+04 -0.24061353497E+03  0.23991726621E+03  0.10755594709E+04  0.12699999809E+01 0. -1.
       -4    1    3    3    0  502  0.10204760628E+04  0.24061353497E+03  0.46229027182E+03  0.11458534707E+04  0.12699999809E+01 0.  1.
</event>
<event>
 5   0  0.3547583E-06  0.2100478E+04  0.7818609E-02  0.8561033E-01
       -2   -1    0    0    0  501  0.00000000000E+00  0.00000000000E+00  0.11092143830E+04  0.11092143830E+04  0.25500000920E-02 0.  1.
        2   -1    0    0  501    0  0.00000000000E+00  0.00000000000E+00 -0.99439917354E+03  0.99439917355E+03  0.25500000920E-02 0. -1.
    10030    2    1    2    0    0  0.00000000000E+00  0.00000000000E+00  0.11481520947E+03  0.21036135566E+04  0.21004779130E+04 0.  0.
        2    1    3    3  502    0 -0.10157545300E+04 -0.15022776740E+03  0.27836383788E+03  0.10638665676E+04  0.25500000920E-02 0. -1.
       -2    1    3    3    0  502  0.10157545300E+04  0.15022776740E+03 -0.16354862841E+03  0.10397469890E+04  0.25500000920E-02 0.  1.
</event>
<event>
 5   0  0.3547583E-06  0.2100795E+04  0.7818609E-02  0.8560893E-01
       -2   -1    0    0    0  501  0.00000000000E+00  0.00000000000E+00  0.89587779752E+03  0.89587779753E+03  0.25500000920E-02 0.  1.
        2   -1    0    0  501    0  0.00000000000E+00  0.00000000000E+00 -0.12315690945E+04  0.12315690945E+04  0.25500000920E-02 0. -1.
    10030    2    1    2    0    0  0.00000000000E+00  0.00000000000E+00 -0.33569129699E+03  0.21274468920E+04  0.21007954759E+04 0.  0.
        2    1    3    3  502    0  0.35671422070E+03 -0.15007964438E+02 -0.11682368300E+04  0.12215758533E+04  0.25500000920E-02 0. -1.
       -2    1    3    3    0  502 -0.35671422070E+03  0.15007964438E+02  0.83254553306E+03  0.90587103876E+03  0.25500000920E-02 0.  1.
</event>
<event>
 5   0  0.3547583E-06  0.2099056E+04  0.7818609E-02  0.8561659E-01
       -2   -1    0    0    0  501  0.00000000000E+00  0.00000000000E+00  0.85505883869E+03  0.85505883869E+03  0.25500000920E-02 0.  1.
        2   -1    0    0  501    0  0.00000000000E+00  0.00000000000E+00 -0.12882260211E+04  0.12882260211E+04  0.25500000920E-02 0. -1.
    10030    2    1    2    0    0  0.00000000000E+00  0.00000000000E+00 -0.43316718238E+03  0.21432848598E+04  0.20990560217E+04 0.  0.
        2    1    3    3  502    0  0.27842743650E+03  0.40793524736E+03 -0.11621503284E+04  0.12627455758E+04  0.25500000920E-02 0. -1.
       -2    1    3    3    0  502 -0.27842743650E+03 -0.40793524736E+03  0.72898314600E+03  0.88053928396E+03  0.25500000920E-02 0.  1.
</event>
<event>
 5   0  0.1579820E-06  0.2100537E+04  0.7818609E-02  0.8561007E-01
       -1   -1    0    0    0  501  0.00000000000E+00  0.00000000000E+00  0.54312750752E+03  0.54312750754E+03  0.50400001928E-02 0.  1.
        1   -1    0    0  501    0  0.00000000000E+00  0.00000000000E+00 -0.20309490854E+04  0.20309490854E+04  0.50400001928E-02 0. -1.
    10030    2    1    2    0    0  0.00000000000E+00  0.00000000000E+00 -0.14878215779E+04  0.25740765930E+04  0.21005373738E+04 0.  0.
        2    1    3    3  502    0 -0.43601218214E+01  0.10442702019E+04 -0.88116549445E+03  0.13663717992E+04  0.25500000920E-02 0.  1.
       -2    1    3    3    0  502  0.43601218214E+01 -0.10442702019E+04 -0.60665608345E+03  0.12077047937E+04  0.25500000920E-02 0. -1.
</event>
<event>
 5   0  0.1646510E-06  0.2101167E+04  0.7818609E-02  0.8560729E-01
        1   -1    0    0  501    0  0.00000000000E+00  0.00000000000E+00  0.90736290559E+03  0.90736290560E+03  0.50400001928E-02 0.  1.
       -1   -1    0    0    0  501  0.00000000000E+00  0.00000000000E+00 -0.12164104053E+04  0.12164104053E+04  0.50400001928E-02 0. -1.
    10030    2    1    2    0    0  0.00000000000E+00  0.00000000000E+00 -0.30904749970E+03  0.21237733109E+04  0.21011669898E+04 0.  0.
        4    1    3    3  502    0 -0.21944169050E+03  0.14801205686E+03  0.87310638629E+03  0.91234784989E+03  0.12699999809E+01 0.  1.
       -4    1    3    3    0  502  0.21944169050E+03 -0.14801205686E+03 -0.11821538860E+04  0.12114254610E+04  0.12699999809E+01 0. -1.
</event>
<event>
 5   0  0.1653260E-06  0.2098254E+04  0.7818609E-02  0.8562013E-01
       -1   -1    0    0    0  501  0.00000000000E+00  0.00000000000E+00  0.49325055542E+03  0.49325055544E+03  0.50400001928E-02 0. -1.
        1   -1    0    0  501    0  0.00000000000E+00  0.00000000000E+00 -0.22314573122E+04  0.22314573122E+04  0.50400001928E-02 0.  1.
    10030    2    1    2    0    0  0.00000000000E+00  0.00000000000E+00 -0.17382067568E+04  0.27247078677E+04  0.20982540920E+04 0.  0.
        3    1    3    3  502    0 -0.49456178521E+03 -0.60791404728E+03 -0.17748583849E+04  0.19401734832E+04  0.10100000352E+00 0. -1.
       -3    1    3    3    0  502  0.49456178521E+03  0.60791404728E+03  0.36651628155E+02  0.78453438441E+03  0.10100000352E+00 0.  1.
</event>
<event>
 5   0  0.3705828E-06  0.2107366E+04  0.7818609E-02  0.8558006E-01
       -2   -1    0    0    0  501  0.00000000000E+00  0.00000000000E+00  0.13555449592E+04  0.13555449592E+04  0.25500000920E-02 0.  1.
        2   -1    0    0  501    0  0.00000000000E+00  0.00000000000E+00 -0.81904155619E+03  0.81904155619E+03  0.25500000920E-02 0. -1.
    10030    2    1    2    0    0  0.00000000000E+00  0.00000000000E+00  0.53650340306E+03  0.21745865154E+04  0.21073657992E+04 0.  0.
        5    1    3    3  502    0 -0.13978965202E+03  0.24193903576E+03 -0.78010277634E+03  0.82864834247E+03  0.46999998093E+01 0. -1.
       -5    1    3    3    0  502  0.13978965202E+03 -0.24193903576E+03  0.13166061794E+04  0.13459381730E+04  0.46999998093E+01 0.  1.
</event>
<event>
 5   0  0.1646510E-06  0.2099792E+04  0.7818609E-02  0.8561335E-01
        1   -1    0    0  501    0  0.00000000000E+00  0.00000000000E+00  0.10648178488E+04  0.10648178488E+04  0.50400001928E-02 0.  1.
       -1   -1    0    0    0  501  0.00000000000E+00  0.00000000000E+00 -0.10351837037E+04  0.10351837037E+04  0.50400001928E-02 0. -1.
    10030    2    1    2    0    0  0.00000000000E+00  0.00000000000E+00  0.29634145120E+02  0.21000015526E+04  0.20997924512E+04 0.  0.
        4    1    3    3  502    0  0.22677530344E+03 -0.60612318148E+02 -0.10086027587E+04  0.10355588004E+04  0.12699999809E+01 0. -1.
       -4    1    3    3    0  502 -0.22677530344E+03  0.60612318148E+02  0.10382369038E+04  0.10644427522E+04  0.12699999809E+01 0.  1.
</event>
<event>
 5   0  0.3705828E-06  0.2099896E+04  0.7818609E-02  0.8561289E-01
       -2   -1    0    0    0  501  0.00000000000E+00  0.00000000000E+00  0.10292257159E+04  0.10292257160E+04  0.25500000920E-02 0.  1.
        2   -1    0    0  501    0  0.00000000000E+00  0.00000000000E+00 -0.10710872460E+04  0.10710872460E+04  0.25500000920E-02 0. -1.
    10030    2    1    2    0    0  0.00000000000E+00  0.00000000000E+00 -0.41861530083E+02  0.21003129620E+04  0.20998957476E+04 0.  0.
        5    1    3    3  502    0 -0.97274819768E+03  0.37368864155E+03 -0.14935483776E+03  0.10527161130E+04  0.46999998093E+01 0. -1.
       -5    1    3    3    0  502  0.97274819768E+03 -0.37368864155E+03  0.10749330768E+03  0.10475968490E+04  0.46999998093E+01 0.  1.
</event>
<event>
 5   0  0.1646510E-06  0.2099714E+04  0.7818609E-02  0.8561369E-01
        1   -1    0    0  501    0  0.00000000000E+00  0.00000000000E+00  0.13104220879E+04  0.13104220879E+04  0.50400001928E-02 0.  1.
       -1   -1    0    0    0  501  0.00000000000E+00  0.00000000000E+00 -0.84110292120E+03  0.84110292121E+03  0.50400001928E-02 0. -1.
    10030    2    1    2    0    0  0.00000000000E+00  0.00000000000E+00  0.46931916667E+03  0.21515250091E+04  0.20997141197E+04 0.  0.
        4    1    3    3  502    0  0.79136124605E+03 -0.56065070504E+03  0.64659481937E+03  0.11656192810E+04  0.12699999809E+01 0.  1.
       -4    1    3    3    0  502 -0.79136124605E+03  0.56065070504E+03 -0.17727565270E+03  0.98590572813E+03  0.12699999809E+01 0. -1.
</event>
<event>
 5   0  0.1590067E-06  0.2100745E+04  0.7818609E-02  0.8560915E-01
        1   -1    0    0  501    0  0.00000000000E+00  0.00000000000E+00  0.78145147273E+03  0.78145147274E+03  0.50400001928E-02 0. -1.
       -1   -1    0    0    0  501  0.00000000000E+00  0.00000000000E+00 -0.14118372112E+04  0.14118372112E+04  0.50400001928E-02 0.  1.
    10030    2    1    2    0    0  0.00000000000E+00  0.00000000000E+00 -0.63038573849E+03  0.21932886840E+04  0.21007448850E+04 0.  0.
        5    1    3    3  502    0 -0.30520265346E+03 -0.52245898223E+03  0.58120304280E+03  0.83900602783E+03  0.46999998093E+01 0. -1.
       -5    1    3    3    0  502  0.30520265346E+03  0.52245898223E+03 -0.12115887813E+04  0.13542826561E+04  0.46999998093E+01 0.  1.
</event>
<event>
 5   0  0.1653260E-06  0.2100553E+04  0.7818609E-02  0.8561000E-01
       -1   -1    0    0    0  501  0.00000000000E+00  0.00000000000E+00  0.12050732244E+04  0.12050732244E+04  0.50400001928E-02 0.  1.
        1   -1    0    0  501    0  0.00000000000E+00  0.00000000000E+00 -0.91536406865E+03  0.91536406866E+03  0.50400001928E-02 0. -1.
    10030    2    1    2    0    0  0.00000000000E+00  0.00000000000E+00  0.28970915572E+03  0.21204372930E+04  0.21005530031E+04 0.  0.
        3    1    3    3  502    0  0.66307411218E+03  0.74295294477E+03 -0.19212327352E+03  0.10141783467E+04  0.10100000352E+00 0.  1.
       -3    1    3    3    0  502 -0.66307411218E+03 -0.74295294477E+03  0.48183242923E+03  0.11062589464E+04  0.10100000352E+00 0. -1.
</event>
<event>
 5   0  0.1653260E-06  0.2100276E+04  0.7818609E-02  0.8561122E-01
        1   -1    0    0  501    0  0.00000000000E+00  0.00000000000E+00  0.70944738188E+03  0.70944738190E+03  0.50400001928E-02 0.  1.
       -1   -1    0    0    0  501  0.00000000000E+00  0.00000000000E+00 -0.15544352215E+04  0.15544352215E+04  0.50400001928E-02 0. -1.
    10030    2    1    2    0    0  0.00000000000E+00  0.00000000000E+00 -0.84498783964E+03  0.22638826034E+04  0.21002761706E+04 0.  0.
        3    1    3    3  502    0  0.25785547508E+03  0.10104722576E+04 -0.55558855931E+03  0.11816185031E+04  0.10100000352E+00 0. -1.
       -3    1    3    3    0  502 -0.25785547508E+03 -0.10104722576E+04 -0.28939928033E+03  0.10822641004E+04  0.10100000352E+00 0.  1.
</event>
<event>
 5   0  0.3636435E-06  0.2099937E+04  0.7818609E-02  0.8561271E-01
        2   -1    0    0  501    0  0.00000000000E+00  0.00000000000E+00  0.13059599432E+04  0.13059599432E+04  0.25500000920E-02 0.  1.
       -2   -1    0    0    0  501  0.00000000000E+00  0.00000000000E+00 -0.84415601786E+03  0.84415601786E+03  0.25500000920E-02 0. -1.
    10030    2    1    2    0    0  0.00000000000E+00  0.00000000000E+00  0.46180392536E+03  0.21501159611E+04  0.20999370897E+04 0.  0.
        4    1    3    3  502    0  0.52252321542E+03 -0.57579336133E+03 -0.49155317738E+03  0.91988838708E+03  0.12699999809E+01 0. -1.
       -4    1    3    3    0  502 -0.52252321542E+03  0.57579336133E+03  0.95335710274E+03  0.12302275740E+04  0.12699999809E+01 0.  1.
</event>
<event>
 5   0  0.3547583E-06  0.2100018E+04  0.7818609E-02  0.8561236E-01
       -2   -1    0    0    0  501  0.00000000000E+00  0.00000000000E+00  0.91999796022E+03  0.91999796022E+03  0.25500000920E-02 0. -1.
        2   -1    0    0  501    0  0.00000000000E+00  0.00000000000E+00 -0.11983921986E+04  0.11983921986E+04  0.25500000920E-02 0.  1.
    10030    2    1    2    0    0  0.00000000000E+00  0.00000000000E+00 -0.27839423836E+03  0.21183901588E+04  0.21000175030E+04 0.  0.
        2    1    3    3  502    0  0.41674544384E+03  0.64097461026E+03  0.58681697068E+03  0.96378388296E+03  0.25500000920E-02 0. -1.
       -2    1    3    3    0  502 -0.41674544384E+03 -0.64097461026E+03 -0.86521120904E+03  0.11546062758E+04  0.25500000920E-02 0.  1.
</event>
<event>
 5   0  0.1653260E-06  0.2099424E+04  0.7818609E-02  0.8561497E-01
       -1   -1    0    0    0  501  0.00000000000E+00  0.00000000000E+00  0.86717230112E+03  0.86717230114E+03  0.50400001928E-02 0. -1.
        1   -1    0    0  501    0  0.00000000000E+00  0.00000000000E+00 -0.12706766370E+04  0.12706766370E+04  0.50400001928E-02 0.  1.
    10030    2    1    2    0    0  0.00000000000E+00  0.00000000000E+00 -0.40350433590E+03  0.21378489382E+04  0.20994242862E+04 0.  0.
        3    1    3    3  502    0 -0.13823230400E+03  0.78076295701E+03  0.49873084697E+03  0.93671310059E+03  0.10100000352E+00 0. -1.
       -3    1    3    3    0  502  0.13823230400E+03 -0.78076295701E+03 -0.90223518287E+03  0.12011358376E+04  0.10100000352E+00 0.  1.
</event>
<event>
 5   0  0.3574927E-06  0.2099704E+04  0.7818609E-02  0.8561374E-01
        2   -1    0    0  501    0  0.00000000000E+00  0.00000000000E+00  0.17659198787E+04  0.17659198787E+04  0.25500000920E-02 0.  1.
       -2   -1    0    0    0  501  0.00000000000E+00  0.00000000000E+00 -0.62414442611E+03  0.62414442611E+03  0.25500000920E-02 0. -1.
    10030    2    1    2    0    0  0.00000000000E+00  0.00000000000E+00  0.11417754526E+04  0.23900643048E+04  0.20997038355E+04 0.  0.
        3    1    3    3  502    0 -0.73005396624E+03 -0.66437216692E+03  0.97784679311E+03  0.13894436048E+04  0.10100000352E+00 0.  1.
       -3    1    3    3    0  502  0.73005396624E+03  0.66437216692E+03  0.16392865949E+03  0.10006207001E+04  0.10100000352E+00 0. -1.
</event>
<event>
 5   0  0.1615098E-06  0.2098196E+04  0.7818609E-02  0.8562038E-01
        1   -1    0    0  501    0  0.00000000000E+00  0.00000000000E+00  0.12781990953E+04  0.12781990953E+04  0.50400001928E-02 0. -1.
       -1   -1    0    0    0  501  0.00000000000E+00  0.00000000000E+00 -0.86106066549E+03  0.86106066551E+03  0.50400001928E-02 0.  1.
    10030    2    1    2    0    0  0.00000000000E+00  0.00000000000E+00  0.41713842978E+03  0.21392597608E+04  0.20981963336E+04 0.  0.
        1    1    3    3  502    0 -0.80334246225E+03 -0.32093382304E+03 -0.39655215207E+03  0.95163608578E+03  0.50400001928E-02 0.  1.
       -1    1    3    3    0  502  0.80334246225E+03  0.32093382304E+03  0.81369058184E+03  0.11876236750E+04  0.50400001928E-02 0. -1.
</event>
<event>
 5   0  0.1646510E-06  0.2099981E+04  0.7818609E-02  0.8561252E-01
       -1   -1    0    0    0  501  0.00000000000E+00  0.00000000000E+00  0.62743811008E+03  0.62743811010E+03  0.50400001928E-02 0. -1.
        1   -1    0    0  501    0  0.00000000000E+00  0.00000000000E+00 -0.17571137305E+04  0.17571137305E+04  0.50400001928E-02 0.  1.
    10030    2    1    2    0    0  0.00000000000E+00  0.00000000000E+00 -0.11296756204E+04  0.23845518406E+04  0.20999810649E+04 0.  0.
        4    1    3    3  502    0 -0.11697874469E+03 -0.46784829084E+03 -0.16239187796E+04  0.16940129472E+04  0.12699999809E+01 0.  1.
       -4    1    3    3    0  502  0.11697874469E+03  0.46784829084E+03  0.49424315915E+03  0.69053889334E+03  0.12699999809E+01 0. -1.
</event>
<event>
 5   0  0.1590067E-06  0.2101186E+04  0.7818609E-02  0.8560721E-01
        1   -1    0    0  501    0  0.00000000000E+00  0.00000000000E+00  0.10986948569E+04  0.10986948569E+04  0.50400001928E-02 0. -1.
       -1   -1    0    0    0  501  0.00000000000E+00  0.00000000000E+00 -0.10045967383E+04  0.10045967383E+04  0.50400001928E-02 0.  1.
    10030    2    1    2    0    0  0.00000000000E+00  0.00000000000E+00  0.94098118592E+02  0.21032915952E+04  0.21011856364E+04 0.  0.
        5    1    3    3  502    0  0.32551875373E+03  0.27753173496E+03  0.10075611303E+04  0.10946176704E+04  0.46999998093E+01 0. -1.
       -5    1    3    3    0  502 -0.32551875373E+03 -0.27753173496E+03 -0.91346301173E+03  0.10086739249E+04  0.46999998093E+01 0.  1.
</event>
<event>
 5   0  0.3574927E-06  0.2100163E+04  0.7818609E-02  0.8561172E-01
        2   -1    0    0  501    0  0.00000000000E+00  0.00000000000E+00  0.16635990494E+04  0.16635990494E+04  0.25500000920E-02 0.  1.
       -2   -1    0    0    0  501  0.00000000000E+00  0.00000000000E+00 -0.66282252405E+03  0.66282252406E+03  0.25500000920E-02 0. -1.
    10030    2    1    2    0    0  0.00000000000E+00  0.00000000000E+00  0.10007765253E+04  0.23264215734E+04  0.21001627755E+04 0.  0.
        3    1    3    3  502    0 -0.30998196327E+03  0.50311307314E+02 -0.60958704439E+03  0.68572328244E+03  0.10100000352E+00 0. -1.
       -3    1    3    3    0  502  0.30998196327E+03 -0.50311307314E+02  0.16103635697E+04  0.16406982910E+04  0.10100000352E+00 0.  1.
</event>
<event>
 5   0  0.1615098E-06  0.2103281E+04  0.7818609E-02  0.8559799E-01
        1   -1    0    0  501    0  0.00000000000E+00  0.00000000000E+00  0.72962249791E+03  0.72962249793E+03  0.50400001928E-02 0. -1.
       -1   -1    0    0    0  501  0.00000000000E+00  0.00000000000E+00 -0.15157810715E+04  0.15157810715E+04  0.50400001928E-02 0.  1.
    10030    2    1    2    0    0  0.00000000000E+00  0.00000000000E+00 -0.78615857354E+03  0.22454035694E+04  0.21032812191E+04 0.  0.
        1    1    3    3  502    0 -0.52595325107E+03  0.54477007151E+03  0.38598970898E+03  0.84993488491E+03  0.50400001928E-02 0.  1.
       -1    1    3    3    0  502  0.52595325107E+03 -0.54477007151E+03 -0.11721482825E+04  0.13954686845E+04  0.50400001928E-02 0. -1.
</event>
<event>
 5   0  0.3480134E-06  0.2099853E+04  0.7818609E-02  0.8561308E-01
        2   -1    0    0  501    0  0.00000000000E+00  0.00000000000E+00  0.96971580058E+03  0.96971580059E+03  0.25500000920E-02 0.  1.
       -2   -1    0    0    0  501  0.00000000000E+00  0.00000000000E+00 -0.11367714584E+04  0.11367714584E+04  0.25500000920E-02 0. -1.
    10030    2    1    2    0    0  0.00000000000E+00  0.00000000000E+00 -0.16705565784E+03  0.21064872590E+04  0.20998526090E+04 0.  0.
        1    1    3    3  502    0  0.21001714521E+03  0.18903497328E+03 -0.10979120722E+04  0.11336897022E+04  0.50400001928E-02 0. -1.
       -1    1    3    3    0  502 -0.21001714521E+03 -0.18903497328E+03  0.93085641439E+03  0.97279755686E+03  0.50400001928E-02 0.  1.
</event>
<event>
 5   0  0.1646510E-06  0.2100731E+04  0.7818609E-02  0.8560921E-01
        1   -1    0    0  501    0  0.00000000000E+00  0.00000000000E+00  0.94787083302E+03  0.94787083303E+03  0.50400001928E-02 0.  1.
       -1   -1    0    0    0  501  0.00000000000E+00  0.00000000000E+00 -0.11639430513E+04  0.11639430513E+04  0.50400001928E-02 0. -1.
    10030    2    1    2    0    0  0.00000000000E+00  0.00000000000E+00 -0.21607221828E+03  0.21118138843E+04  0.21007309867E+04 0.  0.
        4    1    3    3  502    0 -0.44143448145E+03  0.94475386783E+03  0.18492067816E+02  0.10429610931E+04  0.12699999809E+01 0.  1.
       -4    1    3    3    0  502  0.44143448145E+03 -0.94475386783E+03 -0.23456428610E+03  0.10688527913E+04  0.12699999809E+01 0. -1.
</event>
<event>
 5   0  0.1590067E-06  0.2100279E+04  0.7818609E-02  0.8561120E-01
       -1   -1    0    0    0  501  0.00000000000E+00  0.00000000000E+00  0.87292444429E+03  0.87292444430E+03  0.50400001928E-02 0.  1.
        1   -1    0    0  501    0  0.00000000000E+00  0.00000000000E+00 -0.12633316449E+04  0.12633316449E+04  0.50400001928E-02 0. -1.
    10030    2    1    2    0    0  0.00000000000E+00  0.00000000000E+00 -0.39040720065E+03  0.21362560892E+04  0.21002790997E+04 0.  0.
        5    1    3    3  502    0  0.52214578654E+03 -0.23027038933E+03  0.70143542732E+03  0.90426457594E+03  0.46999998093E+01 0.  1.
       -5    1    3    3    0  502 -0.52214578654E+03  0.23027038933E+03 -0.10918426280E+04  0.12319915133E+04  0.46999998093E+01 0. -1.
</event>
<event>
 5   0  0.1579820E-06  0.2090249E+04  0.7818609E-02  0.8565551E-01
        1   -1    0    0  501    0  0.00000000000E+00  0.00000000000E+00  0.72674237407E+03  0.72674237409E+03  0.50400001928E-02 0. -1.
       -1   -1    0    0    0  501  0.00000000000E+00  0.00000000000E+00 -0.15029879182E+04  0.15029879182E+04  0.50400001928E-02 0.  1.
    10030    2    1    2    0    0  0.00000000000E+00  0.00000000000E+00 -0.77624554416E+03  0.22297302923E+04  0.20902487966E+04 0.  0.
        2    1    3    3  502    0 -0.74961157107E+03  0.67975427382E+03 -0.10933746671E+03  0.10178104253E+04  0.25500000920E-02 0.  1.
       -2    1    3    3    0  502  0.74961157107E+03 -0.67975427382E+03 -0.66690807745E+03  0.12119198670E+04  0.25500000920E-02 0. -1.
</event>
<event>
 5   0  0.1646510E-06  0.2100465E+04  0.7818609E-02  0.8561039E-01
        1   -1    0    0  501    0  0.00000000000E+00  0.00000000000E+00  0.10360553597E+04  0.10360553597E+04  0.50400001928E-02 0.  1.
       -1   -1    0    0    0  501  0.00000000000E+00  0.00000000000E+00 -0.10646034672E+04  0.10646034672E+04  0.50400001928E-02 0. -1.
    10030    2    1    2    0    0  0.00000000000E+00  0.00000000000E+00 -0.28548107422E+02  0.21006588269E+04  0.21004648325E+04 0.  0.
        4    1    3    3  502    0  0.97750775662E+03  0.38035717419E+03 -0.67132705616E+02  0.10510477664E+04  0.12699999809E+01 0. -1.
       -4    1    3    3    0  502 -0.97750775662E+03 -0.38035717419E+03  0.38584598195E+02  0.10496110605E+04  0.12699999809E+01 0.  1.
</event>
<event>
 5   0  0.1590067E-06  0.2100326E+04  0.7818609E-02  0.8561100E-01
        1   -1    0    0  501    0  0.00000000000E+00  0.00000000000E+00  0.19610970897E+04  0.19610970897E+04  0.50400001928E-02 0.  1.
       -1   -1    0    0    0  501  0.00000000000E+00  0.00000000000E+00 -0.56236009493E+03  0.56236009495E+03  0.50400001928E-02 0. -1.
    10030    2    1    2    0    0  0.00000000000E+00  0.00000000000E+00  0.13987369947E+04  0.25234571846E+04  0.21003263990E+04 0.  0.
        5    1    3    3  502    0 -0.66481634138E+02 -0.96453837269E+01 -0.55976328479E+03  0.56379949104E+03  0.46999998093E+01 0. -1.
       -5    1    3    3    0  502  0.66481634138E+02  0.96453837269E+01  0.19585002795E+04  0.19596576936E+04  0.46999998093E+01 0.  1.
</event>
<event>
 5   0  0.3547583E-06  0.2099482E+04  0.7818609E-02  0.8561472E-01
       -2   -1    0    0    0  501  0.00000000000E+00  0.00000000000E+00  0.84177503115E+03  0.84177503116E+03  0.25500000920E-02 0. -1.
        2   -1    0    0  501    0  0.00000000000E+00  0.00000000000E+00 -0.13090858807E+04  0.13090858807E+04  0.25500000920E-02 0.  1.
    10030    2    1    2    0    0  0.00000000000E+00  0.00000000000E+00 -0.46731084951E+03  0.21508609118E+04  0.20994816579E+04 0.  0.
        2    1    3    3  502    0 -0.47479776908E+03 -0.88825884342E+03  0.69420680346E+02  0.10095820548E+04  0.25500000920E-02 0. -1.
       -2    1    3    3    0  502  0.47479776908E+03  0.88825884342E+03 -0.53673152986E+03  0.11412788571E+04  0.25500000920E-02 0.  1.
</event>
<event>
 5   0  0.1615098E-06  0.2100548E+04  0.7818609E-02  0.8561002E-01
        1   -1    0    0  501    0  0.00000000000E+00  0.00000000000E+00  0.14124809663E+04  0.14124809663E+04  0.50400001928E-02 0.  1.
       -1   -1    0    0    0  501  0.00000000000E+00  0.00000000000E+00 -0.78094871213E+03  0.78094871215E+03  0.50400001928E-02 0. -1.
    10030    2    1    2    0    0  0.00000000000E+00  0.00000000000E+00  0.63153225415E+03  0.21934296784E+04  0.21005477301E+04 0.  0.
        1    1    3    3  502    0 -0.46667469579E+03 -0.28476335166E+03 -0.62065915164E+03  0.82709928103E+03  0.50400001928E-02 0. -1.
       -1    1    3    3    0  502  0.46667469579E+03  0.28476335166E+03  0.12521914058E+04  0.13663303974E+04  0.50400001928E-02 0.  1.
</event>
<event>
 5   0  0.1615098E-06  0.2101922E+04  0.7818609E-02  0.8560397E-01
       -1   -1    0    0    0  501  0.00000000000E+00  0.00000000000E+00  0.16767419279E+04  0.16767419279E+04  0.50400001928E-02 0.  1.
        1   -1    0    0  501    0  0.00000000000E+00  0.00000000000E+00 -0.65872948080E+03  0.65872948082E+03  0.50400001928E-02 0. -1.
    10030    2    1    2    0    0  0.00000000000E+00  0.00000000000E+00  0.10180124471E+04  0.23354714087E+04  0.21019223008E+04 0.  0.
        1    1    3    3  502    0 -0.72673270266E+03 -0.50563388934E+02 -0.33267297416E+03  0.80085478407E+03  0.50400001928E-02 0. -1.
       -1    1    3    3    0  502  0.72673270266E+03  0.50563388934E+02  0.13506854212E+04  0.15346166246E+04  0.50400001928E-02 0.  1.
</event>
<event>
 5   0  0.1615098E-06  0.2097631E+04  0.7818609E-02  0.8562288E-01
       -1   -1    0    0    0  501  0.00000000000E+00  0.00000000000E+00  0.69144117407E+03  0.69144117409E+03  0.50400001928E-02 0.  1.
        1   -1    0    0  501    0  0.00000000000E+00  0.00000000000E+00 -0.15908997503E+04  0.15908997503E+04  0.50400001928E-02 0. -1.
    10030    2    1    2    0    0  0.00000000000E+00  0.00000000000E+00 -0.89945857622E+03  0.22823409244E+04  0.20976306550E+04 0.  0.
        1    1    3    3  502    0  0.79469409162E+03  0.36365293265E+03 -0.10806439998E+04  0.13898106378E+04  0.50400001928E-02 0. -1.
       -1    1    3    3    0  502 -0.79469409162E+03 -0.36365293265E+03  0.18118542358E+03  0.89253028656E+03  0.50400001928E-02 0.  1.
</event>
<event>
 5   0  0.3636435E-06  0.2099277E+04  0.7818609E-02  0.8561562E-01
       -2   -1    0    0    0  501  0.00000000000E+00  0.00000000000E+00  0.82300147936E+03  0.82300147936E+03  0.25500000920E-02 0.  1.
        2   -1    0    0  501    0  0.00000000000E+00  0.00000000000E+00 -0.13386865720E+04  0.13386865720E+04  0.25500000920E-02 0. -1.
    10030    2    1    2    0    0  0.00000000000E+00  0.00000000000E+00 -0.51568509265E+03  0.21616880514E+04  0.20992770462E+04 0.  0.
        4    1    3    3  502    0  0.64055830548E+03  0.71376805964E+03 -0.69709155304E+03  0.11856298039E+04  0.12699999809E+01 0.  1.
       -4    1    3    3    0  502 -0.64055830548E+03 -0.71376805964E+03  0.18140646039E+03  0.97605824747E+03  0.12699999809E+01 0. -1.
</event>
<event>
 5   0  0.1653260E-06  0.2102155E+04  0.7818609E-02  0.8560295E-01
       -1   -1    0    0    0  501  0.00000000000E+00  0.00000000000E+00  0.44015080190E+03  0.44015080193E+03  0.50400001928E-02 0. -1.
        1   -1    0    0  501    0  0.00000000000E+00  0.00000000000E+00 -0.25099662388E+04  0.25099662389E+04  0.50400001928E-02 0.  1.
    10030    2    1    2    0    0  0.00000000000E+00  0.00000000000E+00 -0.20698154369E+04  0.29501170408E+04  0.21021547544E+04 0.  0.
        3    1    3    3  502    0  0.92111992174E+03  0.38592686029E+01 -0.17453645812E+04  0.19735182633E+04  0.10100000352E+00 0.  1.
       -3    1    3    3    0  502 -0.92111992174E+03 -0.38592686029E+01 -0.32445085578E+03  0.97659877749E+03  0.10100000352E+00 0. -1.
</event>
<event>
 5   0  0.3636435E-06  0.2101089E+04  0.7818609E-02  0.8560764E-01
        2   -1    0    0  501    0  0.00000000000E+00  0.00000000000E+00  0.22730839377E+04  0.22730839377E+04  0.25500000920E-02 0.  1.
       -2   -1    0    0    0  501  0.00000000000E+00  0.00000000000E+00 -0.48552725897E+03  0.48552725898E+03  0.25500000920E-02 0. -1.
    10030    2    1    2    0    0  0.00000000000E+00  0.00000000000E+00  0.17875566787E+04  0.27586111967E+04  0.21010894447E+04 0.  0.
        4    1    3    3  502    0  0.90384465084E+02 -0.56722927533E+03 -0.26110746598E+03  0.63094938308E+03  0.12699999809E+01 0. -1.
       -4    1    3    3    0  502 -0.90384465084E+02  0.56722927533E+03  0.20486641447E+04  0.21276618136E+04  0.12699999809E+01 0.  1.
</event>
<event>
 5   0  0.3574927E-06  0.2100365E+04  0.7818609E-02  0.8561083E-01
        2   -1    0    0  501    0  0.00000000000E+00  0.00000000000E+00  0.11284724275E+04  0.11284724275E+04  0.25500000920E-02 0.  1.
       -2   -1    0    0    0  501  0.00000000000E+00  0.00000000000E+00 -0.97732430281E+03  0.97732430282E+03  0.25500000920E-02 0. -1.
    10030    2    1    2    0    0  0.00000000000E+00  0.00000000000E+00  0.15114812470E+03  0.21057967303E+04  0.21003652335E+04 0.  0.
        3    1    3    3  502    0  0.92556411190E+03 -0.44165401731E+03  0.30233658639E+03  0.10691747368E+04  0.10100000352E+00 0.  1.
       -3    1    3    3    0  502 -0.92556411190E+03  0.44165401731E+03 -0.15118846169E+03  0.10366219935E+04  0.10100000352E+00 0. -1.
</event>
<event>
 5   0  0.3480134E-06  0.2100182E+04  0.7818609E-02  0.8561163E-01
       -2   -1    0    0    0  501  0.00000000000E+00  0.00000000000E+00  0.11964447088E+04  0.11964447088E+04  0.25500000920E-02 0. -1.
        2   -1    0    0  501    0  0.00000000000E+00  0.00000000000E+00 -0.92163995201E+03  0.92163995201E+03  0.25500000920E-02 0.  1.
    10030    2    1    2    0    0  0.00000000000E+00  0.00000000000E+00  0.27480475678E+03  0.21180846608E+04  0.21001821292E+04 0.  0.
        1    1    3    3  502    0 -0.10404997156E+04  0.11732587874E+03  0.21736394334E+03  0.10694167119E+04  0.50400001928E-02 0.  1.
       -1    1    3    3    0  502  0.10404997156E+04 -0.11732587874E+03  0.57440813438E+02  0.10486679489E+04  0.50400001928E-02 0. -1.
</event>
<event>
 5   0  0.3636435E-06  0.2097415E+04  0.7818609E-02  0.8562383E-01
       -2   -1    0    0    0  501  0.00000000000E+00  0.00000000000E+00  0.15191782296E+04  0.15191782296E+04  0.25500000920E-02 0. -1.
        2   -1    0    0  501    0  0.00000000000E+00  0.00000000000E+00 -0.72393576001E+03  0.72393576001E+03  0.25500000920E-02 0.  1.
    10030    2    1    2    0    0  0.00000000000E+00  0.00000000000E+00  0.79524246959E+03  0.22431139896E+04  0.20974150245E+04 0.  0.
        4    1    3    3  502    0 -0.13993801819E+03  0.90026498788E+03 -0.15780767998E+03  0.92464294411E+03  0.12699999809E+01 0.  1.
       -4    1    3    3    0  502  0.13993801819E+03 -0.90026498788E+03  0.95305014956E+03  0.13184710455E+04  0.12699999809E+01 0. -1.
</event>
<event>
 5   0  0.1653260E-06  0.2099541E+04  0.7818609E-02  0.8561446E-01
       -1   -1    0    0    0  501  0.00000000000E+00  0.00000000000E+00  0.10467781904E+04  0.10467781905E+04  0.50400001928E-02 0. -1.
        1   -1    0    0  501    0  0.00000000000E+00  0.00000000000E+00 -0.10527709829E+04  0.10527709829E+04  0.50400001928E-02 0.  1.
    10030    2    1    2    0    0  0.00000000000E+00  0.00000000000E+00 -0.59927924641E+01  0.20995491734E+04  0.20995406207E+04 0.  0.
        3    1    3    3  502    0  0.94925838001E+03 -0.44138595490E+03 -0.81129045011E+02  0.10499976025E+04  0.10100000352E+00 0. -1.
       -3    1    3    3    0  502 -0.94925838001E+03  0.44138595490E+03  0.75136252547E+02  0.10495515708E+04  0.10100000352E+00 0.  1.
</event>
<event>
 5   0  0.3574927E-06  0.2100518E+04  0.7818609E-02  0.8561015E-01
       -2   -1    0    0    0  501  0.00000000000E+00  0.00000000000E+00  0.57924037579E+03  0.57924037580E+03  0.25500000920E-02 0.  1.
        2   -1    0    0  501    0  0.00000000000E+00  0.00000000000E+00 -0.19042932976E+04  0.19042932976E+04  0.25500000920E-02 0. -1.
    10030    2    1    2    0    0  0.00000000000E+00  0.00000000000E+00 -0.13250529218E+04  0.24835336734E+04  0.21005176175E+04 0.  0.
        3    1    3    3  502    0 -0.74842831242E+03 -0.73514805583E+03 -0.72112053391E+03  0.12730288439E+04  0.10100000352E+00 0.  1.
       -3    1    3    3    0  502  0.74842831242E+03  0.73514805583E+03 -0.60393238787E+03  0.12105048295E+04  0.10100000352E+00 0. -1.
</event>
<event>
 5   0  0.1653260E-06  0.2100513E+04  0.7818609E-02  0.8561018E-01
        1   -1    0    0  501    0  0.00000000000E+00  0.00000000000E+00  0.23649119152E+04  0.23649119152E+04  0.50400001928E-02 0.  1.
       -1   -1    0    0    0  501  0.00000000000E+00  0.00000000000E+00 -0.46641838625E+03  0.46641838628E+03  0.50400001928E-02 0. -1.
    10030    2    1    2    0    0  0.00000000000E+00  0.00000000000E+00  0.18984935289E+04  0.28313303015E+04  0.21005126985E+04 0.  0.
        3    1    3    3  502    0 -0.81690423666E+03 -0.12910257877E+03  0.18218003896E+04  0.20007390328E+04  0.10100000352E+00 0.  1.
       -3    1    3    3    0  502  0.81690423666E+03  0.12910257877E+03  0.76693139335E+02  0.83059126864E+03  0.10100000352E+00 0. -1.
</event>
<event>
 5   0  0.3636435E-06  0.2099823E+04  0.7818609E-02  0.8561321E-01
       -2   -1    0    0    0  501  0.00000000000E+00  0.00000000000E+00  0.95015668645E+03  0.95015668645E+03  0.25500000920E-02 0.  1.
        2   -1    0    0  501    0  0.00000000000E+00  0.00000000000E+00 -0.11601396620E+04  0.11601396620E+04  0.25500000920E-02 0. -1.
    10030    2    1    2    0    0  0.00000000000E+00  0.00000000000E+00 -0.20998297556E+03  0.21102963485E+04  0.20998232850E+04 0.  0.
        4    1    3    3  502    0 -0.39101780458E+00 -0.21739325614E+03  0.92728921877E+03  0.95243209147E+03  0.12699999809E+01 0.  1.
       -4    1    3    3    0  502  0.39101780458E+00  0.21739325614E+03 -0.11372721943E+04  0.11578642570E+04  0.12699999809E+01 0. -1.
</event>
<event>
 5   0  0.3547583E-06  0.2100095E+04  0.7818609E-02  0.8561201E-01
        2   -1    0    0  501    0  0.00000000000E+00  0.00000000000E+00  0.55622015499E+03  0.55622015500E+03  0.25500000920E-02 0.  1.
       -2   -1    0    0    0  501  0.00000000000E+00  0.00000000000E+00 -0.19823090290E+04  0.19823090290E+04  0.25500000920E-02 0. -1.
    10030    2    1    2    0    0  0.00000000000E+00  0.00000000000E+00 -0.14260888740E+04  0.25385291840E+04  0.21000954601E+04 0.  0.
        2    1    3    3  502    0  0.22481468642E+03  0.49636693622E+03 -0.17980301015E+04  0.18787852524E+04  0.25500000920E-02 0. -1.
       -2    1    3    3    0  502 -0.22481468642E+03 -0.49636693622E+03  0.37194122750E+03  0.65974393163E+03  0.25500000920E-02 0.  1.
</event>
<event>
 5   0  0.3480134E-06  0.2100060E+04  0.7818609E-02  0.8561217E-01
        2   -1    0    0  501    0  0.00000000000E+00  0.00000000000E+00  0.13639338615E+04  0.13639338615E+04  0.25500000920E-02 0. -1.
       -2   -1    0    0    0  501  0.00000000000E+00  0.00000000000E+00 -0.80836966106E+03  0.80836966107E+03  0.25500000920E-02 0.  1.
    10030    2    1    2    0    0  0.00000000000E+00  0.00000000000E+00  0.55556420046E+03  0.21723035226E+04  0.21000597643E+04 0.  0.
        1    1    3    3  502    0  0.10489426633E+03  0.94193324891E+03  0.74535152035E+03  0.12057321184E+04  0.50400001928E-02 0. -1.
       -1    1    3    3    0  502 -0.10489426633E+03 -0.94193324891E+03 -0.18978731989E+03  0.96657140416E+03  0.50400001928E-02 0.  1.
</event>
<event>
 5   0  0.3574927E-06  0.2098959E+04  0.7818609E-02  0.8561702E-01
       -2   -1    0    0    0  501  0.00000000000E+00  0.00000000000E+00  0.13811946143E+04  0.13811946143E+04  0.25500000920E-02 0.  1.
        2   -1    0    0  501    0  0.00000000000E+00  0.00000000000E+00 -0.79743086154E+03  0.79743086154E+03  0.25500000920E-02 0. -1.
    10030    2    1    2    0    0  0.00000000000E+00  0.00000000000E+00  0.58376375280E+03  0.21786254759E+04  0.20989589908E+04 0.  0.
        3    1    3    3  502    0 -0.88961081277E+03 -0.53027117151E+03  0.11569745913E+03  0.10421040379E+04  0.10100000352E+00 0.  1.
       -3    1    3    3    0  502  0.88961081277E+03  0.53027117151E+03  0.46806629367E+03  0.11365214380E+04  0.10100000352E+00 0. -1.
</event>
<event>
 5   0  0.3547583E-06  0.2096997E+04  0.7818609E-02  0.8562567E-01
       -2   -1    0    0    0  501  0.00000000000E+00  0.00000000000E+00  0.15768518531E+04  0.15768518531E+04  0.25500000920E-02 0.  1.
        2   -1    0    0  501    0  0.00000000000E+00  0.00000000000E+00 -0.69717999442E+03  0.69717999442E+03  0.25500000920E-02 0. -1.
    10030    2    1    2    0    0  0.00000000000E+00  0.00000000000E+00  0.87967185866E+03  0.22740318475E+04  0.20969974403E+04 0.  0.
        2    1    3    3  502    0 -0.94011255476E+03 -0.39406322587E+03  0.70602169317E+03  0.12399855132E+04  0.25500000920E-02 0. -1.
       -2    1    3    3    0  502  0.94011255476E+03  0.39406322587E+03  0.17365016549E+03  0.10340463343E+04  0.25500000920E-02 0.  1.
</event>
<event>
 5   0  0.1579820E-06  0.2100219E+04  0.7818609E-02  0.8561147E-01
       -1   -1    0    0    0  501  0.00000000000E+00  0.00000000000E+00  0.59263928777E+03  0.59263928779E+03  0.50400001928E-02 0.  1.
        1   -1    0    0  501    0  0.00000000000E+00  0.00000000000E+00 -0.18607110607E+04  0.18607110607E+04  0.50400001928E-02 0. -1.
    10030    2    1    2    0    0  0.00000000000E+00  0.00000000000E+00 -0.12680717730E+04  0.24533503485E+04  0.21002194912E+04 0.  0.
        2    1    3    3  502    0  0.18543594363E+03  0.15627613020E+03  0.55948180829E+03  0.60977751015E+03  0.25500000920E-02 0.  1.
       -2    1    3    3    0  502 -0.18543594363E+03 -0.15627613020E+03 -0.18275535812E+04  0.18435728384E+04  0.25500000920E-02 0. -1.
</event>
<event>
 5   0  0.1579820E-06  0.2098850E+04  0.7818609E-02  0.8561750E-01
       -1   -1    0    0    0  501  0.00000000000E+00  0.00000000000E+00  0.84836017184E+03  0.84836017186E+03  0.50400001928E-02 0.  1.
        1   -1    0    0  501    0  0.00000000000E+00  0.00000000000E+00 -0.12981431541E+04  0.12981431541E+04  0.50400001928E-02 0. -1.
    10030    2    1    2    0    0  0.00000000000E+00  0.00000000000E+00 -0.44978298227E+03  0.21465033260E+04  0.20988501131E+04 0.  0.
        2    1    3    3  502    0 -0.84656494742E+03 -0.48938512139E+03  0.16470781775E+03  0.99161417521E+03  0.25500000920E-02 0.  1.
       -2    1    3    3    0  502  0.84656494742E+03  0.48938512139E+03 -0.61449080002E+03  0.11548891508E+04  0.25500000920E-02 0. -1.
</event>
<event>
 5   0  0.1646510E-06  0.2097402E+04  0.7818609E-02  0.8562389E-01
        1   -1    0    0  501    0  0.00000000000E+00  0.00000000000E+00  0.88203752980E+03  0.88203752981E+03  0.50400001928E-02 0. -1.
       -1   -1    0    0    0  501  0.00000000000E+00  0.00000000000E+00 -0.12468561065E+04  0.12468561065E+04  0.50400001928E-02 0.  1.
    10030    2    1    2    0    0  0.00000000000E+00  0.00000000000E+00 -0.36481857666E+03  0.21288936363E+04  0.20974020885E+04 0.  0.
        4    1    3    3  502    0  0.10356395263E+03 -0.36041917902E+03 -0.11764733059E+04  0.12347949341E+04  0.12699999809E+01 0.  1.
       -4    1    3    3    0  502 -0.10356395263E+03  0.36041917902E+03  0.81165472922E+03  0.89409870219E+03  0.12699999809E+01 0. -1.
</event>
<event>
 5   0  0.1590067E-06  0.2100843E+04  0.7818609E-02  0.8560872E-01
       -1   -1    0    0    0  501  0.00000000000E+00  0.00000000000E+00  0.13279933688E+04  0.13279933688E+04  0.50400001928E-02 0. -1.
        1   -1    0    0  501    0  0.00000000000E+00  0.00000000000E+00 -0.83086696206E+03  0.83086696208E+03  0.50400001928E-02 0.  1.
    10030    2    1    2    0    0  0.00000000000E+00  0.00000000000E+00  0.49712640671E+03  0.21588603309E+04  0.21008434649E+04 0.  0.
        5    1    3    3  502    0 -0.97042210374E+02 -0.46447421674E+03  0.12115716577E+04  0.13011846373E+04  0.46999998093E+01 0. -1.
       -5    1    3    3    0  502  0.97042210374E+02  0.46447421674E+03 -0.71444525101E+03  0.85767569354E+03  0.46999998093E+01 0.  1.
</event>
<event>
 5   0  0.1590067E-06  0.2101936E+04  0.7818609E-02  0.8560391E-01
       -1   -1    0    0    0  501  0.00000000000E+00  0.00000000000E+00  0.60526454453E+03  0.60526454455E+03  0.50400001928E-02 0. -1.
        1   -1    0    0  501    0  0.00000000000E+00  0.00000000000E+00 -0.18248773916E+04  0.18248773916E+04  0.50400001928E-02 0.  1.
    10030    2    1    2    0    0  0.00000000000E+00  0.00000000000E+00 -0.12196128471E+04  0.24301419362E+04  0.21019358537E+04 0.  0.
        5    1    3    3  502    0  0.31740001407E+01 -0.92323664579E+03 -0.11903424731E+04  0.15064240013E+04  0.46999998093E+01 0.  1.
       -5    1    3    3    0  502 -0.31740001407E+01  0.92323664579E+03 -0.29270373961E+02  0.92371793487E+03  0.46999998093E+01 0. -1.
</event>
<event>
 5   0  0.3574927E-06  0.2099053E+04  0.7818609E-02  0.8561660E-01
       -2   -1    0    0    0  501  0.00000000000E+00  0.00000000000E+00  0.14907468517E+04  0.14907468517E+04  0.25500000920E-02 0. -1.
        2   -1    0    0  501    0  0.00000000000E+00  0.00000000000E+00 -0.73889557494E+03  0.73889557494E+03  0.25500000920E-02 0.  1.
    10030    2    1    2    0    0  0.00000000000E+00  0.00000000000E+00  0.75185127677E+03  0.22296424267E+04  0.20990533601E+04 0.  0.
        3    1    3    3  502    0  0.71142189543E+03 -0.15056039899E+02 -0.44353489253E+03  0.83849329677E+03  0.10100000352E+00 0.  1.
       -3    1    3    3    0  502 -0.71142189543E+03  0.15056039899E+02  0.11953861693E+04  0.13911491299E+04  0.10100000352E+00 0. -1.
</event>
<event>
 5   0  0.3574927E-06  0.2099449E+04  0.7818609E-02  0.8561486E-01
       -2   -1    0    0    0  501  0.00000000000E+00  0.00000000000E+00  0.69279209157E+03  0.69279209158E+03  0.25500000920E-02 0.  1.
        2   -1    0    0  501    0  0.00000000000E+00  0.00000000000E+00 -0.15905515814E+04  0.15905515814E+04  0.25500000920E-02 0. -1.
    10030    2    1    2    0    0  0.00000000000E+00  0.00000000000E+00 -0.89775948980E+03  0.22833436730E+04  0.20994490295E+04 0.  0.
        3    1    3    3  502    0 -0.10083513381E+04  0.28558622128E+03 -0.51404125510E+03  0.11672918799E+04  0.10100000352E+00 0. -1.
       -3    1    3    3    0  502  0.10083513381E+04 -0.28558622128E+03 -0.38371823470E+03  0.11160517930E+04  0.10100000352E+00 0.  1.
</event>
<event>
 5   0  0.1590067E-06  0.2099128E+04  0.7818609E-02  0.8561628E-01
        1   -1    0    0  501    0  0.00000000000E+00  0.00000000000E+00  0.14590412891E+04  0.14590412891E+04  0.50400001928E-02 0. -1.
       -1   -1    0    0    0  501  0.00000000000E+00  0.00000000000E+00 -0.75500546956E+03  0.75500546958E+03  0.50400001928E-02 0.  1.
    10030    2    1    2    0    0  0.00000000000E+00  0.00000000000E+00  0.70403581953E+03  0.22140467587E+04  0.20991275841E+04 0.  0.
        5    1    3    3  502    0 -0.32080858055E+03 -0.99925114274E+03  0.36454552356E+03  0.11110069848E+04  0.46999998093E+01 0. -1.
       -5    1    3    3    0  502  0.32080858055E+03  0.99925114274E+03  0.33949029597E+03  0.11030397738E+04  0.46999998093E+01 0.  1.
</event>
<event>
 5   0  0.3480134E-06  0.2100013E+04  0.7818609E-02  0.8561237E-01
        2   -1    0    0  501    0  0.00000000000E+00  0.00000000000E+00  0.14793602703E+04  0.14793602703E+04  0.25500000920E-02 0. -1.
       -2   -1    0    0    0  501  0.00000000000E+00  0.00000000000E+00 -0.74526404443E+03  0.74526404444E+03  0.25500000920E-02 0.  1.
    10030    2    1    2    0    0  0.00000000000E+00  0.00000000000E+00  0.73409622586E+03  0.22246243147E+04  0.21000133506E+04 0.  0.
        1    1    3    3  502    0 -0.35881652221E+03  0.42809028852E+03 -0.57481221050E+03  0.80151086649E+03  0.50400001928E-02 0.  1.
       -1    1    3    3    0  502  0.35881652221E+03 -0.42809028852E+03  0.13089084364E+04  0.14231134482E+04  0.50400001928E-02 0. -1.
</event>
<event>
 5   0  0.1579820E-06  0.2098732E+04  0.7818609E-02  0.8561802E-01
       -1   -1    0    0    0  501  0.00000000000E+00  0.00000000000E+00  0.67670266466E+03  0.67670266468E+03  0.50400001928E-02 0. -1.
        1   -1    0    0  501    0  0.00000000000E+00  0.00000000000E+00 -0.16272561906E+04  0.16272561906E+04  0.50400001928E-02 0.  1.
    10030    2    1    2    0    0  0.00000000000E+00  0.00000000000E+00 -0.95055352592E+03  0.23039588553E+04  0.20987316172E+04 0.  0.
        2    1    3    3  502    0  0.34157641313E+03  0.70406917507E+03  0.29221701092E+03  0.83533144964E+03  0.25500000920E-02 0. -1.
       -2    1    3    3    0  502 -0.34157641313E+03 -0.70406917507E+03 -0.12427705368E+04  0.14686274056E+04  0.25500000920E-02 0.  1.
</event>
<event>
 5   0  0.3574927E-06  0.2100015E+04  0.7818609E-02  0.8561237E-01
        2   -1    0    0  501    0  0.00000000000E+00  0.00000000000E+00  0.21680101839E+04  0.21680101839E+04  0.25500000920E-02 0.  1.
       -2   -1    0    0    0  501  0.00000000000E+00  0.00000000000E+00 -0.50853826943E+03  0.50853826944E+03  0.25500000920E-02 0. -1.
    10030    2    1    2    0    0  0.00000000000E+00  0.00000000000E+00  0.16594719145E+04  0.26765484534E+04  0.21000153781E+04 0.  0.
        3    1    3    3  502    0  0.22483679292E+03  0.80681883815E+03  0.22632685957E+02  0.83786661810E+03  0.10100000352E+00 0. -1.
       -3    1    3    3    0  502 -0.22483679292E+03 -0.80681883815E+03  0.16368392285E+04  0.18386818353E+04  0.10100000352E+00 0.  1.
</event>
<event>
 5   0  0.3636435E-06  0.2099799E+04  0.7818609E-02  0.8561332E-01
       -2   -1    0    0    0  501  0.00000000000E+00  0.00000000000E+00  0.16787195598E+04  0.16787195598E+04  0.25500000920E-02 0. -1.
        2   -1    0    0  501    0  0.00000000000E+00  0.00000000000E+00 -0.65662507681E+03  0.65662507682E+03  0.25500000920E-02 0.  1.
    10030    2    1    2    0    0  0.00000000000E+00  0.00000000000E+00  0.10220944830E+04  0.23353446366E+04  0.20997993808E+04 0.  0.
        4    1    3    3  502    0 -0.29171009518E+03 -0.38510333480E+01 -0.61063975561E+03  0.67675116115E+03  0.12699999809E+01 0.  1.
       -4    1    3    3    0  502  0.29171009518E+03  0.38510333480E+01  0.16327342386E+04  0.16585934755E+04  0.12699999809E+01 0. -1.
</event>
<event>
 5   0  0.3705828E-06  0.2099279E+04  0.7818609E-02  0.8561561E-01
       -2   -1    0    0    0  501  0.00000000000E+00  0.00000000000E+00  0.53082595005E+03  0.53082595005E+03  0.25500000920E-02 0.  1.
        2   -1    0    0  501    0  0.00000000000E+00  0.00000000000E+00 -0.20755261391E+04  0.20755261391E+04  0.25500000920E-02 0. -1.
    10030    2    1    2    0    0  0.00000000000E+00  0.00000000000E+00 -0.15447001890E+04  0.26063520891E+04  0.20992790521E+04 0.  0.
        5    1    3    3  502    0 -0.89087388463E+03  0.35309274799E+03 -0.13040310024E+04  0.16182860415E+04  0.46999998093E+01 0. -1.
       -5    1    3    3    0  502  0.89087388463E+03 -0.35309274799E+03 -0.24066918662E+03  0.98806604759E+03  0.46999998093E+01 0.  1.
</event>
<event>
 5   0  0.1615098E-06  0.2102004E+04  0.7818609E-02  0.8560361E-01
       -1   -1    0    0    0  501  0.00000000000E+00  0.00000000000E+00  0.80944277994E+03  0.80944277996E+03  0.50400001928E-02 0.  1.
        1   -1    0    0  501    0  0.00000000000E+00  0.00000000000E+00 -0.13646488801E+04  0.13646488801E+04  0.50400001928E-02 0. -1.
    10030    2    1    2    0    0  0.00000000000E+00  0.00000000000E+00 -0.55520610012E+03  0.21740916600E+04  0.21020039802E+04 0.  0.
        1    1    3    3  502    0  0.21866648200E+03  0.10034284801E+04 -0.46509481265E+02  0.10280305817E+04  0.50400001928E-02 0.  1.
       -1    1    3    3    0  502 -0.21866648200E+03 -0.10034284801E+04 -0.50869661886E+03  0.11460610783E+04  0.50400001928E-02 0. -1.
</event>
<event>
 5   0  0.1653260E-06  0.2101063E+04  0.7818609E-02  0.8560775E-01
       -1   -1    0    0    0  501  0.00000000000E+00  0.00000000000E+00  0.67902631948E+03  0.67902631950E+03  0.50400001928E-02 0. -1.
        1   -1    0    0  501    0  0.00000000000E+00  0.00000000000E+00 -0.16252923907E+04  0.16252923907E+04  0.50400001928E-02 0.  1.
    10030    2    1    2    0    0  0.00000000000E+00  0.00000000000E+00 -0.94626607124E+03  0.23043187102E+04  0.21010628836E+04 0.  0.
        3    1    3    3  502    0  0.82518558241E+03 -0.50047366361E+03 -0.18004411954E+02  0.96526126124E+03  0.10100000352E+00 0.  1.
       -3    1    3    3    0  502 -0.82518558241E+03  0.50047366361E+03 -0.92826165929E+03  0.13390574490E+04  0.10100000352E+00 0. -1.
</event>
<event>
 5   0  0.1646510E-06  0.2101393E+04  0.7818609E-02  0.8560630E-01
        1   -1    0    0  501    0  0.00000000000E+00  0.00000000000E+00  0.18001146732E+04  0.18001146733E+04  0.50400001928E-02 0.  1.
       -1   -1    0    0    0  501  0.00000000000E+00  0.00000000000E+00 -0.61327371905E+03  0.61327371907E+03  0.50400001928E-02 0. -1.
    10030    2    1    2    0    0  0.00000000000E+00  0.00000000000E+00  0.11868409542E+04  0.24133883923E+04  0.21013928908E+04 0.  0.
        4    1    3    3  502    0  0.78256610454E+03  0.44627517767E+03  0.12144344062E+04  0.15120925177E+04  0.12699999809E+01 0.  1.
       -4    1    3    3    0  502 -0.78256610454E+03 -0.44627517767E+03 -0.27593451975E+02  0.90129587466E+03  0.12699999809E+01 0. -1.
</event>
<event>
 5   0  0.1590067E-06  0.2100051E+04  0.7818609E-02  0.8561221E-01
        1   -1    0    0  501    0  0.00000000000E+00  0.00000000000E+00  0.74427724697E+03  0.74427724699E+03  0.50400001928E-02 0. -1.
       -1   -1    0    0    0  501  0.00000000000E+00  0.00000000000E+00 -0.14813750197E+04  0.14813750197E+04  0.50400001928E-02 0.  1.
    10030    2    1    2    0    0  0.00000000000E+00  0.00000000000E+00 -0.73709777270E+03  0.22256522667E+04  0.21000511626E+04 0.  0.
        5    1    3    3  502    0  0.97935904756E+03  0.18451846624E+03 -0.71899222652E+03  0.12288869436E+04  0.46999998093E+01 0.  1.
       -5    1    3    3    0  502 -0.97935904756E+03 -0.18451846624E+03 -0.18105546180E+02  0.99676532305E+03  0.46999998093E+01 0. -1.
</event>
<event>
 5   0  0.3574927E-06  0.2100157E+04  0.7818609E-02  0.8561174E-01
       -2   -1    0    0    0  501  0.00000000000E+00  0.00000000000E+00  0.58289202765E+03  0.58289202766E+03  0.25500000920E-02 0.  1.
        2   -1    0    0  501    0  0.00000000000E+00  0.00000000000E+00 -0.18917144693E+04  0.18917144693E+04  0.25500000920E-02 0. -1.
    10030    2    1    2    0    0  0.00000000000E+00  0.00000000000E+00 -0.13088224417E+04  0.24746064970E+04  0.21001574063E+04 0.  0.
        3    1    3    3  502    0 -0.10277082925E+04 -0.19114355091E+03 -0.53690564699E+03  0.11751544049E+04  0.10100000352E+00 0.  1.
       -3    1    3    3    0  502  0.10277082925E+04  0.19114355091E+03 -0.77191679470E+03  0.12994520921E+04  0.10100000352E+00 0. -1.
</event>
<event>
 5   0  0.1579820E-06  0.2100118E+04  0.7818609E-02  0.8561191E-01
        1   -1    0    0  501    0  0.00000000000E+00  0.00000000000E+00  0.13369707485E+04  0.13369707485E+04  0.50400001928E-02 0. -1.
       -1   -1    0    0    0  501  0.00000000000E+00  0.00000000000E+00 -0.82471792933E+03  0.82471792935E+03  0.50400001928E-02 0.  1.
    10030    2    1    2    0    0  0.00000000000E+00  0.00000000000E+00  0.51225281912E+03  0.21616886778E+04  0.21001178512E+04 0.  0.
        2    1    3    3  502    0  0.28029639669E+03  0.90047862946E+03  0.73139478929E+03  0.11934681269E+04  0.25500000920E-02 0. -1.
       -2    1    3    3    0  502 -0.28029639669E+03 -0.90047862946E+03 -0.21914197017E+03  0.96822055091E+03  0.25500000920E-02 0.  1.
</event>
<event>
 5   0  0.1646510E-06  0.2100341E+04  0.7818609E-02  0.8561093E-01
        1   -1    0    0  501    0  0.00000000000E+00  0.00000000000E+00  0.11584307419E+04  0.11584307419E+04  0.50400001928E-02 0. -1.
       -1   -1    0    0    0  501  0.00000000000E+00  0.00000000000E+00 -0.95202788759E+03  0.95202788760E+03  0.50400001928E-02 0.  1.
    10030    2    1    2    0    0  0.00000000000E+00  0.00000000000E+00  0.20640285435E+03  0.21104586295E+04  0.21003412791E+04 0.  0.
        4    1    3    3  502    0 -0.35863655641E+03 -0.75174324047E+03 -0.53950350122E+03  0.99237277266E+03  0.12699999809E+01 0.  1.
       -4    1    3    3    0  502  0.35863655641E+03  0.75174324047E+03  0.74590635557E+03  0.11180858569E+04  0.12699999809E+01 0. -1.
</event>
<event>
 5   0  0.1653260E-06  0.2099750E+04  0.7818609E-02  0.8561353E-01
        1   -1    0    0  501    0  0.00000000000E+00  0.00000000000E+00  0.10434728768E+04  0.10434728768E+04  0.50400001928E-02 0.  1.
       -1   -1    0    0    0  501  0.00000000000E+00  0.00000000000E+00 -0.10563166852E+04  0.10563166852E+04  0.50400001928E-02 0. -1.
    10030    2    1    2    0    0  0.00000000000E+00  0.00000000000E+00 -0.12843808381E+02  0.20997895621E+04  0.20997502808E+04 0.  0.
        3    1    3    3  502    0 -0.83037115156E+03  0.44140086347E+02  0.63450599576E+03  0.10459744095E+04  0.10100000352E+00 0.  1.
       -3    1    3    3    0  502  0.83037115156E+03 -0.44140086347E+02 -0.64734980414E+03  0.10538151525E+04  0.10100000352E+00 0. -1.
</event>
<event>
 5   0  0.1646510E-06  0.2106056E+04  0.7818609E-02  0.8558580E-01
       -1   -1    0    0    0  501  0.00000000000E+00  0.00000000000E+00  0.12272460868E+04  0.12272460868E+04  0.50400001928E-02 0. -1.
        1   -1    0    0  501    0  0.00000000000E+00  0.00000000000E+00 -0.90354174774E+03  0.90354174775E+03  0.50400001928E-02 0.  1.
    10030    2    1    2    0    0  0.00000000000E+00  0.00000000000E+00  0.32370433906E+03  0.21307878346E+04  0.21060561001E+04 0.  0.
        4    1    3    3  502    0  0.49459951003E+03 -0.56476338492E+02 -0.77697144920E+03  0.92277001355E+03  0.12699999809E+01 0.  1.
       -4    1    3    3    0  502 -0.49459951003E+03  0.56476338492E+02  0.11006757883E+04  0.12080178210E+04  0.12699999809E+01 0. -1.
</event>
<event>
 5   0  0.3547583E-06  0.2099851E+04  0.7818609E-02  0.8561309E-01
       -2   -1    0    0    0  501  0.00000000000E+00  0.00000000000E+00  0.63002110043E+03  0.63002110044E+03  0.25500000920E-02 0. -1.
        2   -1    0    0  501    0  0.00000000000E+00  0.00000000000E+00 -0.17496927093E+04  0.17496927093E+04  0.25500000920E-02 0.  1.
    10030    2    1    2    0    0  0.00000000000E+00  0.00000000000E+00 -0.11196716089E+04  0.23797138097E+04  0.20998507815E+04 0.  0.
        2    1    3    3  502    0  0.55652810698E+03 -0.78798625634E+03 -0.10294251361E+04  0.14108018943E+04  0.25500000920E-02 0.  1.
       -2    1    3    3    0  502 -0.55652810698E+03  0.78798625634E+03 -0.90246472745E+02  0.96891191545E+03  0.25500000920E-02 0. -1.
</event>
<event>
 5   0  0.3705828E-06  0.2098799E+04  0.7818609E-02  0.8561773E-01
        2   -1    0    0  501    0  0.00000000000E+00  0.00000000000E+00  0.21270632478E+04  0.21270632478E+04  0.25500000920E-02 0.  1.
       -2   -1    0    0    0  501  0.00000000000E+00  0.00000000000E+00 -0.51772747654E+03  0.51772747655E+03  0.25500000920E-02 0. -1.
    10030    2    1    2    0    0  0.00000000000E+00  0.00000000000E+00  0.16093357712E+04  0.26447907243E+04  0.20987987876E+04 0.  0.
        5    1    3    3  502    0 -0.72061367851E+03 -0.88279652944E+02 -0.15016918084E+03  0.74138400552E+03  0.46999998093E+01 0. -1.
       -5    1    3    3    0  502  0.72061367851E+03  0.88279652944E+02  0.17595049521E+04  0.19034067188E+04  0.46999998093E+01 0.  1.
</event>
<event>
 5   0  0.3574927E-06  0.2101775E+04  0.7818609E-02  0.8560462E-01
       -2   -1    0    0    0  501  0.00000000000E+00  0.00000000000E+00  0.60959814116E+03  0.60959814116E+03  0.25500000920E-02 0.  1.
        2   -1    0    0  501    0  0.00000000000E+00  0.00000000000E+00 -0.18116279632E+04  0.18116279632E+04  0.25500000920E-02 0. -1.
    10030    2    1    2    0    0  0.00000000000E+00  0.00000000000E+00 -0.12020298221E+04  0.24212261044E+04  0.21017754769E+04 0.  0.
        3    1    3    3  502    0 -0.83651483225E+03 -0.18849079258E+03 -0.13008710939E+04  0.15580601582E+04  0.10100000352E+00 0. -1.
       -3    1    3    3    0  502  0.83651483225E+03  0.18849079258E+03  0.98841271817E+02  0.86316594619E+03  0.10100000352E+00 0.  1.
</event>
<event>
 5   0  0.3705828E-06  0.2100698E+04  0.7818609E-02  0.8560936E-01
        2   -1    0    0  501    0  0.00000000000E+00  0.00000000000E+00  0.83243386909E+03  0.83243386909E+03  0.25500000920E-02 0.  1.
       -2   -1    0    0    0  501  0.00000000000E+00  0.00000000000E+00 -0.13253097234E+04  0.13253097234E+04  0.25500000920E-02 0. -1.
    10030    2    1    2    0    0  0.00000000000E+00  0.00000000000E+00 -0.49287585428E+03  0.21577435925E+04  0.21006976944E+04 0.  0.
        5    1    3    3  502    0  0.47098983701E+03  0.78765112361E+03  0.27830181833E+03  0.95900975552E+03  0.46999998093E+01 0.  1.
       -5    1    3    3    0  502 -0.47098983701E+03 -0.78765112361E+03 -0.77117767261E+03  0.11987338369E+04  0.46999998093E+01 0. -1.
</event>
<event>
 5   0  0.1646510E-06  0.2100132E+04  0.7818609E-02  0.8561185E-01
        1   -1    0    0  501    0  0.00000000000E+00  0.00000000000E+00  0.97216394078E+03  0.97216394079E+03  0.50400001928E-02 0. -1.
       -1   -1    0    0    0  501  0.00000000000E+00  0.00000000000E+00 -0.11342107415E+04  0.11342107415E+04  0.50400001928E-02 0.  1.
    10030    2    1    2    0    0  0.00000000000E+00  0.00000000000E+00 -0.16204680076E+03  0.21063746823E+04  0.21001321713E+04 0.  0.
        4    1    3    3  502    0 -0.43106465715E+03  0.69696459208E+03  0.57748035885E+03  0.10025275852E+04  0.12699999809E+01 0. -1.
       -4    1    3    3    0  502  0.43106465715E+03 -0.69696459208E+03 -0.73952715960E+03  0.11038470972E+04  0.12699999809E+01 0.  1.
</event>
<event>
 5   0  0.1590067E-06  0.2100125E+04  0.7818609E-02  0.8561188E-01
       -1   -1    0    0    0  501  0.00000000000E+00  0.00000000000E+00  0.10442567803E+04  0.10442567803E+04  0.50400001928E-02 0. -1.
        1   -1    0    0  501    0  0.00000000000E+00  0.00000000000E+00 -0.10559007139E+04  0.10559007139E+04  0.50400001928E-02 0.  1.
    10030    2    1    2    0    0  0.00000000000E+00  0.00000000000E+00 -0.11643933636E+02  0.21001574942E+04  0.21001252152E+04 0.  0.
        5    1    3    3  502    0  0.29775711756E+03 -0.59088249232E+03 -0.82119207020E+03  0.10545994154E+04  0.46999998093E+01 0.  1.
       -5    1    3    3    0  502 -0.29775711756E+03  0.59088249232E+03  0.80954813657E+03  0.10455580788E+04  0.46999998093E+01 0. -1.
</event>
<event>
 5   0  0.1653260E-06  0.2100080E+04  0.7818609E-02  0.8561208E-01
       -1   -1    0    0    0  501  0.00000000000E+00  0.00000000000E+00  0.72284966648E+03  0.72284966649E+03  0.50400001928E-02 0. -1.
        1   -1    0    0  501    0  0.00000000000E+00  0.00000000000E+00 -0.15253298708E+04  0.15253298708E+04  0.50400001928E-02 0.  1.
    10030    2    1    2    0    0  0.00000000000E+00  0.00000000000E+00 -0.80248020433E+03  0.22481795373E+04  0.21000801779E+04 0.  0.
        3    1    3    3  502    0 -0.10428712135E+04 -0.10043031775E+03 -0.32616948035E+03  0.10972935600E+04  0.10100000352E+00 0. -1.
       -3    1    3    3    0  502  0.10428712135E+04  0.10043031775E+03 -0.47631072398E+03  0.11508859773E+04  0.10100000352E+00 0.  1.
</event>
<event>
 5   0  0.1590067E-06  0.2099928E+04  0.7818609E-02  0.8561275E-01
       -1   -1    0    0    0  501  0.00000000000E+00  0.00000000000E+00  0.50347139165E+03  0.50347139168E+03  0.50400001928E-02 0. -1.
        1   -1    0    0  501    0  0.00000000000E+00  0.00000000000E+00 -0.21896470121E+04  0.21896470121E+04  0.50400001928E-02 0.  1.
    10030    2    1    2    0    0  0.00000000000E+00  0.00000000000E+00 -0.16861756205E+04  0.26931184038E+04  0.20999282164E+04 0.  0.
        5    1    3    3  502    0 -0.17240234535E+03  0.40073015670E+03 -0.20679045413E+04  0.21134234098E+04  0.46999998093E+01 0.  1.
       -5    1    3    3    0  502  0.17240234535E+03 -0.40073015670E+03  0.38172892078E+03  0.57969499406E+03  0.46999998093E+01 0. -1.
</event>
<event>
 5   0  0.3547583E-06  0.2098965E+04  0.7818609E-02  0.8561699E-01
       -2   -1    0    0    0  501  0.00000000000E+00  0.00000000000E+00  0.83077106608E+03  0.83077106608E+03  0.25500000920E-02 0.  1.
        2   -1    0    0  501    0  0.00000000000E+00  0.00000000000E+00 -0.13257725097E+04  0.13257725097E+04  0.25500000920E-02 0. -1.
    10030    2    1    2    0    0  0.00000000000E+00  0.00000000000E+00 -0.49500144359E+03  0.21565435757E+04  0.20989649270E+04 0.  0.
        2    1    3    3  502    0  0.31325733221E+03 -0.60451173646E+03  0.57306230262E+03  0.88992415316E+03  0.25500000920E-02 0.  1.
       -2    1    3    3    0  502 -0.31325733221E+03  0.60451173646E+03 -0.10680637462E+04  0.12666194226E+04  0.25500000920E-02 0. -1.
</event>
<event>
 5   0  0.3574927E-06  0.2105051E+04  0.7818609E-02  0.8559022E-01
        2   -1    0    0  501    0  0.00000000000E+00  0.00000000000E+00  0.15464555610E+04  0.15464555610E+04  0.25500000920E-02 0.  1.
       -2   -1    0    0    0  501  0.00000000000E+00  0.00000000000E+00 -0.71635394057E+03  0.71635394057E+03  0.25500000920E-02 0. -1.
    10030    2    1    2    0    0  0.00000000000E+00  0.00000000000E+00  0.83010162042E+03  0.22628095016E+04  0.21050506265E+04 0.  0.
        3    1    3    3  502    0  0.79514076564E+03  0.29063294720E+03  0.10872926957E+04  0.13780137022E+04  0.10100000352E+00 0.  1.
       -3    1    3    3    0  502 -0.79514076564E+03 -0.29063294720E+03 -0.25719107525E+03  0.88479579936E+03  0.10100000352E+00 0. -1.
</event>
<event>
 5   0  0.3574927E-06  0.2100351E+04  0.7818609E-02  0.8561089E-01
        2   -1    0    0  501    0  0.00000000000E+00  0.00000000000E+00  0.14192583072E+04  0.14192583072E+04  0.25500000920E-02 0. -1.
       -2   -1    0    0    0  501  0.00000000000E+00  0.00000000000E+00 -0.77707413694E+03  0.77707413694E+03  0.25500000920E-02 0.  1.
    10030    2    1    2    0    0  0.00000000000E+00  0.00000000000E+00  0.64218417030E+03  0.21963324442E+04  0.21003513270E+04 0.  0.
        3    1    3    3  502    0 -0.37890511849E+03  0.32063534140E+03 -0.64666863432E+03  0.81520331439E+03  0.10100000352E+00 0.  1.
       -3    1    3    3    0  502  0.37890511849E+03 -0.32063534140E+03  0.12888528046E+04  0.13811291298E+04  0.10100000352E+00 0. -1.
</event>
<event>
 5   0  0.1579820E-06  0.2099611E+04  0.7818609E-02  0.8561415E-01
       -1   -1    0    0    0  501  0.00000000000E+00  0.00000000000E+00  0.62048699484E+03  0.62048699486E+03  0.50400001928E-02 0. -1.
        1   -1    0    0  501    0  0.00000000000E+00  0.00000000000E+00 -0.17761713240E+04  0.17761713240E+04  0.50400001928E-02 0.  1.
    10030    2    1    2    0    0  0.00000000000E+00  0.00000000000E+00 -0.11556843291E+04  0.23966583188E+04  0.20996106374E+04 0.  0.
        2    1    3    3  502    0 -0.52101502243E+02  0.84645801717E+03 -0.12841626448E+04  0.15389215183E+04  0.25500000920E-02 0.  1.
       -2    1    3    3    0  502  0.52101502243E+02 -0.84645801717E+03  0.12847831563E+03  0.85773680052E+03  0.25500000920E-02 0. -1.
</event>
<event>
 5   0  0.3636435E-06  0.2095493E+04  0.7818609E-02  0.8563231E-01
        2   -1    0    0  501    0  0.00000000000E+00  0.00000000000E+00  0.12364680420E+04  0.12364680420E+04  0.25500000920E-02 0. -1.
       -2   -1    0    0    0  501  0.00000000000E+00  0.00000000000E+00 -0.88782965337E+03  0.88782965337E+03  0.25500000920E-02 0.  1.
    10030    2    1    2    0    0  0.00000000000E+00  0.00000000000E+00  0.34863838859E+03  0.21242976953E+04  0.20954932528E+04 0.  0.
        4    1    3    3  502    0 -0.94456836811E+03 -0.71255570467E+02  0.62822908276E+03  0.11366442503E+04  0.12699999809E+01 0. -1.
       -4    1    3    3    0  502  0.94456836811E+03  0.71255570467E+02 -0.27959069417E+03  0.98765344505E+03  0.12699999809E+01 0.  1.
</event>
<event>
 5   0  0.3574927E-06  0.2099600E+04  0.7818609E-02  0.8561420E-01
        2   -1    0    0  501    0  0.00000000000E+00  0.00000000000E+00  0.28938248389E+04  0.28938248389E+04  0.25500000920E-02 0.  1.
       -2   -1    0    0    0  501  0.00000000000E+00  0.00000000000E+00 -0.38083844407E+03  0.38083844408E+03  0.25500000920E-02 0. -1.
    10030    2    1    2    0    0  0.00000000000E+00  0.00000000000E+00  0.25129863948E+04  0.32746632830E+04  0.20995997229E+04 0.  0.
        3    1    3    3  502    0 -0.10201983215E+04 -0.16617040408E+02  0.16416978220E+04  0.19329388222E+04  0.10100000352E+00 0.  1.
       -3    1    3    3    0  502  0.10201983215E+04  0.16617040408E+02  0.87128857278E+03  0.13417244608E+04  0.10100000352E+00 0. -1.
</event>
<event>
 5   0  0.3574927E-06  0.2101507E+04  0.7818609E-02  0.8560580E-01
        2   -1    0    0  501    0  0.00000000000E+00  0.00000000000E+00  0.20397027660E+04  0.20397027660E+04  0.25500000920E-02 0.  1.
       -2   -1    0    0    0  501  0.00000000000E+00  0.00000000000E+00 -0.54129590822E+03  0.54129590822E+03  0.25500000920E-02 0. -1.
    10030    2    1    2    0    0  0.00000000000E+00  0.00000000000E+00  0.14984068578E+04  0.25809986742E+04  0.21015068510E+04 0.  0.
        3    1    3    3  502    0 -0.73684395161E+03 -0.74727701052E+03  0.81326627098E+03  0.13276912206E+04  0.10100000352E+00 0.  1.
       -3    1    3    3    0  502  0.73684395161E+03  0.74727701052E+03  0.68514058678E+03  0.12533074536E+04  0.10100000352E+00 0. -1.
</event>
<event>
 5   0  0.3574927E-06  0.2099939E+04  0.7818609E-02  0.8561270E-01
       -2   -1    0    0    0  501  0.00000000000E+00  0.00000000000E+00  0.66468742303E+03  0.66468742303E+03  0.25500000920E-02 0.  1.
        2   -1    0    0  501    0  0.00000000000E+00  0.00000000000E+00 -0.16585779643E+04  0.16585779643E+04  0.25500000920E-02 0. -1.
    10030    2    1    2    0    0  0.00000000000E+00  0.00000000000E+00 -0.99389054125E+03  0.23232653873E+04  0.20999389639E+04 0.  0.
        3    1    3    3  502    0  0.22768009553E+03  0.89208960951E+03 -0.10553762941E+04  0.14005289107E+04  0.10100000352E+00 0. -1.
       -3    1    3    3    0  502 -0.22768009553E+03 -0.89208960951E+03  0.61485752867E+02  0.92273647663E+03  0.10100000352E+00 0.  1.
</event>
<event>
 5   0  0.3705828E-06  0.2097276E+04  0.7818609E-02  0.8562444E-01
        2   -1    0    0  501    0  0.00000000000E+00  0.00000000000E+00  0.93712636461E+03  0.93712636462E+03  0.25500000920E-02 0.  1.
       -2   -1    0    0    0  501  0.00000000000E+00  0.00000000000E+00 -0.11734191713E+04  0.11734191713E+04  0.25500000920E-02 0. -1.
    10030    2    1    2    0    0  0.00000000000E+00  0.00000000000E+00 -0.23629280668E+03  0.21105455359E+04  0.20972763692E+04 0.  0.
        5    1    3    3  502    0 -0.68975001828E+03  0.76269226984E+03  0.88494837154E+02  0.10321375937E+04  0.46999998093E+01 0.  1.
       -5    1    3    3    0  502  0.68975001828E+03 -0.76269226984E+03 -0.32478764384E+03  0.10784079422E+04  0.46999998093E+01 0. -1.
</event>
<event>
 5   0  0.1653260E-06  0.2100101E+04  0.7818609E-02  0.8561199E-01
        1   -1    0    0  501    0  0.00000000000E+00  0.00000000000E+00  0.83823496719E+03  0.83823496721E+03  0.50400001928E-02 0. -1.
       -1   -1    0    0    0  501  0.00000000000E+00  0.00000000000E+00 -0.13153903035E+04  0.13153903035E+04  0.50400001928E-02 0.  1.
    10030    2    1    2    0    0  0.00000000000E+00  0.00000000000E+00 -0.47715533634E+03  0.21536252708E+04  0.21001010909E+04 0.  0.
        3    1    3    3  502    0 -0.58673783704E+03  0.75770694406E+03 -0.67873127219E+03  0.11743326839E+04  0.10100000352E+00 0.  1.
       -3    1    3    3    0  502  0.58673783704E+03 -0.75770694406E+03  0.20157593585E+03  0.97929258682E+03  0.10100000352E+00 0. -1.
</event>
<event>
 5   0  0.1579820E-06  0.2099544E+04  0.7818609E-02  0.8561444E-01
        1   -1    0    0  501    0  0.00000000000E+00  0.00000000000E+00  0.83989898750E+03  0.83989898751E+03  0.50400001928E-02 0.  1.
       -1   -1    0    0    0  501  0.00000000000E+00  0.00000000000E+00 -0.13120881227E+04  0.13120881227E+04  0.50400001928E-02 0. -1.
    10030    2    1    2    0    0  0.00000000000E+00  0.00000000000E+00 -0.47218913524E+03  0.21519871103E+04  0.20995442227E+04 0.  0.
        2    1    3    3  502    0 -0.18675354872E+03 -0.11883361412E+03 -0.12878956241E+04  0.13067798033E+04  0.25500000920E-02 0. -1.
       -2    1    3    3    0  502  0.18675354872E+03  0.11883361412E+03  0.81570648883E+03  0.84520730696E+03  0.25500000920E-02 0.  1.
</event>
<event>
 5   0  0.1646510E-06  0.2100079E+04  0.7818609E-02  0.8561208E-01
       -1   -1    0    0    0  501  0.00000000000E+00  0.00000000000E+00  0.13651122651E+04  0.13651122651E+04  0.50400001928E-02 0.  1.
        1   -1    0    0  501    0  0.00000000000E+00  0.00000000000E+00 -0.80768697631E+03  0.80768697633E+03  0.50400001928E-02 0. -1.
    10030    2    1    2    0    0  0.00000000000E+00  0.00000000000E+00  0.55742528876E+03  0.21727992414E+04  0.21000794249E+04 0.  0.
        4    1    3    3  502    0  0.92534423732E+03 -0.26966949692E+03  0.70979125749E+03  0.11969915778E+04  0.12699999809E+01 0.  1.
       -4    1    3    3    0  502 -0.92534423732E+03  0.26966949692E+03 -0.15236596873E+03  0.97580766365E+03  0.12699999809E+01 0. -1.
</event>
<event>
 5   0  0.3574927E-06  0.2098888E+04  0.7818609E-02  0.8561733E-01
        2   -1    0    0  501    0  0.00000000000E+00  0.00000000000E+00  0.12235134844E+04  0.12235134844E+04  0.25500000920E-02 0. -1.
       -2   -1    0    0    0  501  0.00000000000E+00  0.00000000000E+00 -0.90013949059E+03  0.90013949060E+03  0.25500000920E-02 0.  1.
    10030    2    1    2    0    0  0.00000000000E+00  0.00000000000E+00  0.32337399379E+03  0.21236529750E+04  0.20988880909E+04 0.  0.
        3    1    3    3  502    0 -0.50809649041E+03  0.62755046874E+03 -0.51655893972E+03  0.95854826837E+03  0.10100000352E+00 0.  1.
       -3    1    3    3    0  502  0.50809649041E+03 -0.62755046874E+03  0.83993293351E+03  0.11651047066E+04  0.10100000352E+00 0. -1.
</event>
<event>
 5   0  0.3574927E-06  0.2085785E+04  0.7818609E-02  0.8567531E-01
       -2   -1    0    0    0  501  0.00000000000E+00  0.00000000000E+00  0.68225837047E+03  0.68225837047E+03  0.25500000920E-02 0. -1.
        2   -1    0    0  501    0  0.00000000000E+00  0.00000000000E+00 -0.15941536483E+04  0.15941536483E+04  0.25500000920E-02 0.  1.
    10030    2    1    2    0    0  0.00000000000E+00  0.00000000000E+00 -0.91189527782E+03  0.22764120188E+04  0.20857849078E+04 0.  0.
        3    1    3    3  502    0 -0.79397963192E+03 -0.54644912381E+03 -0.21284712217E+02  0.96408679588E+03  0.10100000352E+00 0. -1.
       -3    1    3    3    0  502  0.79397963192E+03  0.54644912381E+03 -0.89061056560E+03  0.13123252229E+04  0.10100000352E+00 0.  1.
</event>
<event>
 5   0  0.3480134E-06  0.2103117E+04  0.7818609E-02  0.8559871E-01
       -2   -1    0    0    0  501  0.00000000000E+00  0.00000000000E+00  0.81197127805E+03  0.81197127805E+03  0.25500000920E-02 0.  1.
        2   -1    0    0  501    0  0.00000000000E+00  0.00000000000E+00 -0.13618405929E+04  0.13618405930E+04  0.25500000920E-02 0. -1.
    10030    2    1    2    0    0  0.00000000000E+00  0.00000000000E+00 -0.54986931490E+03  0.21738118710E+04  0.21031171596E+04 0.  0.
        1    1    3    3  502    0 -0.58867995050E+03 -0.14104719665E+03 -0.11636848844E+04  0.13117167781E+04  0.50400001928E-02 0. -1.
       -1    1    3    3    0  502  0.58867995050E+03  0.14104719665E+03  0.61381556949E+03  0.86209509289E+03  0.50400001928E-02 0.  1.
</event>
<event>
 5   0  0.1615098E-06  0.2100071E+04  0.7818609E-02  0.8561212E-01
        1   -1    0    0  501    0  0.00000000000E+00  0.00000000000E+00  0.16666191209E+04  0.16666191209E+04  0.50400001928E-02 0. -1.
       -1   -1    0    0    0  501  0.00000000000E+00  0.00000000000E+00 -0.66156343744E+03  0.66156343746E+03  0.50400001928E-02 0.  1.
    10030    2    1    2    0    0  0.00000000000E+00  0.00000000000E+00  0.10050556834E+04  0.23281825584E+04  0.21000707365E+04 0.  0.
        1    1    3    3  502    0  0.16936419434E+03  0.67936637536E+03 -0.36500006837E+03  0.78958720369E+03  0.50400001928E-02 0.  1.
       -1    1    3    3    0  502 -0.16936419434E+03 -0.67936637536E+03  0.13700557518E+04  0.15385953547E+04  0.50400001928E-02 0. -1.
</event>
<event>
 5   0  0.3547583E-06  0.2098948E+04  0.7818609E-02  0.8561707E-01
        2   -1    0    0  501    0  0.00000000000E+00  0.00000000000E+00  0.12179165876E+04  0.12179165876E+04  0.25500000920E-02 0.  1.
       -2   -1    0    0    0  501  0.00000000000E+00  0.00000000000E+00 -0.90432735071E+03  0.90432735072E+03  0.25500000920E-02 0. -1.
    10030    2    1    2    0    0  0.00000000000E+00  0.00000000000E+00  0.31358923687E+03  0.21222439383E+04  0.20989476230E+04 0.  0.
        2    1    3    3  502    0  0.83364330501E+03 -0.21826920745E+03 -0.44884668286E+03  0.97163056335E+03  0.25500000920E-02 0. -1.
       -2    1    3    3    0  502 -0.83364330501E+03  0.21826920745E+03  0.76243591973E+03  0.11506133750E+04  0.25500000920E-02 0.  1.
</event>
<event>
 5   0  0.3574927E-06  0.2099819E+04  0.7818609E-02  0.8561323E-01
        2   -1    0    0  501    0  0.00000000000E+00  0.00000000000E+00  0.10890946054E+04  0.10890946054E+04  0.25500000920E-02 0.  1.
       -2   -1    0    0    0  501  0.00000000000E+00  0.00000000000E+00 -0.10121343191E+04  0.10121343191E+04  0.25500000920E-02 0. -1.
    10030    2    1    2    0    0  0.00000000000E+00  0.00000000000E+00  0.76960286301E+02  0.21012289246E+04  0.20998190655E+04 0.  0.
        3    1    3    3  502    0 -0.88702999447E+03 -0.38348388004E+03 -0.37219511401E+03  0.10355729383E+04  0.10100000352E+00 0. -1.
       -3    1    3    3    0  502  0.88702999447E+03  0.38348388004E+03  0.44915540031E+03  0.10656559863E+04  0.10100000352E+00 0.  1.
</event>
<event>
 5   0  0.1615098E-06  0.2099249E+04  0.7818609E-02  0.8561574E-01
        1   -1    0    0  501    0  0.00000000000E+00  0.00000000000E+00  0.78472711938E+03  0.78472711940E+03  0.50400001928E-02 0.  1.
       -1   -1    0    0    0  501  0.00000000000E+00  0.00000000000E+00 -0.14039416728E+04  0.14039416728E+04  0.50400001928E-02 0. -1.
    10030    2    1    2    0    0  0.00000000000E+00  0.00000000000E+00 -0.61921455339E+03  0.21886687922E+04  0.20992485367E+04 0.  0.
        1    1    3    3  502    0  0.71704829638E+03  0.13958012128E+03  0.47620209409E+03  0.87201450908E+03  0.50400001928E-02 0.  1.
       -1    1    3    3    0  502 -0.71704829638E+03 -0.13958012128E+03 -0.10954166475E+04  0.13166542831E+04  0.50400001928E-02 0. -1.
</event>
<event>
 5   0  0.3636435E-06  0.2102926E+04  0.7818609E-02  0.8559955E-01
       -2   -1    0    0    0  501  0.00000000000E+00  0.00000000000E+00  0.10203608590E+04  0.10203608590E+04  0.25500000920E-02 0.  1.
        2   -1    0    0  501    0  0.00000000000E+00  0.00000000000E+00 -0.10835134473E+04  0.10835134473E+04  0.25500000920E-02 0. -1.
    10030    2    1    2    0    0  0.00000000000E+00  0.00000000000E+00 -0.63152588280E+02  0.21038743062E+04  0.21029262581E+04 0.  0.
        4    1    3    3  502    0 -0.40945812067E+03  0.49054553459E+02  0.93607782139E+03  0.10228908067E+04  0.12699999809E+01 0.  1.
       -4    1    3    3    0  502  0.40945812067E+03 -0.49054553459E+02 -0.99923040967E+03  0.10809834996E+04  0.12699999809E+01 0. -1.
</event>
<event>
 5   0  0.1590067E-06  0.2101510E+04  0.7818609E-02  0.8560579E-01
       -1   -1    0    0    0  501  0.00000000000E+00  0.00000000000E+00  0.60594220871E+03  0.60594220873E+03  0.50400001928E-02 0.  1.
        1   -1    0    0  501    0  0.00000000000E+00  0.00000000000E+00 -0.18220973729E+04  0.18220973729E+04  0.50400001928E-02 0. -1.
    10030    2    1    2    0    0  0.00000000000E+00  0.00000000000E+00 -0.12161551642E+04  0.24280395816E+04  0.21015096542E+04 0.  0.
        5    1    3    3  502    0  0.46060332827E+03  0.88008810899E+03 -0.10038738332E+04  0.14122660049E+04  0.46999998093E+01 0.  1.
       -5    1    3    3    0  502 -0.46060332827E+03 -0.88008810899E+03 -0.21228133091E+03  0.10157735767E+04  0.46999998093E+01 0. -1.
</event>
<event>
 5   0  0.3705828E-06  0.2103038E+04  0.7818609E-02  0.8559906E-01
       -2   -1    0    0    0  501  0.00000000000E+00  0.00000000000E+00  0.59853113816E+03  0.59853113817E+03  0.25500000920E-02 0.  1.
        2   -1    0    0  501    0  0.00000000000E+00  0.00000000000E+00 -0.18473430958E+04  0.18473430958E+04  0.25500000920E-02 0. -1.
    10030    2    1    2    0    0  0.00000000000E+00  0.00000000000E+00 -0.12488119577E+04  0.24458742340E+04  0.21030381506E+04 0.  0.
        5    1    3    3  502    0 -0.45621671245E+03  0.11063187234E+03  0.46988170235E+03  0.66421683515E+03  0.46999998093E+01 0.  1.
       -5    1    3    3    0  502  0.45621671245E+03 -0.11063187234E+03 -0.17186936600E+04  0.17816573988E+04  0.46999998093E+01 0. -1.
</event>
<event>
 5   0  0.3636435E-06  0.2100433E+04  0.7818609E-02  0.8561053E-01
        2   -1    0    0  501    0  0.00000000000E+00  0.00000000000E+00  0.95311759318E+03  0.95311759318E+03  0.25500000920E-02 0.  1.
       -2   -1    0    0    0  501  0.00000000000E+00  0.00000000000E+00 -0.11572071020E+04  0.11572071020E+04  0.25500000920E-02 0. -1.
    10030    2    1    2    0    0  0.00000000000E+00  0.00000000000E+00 -0.20408950880E+03  0.21103246952E+04  0.21004327629E+04 0.  0.
        4    1    3    3  502    0 -0.87567516650E+02 -0.54508285109E+03 -0.99965551011E+03  0.11419702870E+04  0.12699999809E+01 0. -1.
       -4    1    3    3    0  502  0.87567516650E+02  0.54508285109E+03  0.79556600131E+03  0.96835440819E+03  0.12699999809E+01 0.  1.
</event>
<event>
 5   0  0.3574927E-06  0.2100797E+04  0.7818609E-02  0.8560892E-01
       -2   -1    0    0    0  501  0.00000000000E+00  0.00000000000E+00  0.12126730524E+04  0.12126730524E+04  0.25500000920E-02 0.  1.
        2   -1    0    0  501    0  0.00000000000E+00  0.00000000000E+00 -0.90983921341E+03  0.90983921341E+03  0.25500000920E-02 0. -1.
    10030    2    1    2    0    0  0.00000000000E+00  0.00000000000E+00  0.30283383894E+03  0.21225122658E+04  0.21007974639E+04 0.  0.
        3    1    3    3  502    0 -0.20025848459E+03 -0.94057981962E+03 -0.27549492285E+03  0.10003456005E+04  0.10100000352E+00 0.  1.
       -3    1    3    3    0  502  0.20025848459E+03  0.94057981962E+03  0.57832876179E+03  0.11221666653E+04  0.10100000352E+00 0. -1.
</event>
<event>
 5   0  0.3574927E-06  0.2099946E+04  0.7818609E-02  0.8561267E-01
        2   -1    0    0  501    0  0.00000000000E+00  0.00000000000E+00  0.22257267946E+04  0.22257267946E+04  0.25500000920E-02 0. -1.
       -2   -1    0    0    0  501  0.00000000000E+00  0.00000000000E+00 -0.49531823909E+03  0.49531823910E+03  0.25500000920E-02 0.  1.
    10030    2    1    2    0    0  0.00000000000E+00  0.00000000000E+00  0.17304085555E+04  0.27210450337E+04  0.20999457865E+04 0.  0.
        3    1    3    3  502    0 -0.61074146835E+03 -0.73546561235E+03  0.14278251948E+04  0.17183130114E+04  0.10100000352E+00 0. -1.
       -3    1    3    3    0  502  0.61074146835E+03  0.73546561235E+03  0.30258336070E+03  0.10027320223E+04  0.10100000352E+00 0.  1.
</event>
<event>
 5   0  0.3636435E-06  0.2100837E+04  0.7818609E-02  0.8560875E-01
       -2   -1    0    0    0  501  0.00000000000E+00  0.00000000000E+00  0.52066166159E+03  0.52066166159E+03  0.25500000920E-02 0.  1.
        2   -1    0    0  501    0  0.00000000000E+00  0.00000000000E+00 -0.21191853530E+04  0.21191853530E+04  0.25500000920E-02 0. -1.
    10030    2    1    2    0    0  0.00000000000E+00  0.00000000000E+00 -0.15985236914E+04  0.26398470146E+04  0.21008365639E+04 0.  0.
        4    1    3    3  502    0  0.47018786580E+03 -0.21728731281E+03 -0.19475535726E+04  0.20152560474E+04  0.12699999809E+01 0. -1.
       -4    1    3    3    0  502 -0.47018786580E+03  0.21728731281E+03  0.34902988119E+03  0.62459096721E+03  0.12699999809E+01 0.  1.
</event>
<event>
 5   0  0.3574927E-06  0.2099490E+04  0.7818609E-02  0.8561468E-01
        2   -1    0    0  501    0  0.00000000000E+00  0.00000000000E+00  0.18599444948E+04  0.18599444948E+04  0.25500000920E-02 0. -1.
       -2   -1    0    0    0  501  0.00000000000E+00  0.00000000000E+00 -0.59247201228E+03  0.59247201229E+03  0.25500000920E-02 0.  1.
    10030    2    1    2    0    0  0.00000000000E+00  0.00000000000E+00  0.12674724825E+04  0.24524165071E+04  0.20994904692E+04 0.  0.
        3    1    3    3  502    0  0.68941000915E+03  0.16935503779E+03 -0.26955978773E+03  0.75936142838E+03  0.10100000352E+00 0.  1.
       -3    1    3    3    0  502 -0.68941000915E+03 -0.16935503779E+03  0.15370322703E+04  0.16930550787E+04  0.10100000352E+00 0. -1.
</event>
<event>
 5   0  0.1590067E-06  0.2099436E+04  0.7818609E-02  0.8561492E-01
       -1   -1    0    0    0  501  0.00000000000E+00  0.00000000000E+00  0.76806539729E+03  0.76806539730E+03  0.50400001928E-02 0. -1.
        1   -1    0    0  501    0  0.00000000000E+00  0.00000000000E+00 -0.14346540993E+04  0.14346540993E+04  0.50400001928E-02 0.  1.
    10030    2    1    2    0    0  0.00000000000E+00  0.00000000000E+00 -0.66658870205E+03  0.22027194966E+04  0.20994362775E+04 0.  0.
        5    1    3    3  502    0  0.38407827035E+03  0.81282227131E+03 -0.90188670810E+03  0.12734276135E+04  0.46999998093E+01 0. -1.
       -5    1    3    3    0  502 -0.38407827035E+03 -0.81282227131E+03  0.23529800605E+03  0.92929188318E+03  0.46999998093E+01 0.  1.
</event>
<event>
 5   0  0.3480134E-06  0.2100872E+04  0.7818609E-02  0.8560859E-01
       -2   -1    0    0    0  501  0.00000000000E+00  0.00000000000E+00  0.14663375557E+04  0.14663375557E+04  0.25500000920E-02 0.  1.
        2   -1    0    0  501    0  0.00000000000E+00  0.00000000000E+00 -0.75249804689E+03  0.75249804690E+03  0.25500000920E-02 0. -1.
    10030    2    1    2    0    0  0.00000000000E+00  0.00000000000E+00  0.71383950881E+03  0.22188356026E+04  0.21008723395E+04 0.  0.
        1    1    3    3  502    0  0.54848500405E+03 -0.66257651434E+03  0.99374621623E+03  0.13142963818E+04  0.50400001928E-02 0.  1.
       -1    1    3    3    0  502 -0.54848500405E+03  0.66257651434E+03 -0.27990670741E+03  0.90453922077E+03  0.50400001928E-02 0. -1.
</event>
<event>
 5   0  0.1653260E-06  0.2101230E+04  0.7818609E-02  0.8560702E-01
        1   -1    0    0  501    0  0.00000000000E+00  0.00000000000E+00  0.85692131437E+03  0.85692131438E+03  0.50400001928E-02 0. -1.
       -1   -1    0    0    0  501  0.00000000000E+00  0.00000000000E+00 -0.12880898602E+04  0.12880898602E+04  0.50400001928E-02 0.  1.
    10030    2    1    2    0    0  0.00000000000E+00  0.00000000000E+00 -0.43116854579E+03  0.21450111745E+04  0.21012297885E+04 0.  0.
        3    1    3    3  502    0 -0.30208680993E+03  0.97556336287E+03  0.36153427899E+02  0.10219038097E+04  0.10100000352E+00 0. -1.
       -3    1    3    3    0  502  0.30208680993E+03 -0.97556336287E+03 -0.46732197369E+03  0.11231073649E+04  0.10100000352E+00 0.  1.
</event>
<event>
 5   0  0.3636435E-06  0.2099509E+04  0.7818609E-02  0.8561460E-01
        2   -1    0    0  501    0  0.00000000000E+00  0.00000000000E+00  0.15726582973E+04  0.15726582973E+04  0.25500000920E-02 0. -1.
       -2   -1    0    0    0  501  0.00000000000E+00  0.00000000000E+00 -0.70071419293E+03  0.70071419294E+03  0.25500000920E-02 0.  1.
    10030    2    1    2    0    0  0.00000000000E+00  0.00000000000E+00  0.87194410436E+03  0.22733724902E+04  0.20995085040E+04 0.  0.
        4    1    3    3  502    0 -0.21928900715E+03 -0.97425497024E+03  0.85565801006E+02  0.10022891473E+04  0.12699999809E+01 0.  1.
       -4    1    3    3    0  502  0.21928900715E+03  0.97425497024E+03  0.78637830336E+03  0.12710833429E+04  0.12699999809E+01 0. -1.
</event>
<event>
 5   0  0.3636435E-06  0.2102792E+04  0.7818609E-02  0.8560014E-01
       -2   -1    0    0    0  501  0.00000000000E+00  0.00000000000E+00  0.49629897804E+03  0.49629897804E+03  0.25500000920E-02 0.  1.
        2   -1    0    0  501    0  0.00000000000E+00  0.00000000000E+00 -0.22273541009E+04  0.22273541009E+04  0.25500000920E-02 0. -1.
    10030    2    1    2    0    0  0.00000000000E+00  0.00000000000E+00 -0.17310551229E+04  0.27236530790E+04  0.21027920145E+04 0.  0.
        4    1    3    3  502    0  0.94819950531E+03 -0.35423684850E+03 -0.49719662755E+03  0.11277287555E+04  0.12699999809E+01 0.  1.
       -4    1    3    3    0  502 -0.94819950531E+03  0.35423684850E+03 -0.12338584953E+04  0.15959243234E+04  0.12699999809E+01 0. -1.
</event>
<event>
 5   0  0.1257125E-06  0.2099668E+04  0.7818609E-02  0.8561390E-01
        3   -1    0    0  501    0  0.00000000000E+00  0.00000000000E+00  0.90068471373E+03  0.90068471940E+03  0.10100000352E+00 0. -1.
       -3   -1    0    0    0  501  0.00000000000E+00  0.00000000000E+00 -0.12236815070E+04  0.12236815112E+04  0.10100000352E+00 0.  1.
    10030    2    1    2    0    0  0.00000000000E+00  0.00000000000E+00 -0.32299679326E+03  0.21243662306E+04  0.20996678197E+04 0.  0.
        3    1    3    3  502    0 -0.11298136525E+03 -0.97694425933E+03 -0.53319753464E+03  0.11186976785E+04  0.10100000352E+00 0.  1.
       -3    1    3    3    0  502  0.11298136525E+03  0.97694425933E+03  0.21020074138E+03  0.10056685521E+04  0.10100000352E+00 0. -1.
</event>
<event>
 5   0  0.3636435E-06  0.2100212E+04  0.7818609E-02  0.8561150E-01
        2   -1    0    0  501    0  0.00000000000E+00  0.00000000000E+00  0.21195868988E+04  0.21195868989E+04  0.25500000920E-02 0.  1.
       -2   -1    0    0    0  501  0.00000000000E+00  0.00000000000E+00 -0.52025351094E+03  0.52025351094E+03  0.25500000920E-02 0. -1.
    10030    2    1    2    0    0  0.00000000000E+00  0.00000000000E+00  0.15993333879E+04  0.26398404098E+04  0.21002119187E+04 0.  0.
        4    1    3    3  502    0 -0.63422055738E+03  0.50911172586E+03 -0.35314737063E+02  0.81405110919E+03  0.12699999809E+01 0. -1.
       -4    1    3    3    0  502  0.63422055738E+03 -0.50911172586E+03  0.16346481250E+04  0.18257893006E+04  0.12699999809E+01 0.  1.
</event>
<event>
 5   0  0.3480134E-06  0.2100264E+04  0.7818609E-02  0.8561127E-01
       -2   -1    0    0    0  501  0.00000000000E+00  0.00000000000E+00  0.65588287246E+03  0.65588287247E+03  0.25500000920E-02 0.  1.
        2   -1    0    0  501    0  0.00000000000E+00  0.00000000000E+00 -0.16813631729E+04  0.16813631729E+04  0.25500000920E-02 0. -1.
    10030    2    1    2    0    0  0.00000000000E+00  0.00000000000E+00 -0.10254803004E+04  0.23372460454E+04  0.21002640858E+04 0.  0.
        1    1    3    3  502    0 -0.99701585803E+02 -0.68253030221E+02 -0.16736021181E+04  0.16779579650E+04  0.50400001928E-02 0. -1.
       -1    1    3    3    0  502  0.99701585803E+02  0.68253030221E+02  0.64812181770E+03  0.65928808040E+03  0.50400001928E-02 0.  1.
</event>
<event>
 5   0  0.1646510E-06  0.2099951E+04  0.7818609E-02  0.8561265E-01
       -1   -1    0    0    0  501  0.00000000000E+00  0.00000000000E+00  0.94165529290E+03  0.94165529292E+03  0.50400001928E-02 0.  1.
        1   -1    0    0  501    0  0.00000000000E+00  0.00000000000E+00 -0.11707559584E+04  0.11707559584E+04  0.50400001928E-02 0. -1.
    10030    2    1    2    0    0  0.00000000000E+00  0.00000000000E+00 -0.22910066550E+03  0.21124112513E+04  0.20999509946E+04 0.  0.
        4    1    3    3  502    0  0.85022920348E+03  0.51936197455E+03 -0.44790824627E+03  0.10923598167E+04  0.12699999809E+01 0.  1.
       -4    1    3    3    0  502 -0.85022920348E+03 -0.51936197455E+03  0.21880758077E+03  0.10200514347E+04  0.12699999809E+01 0. -1.
</event>
<event>
 5   0  0.1257125E-06  0.2099773E+04  0.7818609E-02  0.8561343E-01
        3   -1    0    0  501    0  0.00000000000E+00  0.00000000000E+00  0.84755236412E+03  0.84755237014E+03  0.10100000352E+00 0. -1.
       -3   -1    0    0    0  501  0.00000000000E+00  0.00000000000E+00 -0.13005234924E+04  0.13005234963E+04  0.10100000352E+00 0.  1.
    10030    2    1    2    0    0  0.00000000000E+00  0.00000000000E+00 -0.45297112825E+03  0.21480758664E+04  0.20997731032E+04 0.  0.
        5    1    3    3  502    0  0.69861014865E+03 -0.50498618262E+03  0.38661086170E+03  0.94475247171E+03  0.46999998093E+01 0. -1.
       -5    1    3    3    0  502 -0.69861014865E+03  0.50498618262E+03 -0.83958198995E+03  0.12033233947E+04  0.46999998093E+01 0.  1.
</event>
<event>
 5   0  0.1590067E-06  0.2099151E+04  0.7818609E-02  0.8561618E-01
        1   -1    0    0  501    0  0.00000000000E+00  0.00000000000E+00  0.14784954766E+04  0.14784954766E+04  0.50400001928E-02 0. -1.
       -1   -1    0    0    0  501  0.00000000000E+00  0.00000000000E+00 -0.74508733254E+03  0.74508733255E+03  0.50400001928E-02 0.  1.
    10030    2    1    2    0    0  0.00000000000E+00  0.00000000000E+00  0.73340814402E+03  0.22235828091E+04  0.20991505433E+04 0.  0.
        5    1    3    3  502    0 -0.44489704015E+03 -0.95293666602E+02 -0.63517971468E+03  0.78133835127E+03  0.46999998093E+01 0.  1.
       -5    1    3    3    0  502  0.44489704015E+03  0.95293666602E+02  0.13685878587E+04  0.14422444579E+04  0.46999998093E+01 0. -1.
</event>
<event>
 5   0  0.3636435E-06  0.2100494E+04  0.7818609E-02  0.8561026E-01
        2   -1    0    0  501    0  0.00000000000E+00  0.00000000000E+00  0.87578569126E+03  0.87578569126E+03  0.25500000920E-02 0.  1.
       -2   -1    0    0    0  501  0.00000000000E+00  0.00000000000E+00 -0.12594619060E+04  0.12594619060E+04  0.25500000920E-02 0. -1.
    10030    2    1    2    0    0  0.00000000000E+00  0.00000000000E+00 -0.38367621474E+03  0.21352475973E+04  0.21004939571E+04 0.  0.
        4    1    3    3  502    0  0.74023924337E+03  0.60048303711E+03 -0.64013706180E+03  0.11481772886E+04  0.12699999809E+01 0. -1.
       -4    1    3    3    0  502 -0.74023924337E+03 -0.60048303711E+03  0.25646084705E+03  0.98707030867E+03  0.12699999809E+01 0.  1.
</event>
<event>
 5   0  0.3480134E-06  0.2099746E+04  0.7818609E-02  0.8561355E-01
        2   -1    0    0  501    0  0.00000000000E+00  0.00000000000E+00  0.15951295223E+04  0.15951295223E+04  0.25500000920E-02 0.  1.
       -2   -1    0    0    0  501  0.00000000000E+00  0.00000000000E+00 -0.69099896898E+03  0.69099896898E+03  0.25500000920E-02 0. -1.
    10030    2    1    2    0    0  0.00000000000E+00  0.00000000000E+00  0.90413055335E+03  0.22861284913E+04  0.20997455611E+04 0.  0.
        1    1    3    3  502    0 -0.24088845560E+03 -0.87205516547E+03 -0.12787473033E+03  0.91370641147E+03  0.50400001928E-02 0. -1.
       -1    1    3    3    0  502  0.24088845560E+03  0.87205516547E+03  0.10320052837E+04  0.13724220798E+04  0.50400001928E-02 0.  1.
</event>
<event>
 5   0  0.3547583E-06  0.2103368E+04  0.7818609E-02  0.8559761E-01
       -2   -1    0    0    0  501  0.00000000000E+00  0.00000000000E+00  0.75385586365E+03  0.75385586366E+03  0.25500000920E-02 0. -1.
        2   -1    0    0  501    0  0.00000000000E+00  0.00000000000E+00 -0.14671764576E+04  0.14671764576E+04  0.25500000920E-02 0.  1.
    10030    2    1    2    0    0  0.00000000000E+00  0.00000000000E+00 -0.71332059396E+03  0.22210323213E+04  0.21033683230E+04 0.  0.
        2    1    3    3  502    0  0.29677065349E+03  0.75022727441E+03 -0.10690297251E+04  0.13393051696E+04  0.25500000920E-02 0.  1.
       -2    1    3    3    0  502 -0.29677065349E+03 -0.75022727441E+03  0.35570913116E+03  0.88172715170E+03  0.25500000920E-02 0. -1.
</event>
<event>
 5   0  0.3705828E-06  0.2099676E+04  0.7818609E-02  0.8561386E-01
       -2   -1    0    0    0  501  0.00000000000E+00  0.00000000000E+00  0.11293233828E+04  0.11293233828E+04  0.25500000920E-02 0. -1.
        2   -1    0    0  501    0  0.00000000000E+00  0.00000000000E+00 -0.97594717495E+03  0.97594717495E+03  0.25500000920E-02 0.  1.
    10030    2    1    2    0    0  0.00000000000E+00  0.00000000000E+00  0.15337620784E+03  0.21052705577E+04  0.20996761322E+04 0.  0.
        5    1    3    3  502    0  0.37486029720E+03  0.37676966339E+03 -0.83107614208E+03  0.98650152844E+03  0.46999998093E+01 0.  1.
       -5    1    3    3    0  502 -0.37486029720E+03 -0.37676966339E+03  0.98445234993E+03  0.11187690293E+04  0.46999998093E+01 0. -1.
</event>
<event>
 5   0  0.3547583E-06  0.2099522E+04  0.7818609E-02  0.8561454E-01
        2   -1    0    0  501    0  0.00000000000E+00  0.00000000000E+00  0.10841595686E+04  0.10841595686E+04  0.25500000920E-02 0. -1.
       -2   -1    0    0    0  501  0.00000000000E+00  0.00000000000E+00 -0.10164536559E+04  0.10164536559E+04  0.25500000920E-02 0.  1.
    10030    2    1    2    0    0  0.00000000000E+00  0.00000000000E+00  0.67705912769E+02  0.21006132245E+04  0.20995218094E+04 0.  0.
        2    1    3    3  502    0  0.13279819383E+03 -0.64910254473E+03 -0.78083594106E+03  0.10240479680E+04  0.25500000920E-02 0.  1.
       -2    1    3    3    0  502 -0.13279819383E+03  0.64910254473E+03  0.84854185383E+03  0.10765652565E+04  0.25500000920E-02 0. -1.
</event>
<event>
 5   0  0.1653260E-06  0.2101098E+04  0.7818609E-02  0.8560760E-01
        1   -1    0    0  501    0  0.00000000000E+00  0.00000000000E+00  0.10943439271E+04  0.10943439271E+04  0.50400001928E-02 0.  1.
       -1   -1    0    0    0  501  0.00000000000E+00  0.00000000000E+00 -0.10085068174E+04  0.10085068174E+04  0.50400001928E-02 0. -1.
    10030    2    1    2    0    0  0.00000000000E+00  0.00000000000E+00  0.85837109676E+02  0.21028507445E+04  0.21010981043E+04 0.  0.
        3    1    3    3  502    0 -0.47984888909E+03 -0.27068875148E+02 -0.89202641857E+03  0.10132614776E+04  0.10100000352E+00 0. -1.
       -3    1    3    3    0  502  0.47984888909E+03  0.27068875148E+02  0.97786352825E+03  0.10895892669E+04  0.10100000352E+00 0.  1.
</event>
<event>
 5   0  0.3480134E-06  0.2100449E+04  0.7818609E-02  0.8561045E-01
        2   -1    0    0  501    0  0.00000000000E+00  0.00000000000E+00  0.15980834596E+04  0.15980834596E+04  0.25500000920E-02 0.  1.
       -2   -1    0    0    0  501  0.00000000000E+00  0.00000000000E+00 -0.69018417058E+03  0.69018417059E+03  0.25500000920E-02 0. -1.
    10030    2    1    2    0    0  0.00000000000E+00  0.00000000000E+00  0.90789928905E+03  0.22882676302E+04  0.21004493873E+04 0.  0.
        1    1    3    3  502    0  0.54076290160E+03  0.26627829482E+03  0.13908766312E+04  0.15158715148E+04  0.50400001928E-02 0.  1.
       -1    1    3    3    0  502 -0.54076290160E+03 -0.26627829482E+03 -0.48297734218E+03  0.77239611542E+03  0.50400001928E-02 0. -1.
</event>
<event>
 5   0  0.1579820E-06  0.2101038E+04  0.7818609E-02  0.8560786E-01
        1   -1    0    0  501    0  0.00000000000E+00  0.00000000000E+00  0.14366144001E+04  0.14366144001E+04  0.50400001928E-02 0. -1.
       -1   -1    0    0    0  501  0.00000000000E+00  0.00000000000E+00 -0.76818805877E+03  0.76818805879E+03  0.50400001928E-02 0.  1.
    10030    2    1    2    0    0  0.00000000000E+00  0.00000000000E+00  0.66842634136E+03  0.22048024589E+04  0.21010378647E+04 0.  0.
        2    1    3    3  502    0 -0.19561033670E+03 -0.67561132283E+03 -0.48462903665E+03  0.85415418194E+03  0.25500000920E-02 0.  1.
       -2    1    3    3    0  502  0.19561033670E+03  0.67561132283E+03  0.11530553780E+04  0.13506482770E+04  0.25500000920E-02 0. -1.
</event>
<event>
 5   0  0.1646510E-06  0.2089490E+04  0.7818609E-02  0.8565887E-01
        1   -1    0    0  501    0  0.00000000000E+00  0.00000000000E+00  0.15215576684E+04  0.15215576684E+04  0.50400001928E-02 0. -1.
       -1   -1    0    0    0  501  0.00000000000E+00  0.00000000000E+00 -0.71735207611E+03  0.71735207612E+03  0.50400001928E-02 0.  1.
    10030    2    1    2    0    0  0.00000000000E+00  0.00000000000E+00  0.80420559228E+03  0.22389097445E+04  0.20894904186E+04 0.  0.
        4    1    3    3  502    0 -0.94113365815E+02 -0.17806724333E+03 -0.69635203381E+03  0.72489519013E+03  0.12699999809E+01 0.  1.
       -4    1    3    3    0  502  0.94113365815E+02  0.17806724333E+03  0.15005576261E+04  0.15140145544E+04  0.12699999809E+01 0. -1.
</event>
<event>
 5   0  0.3574927E-06  0.2100318E+04  0.7818609E-02  0.8561103E-01
        2   -1    0    0  501    0  0.00000000000E+00  0.00000000000E+00  0.17567956917E+04  0.17567956917E+04  0.25500000920E-02 0.  1.
       -2   -1    0    0    0  501  0.00000000000E+00  0.00000000000E+00 -0.62775306773E+03  0.62775306773E+03  0.25500000920E-02 0. -1.
    10030    2    1    2    0    0  0.00000000000E+00  0.00000000000E+00  0.11290426240E+04  0.23845487594E+04  0.21003179615E+04 0.  0.
        3    1    3    3  502    0  0.27019889848E+03  0.46509748267E+03 -0.45948542088E+03  0.70742489024E+03  0.10100000352E+00 0. -1.
       -3    1    3    3    0  502 -0.27019889848E+03 -0.46509748267E+03  0.15885280449E+04  0.16771238692E+04  0.10100000352E+00 0.  1.
</event>
<event>
 5   0  0.3705828E-06  0.2099461E+04  0.7818609E-02  0.8561481E-01
        2   -1    0    0  501    0  0.00000000000E+00  0.00000000000E+00  0.12503681191E+04  0.12503681191E+04  0.25500000920E-02 0.  1.
       -2   -1    0    0    0  501  0.00000000000E+00  0.00000000000E+00 -0.88128799400E+03  0.88128799400E+03  0.25500000920E-02 0. -1.
    10030    2    1    2    0    0  0.00000000000E+00  0.00000000000E+00  0.36908012510E+03  0.21316561131E+04  0.20994612751E+04 0.  0.
        5    1    3    3  502    0  0.48305004793E+03 -0.92179838128E+03  0.45092348584E+02  0.10416837401E+04  0.46999998093E+01 0. -1.
       -5    1    3    3    0  502 -0.48305004793E+03  0.92179838128E+03  0.32398777652E+03  0.10899723730E+04  0.46999998093E+01 0.  1.
</event>
<event>
 5   0  0.1257125E-06  0.2099419E+04  0.7818609E-02  0.8561499E-01
       -3   -1    0    0    0  501  0.00000000000E+00  0.00000000000E+00  0.81420585011E+03  0.81420585638E+03  0.10100000352E+00 0. -1.
        3   -1    0    0  501    0  0.00000000000E+00  0.00000000000E+00 -0.13533307177E+04  0.13533307214E+04  0.10100000352E+00 0.  1.
    10030    2    1    2    0    0  0.00000000000E+00  0.00000000000E+00 -0.53912486755E+03  0.21675365778E+04  0.20994187751E+04 0.  0.
        3    1    3    3  502    0 -0.70403900775E+03  0.56696847038E+02 -0.10712913986E+04  0.12831799281E+04  0.10100000352E+00 0.  1.
       -3    1    3    3    0  502  0.70403900775E+03 -0.56696847038E+02  0.53216653107E+03  0.88435664972E+03  0.10100000352E+00 0. -1.
</event>
<event>
 5   0  0.3705828E-06  0.2099272E+04  0.7818609E-02  0.8561564E-01
       -2   -1    0    0    0  501  0.00000000000E+00  0.00000000000E+00  0.58353144198E+03  0.58353144198E+03  0.25500000920E-02 0.  1.
        2   -1    0    0  501    0  0.00000000000E+00  0.00000000000E+00 -0.18880485814E+04  0.18880485814E+04  0.25500000920E-02 0. -1.
    10030    2    1    2    0    0  0.00000000000E+00  0.00000000000E+00 -0.13045171394E+04  0.24715800234E+04  0.20992719797E+04 0.  0.
        5    1    3    3  502    0  0.25735104750E+03 -0.18570801309E+03 -0.18301961217E+04  0.18575136505E+04  0.46999998093E+01 0. -1.
       -5    1    3    3    0  502 -0.25735104750E+03  0.18570801309E+03  0.52567898235E+03  0.61406637285E+03  0.46999998093E+01 0.  1.
</event>
<event>
 5   0  0.3480134E-06  0.2097910E+04  0.7818609E-02  0.8562165E-01
       -2   -1    0    0    0  501  0.00000000000E+00  0.00000000000E+00  0.94723439791E+03  0.94723439792E+03  0.25500000920E-02 0.  1.
        2   -1    0    0  501    0  0.00000000000E+00  0.00000000000E+00 -0.11615990338E+04  0.11615990338E+04  0.25500000920E-02 0. -1.
    10030    2    1    2    0    0  0.00000000000E+00  0.00000000000E+00 -0.21436463591E+03  0.21088334317E+04  0.20979099708E+04 0.  0.
        1    1    3    3  502    0  0.16744883616E+03  0.10061069066E+04  0.13907559164E+03  0.10293843988E+04  0.50400001928E-02 0.  1.
       -1    1    3    3    0  502 -0.16744883616E+03 -0.10061069066E+04 -0.35344022755E+03  0.10794490330E+04  0.50400001928E-02 0. -1.
</event>
<event>
 5   0  0.1646510E-06  0.2103365E+04  0.7818609E-02  0.8559762E-01
        1   -1    0    0  501    0  0.00000000000E+00  0.00000000000E+00  0.26906508894E+04  0.26906508894E+04  0.50400001928E-02 0.  1.
       -1   -1    0    0    0  501  0.00000000000E+00  0.00000000000E+00 -0.41106648246E+03  0.41106648250E+03  0.50400001928E-02 0. -1.
    10030    2    1    2    0    0  0.00000000000E+00  0.00000000000E+00  0.22795844069E+04  0.31017173719E+04  0.21033653004E+04 0.  0.
        4    1    3    3  502    0 -0.72539494939E+03 -0.34370730936E+03  0.21417940149E+04  0.22872725597E+04  0.12699999809E+01 0.  1.
       -4    1    3    3    0  502  0.72539494939E+03  0.34370730936E+03  0.13779039204E+03  0.81444481222E+03  0.12699999809E+01 0. -1.
</event>
<event>
 5   0  0.1590067E-06  0.2101695E+04  0.7818609E-02  0.8560497E-01
        1   -1    0    0  501    0  0.00000000000E+00  0.00000000000E+00  0.16167428581E+04  0.16167428581E+04  0.50400001928E-02 0. -1.
       -1   -1    0    0    0  501  0.00000000000E+00  0.00000000000E+00 -0.68302763666E+03  0.68302763668E+03  0.50400001928E-02 0.  1.
    10030    2    1    2    0    0  0.00000000000E+00  0.00000000000E+00  0.93371522140E+03  0.22997704948E+04  0.21016946053E+04 0.  0.
        5    1    3    3  502    0 -0.28245740907E+02  0.77986231120E+03 -0.30322630985E+03  0.83722836269E+03  0.46999998093E+01 0.  1.
       -5    1    3    3    0  502  0.28245740907E+02 -0.77986231120E+03  0.12369415313E+04  0.14625421321E+04  0.46999998093E+01 0. -1.
</event>
<event>
 5   0  0.3705828E-06  0.2097878E+04  0.7818609E-02  0.8562179E-01
        2   -1    0    0  501    0  0.00000000000E+00  0.00000000000E+00  0.86146643970E+03  0.86146643971E+03  0.25500000920E-02 0.  1.
       -2   -1    0    0    0  501  0.00000000000E+00  0.00000000000E+00 -0.12772088521E+04  0.12772088521E+04  0.25500000920E-02 0. -1.
    10030    2    1    2    0    0  0.00000000000E+00  0.00000000000E+00 -0.41574241237E+03  0.21386752918E+04  0.20978775584E+04 0.  0.
        5    1    3    3  502    0 -0.10072120131E+02 -0.10342481569E+04 -0.38585095620E+03  0.11039355724E+04  0.46999998093E+01 0. -1.
       -5    1    3    3    0  502  0.10072120131E+02  0.10342481569E+04 -0.29891456171E+02  0.10347397194E+04  0.46999998093E+01 0.  1.
</event>
<event>
 5   0  0.3547583E-06  0.2099958E+04  0.7818609E-02  0.8561262E-01
       -2   -1    0    0    0  501  0.00000000000E+00  0.00000000000E+00  0.80189293402E+03  0.80189293403E+03  0.25500000920E-02 0. -1.
        2   -1    0    0  501    0  0.00000000000E+00  0.00000000000E+00 -0.13748166802E+04  0.13748166802E+04  0.25500000920E-02 0.  1.
    10030    2    1    2    0    0  0.00000000000E+00  0.00000000000E+00 -0.57292374622E+03  0.21767096143E+04  0.20999578867E+04 0.  0.
        2    1    3    3  502    0 -0.54843334912E+03  0.49352012865E+03  0.48791357145E+03  0.88453428934E+03  0.25500000920E-02 0. -1.
       -2    1    3    3    0  502  0.54843334912E+03 -0.49352012865E+03 -0.10608373177E+04  0.12921753249E+04  0.25500000920E-02 0.  1.
</event>
<event>
 5   0  0.3574927E-06  0.2098885E+04  0.7818609E-02  0.8561735E-01
       -2   -1    0    0    0  501  0.00000000000E+00  0.00000000000E+00  0.45431630653E+03  0.45431630653E+03  0.25500000920E-02 0. -1.
        2   -1    0    0  501    0  0.00000000000E+00  0.00000000000E+00 -0.24241469777E+04  0.24241469777E+04  0.25500000920E-02 0.  1.
    10030    2    1    2    0    0  0.00000000000E+00  0.00000000000E+00 -0.19698306712E+04  0.28784632842E+04  0.20988849434E+04 0.  0.
        3    1    3    3  502    0  0.24792018236E+03  0.84600935295E+03 -0.17657046362E+04  0.19735524099E+04  0.10100000352E+00 0.  1.
       -3    1    3    3    0  502 -0.24792018236E+03 -0.84600935295E+03 -0.20412603494E+03  0.90491087431E+03  0.10100000352E+00 0. -1.
</event>
<event>
 5   0  0.1615098E-06  0.2101450E+04  0.7818609E-02  0.8560605E-01
        1   -1    0    0  501    0  0.00000000000E+00  0.00000000000E+00  0.14549112815E+04  0.14549112815E+04  0.50400001928E-02 0.  1.
       -1   -1    0    0    0  501  0.00000000000E+00  0.00000000000E+00 -0.75882498502E+03  0.75882498504E+03  0.50400001928E-02 0. -1.
    10030    2    1    2    0    0  0.00000000000E+00  0.00000000000E+00  0.69608629648E+03  0.22137362665E+04  0.21014500055E+04 0.  0.
        1    1    3    3  502    0  0.67972716368E+03  0.14061711959E+03  0.11790011877E+04  0.13681542282E+04  0.50400001928E-02 0.  1.
       -1    1    3    3    0  502 -0.67972716368E+03 -0.14061711959E+03 -0.48291489127E+03  0.84558203836E+03  0.50400001928E-02 0. -1.
</event>
<event>
 5   0  0.3574927E-06  0.2099513E+04  0.7818609E-02  0.8561458E-01
        2   -1    0    0  501    0  0.00000000000E+00  0.00000000000E+00  0.14886987119E+04  0.14886987119E+04  0.25500000920E-02 0. -1.
       -2   -1    0    0    0  501  0.00000000000E+00  0.00000000000E+00 -0.74023599497E+03  0.74023599498E+03  0.25500000920E-02 0.  1.
    10030    2    1    2    0    0  0.00000000000E+00  0.00000000000E+00  0.74846271690E+03  0.22289347069E+04  0.20995126789E+04 0.  0.
        3    1    3    3  502    0 -0.78075138954E+02  0.14293459630E+03  0.14752037986E+04  0.14841672021E+04  0.10100000352E+00 0. -1.
       -3    1    3    3    0  502  0.78075138954E+02 -0.14293459630E+03 -0.72674108169E+03  0.74476750477E+03  0.10100000352E+00 0.  1.
</event>
<event>
 5   0  0.3705828E-06  0.2100282E+04  0.7818609E-02  0.8561119E-01
        2   -1    0    0  501    0  0.00000000000E+00  0.00000000000E+00  0.15785142606E+04  0.15785142606E+04  0.25500000920E-02 0.  1.
       -2   -1    0    0    0  501  0.00000000000E+00  0.00000000000E+00 -0.69862932840E+03  0.69862932841E+03  0.25500000920E-02 0. -1.
    10030    2    1    2    0    0  0.00000000000E+00  0.00000000000E+00  0.87988493222E+03  0.22771435890E+04  0.21002822265E+04 0.  0.
        5    1    3    3  502    0 -0.15508232975E+03 -0.10359673357E+04  0.35956891971E+03  0.11075155744E+04  0.46999998093E+01 0. -1.
       -5    1    3    3    0  502  0.15508232975E+03  0.10359673357E+04  0.52031601251E+03  0.11696280146E+04  0.46999998093E+01 0.  1.
</event>
<event>
 5   0  0.1615098E-06  0.2099891E+04  0.7818609E-02  0.8561291E-01
       -1   -1    0    0    0  501  0.00000000000E+00  0.00000000000E+00  0.12474312464E+04  0.12474312464E+04  0.50400001928E-02 0. -1.
        1   -1    0    0  501    0  0.00000000000E+00  0.00000000000E+00 -0.88372460233E+03  0.88372460234E+03  0.50400001928E-02 0.  1.
    10030    2    1    2    0    0  0.00000000000E+00  0.00000000000E+00  0.36370664407E+03  0.21311558488E+04  0.20998911231E+04 0.  0.
        1    1    3    3  502    0 -0.80058277648E+03 -0.62407059424E+03 -0.90448708829E+02  0.10191064015E+04  0.50400001928E-02 0.  1.
       -1    1    3    3    0  502  0.80058277648E+03  0.62407059424E+03  0.45415535290E+03  0.11120494473E+04  0.50400001928E-02 0. -1.
</event>
<event>
 5   0  0.1579820E-06  0.2100314E+04  0.7818609E-02  0.8561105E-01
       -1   -1    0    0    0  501  0.00000000000E+00  0.00000000000E+00  0.10958736694E+04  0.10958736694E+04  0.50400001928E-02 0.  1.
        1   -1    0    0  501    0  0.00000000000E+00  0.00000000000E+00 -0.10063475507E+04  0.10063475507E+04  0.50400001928E-02 0. -1.
    10030    2    1    2    0    0  0.00000000000E+00  0.00000000000E+00  0.89526118645E+02  0.21022212201E+04  0.21003140556E+04 0.  0.
        2    1    3    3  502    0 -0.33368743005E+03  0.64770631561E+01 -0.95185215132E+03  0.10086683158E+04  0.25500000920E-02 0. -1.
       -2    1    3    3    0  502  0.33368743005E+03 -0.64770631561E+01  0.10413782700E+04  0.10935529043E+04  0.25500000920E-02 0.  1.
</event>
<event>
 5   0  0.3636435E-06  0.2100027E+04  0.7818609E-02  0.8561232E-01
        2   -1    0    0  501    0  0.00000000000E+00  0.00000000000E+00  0.97657035419E+03  0.97657035419E+03  0.25500000920E-02 0.  1.
       -2   -1    0    0    0  501  0.00000000000E+00  0.00000000000E+00 -0.11289796724E+04  0.11289796724E+04  0.25500000920E-02 0. -1.
    10030    2    1    2    0    0  0.00000000000E+00  0.00000000000E+00 -0.15240931818E+03  0.21055500266E+04  0.21000267413E+04 0.  0.
        4    1    3    3  502    0  0.42314281160E+02  0.37214348734E+03 -0.10597256070E+04  0.11239667471E+04  0.12699999809E+01 0. -1.
       -4    1    3    3    0  502 -0.42314281160E+02 -0.37214348734E+03  0.90731628885E+03  0.98158327944E+03  0.12699999809E+01 0.  1.
</event>
<event>
 5   0  0.3636435E-06  0.2098514E+04  0.7818609E-02  0.8561898E-01
        2   -1    0    0  501    0  0.00000000000E+00  0.00000000000E+00  0.16354439783E+04  0.16354439783E+04  0.25500000920E-02 0. -1.
       -2   -1    0    0    0  501  0.00000000000E+00  0.00000000000E+00 -0.67317503740E+03  0.67317503741E+03  0.25500000920E-02 0.  1.
    10030    2    1    2    0    0  0.00000000000E+00  0.00000000000E+00  0.96226894092E+03  0.23086190157E+04  0.20985138182E+04 0.  0.
        4    1    3    3  502    0 -0.61877566450E+03  0.32502844766E+03  0.13420531905E+04  0.15131540549E+04  0.12699999809E+01 0. -1.
       -4    1    3    3    0  502  0.61877566450E+03 -0.32502844766E+03 -0.37978424961E+03  0.79546496083E+03  0.12699999809E+01 0.  1.
</event>
<event>
 5   0  0.3547583E-06  0.2099506E+04  0.7818609E-02  0.8561461E-01
        2   -1    0    0  501    0  0.00000000000E+00  0.00000000000E+00  0.10211130263E+04  0.10211130263E+04  0.25500000920E-02 0. -1.
       -2   -1    0    0    0  501  0.00000000000E+00  0.00000000000E+00 -0.10791961779E+04  0.10791961779E+04  0.25500000920E-02 0.  1.
    10030    2    1    2    0    0  0.00000000000E+00  0.00000000000E+00 -0.58083151616E+02  0.21003092042E+04  0.20995059183E+04 0.  0.
        2    1    3    3  502    0 -0.78008806457E+03  0.31924751049E+03 -0.65500049742E+03  0.10674652280E+04  0.25500000920E-02 0.  1.
       -2    1    3    3    0  502  0.78008806457E+03 -0.31924751049E+03  0.59691734580E+03  0.10328439762E+04  0.25500000920E-02 0. -1.
</event>
<event>
 5   0  0.3480134E-06  0.2100753E+04  0.7818609E-02  0.8560912E-01
        2   -1    0    0  501    0  0.00000000000E+00  0.00000000000E+00  0.10590420513E+04  0.10590420513E+04  0.25500000920E-02 0.  1.
       -2   -1    0    0    0  501  0.00000000000E+00  0.00000000000E+00 -0.10417815829E+04  0.10417815829E+04  0.25500000920E-02 0. -1.
    10030    2    1    2    0    0  0.00000000000E+00  0.00000000000E+00  0.17260468399E+02  0.21008236341E+04  0.21007527265E+04 0.  0.
        1    1    3    3  502    0 -0.99915245914E+03  0.15482943038E+03  0.29326716848E+03  0.10527504079E+04  0.50400001928E-02 0.  1.
       -1    1    3    3    0  502  0.99915245914E+03 -0.15482943038E+03 -0.27600670008E+03  0.10480732263E+04  0.50400001928E-02 0. -1.
</event>
<event>
 5   0  0.3636435E-06  0.2100028E+04  0.7818609E-02  0.8561231E-01
       -2   -1    0    0    0  501  0.00000000000E+00  0.00000000000E+00  0.18248528677E+04  0.18248528677E+04  0.25500000920E-02 0.  1.
        2   -1    0    0  501    0  0.00000000000E+00  0.00000000000E+00 -0.60417450286E+03  0.60417450286E+03  0.25500000920E-02 0. -1.
    10030    2    1    2    0    0  0.00000000000E+00  0.00000000000E+00  0.12206783649E+04  0.24290273706E+04  0.21000281657E+04 0.  0.
        4    1    3    3  502    0  0.23901686561E+02  0.10467746024E+04  0.51911948993E+03  0.11686723307E+04  0.12699999809E+01 0. -1.
       -4    1    3    3    0  502 -0.23901686561E+02 -0.10467746024E+04  0.70155887493E+03  0.12603550399E+04  0.12699999809E+01 0.  1.
</event>
<event>
 5   0  0.3574927E-06  0.2097250E+04  0.7818609E-02  0.8562456E-01
       -2   -1    0    0    0  501  0.00000000000E+00  0.00000000000E+00  0.15571673364E+04  0.15571673364E+04  0.25500000920E-02 0.  1.
        2   -1    0    0  501    0  0.00000000000E+00  0.00000000000E+00 -0.70616305765E+03  0.70616305765E+03  0.25500000920E-02 0. -1.
    10030    2    1    2    0    0  0.00000000000E+00  0.00000000000E+00  0.85100427879E+03  0.22633303941E+04  0.20972496729E+04 0.  0.
        3    1    3    3  502    0 -0.83918937278E+03 -0.41768689122E+03  0.93273613583E+03  0.13223833982E+04  0.10100000352E+00 0.  1.
       -3    1    3    3    0  502  0.83918937278E+03  0.41768689122E+03 -0.81731857038E+02  0.94094699592E+03  0.10100000352E+00 0. -1.
</event>
<event>
 5   0  0.1653260E-06  0.2100155E+04  0.7818609E-02  0.8561175E-01
       -1   -1    0    0    0  501  0.00000000000E+00  0.00000000000E+00  0.15370812624E+04  0.15370812624E+04  0.50400001928E-02 0. -1.
        1   -1    0    0  501    0  0.00000000000E+00  0.00000000000E+00 -0.71737424696E+03  0.71737424698E+03  0.50400001928E-02 0.  1.
    10030    2    1    2    0    0  0.00000000000E+00  0.00000000000E+00  0.81970701548E+03  0.22544555094E+04  0.21001547688E+04 0.  0.
        3    1    3    3  502    0  0.58096701843E+02  0.28115716798E+03  0.14941326402E+04  0.15214653912E+04  0.10100000352E+00 0. -1.
       -3    1    3    3    0  502 -0.58096701843E+02 -0.28115716798E+03 -0.67442562475E+03  0.73299011821E+03  0.10100000352E+00 0.  1.
</event>
<event>
 5   0  0.1653260E-06  0.2100050E+04  0.7818609E-02  0.8561221E-01
        1   -1    0    0  501    0  0.00000000000E+00  0.00000000000E+00  0.85967009499E+03  0.85967009500E+03  0.50400001928E-02 0.  1.
       -1   -1    0    0    0  501  0.00000000000E+00  0.00000000000E+00 -0.12825303584E+04  0.12825303584E+04  0.50400001928E-02 0. -1.
    10030    2    1    2    0    0  0.00000000000E+00  0.00000000000E+00 -0.42286026340E+03  0.21422004534E+04  0.21000504709E+04 0.  0.
        3    1    3    3  502    0  0.92010553183E+03  0.37240574704E+03  0.13789428129E+03  0.10021452356E+04  0.10100000352E+00 0.  1.
       -3    1    3    3    0  502 -0.92010553183E+03 -0.37240574704E+03 -0.56075454469E+03  0.11400552178E+04  0.10100000352E+00 0. -1.
</event>
<event>
 5   0  0.1646510E-06  0.2098477E+04  0.7818609E-02  0.8561915E-01
       -1   -1    0    0    0  501  0.00000000000E+00  0.00000000000E+00  0.58051183805E+03  0.58051183808E+03  0.50400001928E-02 0.  1.
        1   -1    0    0  501    0  0.00000000000E+00  0.00000000000E+00 -0.18964319595E+04  0.18964319595E+04  0.50400001928E-02 0. -1.
    10030    2    1    2    0    0  0.00000000000E+00  0.00000000000E+00 -0.13159201214E+04  0.24769437975E+04  0.20984767834E+04 0.  0.
        4    1    3    3  502    0 -0.85021388517E+03  0.21639702322E+03  0.21341430845E+02  0.87758098872E+03  0.12699999809E+01 0.  1.
       -4    1    3    3    0  502  0.85021388517E+03 -0.21639702322E+03 -0.13372615522E+04  0.15993628088E+04  0.12699999809E+01 0. -1.
</event>
<event>
 5   0  0.1615098E-06  0.2100115E+04  0.7818609E-02  0.8561193E-01
        1   -1    0    0  501    0  0.00000000000E+00  0.00000000000E+00  0.20220928606E+04  0.20220928606E+04  0.50400001928E-02 0.  1.
       -1   -1    0    0    0  501  0.00000000000E+00  0.00000000000E+00 -0.54528670636E+03  0.54528670638E+03  0.50400001928E-02 0. -1.
    10030    2    1    2    0    0  0.00000000000E+00  0.00000000000E+00  0.14768061543E+04  0.25673795670E+04  0.21001146216E+04 0.  0.
        1    1    3    3  502    0  0.19449145463E+03  0.40017648810E+03  0.19011572471E+04  0.19525283675E+04  0.50400001928E-02 0.  1.
       -1    1    3    3    0  502 -0.19449145463E+03 -0.40017648810E+03 -0.42435109284E+03  0.61485119954E+03  0.50400001928E-02 0. -1.
</event>
<event>
 5   0  0.3480134E-06  0.2097183E+04  0.7818609E-02  0.8562485E-01
        2   -1    0    0  501    0  0.00000000000E+00  0.00000000000E+00  0.83315321176E+03  0.83315321177E+03  0.25500000920E-02 0. -1.
       -2   -1    0    0    0  501  0.00000000000E+00  0.00000000000E+00 -0.13197377837E+04  0.13197377837E+04  0.25500000920E-02 0.  1.
    10030    2    1    2    0    0  0.00000000000E+00  0.00000000000E+00 -0.48658457193E+03  0.21528909955E+04  0.20971826560E+04 0.  0.
        1    1    3    3  502    0 -0.11161228877E+03 -0.74910787487E+03  0.50117774872E+03  0.90818447852E+03  0.50400001928E-02 0. -1.
       -1    1    3    3    0  502  0.11161228877E+03  0.74910787487E+03 -0.98776232065E+03  0.12447065169E+04  0.50400001928E-02 0.  1.
</event>
<event>
 5   0  0.3636435E-06  0.2098757E+04  0.7818609E-02  0.8561791E-01
        2   -1    0    0  501    0  0.00000000000E+00  0.00000000000E+00  0.11719612392E+04  0.11719612392E+04  0.25500000920E-02 0.  1.
       -2   -1    0    0    0  501  0.00000000000E+00  0.00000000000E+00 -0.93961719121E+03  0.93961719122E+03  0.25500000920E-02 0. -1.
    10030    2    1    2    0    0  0.00000000000E+00  0.00000000000E+00  0.23234404794E+03  0.21115784304E+04  0.20987567060E+04 0.  0.
        4    1    3    3  502    0 -0.72731446027E+03 -0.65359389686E+03 -0.26697201968E+03  0.10136305926E+04  0.12699999809E+01 0.  1.
       -4    1    3    3    0  502  0.72731446027E+03  0.65359389686E+03  0.49931606761E+03  0.10979478377E+04  0.12699999809E+01 0. -1.
</event>
<event>
 5   0  0.3547583E-06  0.2099868E+04  0.7818609E-02  0.8561302E-01
       -2   -1    0    0    0  501  0.00000000000E+00  0.00000000000E+00  0.51078065715E+03  0.51078065715E+03  0.25500000920E-02 0.  1.
        2   -1    0    0  501    0  0.00000000000E+00  0.00000000000E+00 -0.21581885195E+04  0.21581885195E+04  0.25500000920E-02 0. -1.
    10030    2    1    2    0    0  0.00000000000E+00  0.00000000000E+00 -0.16474078623E+04  0.26689691766E+04  0.20998675675E+04 0.  0.
        2    1    3    3  502    0  0.24647100702E+03  0.64029004230E+03  0.18644877958E+03  0.71097288484E+03  0.25500000920E-02 0.  1.
       -2    1    3    3    0  502 -0.24647100702E+03 -0.64029004230E+03 -0.18338566419E+04  0.19579962918E+04  0.25500000920E-02 0. -1.
</event>
<event>
 5   0  0.1590067E-06  0.2098403E+04  0.7818609E-02  0.8561947E-01
       -1   -1    0    0    0  501  0.00000000000E+00  0.00000000000E+00  0.16899822007E+04  0.16899822007E+04  0.50400001928E-02 0. -1.
        1   -1    0    0  501    0  0.00000000000E+00  0.00000000000E+00 -0.65138172095E+03  0.65138172096E+03  0.50400001928E-02 0.  1.
    10030    2    1    2    0    0  0.00000000000E+00  0.00000000000E+00  0.10386004797E+04  0.23413639217E+04  0.20984027395E+04 0.  0.
        5    1    3    3  502    0 -0.73825468914E+03 -0.66987993913E+03  0.88435482235E+03  0.13326157213E+04  0.46999998093E+01 0. -1.
       -5    1    3    3    0  502  0.73825468914E+03  0.66987993913E+03  0.15424565740E+03  0.10087482003E+04  0.46999998093E+01 0.  1.
</event>
<event>
 5   0  0.1653260E-06  0.2100601E+04  0.7818609E-02  0.8560978E-01
       -1   -1    0    0    0  501  0.00000000000E+00  0.00000000000E+00  0.59353182772E+03  0.59353182774E+03  0.50400001928E-02 0. -1.
        1   -1    0    0  501    0  0.00000000000E+00  0.00000000000E+00 -0.18585887942E+04  0.18585887942E+04  0.50400001928E-02 0.  1.
    10030    2    1    2    0    0  0.00000000000E+00  0.00000000000E+00 -0.12650569665E+04  0.24521206220E+04  0.21006014415E+04 0.  0.
        3    1    3    3  502    0  0.89131968697E+03  0.55067921960E+03 -0.71857361014E+03  0.12704512705E+04  0.10100000352E+00 0.  1.
       -3    1    3    3    0  502 -0.89131968697E+03 -0.55067921960E+03 -0.54648335636E+03  0.11816693515E+04  0.10100000352E+00 0. -1.
</event>
<event>
 5   0  0.3480134E-06  0.2100579E+04  0.7818609E-02  0.8560988E-01
        2   -1    0    0  501    0  0.00000000000E+00  0.00000000000E+00  0.86932663865E+03  0.86932663866E+03  0.25500000920E-02 0.  1.
       -2   -1    0    0    0  501  0.00000000000E+00  0.00000000000E+00 -0.12689229584E+04  0.12689229584E+04  0.25500000920E-02 0. -1.
    10030    2    1    2    0    0  0.00000000000E+00  0.00000000000E+00 -0.39959631979E+03  0.21382495971E+04  0.21005794726E+04 0.  0.
        1    1    3    3  502    0 -0.62469642623E+03  0.51163053131E+03  0.48388408506E+03  0.94135818545E+03  0.50400001928E-02 0.  1.
       -1    1    3    3    0  502  0.62469642623E+03 -0.51163053131E+03 -0.88348040485E+03  0.11968914117E+04  0.50400001928E-02 0. -1.
</event>
<event>
 5   0  0.1646510E-06  0.2099880E+04  0.7818609E-02  0.8561296E-01
       -1   -1    0    0    0  501  0.00000000000E+00  0.00000000000E+00  0.15172971674E+04  0.15172971674E+04  0.50400001928E-02 0.  1.
        1   -1    0    0  501    0  0.00000000000E+00  0.00000000000E+00 -0.72653775378E+03  0.72653775380E+03  0.50400001928E-02 0. -1.
    10030    2    1    2    0    0  0.00000000000E+00  0.00000000000E+00  0.79075941358E+03  0.22438349212E+04  0.20998796878E+04 0.  0.
        4    1    3    3  502    0  0.11418338588E+03 -0.79529103539E+03  0.11176197894E+04  0.13764451617E+04  0.12699999809E+01 0.  1.
       -4    1    3    3    0  502 -0.11418338588E+03  0.79529103539E+03 -0.32686037586E+03  0.86738975944E+03  0.12699999809E+01 0. -1.
</event>
<event>
 5   0  0.1653260E-06  0.2100311E+04  0.7818609E-02  0.8561106E-01
        1   -1    0    0  501    0  0.00000000000E+00  0.00000000000E+00  0.89819727974E+03  0.89819727975E+03  0.50400001928E-02 0. -1.
       -1   -1    0    0    0  501  0.00000000000E+00  0.00000000000E+00 -0.12278226427E+04  0.12278226427E+04  0.50400001928E-02 0.  1.
    10030    2    1    2    0    0  0.00000000000E+00  0.00000000000E+00 -0.32962536297E+03  0.21260199225E+04  0.21003113652E+04 0.  0.
        3    1    3    3  502    0  0.93478291097E+03 -0.39669094221E+03 -0.43575324170E+03  0.11050175076E+04  0.10100000352E+00 0. -1.
       -3    1    3    3    0  502 -0.93478291097E+03  0.39669094221E+03  0.10612787873E+03  0.10210024148E+04  0.10100000352E+00 0.  1.
</event>
<event>
 5   0  0.1615098E-06  0.2099292E+04  0.7818609E-02  0.8561555E-01
       -1   -1    0    0    0  501  0.00000000000E+00  0.00000000000E+00  0.35797475975E+03  0.35797475979E+03  0.50400001928E-02 0.  1.
        1   -1    0    0  501    0  0.00000000000E+00  0.00000000000E+00 -0.30777492592E+04  0.30777492592E+04  0.50400001928E-02 0. -1.
    10030    2    1    2    0    0  0.00000000000E+00  0.00000000000E+00 -0.27197744995E+04  0.34357240190E+04  0.20992918346E+04 0.  0.
        1    1    3    3  502    0 -0.87408202270E+02 -0.97063650284E+03 -0.19979160742E+04  0.22229359086E+04  0.50400001928E-02 0. -1.
       -1    1    3    3    0  502  0.87408202270E+02  0.97063650284E+03 -0.72185842531E+03  0.12127881104E+04  0.50400001928E-02 0.  1.
</event>
<event>
 5   0  0.1590067E-06  0.2100044E+04  0.7818609E-02  0.8561224E-01
        1   -1    0    0  501    0  0.00000000000E+00  0.00000000000E+00  0.10391152556E+04  0.10391152556E+04  0.50400001928E-02 0. -1.
       -1   -1    0    0    0  501  0.00000000000E+00  0.00000000000E+00 -0.10610437267E+04  0.10610437267E+04  0.50400001928E-02 0.  1.
    10030    2    1    2    0    0  0.00000000000E+00  0.00000000000E+00 -0.21928471110E+02  0.21001589822E+04  0.21000444978E+04 0.  0.
        5    1    3    3  502    0 -0.19591595316E+03 -0.12351068399E+03  0.10132432860E+04  0.10393853936E+04  0.46999998093E+01 0. -1.
       -5    1    3    3    0  502  0.19591595316E+03  0.12351068399E+03 -0.10351717571E+04  0.10607735887E+04  0.46999998093E+01 0.  1.
</event>
<event>
 5   0  0.1653260E-06  0.2099750E+04  0.7818609E-02  0.8561353E-01
        1   -1    0    0  501    0  0.00000000000E+00  0.00000000000E+00  0.11718582701E+04  0.11718582701E+04  0.50400001928E-02 0. -1.
       -1   -1    0    0    0  501  0.00000000000E+00  0.00000000000E+00 -0.94058971378E+03  0.94058971379E+03  0.50400001928E-02 0.  1.
    10030    2    1    2    0    0  0.00000000000E+00  0.00000000000E+00  0.23126855631E+03  0.21124479839E+04  0.20997503041E+04 0.  0.
        3    1    3    3  502    0 -0.89310709347E+03  0.18199338063E+03  0.63981863322E+03  0.11136111371E+04  0.10100000352E+00 0. -1.
       -3    1    3    3    0  502  0.89310709347E+03 -0.18199338063E+03 -0.40855007691E+03  0.99883684681E+03  0.10100000352E+00 0.  1.
</event>
<event>
 5   0  0.3636435E-06  0.2100832E+04  0.7818609E-02  0.8560877E-01
       -2   -1    0    0    0  501  0.00000000000E+00  0.00000000000E+00  0.89391209000E+03  0.89391209000E+03  0.25500000920E-02 0.  1.
        2   -1    0    0  501    0  0.00000000000E+00  0.00000000000E+00 -0.12343197984E+04  0.12343197984E+04  0.25500000920E-02 0. -1.
    10030    2    1    2    0    0  0.00000000000E+00  0.00000000000E+00 -0.34040770839E+03  0.21282318884E+04  0.21008316360E+04 0.  0.
        4    1    3    3  502    0 -0.43457962310E+03  0.55333599492E+03  0.61992493808E+03  0.93773595103E+03  0.12699999809E+01 0.  1.
       -4    1    3    3    0  502  0.43457962310E+03 -0.55333599492E+03 -0.96033264648E+03  0.11904959374E+04  0.12699999809E+01 0. -1.
</event>
<event>
 5   0  0.3480134E-06  0.2098935E+04  0.7818609E-02  0.8561713E-01
        2   -1    0    0  501    0  0.00000000000E+00  0.00000000000E+00  0.82551430250E+03  0.82551430250E+03  0.25500000920E-02 0. -1.
       -2   -1    0    0    0  501  0.00000000000E+00  0.00000000000E+00 -0.13341766907E+04  0.13341766907E+04  0.25500000920E-02 0.  1.
    10030    2    1    2    0    0  0.00000000000E+00  0.00000000000E+00 -0.50866238824E+03  0.21596909933E+04  0.20989349111E+04 0.  0.
        1    1    3    3  502    0  0.35065794038E+03  0.95756345447E+03 -0.50948739159E+03  0.11399412979E+04  0.50400001928E-02 0.  1.
       -1    1    3    3    0  502 -0.35065794038E+03 -0.95756345447E+03  0.82500334272E+00  0.10197496953E+04  0.50400001928E-02 0. -1.
</event>
<event>
 5   0  0.1646510E-06  0.2100156E+04  0.7818609E-02  0.8561175E-01
        1   -1    0    0  501    0  0.00000000000E+00  0.00000000000E+00  0.11444727237E+04  0.11444727237E+04  0.50400001928E-02 0.  1.
       -1   -1    0    0    0  501  0.00000000000E+00  0.00000000000E+00 -0.96346915799E+03  0.96346915801E+03  0.50400001928E-02 0. -1.
    10030    2    1    2    0    0  0.00000000000E+00  0.00000000000E+00  0.18100356571E+03  0.21079418817E+04  0.21001563480E+04 0.  0.
        4    1    3    3  502    0  0.56762977525E+03 -0.44502624337E+03  0.85648923505E+03  0.11197443198E+04  0.12699999809E+01 0.  1.
       -4    1    3    3    0  502 -0.56762977525E+03  0.44502624337E+03 -0.67548566934E+03  0.98819756194E+03  0.12699999809E+01 0. -1.
</event>
<event>
 5   0  0.3705828E-06  0.2100169E+04  0.7818609E-02  0.8561169E-01
        2   -1    0    0  501    0  0.00000000000E+00  0.00000000000E+00  0.52374746195E+03  0.52374746196E+03  0.25500000920E-02 0. -1.
       -2   -1    0    0    0  501  0.00000000000E+00  0.00000000000E+00 -0.21053617927E+04  0.21053617927E+04  0.25500000920E-02 0.  1.
    10030    2    1    2    0    0  0.00000000000E+00  0.00000000000E+00 -0.15816143308E+04  0.26291092547E+04  0.21001694174E+04 0.  0.
        5    1    3    3  502    0 -0.37143493805E+03 -0.79599519073E+03 -0.70491094151E+02  0.88122831390E+03  0.46999998093E+01 0. -1.
       -5    1    3    3    0  502  0.37143493805E+03  0.79599519073E+03 -0.15111232366E+04  0.17478809408E+04  0.46999998093E+01 0.  1.
</event>
<event>
 5   0  0.1646510E-06  0.2100023E+04  0.7818609E-02  0.8561233E-01
        1   -1    0    0  501    0  0.00000000000E+00  0.00000000000E+00  0.73489695365E+03  0.73489695367E+03  0.50400001928E-02 0. -1.
       -1   -1    0    0    0  501  0.00000000000E+00  0.00000000000E+00 -0.15002430857E+04  0.15002430858E+04  0.50400001928E-02 0.  1.
    10030    2    1    2    0    0  0.00000000000E+00  0.00000000000E+00 -0.76534613210E+03  0.22351400394E+04  0.21000229270E+04 0.  0.
        4    1    3    3  502    0 -0.60921330046E+02  0.10399191340E+04 -0.24236062587E+03  0.10695248944E+04  0.12699999809E+01 0.  1.
       -4    1    3    3    0  502  0.60921330046E+02 -0.10399191340E+04 -0.52298550622E+03  0.11656151451E+04  0.12699999809E+01 0. -1.
</event>
<event>
 5   0  0.1615098E-06  0.2098470E+04  0.7818609E-02  0.8561917E-01
        1   -1    0    0  501    0  0.00000000000E+00  0.00000000000E+00  0.20369747789E+04  0.20369747789E+04  0.50400001928E-02 0. -1.
       -1   -1    0    0    0  501  0.00000000000E+00  0.00000000000E+00 -0.54045564915E+03  0.54045564918E+03  0.50400001928E-02 0.  1.
    10030    2    1    2    0    0  0.00000000000E+00  0.00000000000E+00  0.14965191298E+04  0.25774304281E+04  0.20984704205E+04 0.  0.
        1    1    3    3  502    0  0.51008044876E+03  0.40398488683E+03  0.17592371555E+04  0.18757135236E+04  0.50400001928E-02 0. -1.
       -1    1    3    3    0  502 -0.51008044876E+03 -0.40398488683E+03 -0.26271802579E+03  0.70171690452E+03  0.50400001928E-02 0.  1.
</event>
<event>
 5   0  0.1615098E-06  0.2096133E+04  0.7818609E-02  0.8562949E-01
        1   -1    0    0  501    0  0.00000000000E+00  0.00000000000E+00  0.18006187432E+04  0.18006187432E+04  0.50400001928E-02 0.  1.
       -1   -1    0    0    0  501  0.00000000000E+00  0.00000000000E+00 -0.61003688893E+03  0.61003688895E+03  0.50400001928E-02 0. -1.
    10030    2    1    2    0    0  0.00000000000E+00  0.00000000000E+00  0.11905818543E+04  0.24106556322E+04  0.20961334464E+04 0.  0.
        1    1    3    3  502    0  0.94028617578E+03  0.43769461698E+03  0.76867459662E+03  0.12909590643E+04  0.50400001928E-02 0. -1.
       -1    1    3    3    0  502 -0.94028617578E+03 -0.43769461698E+03  0.42190725768E+03  0.11196965679E+04  0.50400001928E-02 0.  1.
</event>
<event>
 5   0  0.1653260E-06  0.2100552E+04  0.7818609E-02  0.8561000E-01
        1   -1    0    0  501    0  0.00000000000E+00  0.00000000000E+00  0.13919978214E+04  0.13919978214E+04  0.50400001928E-02 0. -1.
       -1   -1    0    0    0  501  0.00000000000E+00  0.00000000000E+00 -0.79244343324E+03  0.79244343325E+03  0.50400001928E-02 0.  1.
    10030    2    1    2    0    0  0.00000000000E+00  0.00000000000E+00  0.59955438819E+03  0.21844412547E+04  0.21005518634E+04 0.  0.
        3    1    3    3  502    0  0.64243362896E+03  0.19923838347E+03 -0.53907392892E+03  0.86198469367E+03  0.10100000352E+00 0.  1.
       -3    1    3    3    0  502 -0.64243362896E+03 -0.19923838347E+03  0.11386283171E+04  0.13224565610E+04  0.10100000352E+00 0. -1.
</event>
<event>
 5   0  0.3705828E-06  0.2099351E+04  0.7818609E-02  0.8561529E-01
       -2   -1    0    0    0  501  0.00000000000E+00  0.00000000000E+00  0.63006639793E+03  0.63006639793E+03  0.25500000920E-02 0.  1.
        2   -1    0    0  501    0  0.00000000000E+00  0.00000000000E+00 -0.17487347603E+04  0.17487347603E+04  0.25500000920E-02 0. -1.
    10030    2    1    2    0    0  0.00000000000E+00  0.00000000000E+00 -0.11186683624E+04  0.23788011582E+04  0.20993513392E+04 0.  0.
        5    1    3    3  502    0 -0.63258458294E+03 -0.47859026182E+03  0.21962193946E+03  0.82308430891E+03  0.46999998093E+01 0.  1.
       -5    1    3    3    0  502  0.63258458294E+03  0.47859026182E+03 -0.13382903018E+04  0.15557168493E+04  0.46999998093E+01 0. -1.
</event>
<event>
 5   0  0.3480134E-06  0.2099647E+04  0.7818609E-02  0.8561399E-01
        2   -1    0    0  501    0  0.00000000000E+00  0.00000000000E+00  0.86355306320E+03  0.86355306321E+03  0.25500000920E-02 0. -1.
       -2   -1    0    0    0  501  0.00000000000E+00  0.00000000000E+00 -0.12762723588E+04  0.12762723588E+04  0.25500000920E-02 0.  1.
    10030    2    1    2    0    0  0.00000000000E+00  0.00000000000E+00 -0.41271929564E+03  0.21398254221E+04  0.20996465464E+04 0.  0.
        1    1    3    3  502    0 -0.91074860808E+03 -0.25120319694E+03 -0.67290007206E+03  0.11598967973E+04  0.50400001928E-02 0.  1.
       -1    1    3    3    0  502  0.91074860808E+03  0.25120319694E+03  0.26018077642E+03  0.97992862480E+03  0.50400001928E-02 0. -1.
</event>
<event>
 5   0  0.1646510E-06  0.2097490E+04  0.7818609E-02  0.8562350E-01
       -1   -1    0    0    0  501  0.00000000000E+00  0.00000000000E+00  0.12457616183E+04  0.12457616183E+04  0.50400001928E-02 0.  1.
        1   -1    0    0  501    0  0.00000000000E+00  0.00000000000E+00 -0.88288635162E+03  0.88288635163E+03  0.50400001928E-02 0. -1.
    10030    2    1    2    0    0  0.00000000000E+00  0.00000000000E+00  0.36287526665E+03  0.21286479699E+04  0.20974898619E+04 0.  0.
        4    1    3    3  502    0 -0.38182606923E+03 -0.92512320029E+03  0.49949426674E+03  0.11185437936E+04  0.12699999809E+01 0. -1.
       -4    1    3    3    0  502  0.38182606923E+03  0.92512320029E+03 -0.13661900008E+03  0.10101041763E+04  0.12699999809E+01 0.  1.
</event>
<event>
 5   0  0.1653260E-06  0.2100746E+04  0.7818609E-02  0.8560915E-01
       -1   -1    0    0    0  501  0.00000000000E+00  0.00000000000E+00  0.88937445115E+03  0.88937445116E+03  0.50400001928E-02 0.  1.
        1   -1    0    0  501    0  0.00000000000E+00  0.00000000000E+00 -0.12405162561E+04  0.12405162561E+04  0.50400001928E-02 0. -1.
    10030    2    1    2    0    0  0.00000000000E+00  0.00000000000E+00 -0.35114180491E+03  0.21298907072E+04  0.21007460241E+04 0.  0.
        3    1    3    3  502    0  0.42913764909E+03 -0.77113377772E+03 -0.75310249591E+03  0.11601593876E+04  0.10100000352E+00 0. -1.
       -3    1    3    3    0  502 -0.42913764909E+03  0.77113377772E+03  0.40196069101E+03  0.96973131966E+03  0.10100000352E+00 0.  1.
</event>
<event>
 5   0  0.3705828E-06  0.2095237E+04  0.7818609E-02  0.8563344E-01
        2   -1    0    0  501    0  0.00000000000E+00  0.00000000000E+00  0.13378978694E+04  0.13378978694E+04  0.25500000920E-02 0. -1.
       -2   -1    0    0    0  501  0.00000000000E+00  0.00000000000E+00 -0.82032000812E+03  0.82032000812E+03  0.25500000920E-02 0.  1.
    10030    2    1    2    0    0  0.00000000000E+00  0.00000000000E+00  0.51757786124E+03  0.21582178775E+04  0.20952368754E+04 0.  0.
        5    1    3    3  502    0 -0.52746655923E+03  0.77223415852E+03  0.74512056357E+03  0.11957396502E+04  0.46999998093E+01 0. -1.
       -5    1    3    3    0  502  0.52746655923E+03 -0.77223415852E+03 -0.22754270234E+03  0.96247822733E+03  0.46999998093E+01 0.  1.
</event>
<event>
 5   0  0.1653260E-06  0.2099638E+04  0.7818609E-02  0.8561403E-01
       -1   -1    0    0    0  501  0.00000000000E+00  0.00000000000E+00  0.49014261110E+03  0.49014261112E+03  0.50400001928E-02 0. -1.
        1   -1    0    0  501    0  0.00000000000E+00  0.00000000000E+00 -0.22485696576E+04  0.22485696576E+04  0.50400001928E-02 0.  1.
    10030    2    1    2    0    0  0.00000000000E+00  0.00000000000E+00 -0.17584270465E+04  0.27387122687E+04  0.20996378766E+04 0.  0.
        3    1    3    3  502    0 -0.85495328379E+03  0.53182063304E+03 -0.12669033173E+04  0.16182775809E+04  0.10100000352E+00 0.  1.
       -3    1    3    3    0  502  0.85495328379E+03 -0.53182063304E+03 -0.49152372924E+03  0.11204346879E+04  0.10100000352E+00 0. -1.
</event>
<event>
 5   0  0.1653260E-06  0.2092835E+04  0.7818609E-02  0.8564406E-01
       -1   -1    0    0    0  501  0.00000000000E+00  0.00000000000E+00  0.10380274848E+04  0.10380274848E+04  0.50400001928E-02 0. -1.
        1   -1    0    0  501    0  0.00000000000E+00  0.00000000000E+00 -0.10548755723E+04  0.10548755724E+04  0.50400001928E-02 0.  1.
    10030    2    1    2    0    0  0.00000000000E+00  0.00000000000E+00 -0.16848087577E+02  0.20929030571E+04  0.20928352416E+04 0.  0.
        3    1    3    3  502    0 -0.35371364614E+03 -0.96418524787E+03  0.19213990629E+03  0.10448369679E+04  0.10100000352E+00 0. -1.
       -3    1    3    3    0  502  0.35371364614E+03  0.96418524787E+03 -0.20898799387E+03  0.10480660893E+04  0.10100000352E+00 0.  1.
</event>
<event>
 5   0  0.3636435E-06  0.2100458E+04  0.7818609E-02  0.8561042E-01
       -2   -1    0    0    0  501  0.00000000000E+00  0.00000000000E+00  0.15236165854E+04  0.15236165854E+04  0.25500000920E-02 0.  1.
        2   -1    0    0  501    0  0.00000000000E+00  0.00000000000E+00 -0.72392293799E+03  0.72392293800E+03  0.25500000920E-02 0. -1.
    10030    2    1    2    0    0  0.00000000000E+00  0.00000000000E+00  0.79969364736E+03  0.22475395234E+04  0.21004580404E+04 0.  0.
        4    1    3    3  502    0 -0.59417759083E+03 -0.40368038082E+03  0.12196374590E+04  0.14154582310E+04  0.12699999809E+01 0.  1.
       -4    1    3    3    0  502  0.59417759083E+03  0.40368038082E+03 -0.41994381165E+03  0.83208129239E+03  0.12699999809E+01 0. -1.
</event>
<event>
 5   0  0.3547583E-06  0.2100652E+04  0.7818609E-02  0.8560956E-01
        2   -1    0    0  501    0  0.00000000000E+00  0.00000000000E+00  0.15578430903E+04  0.15578430903E+04  0.25500000920E-02 0.  1.
       -2   -1    0    0    0  501  0.00000000000E+00  0.00000000000E+00 -0.70814849502E+03  0.70814849503E+03  0.25500000920E-02 0. -1.
    10030    2    1    2    0    0  0.00000000000E+00  0.00000000000E+00  0.84969459525E+03  0.22659915853E+04  0.21006515559E+04 0.  0.
        2    1    3    3  502    0 -0.64996969664E+02  0.10348296171E+04  0.60563098847E+03  0.12007855082E+04  0.25500000920E-02 0. -1.
       -2    1    3    3    0  502  0.64996969664E+02 -0.10348296171E+04  0.24406360678E+03  0.10652060771E+04  0.25500000920E-02 0.  1.
</event>
<event>
 5   0  0.1579820E-06  0.2094972E+04  0.7818609E-02  0.8563461E-01
        1   -1    0    0  501    0  0.00000000000E+00  0.00000000000E+00  0.95049661492E+03  0.95049661493E+03  0.50400001928E-02 0.  1.
       -1   -1    0    0    0  501  0.00000000000E+00  0.00000000000E+00 -0.11543722381E+04  0.11543722381E+04  0.50400001928E-02 0. -1.
    10030    2    1    2    0    0  0.00000000000E+00  0.00000000000E+00 -0.20387562319E+03  0.21048688531E+04  0.20949719852E+04 0.  0.
        2    1    3    3  502    0 -0.66680424035E+03 -0.35334056037E+03 -0.83183336839E+03  0.11231314257E+04  0.25500000920E-02 0. -1.
       -2    1    3    3    0  502  0.66680424035E+03  0.35334056037E+03  0.62795774520E+03  0.98173742738E+03  0.25500000920E-02 0.  1.
</event>
<event>
 5   0  0.3547583E-06  0.2099039E+04  0.7818609E-02  0.8561667E-01
       -2   -1    0    0    0  501  0.00000000000E+00  0.00000000000E+00  0.12139015852E+04  0.12139015852E+04  0.25500000920E-02 0. -1.
        2   -1    0    0  501    0  0.00000000000E+00  0.00000000000E+00 -0.90739740184E+03  0.90739740184E+03  0.25500000920E-02 0.  1.
    10030    2    1    2    0    0  0.00000000000E+00  0.00000000000E+00  0.30650418337E+03  0.21212989871E+04  0.20990389654E+04 0.  0.
        2    1    3    3  502    0 -0.49602737091E+01 -0.84456637614E+03 -0.47639137892E+03  0.96967299330E+03  0.25500000920E-02 0.  1.
       -2    1    3    3    0  502  0.49602737091E+01  0.84456637614E+03  0.78289556229E+03  0.11516259938E+04  0.25500000920E-02 0. -1.
</event>
<event>
 5   0  0.1579820E-06  0.2099216E+04  0.7818609E-02  0.8561589E-01
       -1   -1    0    0    0  501  0.00000000000E+00  0.00000000000E+00  0.89031330302E+03  0.89031330303E+03  0.50400001928E-02 0.  1.
        1   -1    0    0  501    0  0.00000000000E+00  0.00000000000E+00 -0.12374037656E+04  0.12374037656E+04  0.50400001928E-02 0. -1.
    10030    2    1    2    0    0  0.00000000000E+00  0.00000000000E+00 -0.34709046258E+03  0.21277170686E+04  0.20992160763E+04 0.  0.
        2    1    3    3  502    0  0.20719269426E+03  0.75070359030E+03 -0.88679837289E+03  0.11802101708E+04  0.25500000920E-02 0. -1.
       -2    1    3    3    0  502 -0.20719269426E+03 -0.75070359030E+03  0.53970791031E+03  0.94750689786E+03  0.25500000920E-02 0.  1.
</event>
<event>
 5   0  0.1257125E-06  0.2099546E+04  0.7818609E-02  0.8561444E-01
       -3   -1    0    0    0  501  0.00000000000E+00  0.00000000000E+00  0.13738067812E+04  0.13738067849E+04  0.10100000352E+00 0. -1.
        3   -1    0    0  501    0  0.00000000000E+00  0.00000000000E+00 -0.80216737237E+03  0.80216737873E+03  0.10100000352E+00 0.  1.
    10030    2    1    2    0    0  0.00000000000E+00  0.00000000000E+00  0.57163940879E+03  0.21759741636E+04  0.20995456525E+04 0.  0.
        1    1    3    3  502    0  0.98691092603E+03  0.24241071469E+03  0.13053129362E+02  0.10163299241E+04  0.50400001928E-02 0.  1.
       -1    1    3    3    0  502 -0.98691092603E+03 -0.24241071469E+03  0.55858627943E+03  0.11596442395E+04  0.50400001928E-02 0. -1.
</event>
<event>
 5   0  0.1615098E-06  0.2097843E+04  0.7818609E-02  0.8562194E-01
       -1   -1    0    0    0  501  0.00000000000E+00  0.00000000000E+00  0.71385911526E+03  0.71385911528E+03  0.50400001928E-02 0. -1.
        1   -1    0    0  501    0  0.00000000000E+00  0.00000000000E+00 -0.15412512078E+04  0.15412512078E+04  0.50400001928E-02 0.  1.
    10030    2    1    2    0    0  0.00000000000E+00  0.00000000000E+00 -0.82739209253E+03  0.22551103231E+04  0.20978429146E+04 0.  0.
        1    1    3    3  502    0  0.83259478855E+03 -0.12491996139E+03  0.25883873585E+03  0.88080450151E+03  0.50400001928E-02 0. -1.
       -1    1    3    3    0  502 -0.83259478855E+03  0.12491996139E+03 -0.10862308284E+04  0.13743058216E+04  0.50400001928E-02 0.  1.
</event>
<event>
 5   0  0.3547583E-06  0.2100605E+04  0.7818609E-02  0.8560977E-01
        2   -1    0    0  501    0  0.00000000000E+00  0.00000000000E+00  0.21510222145E+04  0.21510222145E+04  0.25500000920E-02 0. -1.
       -2   -1    0    0    0  501  0.00000000000E+00  0.00000000000E+00 -0.51284229532E+03  0.51284229533E+03  0.25500000920E-02 0.  1.
    10030    2    1    2    0    0  0.00000000000E+00  0.00000000000E+00  0.16381799192E+04  0.26638645098E+04  0.21006048365E+04 0.  0.
        2    1    3    3  502    0  0.36343157692E+03  0.64907910278E+03 -0.12117442400E+03  0.75370381040E+03  0.25500000920E-02 0.  1.
       -2    1    3    3    0  502 -0.36343157692E+03 -0.64907910278E+03  0.17593543432E+04  0.19101606994E+04  0.25500000920E-02 0. -1.
</event>
<event>
 5   0  0.3636435E-06  0.2099405E+04  0.7818609E-02  0.8561505E-01
       -2   -1    0    0    0  501  0.00000000000E+00  0.00000000000E+00  0.12294119060E+04  0.12294119060E+04  0.25500000920E-02 0. -1.
        2   -1    0    0  501    0  0.00000000000E+00  0.00000000000E+00 -0.89626241055E+03  0.89626241055E+03  0.25500000920E-02 0.  1.
    10030    2    1    2    0    0  0.00000000000E+00  0.00000000000E+00  0.33314949546E+03  0.21256743166E+04  0.20994053238E+04 0.  0.
        4    1    3    3  502    0 -0.90035233640E+03 -0.52926083329E+03  0.27335861973E+03  0.10795730208E+04  0.12699999809E+01 0. -1.
       -4    1    3    3    0  502  0.90035233640E+03  0.52926083329E+03  0.59790875731E+02  0.10461012958E+04  0.12699999809E+01 0.  1.
</event>
<event>
 5   0  0.3480134E-06  0.2100666E+04  0.7818609E-02  0.8560950E-01
        2   -1    0    0  501    0  0.00000000000E+00  0.00000000000E+00  0.12312760145E+04  0.12312760145E+04  0.25500000920E-02 0.  1.
       -2   -1    0    0    0  501  0.00000000000E+00  0.00000000000E+00 -0.89598076727E+03  0.89598076728E+03  0.25500000920E-02 0. -1.
    10030    2    1    2    0    0  0.00000000000E+00  0.00000000000E+00  0.33529524723E+03  0.21272567818E+04  0.21006662069E+04 0.  0.
        1    1    3    3  502    0  0.14041163694E+03 -0.65934109797E+03 -0.64800029148E+03  0.93506710403E+03  0.50400001928E-02 0. -1.
       -1    1    3    3    0  502 -0.14041163694E+03  0.65934109797E+03  0.98329553871E+03  0.11921896777E+04  0.50400001928E-02 0.  1.
</event>
<event>
 5   0  0.3480134E-06  0.2102348E+04  0.7818609E-02  0.8560210E-01
       -2   -1    0    0    0  501  0.00000000000E+00  0.00000000000E+00  0.13935059164E+04  0.13935059164E+04  0.25500000920E-02 0.  1.
        2   -1    0    0  501    0  0.00000000000E+00  0.00000000000E+00 -0.79294046228E+03  0.79294046228E+03  0.25500000920E-02 0. -1.
    10030    2    1    2    0    0  0.00000000000E+00  0.00000000000E+00  0.60056545408E+03  0.21864463786E+04  0.21023484255E+04 0.  0.
        1    1    3    3  502    0  0.33164190384E+01 -0.10378558478E+04  0.47372145460E+03  0.11408627332E+04  0.50400001928E-02 0.  1.
       -1    1    3    3    0  502 -0.33164190384E+01  0.10378558478E+04  0.12684399948E+03  0.10455836455E+04  0.50400001928E-02 0. -1.
</event>
<event>
 5   0  0.1579820E-06  0.2100850E+04  0.7818609E-02  0.8560869E-01
        1   -1    0    0  501    0  0.00000000000E+00  0.00000000000E+00  0.21759740361E+04  0.21759740361E+04  0.50400001928E-02 0. -1.
       -1   -1    0    0    0  501  0.00000000000E+00  0.00000000000E+00 -0.50707992532E+03  0.50707992534E+03  0.50400001928E-02 0.  1.
    10030    2    1    2    0    0  0.00000000000E+00  0.00000000000E+00  0.16688941108E+04  0.26830539614E+04  0.21008500677E+04 0.  0.
        2    1    3    3  502    0 -0.42035620130E+03  0.46467233844E+03 -0.24226560461E+03  0.67179784255E+03  0.25500000920E-02 0.  1.
       -2    1    3    3    0  502  0.42035620130E+03 -0.46467233844E+03  0.19111597154E+04  0.20112561189E+04  0.25500000920E-02 0. -1.
</event>
<event>
 5   0  0.1579820E-06  0.2100412E+04  0.7818609E-02  0.8561062E-01
       -1   -1    0    0    0  501  0.00000000000E+00  0.00000000000E+00  0.59547967747E+03  0.59547967749E+03  0.50400001928E-02 0.  1.
        1   -1    0    0  501    0  0.00000000000E+00  0.00000000000E+00 -0.18521755424E+04  0.18521755424E+04  0.50400001928E-02 0. -1.
    10030    2    1    2    0    0  0.00000000000E+00  0.00000000000E+00 -0.12566958649E+04  0.24476552199E+04  0.21004122401E+04 0.  0.
        2    1    3    3  502    0  0.81657260457E+01 -0.63239852917E+02  0.59322177662E+03  0.59663894806E+03  0.25500000920E-02 0.  1.
       -2    1    3    3    0  502 -0.81657260457E+01  0.63239852917E+02 -0.18499176415E+04  0.18510162718E+04  0.25500000920E-02 0. -1.
</event>
<event>
 5   0  0.3480134E-06  0.2100230E+04  0.7818609E-02  0.8561142E-01
        2   -1    0    0  501    0  0.00000000000E+00  0.00000000000E+00  0.17056341172E+04  0.17056341172E+04  0.25500000920E-02 0. -1.
       -2   -1    0    0    0  501  0.00000000000E+00  0.00000000000E+00 -0.64652901254E+03  0.64652901255E+03  0.25500000920E-02 0.  1.
    10030    2    1    2    0    0  0.00000000000E+00  0.00000000000E+00  0.10591051046E+04  0.23521631297E+04  0.21002304079E+04 0.  0.
        1    1    3    3  502    0 -0.68172642624E+03  0.79839044088E+03  0.55614352474E+03  0.11880546437E+04  0.50400001928E-02 0.  1.
       -1    1    3    3    0  502  0.68172642624E+03 -0.79839044088E+03  0.50296157990E+03  0.11641084860E+04  0.50400001928E-02 0. -1.
</event>
<event>
 5   0  0.3705828E-06  0.2100356E+04  0.7818609E-02  0.8561087E-01
        2   -1    0    0  501    0  0.00000000000E+00  0.00000000000E+00  0.11986231508E+04  0.11986231508E+04  0.25500000920E-02 0.  1.
       -2   -1    0    0    0  501  0.00000000000E+00  0.00000000000E+00 -0.92011727474E+03  0.92011727475E+03  0.25500000920E-02 0. -1.
    10030    2    1    2    0    0  0.00000000000E+00  0.00000000000E+00  0.27850587605E+03  0.21187404255E+04  0.21003560336E+04 0.  0.
        5    1    3    3  502    0  0.20306652693E+03 -0.74619844706E+03  0.85596724403E+03  0.11535814447E+04  0.46999998093E+01 0.  1.
       -5    1    3    3    0  502 -0.20306652693E+03  0.74619844706E+03 -0.57746136798E+03  0.96515898082E+03  0.46999998093E+01 0. -1.
</event>
<event>
 5   0  0.3636435E-06  0.2102266E+04  0.7818609E-02  0.8560246E-01
        2   -1    0    0  501    0  0.00000000000E+00  0.00000000000E+00  0.95234909685E+03  0.95234909685E+03  0.25500000920E-02 0. -1.
       -2   -1    0    0    0  501  0.00000000000E+00  0.00000000000E+00 -0.11601633155E+04  0.11601633155E+04  0.25500000920E-02 0.  1.
    10030    2    1    2    0    0  0.00000000000E+00  0.00000000000E+00 -0.20781421865E+03  0.21125124124E+04  0.21022659068E+04 0.  0.
        4    1    3    3  502    0 -0.46967855388E+03 -0.19029046807E+03  0.82148883515E+03  0.96522221555E+03  0.12699999809E+01 0. -1.
       -4    1    3    3    0  502  0.46967855388E+03  0.19029046807E+03 -0.10293030538E+04  0.11472901968E+04  0.12699999809E+01 0.  1.
</event>
<event>
 5   0  0.1615098E-06  0.2100364E+04  0.7818609E-02  0.8561083E-01
       -1   -1    0    0    0  501  0.00000000000E+00  0.00000000000E+00  0.68643330762E+03  0.68643330764E+03  0.50400001928E-02 0. -1.
        1   -1    0    0  501    0  0.00000000000E+00  0.00000000000E+00 -0.16066852099E+04  0.16066852099E+04  0.50400001928E-02 0.  1.
    10030    2    1    2    0    0  0.00000000000E+00  0.00000000000E+00 -0.92025190226E+03  0.22931185175E+04  0.21003640094E+04 0.  0.
        1    1    3    3  502    0 -0.46923021378E+03 -0.22549113173E+03  0.53563890172E+03  0.74694864420E+03  0.50400001928E-02 0. -1.
       -1    1    3    3    0  502  0.46923021378E+03  0.22549113173E+03 -0.14558908040E+04  0.15461698733E+04  0.50400001928E-02 0.  1.
</event>
<event>
 5   0  0.3574927E-06  0.2100183E+04  0.7818609E-02  0.8561163E-01
        2   -1    0    0  501    0  0.00000000000E+00  0.00000000000E+00  0.16827764934E+04  0.16827764934E+04  0.25500000920E-02 0. -1.
       -2   -1    0    0    0  501  0.00000000000E+00  0.00000000000E+00 -0.65528120627E+03  0.65528120628E+03  0.25500000920E-02 0.  1.
    10030    2    1    2    0    0  0.00000000000E+00  0.00000000000E+00  0.10274952871E+04  0.23380576997E+04  0.21001826687E+04 0.  0.
        3    1    3    3  502    0 -0.81787853088E+03  0.62700539783E+03  0.28934626473E+03  0.10704122249E+04  0.10100000352E+00 0. -1.
       -3    1    3    3    0  502  0.81787853088E+03 -0.62700539783E+03  0.73814902239E+03  0.12676454747E+04  0.10100000352E+00 0.  1.
</event>
<event>
 5   0  0.3480134E-06  0.2100207E+04  0.7818609E-02  0.8561152E-01
        2   -1    0    0  501    0  0.00000000000E+00  0.00000000000E+00  0.14131426390E+04  0.14131426390E+04  0.25500000920E-02 0.  1.
       -2   -1    0    0    0  501  0.00000000000E+00  0.00000000000E+00 -0.78032968550E+03  0.78032968550E+03  0.25500000920E-02 0. -1.
    10030    2    1    2    0    0  0.00000000000E+00  0.00000000000E+00  0.63281295353E+03  0.21934723245E+04  0.21002068004E+04 0.  0.
        1    1    3    3  502    0 -0.93619297980E+03 -0.17849041069E+03 -0.14408264842E+03  0.96388584995E+03  0.50400001928E-02 0. -1.
       -1    1    3    3    0  502  0.93619297980E+03  0.17849041069E+03  0.77689560195E+03  0.12295864746E+04  0.50400001928E-02 0.  1.
</event>
<event>
 5   0  0.1646510E-06  0.2100053E+04  0.7818609E-02  0.8561220E-01
        1   -1    0    0  501    0  0.00000000000E+00  0.00000000000E+00  0.20379091671E+04  0.20379091671E+04  0.50400001928E-02 0. -1.
       -1   -1    0    0    0  501  0.00000000000E+00  0.00000000000E+00 -0.54102276080E+03  0.54102276082E+03  0.50400001928E-02 0.  1.
    10030    2    1    2    0    0  0.00000000000E+00  0.00000000000E+00  0.14968864063E+04  0.25789319279E+04  0.21000526126E+04 0.  0.
        4    1    3    3  502    0  0.50662453602E+03 -0.42705759786E+03 -0.25186185359E+03  0.70886008392E+03  0.12699999809E+01 0.  1.
       -4    1    3    3    0  502 -0.50662453602E+03  0.42705759786E+03  0.17487482599E+04  0.18700718440E+04  0.12699999809E+01 0. -1.
</event>
<event>
 5   0  0.3574927E-06  0.2100053E+04  0.7818609E-02  0.8561220E-01
        2   -1    0    0  501    0  0.00000000000E+00  0.00000000000E+00  0.17600628022E+04  0.17600628022E+04  0.25500000920E-02 0.  1.
       -2   -1    0    0    0  501  0.00000000000E+00  0.00000000000E+00 -0.62642984955E+03  0.62642984956E+03  0.25500000920E-02 0. -1.
    10030    2    1    2    0    0  0.00000000000E+00  0.00000000000E+00  0.11336329526E+04  0.23864926517E+04  0.21000532149E+04 0.  0.
        3    1    3    3  502    0  0.50156915047E+03 -0.52617020296E+03  0.14278788428E+04  0.16022686089E+04  0.10100000352E+00 0. -1.
       -3    1    3    3    0  502 -0.50156915047E+03  0.52617020296E+03 -0.29424589021E+03  0.78422404279E+03  0.10100000352E+00 0.  1.
</event>
<event>
 5   0  0.3480134E-06  0.2100096E+04  0.7818609E-02  0.8561201E-01
       -2   -1    0    0    0  501  0.00000000000E+00  0.00000000000E+00  0.86405988860E+03  0.86405988861E+03  0.25500000920E-02 0.  1.
        2   -1    0    0  501    0  0.00000000000E+00  0.00000000000E+00 -0.12760696909E+04  0.12760696909E+04  0.25500000920E-02 0. -1.
    10030    2    1    2    0    0  0.00000000000E+00  0.00000000000E+00 -0.41200980233E+03  0.21401295795E+04  0.21000958407E+04 0.  0.
        1    1    3    3  502    0  0.37133496938E+03  0.39884755031E+03 -0.11206849431E+04  0.12461555961E+04  0.50400001928E-02 0. -1.
       -1    1    3    3    0  502 -0.37133496938E+03 -0.39884755031E+03  0.70867514081E+03  0.89397398345E+03  0.50400001928E-02 0.  1.
</event>
<event>
 5   0  0.1579820E-06  0.2100351E+04  0.7818609E-02  0.8561089E-01
       -1   -1    0    0    0  501  0.00000000000E+00  0.00000000000E+00  0.10716558080E+04  0.10716558080E+04  0.50400001928E-02 0. -1.
        1   -1    0    0  501    0  0.00000000000E+00  0.00000000000E+00 -0.10291258552E+04  0.10291258552E+04  0.50400001928E-02 0.  1.
    10030    2    1    2    0    0  0.00000000000E+00  0.00000000000E+00  0.42529952782E+02  0.21007816632E+04  0.21003511134E+04 0.  0.
        2    1    3    3  502    0  0.10302943005E+04  0.82885459523E+02  0.20702422212E+03  0.10541514946E+04  0.25500000920E-02 0. -1.
       -2    1    3    3    0  502 -0.10302943005E+04 -0.82885459523E+02 -0.16449426934E+03  0.10466301686E+04  0.25500000920E-02 0.  1.
</event>
<event>
 5   0  0.3705828E-06  0.2097130E+04  0.7818609E-02  0.8562509E-01
       -2   -1    0    0    0  501  0.00000000000E+00  0.00000000000E+00  0.72584851834E+03  0.72584851835E+03  0.25500000920E-02 0. -1.
        2   -1    0    0  501    0  0.00000000000E+00  0.00000000000E+00 -0.15147631638E+04  0.15147631638E+04  0.25500000920E-02 0.  1.
    10030    2    1    2    0    0  0.00000000000E+00  0.00000000000E+00 -0.78891464541E+03  0.22406116821E+04  0.20971300370E+04 0.  0.
        5    1    3    3  502    0  0.63649957397E+03 -0.81086690041E+03 -0.18941658752E+03  0.10481114308E+04  0.46999998093E+01 0.  1.
       -5    1    3    3    0  502 -0.63649957397E+03  0.81086690041E+03 -0.59949805789E+03  0.11925002513E+04  0.46999998093E+01 0. -1.
</event>
<event>
 5   0  0.1615098E-06  0.2099415E+04  0.7818609E-02  0.8561501E-01
        1   -1    0    0  501    0  0.00000000000E+00  0.00000000000E+00  0.93913401890E+03  0.93913401891E+03  0.50400001928E-02 0. -1.
       -1   -1    0    0    0  501  0.00000000000E+00  0.00000000000E+00 -0.11733000381E+04  0.11733000381E+04  0.50400001928E-02 0.  1.
    10030    2    1    2    0    0  0.00000000000E+00  0.00000000000E+00 -0.23416601921E+03  0.21124340570E+04  0.20994151378E+04 0.  0.
        1    1    3    3  502    0  0.63312392292E+03  0.83674064311E+03 -0.14735569900E+03  0.10595727949E+04  0.50400001928E-02 0.  1.
       -1    1    3    3    0  502 -0.63312392292E+03 -0.83674064311E+03 -0.86810320207E+02  0.10528612621E+04  0.50400001928E-02 0. -1.
</event>
<event>
 5   0  0.3480134E-06  0.2102074E+04  0.7818609E-02  0.8560330E-01
        2   -1    0    0  501    0  0.00000000000E+00  0.00000000000E+00  0.78308043085E+03  0.78308043086E+03  0.25500000920E-02 0. -1.
       -2   -1    0    0    0  501  0.00000000000E+00  0.00000000000E+00 -0.14106837090E+04  0.14106837090E+04  0.25500000920E-02 0.  1.
    10030    2    1    2    0    0  0.00000000000E+00  0.00000000000E+00 -0.62760327815E+03  0.21937641399E+04  0.21020740298E+04 0.  0.
        1    1    3    3  502    0  0.37093140507E+03  0.64686854132E+03 -0.10868195111E+04  0.13180309809E+04  0.50400001928E-02 0.  1.
       -1    1    3    3    0  502 -0.37093140507E+03 -0.64686854132E+03  0.45921623293E+03  0.87573315892E+03  0.50400001928E-02 0. -1.
</event>
<event>
 5   0  0.3547583E-06  0.2100308E+04  0.7818609E-02  0.8561108E-01
       -2   -1    0    0    0  501  0.00000000000E+00  0.00000000000E+00  0.82420369035E+03  0.82420369035E+03  0.25500000920E-02 0.  1.
        2   -1    0    0  501    0  0.00000000000E+00  0.00000000000E+00 -0.13380473067E+04  0.13380473067E+04  0.25500000920E-02 0. -1.
    10030    2    1    2    0    0  0.00000000000E+00  0.00000000000E+00 -0.51384361634E+03  0.21622509970E+04  0.21003080993E+04 0.  0.
        2    1    3    3  502    0 -0.46808388296E+03  0.71362922381E+03 -0.88689567165E+03  0.12308343199E+04  0.25500000920E-02 0. -1.
       -2    1    3    3    0  502  0.46808388296E+03 -0.71362922381E+03  0.37305205531E+03  0.93141667718E+03  0.25500000920E-02 0.  1.
</event>
<event>
 5   0  0.1590067E-06  0.2099350E+04  0.7818609E-02  0.8561530E-01
       -1   -1    0    0    0  501  0.00000000000E+00  0.00000000000E+00  0.10783549224E+04  0.10783549224E+04  0.50400001928E-02 0.  1.
        1   -1    0    0  501    0  0.00000000000E+00  0.00000000000E+00 -0.10217579796E+04  0.10217579796E+04  0.50400001928E-02 0. -1.
    10030    2    1    2    0    0  0.00000000000E+00  0.00000000000E+00  0.56596942828E+02  0.21001129021E+04  0.20993501346E+04 0.  0.
        5    1    3    3  502    0  0.31722539371E+03 -0.86093021582E+03  0.53834926448E+03  0.10638020528E+04  0.46999998093E+01 0.  1.
       -5    1    3    3    0  502 -0.31722539371E+03  0.86093021582E+03 -0.48175232165E+03  0.10363108493E+04  0.46999998093E+01 0. -1.
</event>
<event>
 5   0  0.1653260E-06  0.2098758E+04  0.7818609E-02  0.8561791E-01
       -1   -1    0    0    0  501  0.00000000000E+00  0.00000000000E+00  0.55001247088E+03  0.55001247090E+03  0.50400001928E-02 0.  1.
        1   -1    0    0  501    0  0.00000000000E+00  0.00000000000E+00 -0.20021302973E+04  0.20021302973E+04  0.50400001928E-02 0. -1.
    10030    2    1    2    0    0  0.00000000000E+00  0.00000000000E+00 -0.14521178264E+04  0.25521427682E+04  0.20987583299E+04 0.  0.
        3    1    3    3  502    0  0.32847945408E+03 -0.87450675178E+03 -0.14473302498E+03  0.94530866355E+03  0.10100000352E+00 0.  1.
       -3    1    3    3    0  502 -0.32847945408E+03  0.87450675178E+03 -0.13073848014E+04  0.16068341046E+04  0.10100000352E+00 0. -1.
</event>
<event>
 5   0  0.3574927E-06  0.2099693E+04  0.7818609E-02  0.8561379E-01
        2   -1    0    0  501    0  0.00000000000E+00  0.00000000000E+00  0.10705977777E+04  0.10705977777E+04  0.25500000920E-02 0. -1.
       -2   -1    0    0    0  501  0.00000000000E+00  0.00000000000E+00 -0.10294971807E+04  0.10294971807E+04  0.25500000920E-02 0.  1.
    10030    2    1    2    0    0  0.00000000000E+00  0.00000000000E+00  0.41100597013E+02  0.21000949584E+04  0.20996927335E+04 0.  0.
        3    1    3    3  502    0 -0.27857394551E+03  0.32997195861E+03 -0.93655121517E+03  0.10313162102E+04  0.10100000352E+00 0.  1.
       -3    1    3    3    0  502  0.27857394551E+03 -0.32997195861E+03  0.97765181218E+03  0.10687787482E+04  0.10100000352E+00 0. -1.
</event>
<event>
 5   0  0.3705828E-06  0.2101336E+04  0.7818609E-02  0.8560655E-01
       -2   -1    0    0    0  501  0.00000000000E+00  0.00000000000E+00  0.81176834467E+03  0.81176834467E+03  0.25500000920E-02 0.  1.
        2   -1    0    0  501    0  0.00000000000E+00  0.00000000000E+00 -0.13598749979E+04  0.13598749979E+04  0.25500000920E-02 0. -1.
    10030    2    1    2    0    0  0.00000000000E+00  0.00000000000E+00 -0.54810665322E+03  0.21716433426E+04  0.21013362187E+04 0.  0.
        5    1    3    3  502    0  0.94388722532E+03 -0.25259722399E+03 -0.67317825686E+03  0.11865578398E+04  0.46999998093E+01 0. -1.
       -5    1    3    3    0  502 -0.94388722532E+03  0.25259722399E+03  0.12507160364E+03  0.98508550275E+03  0.46999998093E+01 0.  1.
</event>
<event>
 5   0  0.1590067E-06  0.2100150E+04  0.7818609E-02  0.8561177E-01
       -1   -1    0    0    0  501  0.00000000000E+00  0.00000000000E+00  0.53645632548E+03  0.53645632550E+03  0.50400001928E-02 0. -1.
        1   -1    0    0  501    0  0.00000000000E+00  0.00000000000E+00 -0.20554475375E+04  0.20554475375E+04  0.50400001928E-02 0.  1.
    10030    2    1    2    0    0  0.00000000000E+00  0.00000000000E+00 -0.15189912120E+04  0.25919038630E+04  0.21001503120E+04 0.  0.
        5    1    3    3  502    0 -0.12038757181E+03 -0.68925538860E+03 -0.17258210062E+04  0.18622691517E+04  0.46999998093E+01 0.  1.
       -5    1    3    3    0  502  0.12038757181E+03  0.68925538860E+03  0.20682979414E+03  0.72963471128E+03  0.46999998093E+01 0. -1.
</event>
<event>
 5   0  0.3480134E-06  0.2100775E+04  0.7818609E-02  0.8560902E-01
        2   -1    0    0  501    0  0.00000000000E+00  0.00000000000E+00  0.12632469894E+04  0.12632469894E+04  0.25500000920E-02 0. -1.
       -2   -1    0    0    0  501  0.00000000000E+00  0.00000000000E+00 -0.87339508028E+03  0.87339508028E+03  0.25500000920E-02 0.  1.
    10030    2    1    2    0    0  0.00000000000E+00  0.00000000000E+00  0.38985190915E+03  0.21366420697E+04  0.21007748149E+04 0.  0.
        1    1    3    3  502    0 -0.85213167195E+03 -0.52029499807E+03  0.52680749818E+03  0.11288761719E+04  0.50400001928E-02 0.  1.
       -1    1    3    3    0  502  0.85213167195E+03  0.52029499807E+03 -0.13695558904E+03  0.10077658978E+04  0.50400001928E-02 0. -1.
</event>
<event>
 5   0  0.1615098E-06  0.2099409E+04  0.7818609E-02  0.8561504E-01
       -1   -1    0    0    0  501  0.00000000000E+00  0.00000000000E+00  0.90276094870E+03  0.90276094872E+03  0.50400001928E-02 0.  1.
        1   -1    0    0  501    0  0.00000000000E+00  0.00000000000E+00 -0.12205662630E+04  0.12205662630E+04  0.50400001928E-02 0. -1.
    10030    2    1    2    0    0  0.00000000000E+00  0.00000000000E+00 -0.31780531425E+03  0.21233272117E+04  0.20994090193E+04 0.  0.
        1    1    3    3  502    0 -0.58842510425E+03  0.86852342806E+03 -0.19540411837E+03  0.10671268987E+04  0.50400001928E-02 0.  1.
       -1    1    3    3    0  502  0.58842510425E+03 -0.86852342806E+03 -0.12240119588E+03  0.10562003130E+04  0.50400001928E-02 0. -1.
</event>
<event>
 5   0  0.3574927E-06  0.2099672E+04  0.7818609E-02  0.8561388E-01
       -2   -1    0    0    0  501  0.00000000000E+00  0.00000000000E+00  0.55279615591E+03  0.55279615592E+03  0.25500000920E-02 0. -1.
        2   -1    0    0  501    0  0.00000000000E+00  0.00000000000E+00 -0.19937833366E+04  0.19937833366E+04  0.25500000920E-02 0.  1.
    10030    2    1    2    0    0  0.00000000000E+00  0.00000000000E+00 -0.14409871807E+04  0.25465794925E+04  0.20996721308E+04 0.  0.
        3    1    3    3  502    0 -0.38327817156E+03 -0.91059260145E+03 -0.28984825749E+03  0.10296082096E+04  0.10100000352E+00 0. -1.
       -3    1    3    3    0  502  0.38327817156E+03  0.91059260145E+03 -0.11511389232E+04  0.15169712830E+04  0.10100000352E+00 0.  1.
</event>
<event>
 5   0  0.3636435E-06  0.2099000E+04  0.7818609E-02  0.8561684E-01
        2   -1    0    0  501    0  0.00000000000E+00  0.00000000000E+00  0.31499132748E+04  0.31499132748E+04  0.25500000920E-02 0. -1.
       -2   -1    0    0    0  501  0.00000000000E+00  0.00000000000E+00 -0.34967638651E+03  0.34967638652E+03  0.25500000920E-02 0.  1.
    10030    2    1    2    0    0  0.00000000000E+00  0.00000000000E+00  0.28002368883E+04  0.34995896613E+04  0.20990000398E+04 0.  0.
        4    1    3    3  502    0 -0.69085257587E+02 -0.99972604217E+03  0.88025311476E+03  0.13338186125E+04  0.12699999809E+01 0.  1.
       -4    1    3    3    0  502  0.69085257587E+02  0.99972604217E+03  0.19199837735E+04  0.21657710488E+04  0.12699999809E+01 0. -1.
</event>
<event>
 5   0  0.3547583E-06  0.2100972E+04  0.7818609E-02  0.8560815E-01
       -2   -1    0    0    0  501  0.00000000000E+00  0.00000000000E+00  0.45799483541E+03  0.45799483542E+03  0.25500000920E-02 0. -1.
        2   -1    0    0  501    0  0.00000000000E+00  0.00000000000E+00 -0.24094608897E+04  0.24094608897E+04  0.25500000920E-02 0.  1.
    10030    2    1    2    0    0  0.00000000000E+00  0.00000000000E+00 -0.19514660543E+04  0.28674557251E+04  0.21009718167E+04 0.  0.
        2    1    3    3  502    0  0.81030821244E+03  0.12876844781E+03 -0.80404716280E+02  0.82440622917E+03  0.25500000920E-02 0. -1.
       -2    1    3    3    0  502 -0.81030821244E+03 -0.12876844781E+03 -0.18710613380E+04  0.20430494960E+04  0.25500000920E-02 0.  1.
</event>
<event>
 5   0  0.3547583E-06  0.2099667E+04  0.7818609E-02  0.8561390E-01
       -2   -1    0    0    0  501  0.00000000000E+00  0.00000000000E+00  0.52708370582E+03  0.52708370582E+03  0.25500000920E-02 0. -1.
        2   -1    0    0  501    0  0.00000000000E+00  0.00000000000E+00 -0.20910354479E+04  0.20910354479E+04  0.25500000920E-02 0.  1.
    10030    2    1    2    0    0  0.00000000000E+00  0.00000000000E+00 -0.15639517421E+04  0.26181191537E+04  0.20996673193E+04 0.  0.
        2    1    3    3  502    0 -0.58699475162E+03  0.12958579284E+03  0.29124239775E+03  0.66796515657E+03  0.25500000920E-02 0. -1.
       -2    1    3    3    0  502  0.58699475162E+03 -0.12958579284E+03 -0.18551941399E+04  0.19501539972E+04  0.25500000920E-02 0.  1.
</event>
<event>
 5   0  0.3480134E-06  0.2100672E+04  0.7818609E-02  0.8560947E-01
        2   -1    0    0  501    0  0.00000000000E+00  0.00000000000E+00  0.70526829315E+03  0.70526829315E+03  0.25500000920E-02 0. -1.
       -2   -1    0    0    0  501  0.00000000000E+00  0.00000000000E+00 -0.15642356712E+04  0.15642356712E+04  0.25500000920E-02 0.  1.
    10030    2    1    2    0    0  0.00000000000E+00  0.00000000000E+00 -0.85896737804E+03  0.22695039643E+04  0.21006721038E+04 0.  0.
        1    1    3    3  502    0  0.56649037266E+03 -0.80059139136E+03 -0.83566259304E+03  0.12884835613E+04  0.50400001928E-02 0.  1.
       -1    1    3    3    0  502 -0.56649037266E+03  0.80059139136E+03 -0.23304785002E+02  0.98102040308E+03  0.50400001928E-02 0. -1.
</event>
<event>
 5   0  0.1590067E-06  0.2098254E+04  0.7818609E-02  0.8562013E-01
       -1   -1    0    0    0  501  0.00000000000E+00  0.00000000000E+00  0.90516753074E+03  0.90516753076E+03  0.50400001928E-02 0.  1.
        1   -1    0    0  501    0  0.00000000000E+00  0.00000000000E+00 -0.12159822680E+04  0.12159822680E+04  0.50400001928E-02 0. -1.
    10030    2    1    2    0    0  0.00000000000E+00  0.00000000000E+00 -0.31081473722E+03  0.21211497987E+04  0.20982541952E+04 0.  0.
        5    1    3    3  502    0  0.90090648797E+02 -0.40789975369E+03  0.81745904894E+03  0.91801956447E+03  0.46999998093E+01 0.  1.
       -5    1    3    3    0  502 -0.90090648797E+02  0.40789975369E+03 -0.11282737862E+04  0.12031302343E+04  0.46999998093E+01 0. -1.
</event>
<event>
 5   0  0.1615098E-06  0.2100210E+04  0.7818609E-02  0.8561151E-01
        1   -1    0    0  501    0  0.00000000000E+00  0.00000000000E+00  0.16778343073E+04  0.16778343073E+04  0.50400001928E-02 0.  1.
       -1   -1    0    0    0  501  0.00000000000E+00  0.00000000000E+00 -0.65722865193E+03  0.65722865195E+03  0.50400001928E-02 0. -1.
    10030    2    1    2    0    0  0.00000000000E+00  0.00000000000E+00  0.10206056554E+04  0.23350629593E+04  0.21002102561E+04 0.  0.
        1    1    3    3  502    0  0.66736268663E+03  0.80145666869E+03  0.64654104768E+03  0.12270782671E+04  0.50400001928E-02 0. -1.
       -1    1    3    3    0  502 -0.66736268663E+03 -0.80145666869E+03  0.37406460771E+03  0.11079846922E+04  0.50400001928E-02 0.  1.
</event>
<event>
 5   0  0.3480134E-06  0.2099607E+04  0.7818609E-02  0.8561417E-01
        2   -1    0    0  501    0  0.00000000000E+00  0.00000000000E+00  0.16407396422E+04  0.16407396422E+04  0.25500000920E-02 0. -1.
       -2   -1    0    0    0  501  0.00000000000E+00  0.00000000000E+00 -0.67170155146E+03  0.67170155146E+03  0.25500000920E-02 0.  1.
    10030    2    1    2    0    0  0.00000000000E+00  0.00000000000E+00  0.96903809078E+03  0.23124411937E+04  0.20996069758E+04 0.  0.
        1    1    3    3  502    0 -0.62516529634E+03  0.22336125263E+03  0.13802002221E+04  0.15315595156E+04  0.50400001928E-02 0. -1.
       -1    1    3    3    0  502  0.62516529634E+03 -0.22336125263E+03 -0.41116213128E+03  0.78088167807E+03  0.50400001928E-02 0.  1.
</event>
<event>
 5   0  0.1579820E-06  0.2102412E+04  0.7818609E-02  0.8560182E-01
       -1   -1    0    0    0  501  0.00000000000E+00  0.00000000000E+00  0.17027648818E+04  0.17027648818E+04  0.50400001928E-02 0.  1.
        1   -1    0    0  501    0  0.00000000000E+00  0.00000000000E+00 -0.64896429681E+03  0.64896429683E+03  0.50400001928E-02 0. -1.
    10030    2    1    2    0    0  0.00000000000E+00  0.00000000000E+00  0.10538005850E+04  0.23517291787E+04  0.21024115812E+04 0.  0.
        2    1    3    3  502    0 -0.62944105619E+03  0.64488558841E+03 -0.78543514503E+02  0.90456760335E+03  0.25500000920E-02 0. -1.
       -2    1    3    3    0  502  0.62944105619E+03 -0.64488558841E+03  0.11323440995E+04  0.14471615753E+04  0.25500000920E-02 0.  1.
</event>
<event>
 5   0  0.1653260E-06  0.2099470E+04  0.7818609E-02  0.8561477E-01
       -1   -1    0    0    0  501  0.00000000000E+00  0.00000000000E+00  0.61296186543E+03  0.61296186545E+03  0.50400001928E-02 0.  1.
        1   -1    0    0  501    0  0.00000000000E+00  0.00000000000E+00 -0.17977360953E+04  0.17977360953E+04  0.50400001928E-02 0. -1.
    10030    2    1    2    0    0  0.00000000000E+00  0.00000000000E+00 -0.11847742299E+04  0.24106979607E+04  0.20994700956E+04 0.  0.
        3    1    3    3  502    0 -0.69439543480E+02  0.56033686840E+03 -0.16085282484E+04  0.17047470172E+04  0.10100000352E+00 0. -1.
       -3    1    3    3    0  502  0.69439543480E+02 -0.56033686840E+03  0.42375401857E+03  0.70595094358E+03  0.10100000352E+00 0.  1.
</event>
<event>
 5   0  0.1646510E-06  0.2099684E+04  0.7818609E-02  0.8561383E-01
        1   -1    0    0  501    0  0.00000000000E+00  0.00000000000E+00  0.85111169501E+03  0.85111169502E+03  0.50400001928E-02 0.  1.
       -1   -1    0    0    0  501  0.00000000000E+00  0.00000000000E+00 -0.12949748595E+04  0.12949748595E+04  0.50400001928E-02 0. -1.
    10030    2    1    2    0    0  0.00000000000E+00  0.00000000000E+00 -0.44386316451E+03  0.21460865545E+04  0.20996840217E+04 0.  0.
        4    1    3    3  502    0 -0.99906561151E+03  0.13724740485E+03  0.76405471522E+02  0.10113398812E+04  0.12699999809E+01 0.  1.
       -4    1    3    3    0  502  0.99906561151E+03 -0.13724740485E+03 -0.52026863603E+03  0.11347466734E+04  0.12699999809E+01 0. -1.
</event>
<event>
 5   0  0.3480134E-06  0.2101174E+04  0.7818609E-02  0.8560727E-01
       -2   -1    0    0    0  501  0.00000000000E+00  0.00000000000E+00  0.13051831983E+04  0.13051831983E+04  0.25500000920E-02 0. -1.
        2   -1    0    0  501    0  0.00000000000E+00  0.00000000000E+00 -0.84565338175E+03  0.84565338175E+03  0.25500000920E-02 0.  1.
    10030    2    1    2    0    0  0.00000000000E+00  0.00000000000E+00  0.45952981655E+03  0.21508365801E+04  0.21011735630E+04 0.  0.
        1    1    3    3  502    0  0.75399837199E+03 -0.20976784853E+03  0.94719890913E+03  0.12286992589E+04  0.50400001928E-02 0. -1.
       -1    1    3    3    0  502 -0.75399837199E+03  0.20976784853E+03 -0.48766909258E+03  0.92213732119E+03  0.50400001928E-02 0.  1.
</event>
<event>
 5   0  0.1579820E-06  0.2100470E+04  0.7818609E-02  0.8561036E-01
        1   -1    0    0  501    0  0.00000000000E+00  0.00000000000E+00  0.20753554748E+04  0.20753554748E+04  0.50400001928E-02 0. -1.
       -1   -1    0    0    0  501  0.00000000000E+00  0.00000000000E+00 -0.53147214205E+03  0.53147214208E+03  0.50400001928E-02 0.  1.
    10030    2    1    2    0    0  0.00000000000E+00  0.00000000000E+00  0.15438833327E+04  0.26068276168E+04  0.21004700614E+04 0.  0.
        2    1    3    3  502    0 -0.24744019372E+03 -0.11042530952E+03  0.20312278445E+04  0.20492210605E+04  0.25500000920E-02 0. -1.
       -2    1    3    3    0  502  0.24744019372E+03  0.11042530952E+03 -0.48734451182E+03  0.55760655633E+03  0.25500000920E-02 0.  1.
</event>
<event>
 5   0  0.1590067E-06  0.2100061E+04  0.7818609E-02  0.8561216E-01
       -1   -1    0    0    0  501  0.00000000000E+00  0.00000000000E+00  0.85909528735E+03  0.85909528736E+03  0.50400001928E-02 0.  1.
        1   -1    0    0  501    0  0.00000000000E+00  0.00000000000E+00 -0.12834018936E+04  0.12834018936E+04  0.50400001928E-02 0. -1.
    10030    2    1    2    0    0  0.00000000000E+00  0.00000000000E+00 -0.42430660624E+03  0.21424971810E+04  0.21000614454E+04 0.  0.
        5    1    3    3  502    0 -0.31007000720E+03  0.44418291992E+03  0.70552297688E+03  0.88950921109E+03  0.46999998093E+01 0. -1.
       -5    1    3    3    0  502  0.31007000720E+03 -0.44418291992E+03 -0.11298295831E+04  0.12529879699E+04  0.46999998093E+01 0.  1.
</event>
<event>
 5   0  0.1590067E-06  0.2098244E+04  0.7818609E-02  0.8562017E-01
       -1   -1    0    0    0  501  0.00000000000E+00  0.00000000000E+00  0.27901196576E+04  0.27901196576E+04  0.50400001928E-02 0.  1.
        1   -1    0    0  501    0  0.00000000000E+00  0.00000000000E+00 -0.39448374554E+03  0.39448374557E+03  0.50400001928E-02 0. -1.
    10030    2    1    2    0    0  0.00000000000E+00  0.00000000000E+00  0.23956359120E+04  0.31846034031E+04  0.20982438877E+04 0.  0.
        5    1    3    3  502    0 -0.28473792444E+03  0.52860653520E+03 -0.10791578560E+03  0.61005611336E+03  0.46999998093E+01 0. -1.
       -5    1    3    3    0  502  0.28473792444E+03 -0.52860653520E+03  0.25035516976E+04  0.25745472898E+04  0.46999998093E+01 0.  1.
</event>
<event>
 5   0  0.3480134E-06  0.2100178E+04  0.7818609E-02  0.8561165E-01
       -2   -1    0    0    0  501  0.00000000000E+00  0.00000000000E+00  0.12699329100E+04  0.12699329100E+04  0.25500000920E-02 0.  1.
        2   -1    0    0  501    0  0.00000000000E+00  0.00000000000E+00 -0.86830323656E+03  0.86830323656E+03  0.25500000920E-02 0. -1.
    10030    2    1    2    0    0  0.00000000000E+00  0.00000000000E+00  0.40162967342E+03  0.21382361465E+04  0.21001779505E+04 0.  0.
        1    1    3    3  502    0 -0.70838114875E+03  0.69124674384E+03  0.55797226899E+03  0.11362037519E+04  0.50400001928E-02 0.  1.
       -1    1    3    3    0  502  0.70838114875E+03 -0.69124674384E+03 -0.15634259557E+03  0.10020323947E+04  0.50400001928E-02 0. -1.
</event>
<event>
 5   0  0.1590067E-06  0.2101747E+04  0.7818609E-02  0.8560474E-01
       -1   -1    0    0    0  501  0.00000000000E+00  0.00000000000E+00  0.11676022430E+04  0.11676022430E+04  0.50400001928E-02 0.  1.
        1   -1    0    0  501    0  0.00000000000E+00  0.00000000000E+00 -0.94581486527E+03  0.94581486529E+03  0.50400001928E-02 0. -1.
    10030    2    1    2    0    0  0.00000000000E+00  0.00000000000E+00  0.22178737775E+03  0.21134171083E+04  0.21017474236E+04 0.  0.
        5    1    3    3  502    0 -0.62599207466E+03  0.50890574333E+03 -0.56624137773E+03  0.98564827448E+03  0.46999998093E+01 0. -1.
       -5    1    3    3    0  502  0.62599207466E+03 -0.50890574333E+03  0.78802875548E+03  0.11277688338E+04  0.46999998093E+01 0.  1.
</event>
<event>
 5   0  0.3547583E-06  0.2106344E+04  0.7818609E-02  0.8558454E-01
        2   -1    0    0  501    0  0.00000000000E+00  0.00000000000E+00  0.12028261256E+04  0.12028261256E+04  0.25500000920E-02 0. -1.
       -2   -1    0    0    0  501  0.00000000000E+00  0.00000000000E+00 -0.92213794356E+03  0.92213794357E+03  0.25500000920E-02 0.  1.
    10030    2    1    2    0    0  0.00000000000E+00  0.00000000000E+00  0.28068818203E+03  0.21249640692E+04  0.21063443308E+04 0.  0.
        2    1    3    3  502    0 -0.89907087322E+03  0.48087355065E+03  0.40650159055E+03  0.10976389889E+04  0.25500000920E-02 0. -1.
       -2    1    3    3    0  502  0.89907087322E+03 -0.48087355065E+03 -0.12581340853E+03  0.10273250803E+04  0.25500000920E-02 0.  1.
</event>
<event>
 5   0  0.1579820E-06  0.2099671E+04  0.7818609E-02  0.8561388E-01
       -1   -1    0    0    0  501  0.00000000000E+00  0.00000000000E+00  0.10785416654E+04  0.10785416654E+04  0.50400001928E-02 0. -1.
        1   -1    0    0  501    0  0.00000000000E+00  0.00000000000E+00 -0.10218933546E+04  0.10218933546E+04  0.50400001928E-02 0.  1.
    10030    2    1    2    0    0  0.00000000000E+00  0.00000000000E+00  0.56648310839E+02  0.21004350200E+04  0.20996709843E+04 0.  0.
        2    1    3    3  502    0 -0.59306397044E+03  0.24047554356E+03 -0.80420533029E+03  0.10277643569E+04  0.25500000920E-02 0.  1.
       -2    1    3    3    0  502  0.59306397044E+03 -0.24047554356E+03  0.86085364113E+03  0.10726706631E+04  0.25500000920E-02 0. -1.
</event>
<event>
 5   0  0.3705828E-06  0.2100183E+04  0.7818609E-02  0.8561163E-01
        2   -1    0    0  501    0  0.00000000000E+00  0.00000000000E+00  0.10072903229E+04  0.10072903229E+04  0.25500000920E-02 0.  1.
       -2   -1    0    0    0  501  0.00000000000E+00  0.00000000000E+00 -0.10947108796E+04  0.10947108796E+04  0.25500000920E-02 0. -1.
    10030    2    1    2    0    0  0.00000000000E+00  0.00000000000E+00 -0.87420556648E+02  0.21020012025E+04  0.21001825401E+04 0.  0.
        5    1    3    3  502    0  0.14303263111E+03  0.10376981184E+04  0.29796269270E+02  0.10479435225E+04  0.46999998093E+01 0. -1.
       -5    1    3    3    0  502 -0.14303263111E+03 -0.10376981184E+04 -0.11721682592E+03  0.10540576800E+04  0.46999998093E+01 0.  1.
</event>
<event>
 5   0  0.3636435E-06  0.2101036E+04  0.7818609E-02  0.8560787E-01
        2   -1    0    0  501    0  0.00000000000E+00  0.00000000000E+00  0.83587122723E+03  0.83587122724E+03  0.25500000920E-02 0. -1.
       -2   -1    0    0    0  501  0.00000000000E+00  0.00000000000E+00 -0.13202847012E+04  0.13202847012E+04  0.25500000920E-02 0.  1.
    10030    2    1    2    0    0  0.00000000000E+00  0.00000000000E+00 -0.48441347394E+03  0.21561559284E+04  0.21010359288E+04 0.  0.
        4    1    3    3  502    0  0.31707072801E+03  0.84922403264E+03 -0.78705044849E+03  0.12004854541E+04  0.12699999809E+01 0.  1.
       -4    1    3    3    0  502 -0.31707072801E+03 -0.84922403264E+03  0.30263697455E+03  0.95567047430E+03  0.12699999809E+01 0. -1.
</event>
<event>
 5   0  0.3636435E-06  0.2100763E+04  0.7818609E-02  0.8560907E-01
        2   -1    0    0  501    0  0.00000000000E+00  0.00000000000E+00  0.27530867712E+04  0.27530867712E+04  0.25500000920E-02 0. -1.
       -2   -1    0    0    0  501  0.00000000000E+00  0.00000000000E+00 -0.40075078739E+03  0.40075078740E+03  0.25500000920E-02 0.  1.
    10030    2    1    2    0    0  0.00000000000E+00  0.00000000000E+00  0.23523359838E+04  0.31538375586E+04  0.21007633768E+04 0.  0.
        4    1    3    3  502    0  0.72195253834E+03 -0.73681146278E+02  0.36126973070E+02  0.72660247042E+03  0.12699999809E+01 0.  1.
       -4    1    3    3    0  502 -0.72195253834E+03  0.73681146278E+02  0.23162090107E+04  0.24272350882E+04  0.12699999809E+01 0. -1.
</event>
<event>
 5   0  0.1590067E-06  0.2100885E+04  0.7818609E-02  0.8560854E-01
       -1   -1    0    0    0  501  0.00000000000E+00  0.00000000000E+00  0.94711268931E+03  0.94711268933E+03  0.50400001928E-02 0.  1.
        1   -1    0    0  501    0  0.00000000000E+00  0.00000000000E+00 -0.11650455099E+04  0.11650455099E+04  0.50400001928E-02 0. -1.
    10030    2    1    2    0    0  0.00000000000E+00  0.00000000000E+00 -0.21793282061E+03  0.21121581993E+04  0.21008849432E+04 0.  0.
        5    1    3    3  502    0  0.61036107307E+03  0.46743145310E+03 -0.82861076985E+03  0.11303321197E+04  0.46999998093E+01 0. -1.
       -5    1    3    3    0  502 -0.61036107307E+03 -0.46743145310E+03  0.61067794924E+03  0.98182607958E+03  0.46999998093E+01 0.  1.
</event>
<event>
 5   0  0.1257125E-06  0.2100129E+04  0.7818609E-02  0.8561186E-01
       -3   -1    0    0    0  501  0.00000000000E+00  0.00000000000E+00  0.15206739678E+04  0.15206739712E+04  0.10100000352E+00 0. -1.
        3   -1    0    0  501    0  0.00000000000E+00  0.00000000000E+00 -0.72509687368E+03  0.72509688071E+03  0.10100000352E+00 0.  1.
    10030    2    1    2    0    0  0.00000000000E+00  0.00000000000E+00  0.79557709414E+03  0.22457708519E+04  0.21001294737E+04 0.  0.
        2    1    3    3  502    0  0.18900099255E+03  0.51055697450E+03 -0.56239265274E+03  0.78273577614E+03  0.25500000920E-02 0.  1.
       -2    1    3    3    0  502 -0.18900099255E+03 -0.51055697450E+03  0.13579697469E+04  0.14630350757E+04  0.25500000920E-02 0. -1.
</event>
<event>
 5   0  0.1590067E-06  0.2100421E+04  0.7818609E-02  0.8561058E-01
        1   -1    0    0  501    0  0.00000000000E+00  0.00000000000E+00  0.12257007564E+04  0.12257007564E+04  0.50400001928E-02 0. -1.
       -1   -1    0    0    0  501  0.00000000000E+00  0.00000000000E+00 -0.89984652333E+03  0.89984652335E+03  0.50400001928E-02 0.  1.
    10030    2    1    2    0    0  0.00000000000E+00  0.00000000000E+00  0.32585423307E+03  0.21255472798E+04  0.21004214475E+04 0.  0.
        5    1    3    3  502    0 -0.10127957805E+04 -0.16533683428E+03 -0.62967057530E+02  0.10281432303E+04  0.46999998093E+01 0. -1.
       -5    1    3    3    0  502  0.10127957805E+04  0.16533683428E+03  0.38882129060E+03  0.10974040494E+04  0.46999998093E+01 0.  1.
</event>
<event>
 5   0  0.3480134E-06  0.2097878E+04  0.7818609E-02  0.8562179E-01
        2   -1    0    0  501    0  0.00000000000E+00  0.00000000000E+00  0.11404073971E+04  0.11404073971E+04  0.25500000920E-02 0. -1.
       -2   -1    0    0    0  501  0.00000000000E+00  0.00000000000E+00 -0.96480690206E+03  0.96480690206E+03  0.25500000920E-02 0.  1.
    10030    2    1    2    0    0  0.00000000000E+00  0.00000000000E+00  0.17560049501E+03  0.21052142991E+04  0.20978779067E+04 0.  0.
        1    1    3    3  502    0 -0.37710640879E+02  0.47271069332E+03 -0.85109737826E+03  0.97429166030E+03  0.50400001928E-02 0.  1.
       -1    1    3    3    0  502  0.37710640879E+02 -0.47271069332E+03  0.10266978733E+04  0.11309226388E+04  0.50400001928E-02 0. -1.
</event>
<event>
 5   0  0.3705828E-06  0.2097618E+04  0.7818609E-02  0.8562293E-01
       -2   -1    0    0    0  501  0.00000000000E+00  0.00000000000E+00  0.10336663110E+04  0.10336663110E+04  0.25500000920E-02 0.  1.
        2   -1    0    0  501    0  0.00000000000E+00  0.00000000000E+00 -0.10641739543E+04  0.10641739543E+04  0.25500000920E-02 0. -1.
    10030    2    1    2    0    0  0.00000000000E+00  0.00000000000E+00 -0.30507643337E+02  0.20978402653E+04  0.20976184263E+04 0.  0.
        5    1    3    3  502    0  0.11521994412E+03  0.62585194981E+03 -0.84901601222E+03  0.10610450403E+04  0.46999998093E+01 0. -1.
       -5    1    3    3    0  502 -0.11521994412E+03 -0.62585194981E+03  0.81850836889E+03  0.10367952250E+04  0.46999998093E+01 0.  1.
</event>
<event>
 5   0  0.1653260E-06  0.2099437E+04  0.7818609E-02  0.8561491E-01
        1   -1    0    0  501    0  0.00000000000E+00  0.00000000000E+00  0.19249859166E+04  0.19249859166E+04  0.50400001928E-02 0. -1.
       -1   -1    0    0    0  501  0.00000000000E+00  0.00000000000E+00 -0.57242442260E+03  0.57242442262E+03  0.50400001928E-02 0.  1.
    10030    2    1    2    0    0  0.00000000000E+00  0.00000000000E+00  0.13525614940E+04  0.24974103392E+04  0.20994370215E+04 0.  0.
        3    1    3    3  502    0 -0.14233939385E+03  0.73074474648E+03 -0.20404374505E+03  0.77193409541E+03  0.10100000352E+00 0.  1.
       -3    1    3    3    0  502  0.14233939385E+03 -0.73074474648E+03  0.15566052390E+04  0.17254762438E+04  0.10100000352E+00 0. -1.
</event>
<event>
 5   0  0.3636435E-06  0.2100206E+04  0.7818609E-02  0.8561153E-01
        2   -1    0    0  501    0  0.00000000000E+00  0.00000000000E+00  0.14426095935E+04  0.14426095935E+04  0.25500000920E-02 0. -1.
       -2   -1    0    0    0  501  0.00000000000E+00  0.00000000000E+00 -0.76438961156E+03  0.76438961156E+03  0.25500000920E-02 0.  1.
    10030    2    1    2    0    0  0.00000000000E+00  0.00000000000E+00  0.67821998192E+03  0.22069992050E+04  0.21002055012E+04 0.  0.
        4    1    3    3  502    0 -0.66709402979E+03  0.19580960017E+03 -0.48790118103E+03  0.84935564957E+03  0.12699999809E+01 0.  1.
       -4    1    3    3    0  502  0.66709402979E+03 -0.19580960017E+03  0.11661211629E+04  0.13576435555E+04  0.12699999809E+01 0. -1.
</event>
<event>
 5   0  0.3480134E-06  0.2100357E+04  0.7818609E-02  0.8561086E-01
        2   -1    0    0  501    0  0.00000000000E+00  0.00000000000E+00  0.11343234807E+04  0.11343234807E+04  0.25500000920E-02 0. -1.
       -2   -1    0    0    0  501  0.00000000000E+00  0.00000000000E+00 -0.97227522339E+03  0.97227522339E+03  0.25500000920E-02 0.  1.
    10030    2    1    2    0    0  0.00000000000E+00  0.00000000000E+00  0.16204825735E+03  0.21065987041E+04  0.21003567465E+04 0.  0.
        1    1    3    3  502    0 -0.22362648381E+03  0.10206355152E+04 -0.24973230562E+02  0.10451455982E+04  0.50400001928E-02 0.  1.
       -1    1    3    3    0  502  0.22362648381E+03 -0.10206355152E+04  0.18702148792E+03  0.10614531059E+04  0.50400001928E-02 0. -1.
</event>
<event>
 5   0  0.1653260E-06  0.2102805E+04  0.7818609E-02  0.8560009E-01
        1   -1    0    0  501    0  0.00000000000E+00  0.00000000000E+00  0.15670795504E+04  0.15670795504E+04  0.50400001928E-02 0. -1.
       -1   -1    0    0    0  501  0.00000000000E+00  0.00000000000E+00 -0.70541886919E+03  0.70541886921E+03  0.50400001928E-02 0.  1.
    10030    2    1    2    0    0  0.00000000000E+00  0.00000000000E+00  0.86166068121E+03  0.22724984196E+04  0.21028052543E+04 0.  0.
        3    1    3    3  502    0 -0.27307164188E+03 -0.13104041978E+03 -0.65724989610E+03  0.72368304480E+03  0.10100000352E+00 0.  1.
       -3    1    3    3    0  502  0.27307164188E+03  0.13104041978E+03  0.15189105773E+04  0.15488153748E+04  0.10100000352E+00 0. -1.
</event>
<event>
 5   0  0.3574927E-06  0.2100445E+04  0.7818609E-02  0.8561048E-01
       -2   -1    0    0    0  501  0.00000000000E+00  0.00000000000E+00  0.11192375311E+04  0.11192375311E+04  0.25500000920E-02 0.  1.
        2   -1    0    0  501    0  0.00000000000E+00  0.00000000000E+00 -0.98546270041E+03  0.98546270042E+03  0.25500000920E-02 0. -1.
    10030    2    1    2    0    0  0.00000000000E+00  0.00000000000E+00  0.13377483065E+03  0.21047002315E+04  0.21004445623E+04 0.  0.
        3    1    3    3  502    0  0.53628946592E+03  0.41735762510E+03 -0.73546775492E+03  0.10013523891E+04  0.10100000352E+00 0. -1.
       -3    1    3    3    0  502 -0.53628946592E+03 -0.41735762510E+03  0.86924258557E+03  0.11033478424E+04  0.10100000352E+00 0.  1.
</event>
<event>
 5   0  0.1653260E-06  0.2100602E+04  0.7818609E-02  0.8560978E-01
       -1   -1    0    0    0  501  0.00000000000E+00  0.00000000000E+00  0.21857466569E+04  0.21857466569E+04  0.50400001928E-02 0.  1.
        1   -1    0    0  501    0  0.00000000000E+00  0.00000000000E+00 -0.50469343771E+03  0.50469343774E+03  0.50400001928E-02 0. -1.
    10030    2    1    2    0    0  0.00000000000E+00  0.00000000000E+00  0.16810532192E+04  0.26904400946E+04  0.21006018131E+04 0.  0.
        3    1    3    3  502    0 -0.98688366978E+03 -0.25170807461E+03  0.51189437525E+03  0.11398825352E+04  0.10100000352E+00 0.  1.
       -3    1    3    3    0  502  0.98688366978E+03  0.25170807461E+03  0.11691588439E+04  0.15505575594E+04  0.10100000352E+00 0. -1.
</event>
<event>
 5   0  0.1590067E-06  0.2100388E+04  0.7818609E-02  0.8561073E-01
        1   -1    0    0  501    0  0.00000000000E+00  0.00000000000E+00  0.19978265357E+04  0.19978265357E+04  0.50400001928E-02 0. -1.
       -1   -1    0    0    0  501  0.00000000000E+00  0.00000000000E+00 -0.55205350190E+03  0.55205350192E+03  0.50400001928E-02 0.  1.
    10030    2    1    2    0    0  0.00000000000E+00  0.00000000000E+00  0.14457730338E+04  0.25498800376E+04  0.21003877121E+04 0.  0.
        5    1    3    3  502    0  0.12575690175E+02  0.67862995788E+03  0.16957490249E+04  0.18265496471E+04  0.46999998093E+01 0. -1.
       -5    1    3    3    0  502 -0.12575690175E+02 -0.67862995788E+03 -0.24997599115E+03  0.72333039052E+03  0.46999998093E+01 0.  1.
</event>
<event>
 5   0  0.1615098E-06  0.2099992E+04  0.7818609E-02  0.8561247E-01
        1   -1    0    0  501    0  0.00000000000E+00  0.00000000000E+00  0.14877998346E+04  0.14877998347E+04  0.50400001928E-02 0.  1.
       -1   -1    0    0    0  501  0.00000000000E+00  0.00000000000E+00 -0.74102157284E+03  0.74102157286E+03  0.50400001928E-02 0. -1.
    10030    2    1    2    0    0  0.00000000000E+00  0.00000000000E+00  0.74677826181E+03  0.22288214075E+04  0.20999921653E+04 0.  0.
        1    1    3    3  502    0 -0.72327451759E+03 -0.45417087224E+02 -0.43302757460E+03  0.84421657174E+03  0.50400001928E-02 0. -1.
       -1    1    3    3    0  502  0.72327451759E+03  0.45417087224E+02  0.11798058364E+04  0.13846048358E+04  0.50400001928E-02 0.  1.
</event>
<event>
 5   0  0.1615098E-06  0.2099350E+04  0.7818609E-02  0.8561530E-01
        1   -1    0    0  501    0  0.00000000000E+00  0.00000000000E+00  0.16226266894E+04  0.16226266894E+04  0.50400001928E-02 0.  1.
       -1   -1    0    0    0  501  0.00000000000E+00  0.00000000000E+00 -0.67903326919E+03  0.67903326921E+03  0.50400001928E-02 0. -1.
    10030    2    1    2    0    0  0.00000000000E+00  0.00000000000E+00  0.94359342021E+03  0.23016599586E+04  0.20993499047E+04 0.  0.
        1    1    3    3  502    0 -0.41080603225E+03 -0.62443293280E+02  0.15286162259E+04  0.15840859595E+04  0.50400001928E-02 0.  1.
       -1    1    3    3    0  502  0.41080603225E+03  0.62443293280E+02 -0.58502280568E+03  0.71757399911E+03  0.50400001928E-02 0. -1.
</event>
<event>
 5   0  0.3574927E-06  0.2099925E+04  0.7818609E-02  0.8561277E-01
       -2   -1    0    0    0  501  0.00000000000E+00  0.00000000000E+00  0.52602463906E+03  0.52602463906E+03  0.25500000920E-02 0.  1.
        2   -1    0    0  501    0  0.00000000000E+00  0.00000000000E+00 -0.20957591455E+04  0.20957591455E+04  0.25500000920E-02 0. -1.
    10030    2    1    2    0    0  0.00000000000E+00  0.00000000000E+00 -0.15697345064E+04  0.26217837845E+04  0.20999247111E+04 0.  0.
        3    1    3    3  502    0  0.99415504295E+03 -0.16872005060E+03 -0.11501725659E+04  0.15296102924E+04  0.10100000352E+00 0.  1.
       -3    1    3    3    0  502 -0.99415504295E+03  0.16872005060E+03 -0.41956194049E+03  0.10921734922E+04  0.10100000352E+00 0. -1.
</event>
<event>
 5   0  0.1615098E-06  0.2100011E+04  0.7818609E-02  0.8561238E-01
       -1   -1    0    0    0  501  0.00000000000E+00  0.00000000000E+00  0.12234617132E+04  0.12234617132E+04  0.50400001928E-02 0. -1.
        1   -1    0    0  501    0  0.00000000000E+00  0.00000000000E+00 -0.90114117657E+03  0.90114117659E+03  0.50400001928E-02 0.  1.
    10030    2    1    2    0    0  0.00000000000E+00  0.00000000000E+00  0.32232053666E+03  0.21246028898E+04  0.21000111693E+04 0.  0.
        1    1    3    3  502    0  0.59819664996E+03  0.35274398517E+03 -0.63561805602E+03  0.94142331831E+03  0.50400001928E-02 0.  1.
       -1    1    3    3    0  502 -0.59819664996E+03 -0.35274398517E+03  0.95793859268E+03  0.11831795715E+04  0.50400001928E-02 0. -1.
</event>
<event>
 5   0  0.1579820E-06  0.2099958E+04  0.7818609E-02  0.8561262E-01
       -1   -1    0    0    0  501  0.00000000000E+00  0.00000000000E+00  0.72289668990E+03  0.72289668991E+03  0.50400001928E-02 0. -1.
        1   -1    0    0  501    0  0.00000000000E+00  0.00000000000E+00 -0.15250528847E+04  0.15250528847E+04  0.50400001928E-02 0.  1.
    10030    2    1    2    0    0  0.00000000000E+00  0.00000000000E+00 -0.80215619479E+03  0.22479495746E+04  0.20999577922E+04 0.  0.
        2    1    3    3  502    0  0.10403625316E+04 -0.62661711202E+02 -0.26493423147E+03  0.10753933393E+04  0.25500000920E-02 0. -1.
       -2    1    3    3    0  502 -0.10403625316E+04  0.62661711202E+02 -0.53722196332E+03  0.11725562353E+04  0.25500000920E-02 0.  1.
</event>
<event>
 5   0  0.1590067E-06  0.2099607E+04  0.7818609E-02  0.8561417E-01
        1   -1    0    0  501    0  0.00000000000E+00  0.00000000000E+00  0.45158112099E+03  0.45158112102E+03  0.50400001928E-02 0.  1.
       -1   -1    0    0    0  501  0.00000000000E+00  0.00000000000E+00 -0.24405076547E+04  0.24405076547E+04  0.50400001928E-02 0. -1.
    10030    2    1    2    0    0  0.00000000000E+00  0.00000000000E+00 -0.19889265337E+04  0.28920887757E+04  0.20996068037E+04 0.  0.
        5    1    3    3  502    0  0.46467252374E+03 -0.23720099457E+02 -0.22907110097E+04  0.23374905812E+04  0.46999998093E+01 0. -1.
       -5    1    3    3    0  502 -0.46467252374E+03  0.23720099457E+02  0.30178447596E+03  0.55459819452E+03  0.46999998093E+01 0.  1.
</event>
<event>
 5   0  0.3480134E-06  0.2100138E+04  0.7818609E-02  0.8561183E-01
       -2   -1    0    0    0  501  0.00000000000E+00  0.00000000000E+00  0.67865416040E+03  0.67865416041E+03  0.25500000920E-02 0. -1.
        2   -1    0    0  501    0  0.00000000000E+00  0.00000000000E+00 -0.16247520770E+04  0.16247520770E+04  0.25500000920E-02 0.  1.
    10030    2    1    2    0    0  0.00000000000E+00  0.00000000000E+00 -0.94609791658E+03  0.23034062374E+04  0.21001378590E+04 0.  0.
        1    1    3    3  502    0  0.73560881079E+03 -0.61838397711E+03 -0.88526588995E+01  0.96103976778E+03  0.50400001928E-02 0. -1.
       -1    1    3    3    0  502 -0.73560881079E+03  0.61838397711E+03 -0.93724525768E+03  0.13423664696E+04  0.50400001928E-02 0.  1.
</event>
<event>
 5   0  0.3574927E-06  0.2092450E+04  0.7818609E-02  0.8564576E-01
       -2   -1    0    0    0  501  0.00000000000E+00  0.00000000000E+00  0.51368164845E+03  0.51368164846E+03  0.25500000920E-02 0.  1.
        2   -1    0    0  501    0  0.00000000000E+00  0.00000000000E+00 -0.21308666352E+04  0.21308666352E+04  0.25500000920E-02 0. -1.
    10030    2    1    2    0    0  0.00000000000E+00  0.00000000000E+00 -0.16171849868E+04  0.26445482837E+04  0.20924503204E+04 0.  0.
        3    1    3    3  502    0  0.66348644258E+03 -0.45584936422E+02  0.21215497894E+03  0.69807019075E+03  0.10100000352E+00 0.  1.
       -3    1    3    3    0  502 -0.66348644258E+03  0.45584936422E+02 -0.18293399657E+04  0.19464780929E+04  0.10100000352E+00 0. -1.
</event>
<event>
 5   0  0.1646510E-06  0.2099756E+04  0.7818609E-02  0.8561351E-01
        1   -1    0    0  501    0  0.00000000000E+00  0.00000000000E+00  0.94397527592E+03  0.94397527593E+03  0.50400001928E-02 0. -1.
       -1   -1    0    0    0  501  0.00000000000E+00  0.00000000000E+00 -0.11676612227E+04  0.11676612227E+04  0.50400001928E-02 0.  1.
    10030    2    1    2    0    0  0.00000000000E+00  0.00000000000E+00 -0.22368594675E+03  0.21116364986E+04  0.20997555333E+04 0.  0.
        4    1    3    3  502    0 -0.48198664158E+03  0.72834845817E+03  0.47406764319E+03  0.99375265655E+03  0.12699999809E+01 0. -1.
       -4    1    3    3    0  502  0.48198664158E+03 -0.72834845817E+03 -0.69775358994E+03  0.11178838421E+04  0.12699999809E+01 0.  1.
</event>
<event>
 5   0  0.1579820E-06  0.2099539E+04  0.7818609E-02  0.8561447E-01
       -1   -1    0    0    0  501  0.00000000000E+00  0.00000000000E+00  0.93778152352E+03  0.93778152353E+03  0.50400001928E-02 0. -1.
        1   -1    0    0  501    0  0.00000000000E+00  0.00000000000E+00 -0.11751306705E+04  0.11751306705E+04  0.50400001928E-02 0.  1.
    10030    2    1    2    0    0  0.00000000000E+00  0.00000000000E+00 -0.23734914694E+03  0.21129121940E+04  0.20995388356E+04 0.  0.
        2    1    3    3  502    0  0.35044081273E+03  0.22824922147E+03  0.85032373767E+03  0.94760589339E+03  0.25500000920E-02 0. -1.
       -2    1    3    3    0  502 -0.35044081273E+03 -0.22824922147E+03 -0.10876728846E+04  0.11653063006E+04  0.25500000920E-02 0.  1.
</event>
<event>
 5   0  0.1646510E-06  0.2100265E+04  0.7818609E-02  0.8561127E-01
        1   -1    0    0  501    0  0.00000000000E+00  0.00000000000E+00  0.17682410953E+04  0.17682410953E+04  0.50400001928E-02 0. -1.
       -1   -1    0    0    0  501  0.00000000000E+00  0.00000000000E+00 -0.62365830549E+03  0.62365830551E+03  0.50400001928E-02 0.  1.
    10030    2    1    2    0    0  0.00000000000E+00  0.00000000000E+00  0.11445827898E+04  0.23918994008E+04  0.21002649787E+04 0.  0.
        4    1    3    3  502    0  0.42154921070E+03  0.65901863713E+03 -0.22553177013E+03  0.81417166087E+03  0.12699999809E+01 0.  1.
       -4    1    3    3    0  502 -0.42154921070E+03 -0.65901863713E+03  0.13701145599E+04  0.15777277399E+04  0.12699999809E+01 0. -1.
</event>
<event>
 5   0  0.1615098E-06  0.2100723E+04  0.7818609E-02  0.8560925E-01
       -1   -1    0    0    0  501  0.00000000000E+00  0.00000000000E+00  0.85819553704E+03  0.85819553705E+03  0.50400001928E-02 0.  1.
        1   -1    0    0  501    0  0.00000000000E+00  0.00000000000E+00 -0.12855571580E+04  0.12855571581E+04  0.50400001928E-02 0. -1.
    10030    2    1    2    0    0  0.00000000000E+00  0.00000000000E+00 -0.42736162101E+03  0.21437526951E+04  0.21007231285E+04 0.  0.
        1    1    3    3  502    0 -0.98597530918E+03 -0.21362048672E+03  0.84674684371E+02  0.10123985504E+04  0.50400001928E-02 0.  1.
       -1    1    3    3    0  502  0.98597530918E+03  0.21362048672E+03 -0.51203630538E+03  0.11313541447E+04  0.50400001928E-02 0. -1.
</event>
<event>
 5   0  0.1257125E-06  0.2099649E+04  0.7818609E-02  0.8561398E-01
        3   -1    0    0  501    0  0.00000000000E+00  0.00000000000E+00  0.13879433853E+04  0.13879433889E+04  0.10100000352E+00 0.  1.
       -3   -1    0    0    0  501  0.00000000000E+00  0.00000000000E+00 -0.79407526002E+03  0.79407526644E+03  0.10100000352E+00 0. -1.
    10030    2    1    2    0    0  0.00000000000E+00  0.00000000000E+00  0.59386812523E+03  0.21820186554E+04  0.20996490331E+04 0.  0.
        3    1    3    3  502    0  0.96578661600E+03 -0.38183175976E+03  0.13731079268E+03  0.10475655323E+04  0.10100000352E+00 0.  1.
       -3    1    3    3    0  502 -0.96578661600E+03  0.38183175976E+03  0.45655733256E+03  0.11344531231E+04  0.10100000352E+00 0. -1.
</event>
<event>
 5   0  0.1615098E-06  0.2099466E+04  0.7818609E-02  0.8561479E-01
        1   -1    0    0  501    0  0.00000000000E+00  0.00000000000E+00  0.11675177141E+04  0.11675177141E+04  0.50400001928E-02 0. -1.
       -1   -1    0    0    0  501  0.00000000000E+00  0.00000000000E+00 -0.94383100093E+03  0.94383100095E+03  0.50400001928E-02 0.  1.
    10030    2    1    2    0    0  0.00000000000E+00  0.00000000000E+00  0.22368671320E+03  0.21113487151E+04  0.20994660395E+04 0.  0.
        1    1    3    3  502    0  0.93226543163E+03  0.22585537361E+03  0.54064842662E+03  0.11011040850E+04  0.50400001928E-02 0. -1.
       -1    1    3    3    0  502 -0.93226543163E+03 -0.22585537361E+03 -0.31696171342E+03  0.10102446301E+04  0.50400001928E-02 0.  1.
</event>
<event>
 5   0  0.3636435E-06  0.2097884E+04  0.7818609E-02  0.8562176E-01
        2   -1    0    0  501    0  0.00000000000E+00  0.00000000000E+00  0.11252980657E+04  0.11252980657E+04  0.25500000920E-02 0. -1.
       -2   -1    0    0    0  501  0.00000000000E+00  0.00000000000E+00 -0.97776740345E+03  0.97776740345E+03  0.25500000920E-02 0.  1.
    10030    2    1    2    0    0  0.00000000000E+00  0.00000000000E+00  0.14753066224E+03  0.21030654691E+04  0.20978844275E+04 0.  0.
        4    1    3    3  502    0  0.10419301385E+04 -0.11871777017E+03  0.49919351612E+02  0.10498599321E+04  0.12699999809E+01 0.  1.
       -4    1    3    3    0  502 -0.10419301385E+04  0.11871777017E+03  0.97611310623E+02  0.10532055371E+04  0.12699999809E+01 0. -1.
</event>
<event>
 5   0  0.3636435E-06  0.2099829E+04  0.7818609E-02  0.8561319E-01
       -2   -1    0    0    0  501  0.00000000000E+00  0.00000000000E+00  0.11370000254E+04  0.11370000254E+04  0.25500000920E-02 0. -1.
        2   -1    0    0  501    0  0.00000000000E+00  0.00000000000E+00 -0.96949908263E+03  0.96949908264E+03  0.25500000920E-02 0.  1.
    10030    2    1    2    0    0  0.00000000000E+00  0.00000000000E+00  0.16750094274E+03  0.21064991080E+04  0.20998290231E+04 0.  0.
        4    1    3    3  502    0  0.66786783695E+03 -0.48124060594E+03 -0.56999348572E+03  0.10012662758E+04  0.12699999809E+01 0.  1.
       -4    1    3    3    0  502 -0.66786783695E+03  0.48124060594E+03  0.73749442847E+03  0.11052328322E+04  0.12699999809E+01 0. -1.
</event>
<event>
 5   0  0.1615098E-06  0.2107055E+04  0.7818609E-02  0.8558142E-01
        1   -1    0    0  501    0  0.00000000000E+00  0.00000000000E+00  0.88700670646E+03  0.88700670648E+03  0.50400001928E-02 0.  1.
       -1   -1    0    0    0  501  0.00000000000E+00  0.00000000000E+00 -0.12513097527E+04  0.12513097527E+04  0.50400001928E-02 0. -1.
    10030    2    1    2    0    0  0.00000000000E+00  0.00000000000E+00 -0.36430304621E+03  0.21383164592E+04  0.21070549518E+04 0.  0.
        1    1    3    3  502    0  0.26995888316E+03 -0.56295610796E+03 -0.10433423331E+04  0.12158785310E+04  0.50400001928E-02 0. -1.
       -1    1    3    3    0  502 -0.26995888316E+03  0.56295610796E+03  0.67903928691E+03  0.92243792814E+03  0.50400001928E-02 0.  1.
</event>
<event>
 5   0  0.1646510E-06  0.2100066E+04  0.7818609E-02  0.8561214E-01
       -1   -1    0    0    0  501  0.00000000000E+00  0.00000000000E+00  0.67879272644E+03  0.67879272646E+03  0.50400001928E-02 0. -1.
        1   -1    0    0  501    0  0.00000000000E+00  0.00000000000E+00 -0.16243091741E+04  0.16243091741E+04  0.50400001928E-02 0.  1.
    10030    2    1    2    0    0  0.00000000000E+00  0.00000000000E+00 -0.94551644765E+03  0.23031019006E+04  0.21000659541E+04 0.  0.
        4    1    3    3  502    0  0.70043622262E+03  0.71541055671E+03 -0.81980955377E+03  0.12940295530E+04  0.12699999809E+01 0.  1.
       -4    1    3    3    0  502 -0.70043622262E+03 -0.71541055671E+03 -0.12570689388E+03  0.10090723476E+04  0.12699999809E+01 0. -1.
</event>
<event>
 5   0  0.3636435E-06  0.2100157E+04  0.7818609E-02  0.8561174E-01
        2   -1    0    0  501    0  0.00000000000E+00  0.00000000000E+00  0.13198073726E+04  0.13198073726E+04  0.25500000920E-02 0. -1.
       -2   -1    0    0    0  501  0.00000000000E+00  0.00000000000E+00 -0.83547416729E+03  0.83547416729E+03  0.25500000920E-02 0.  1.
    10030    2    1    2    0    0  0.00000000000E+00  0.00000000000E+00  0.48433320532E+03  0.21552815399E+04  0.21001571042E+04 0.  0.
        4    1    3    3  502    0 -0.30659700662E+03  0.87334558914E+03 -0.26676239254E+03  0.96327463868E+03  0.12699999809E+01 0.  1.
       -4    1    3    3    0  502  0.30659700662E+03 -0.87334558914E+03  0.75109559786E+03  0.11920069012E+04  0.12699999809E+01 0. -1.
</event>
<event>
 5   0  0.3636435E-06  0.2100926E+04  0.7818609E-02  0.8560836E-01
       -2   -1    0    0    0  501  0.00000000000E+00  0.00000000000E+00  0.11157240551E+04  0.11157240551E+04  0.25500000920E-02 0. -1.
        2   -1    0    0  501    0  0.00000000000E+00  0.00000000000E+00 -0.98901932725E+03  0.98901932725E+03  0.25500000920E-02 0.  1.
    10030    2    1    2    0    0  0.00000000000E+00  0.00000000000E+00  0.12670472790E+03  0.21047433824E+04  0.21009261333E+04 0.  0.
        4    1    3    3  502    0 -0.63330701868E+03  0.13824757930E+03  0.89146230823E+03  0.11022235858E+04  0.12699999809E+01 0. -1.
       -4    1    3    3    0  502  0.63330701868E+03 -0.13824757930E+03 -0.76475758033E+03  0.10025197966E+04  0.12699999809E+01 0.  1.
</event>
<event>
 5   0  0.3705828E-06  0.2100135E+04  0.7818609E-02  0.8561184E-01
       -2   -1    0    0    0  501  0.00000000000E+00  0.00000000000E+00  0.10847144488E+04  0.10847144488E+04  0.25500000920E-02 0. -1.
        2   -1    0    0  501    0  0.00000000000E+00  0.00000000000E+00 -0.10165269626E+04  0.10165269626E+04  0.25500000920E-02 0.  1.
    10030    2    1    2    0    0  0.00000000000E+00  0.00000000000E+00  0.68187486210E+02  0.21012414114E+04  0.21001347423E+04 0.  0.
        5    1    3    3  502    0 -0.48222787339E+03 -0.87235981517E+03  0.36451619710E+03  0.10613432607E+04  0.46999998093E+01 0.  1.
       -5    1    3    3    0  502  0.48222787339E+03  0.87235981517E+03 -0.29632871089E+03  0.10398981507E+04  0.46999998093E+01 0. -1.
</event>
<event>
 5   0  0.3480134E-06  0.2101330E+04  0.7818609E-02  0.8560658E-01
        2   -1    0    0  501    0  0.00000000000E+00  0.00000000000E+00  0.67907531237E+03  0.67907531237E+03  0.25500000920E-02 0.  1.
       -2   -1    0    0    0  501  0.00000000000E+00  0.00000000000E+00 -0.16255880526E+04  0.16255880526E+04  0.25500000920E-02 0. -1.
    10030    2    1    2    0    0  0.00000000000E+00  0.00000000000E+00 -0.94651274023E+03  0.23046633650E+04  0.21013297834E+04 0.  0.
        1    1    3    3  502    0 -0.73899942145E+03  0.40616925684E+03 -0.11606424578E+04  0.14346374193E+04  0.50400001928E-02 0. -1.
       -1    1    3    3    0  502  0.73899942145E+03 -0.40616925684E+03  0.21412971757E+03  0.87002594563E+03  0.50400001928E-02 0.  1.
</event>
<event>
 5   0  0.1590067E-06  0.2099136E+04  0.7818609E-02  0.8561624E-01
       -1   -1    0    0    0  501  0.00000000000E+00  0.00000000000E+00  0.11403955869E+04  0.11403955869E+04  0.50400001928E-02 0.  1.
        1   -1    0    0  501    0  0.00000000000E+00  0.00000000000E+00 -0.96597455721E+03  0.96597455723E+03  0.50400001928E-02 0. -1.
    10030    2    1    2    0    0  0.00000000000E+00  0.00000000000E+00  0.17442102968E+03  0.21063701441E+04  0.20991361291E+04 0.  0.
        5    1    3    3  502    0  0.46929938976E+03 -0.38650421960E+03 -0.77127485165E+03  0.98209694826E+03  0.46999998093E+01 0. -1.
       -5    1    3    3    0  502 -0.46929938976E+03  0.38650421960E+03  0.94569588133E+03  0.11242731959E+04  0.46999998093E+01 0.  1.
</event>
<event>
 5   0  0.3705828E-06  0.2100176E+04  0.7818609E-02  0.8561166E-01
        2   -1    0    0  501    0  0.00000000000E+00  0.00000000000E+00  0.22514315587E+04  0.22514315587E+04  0.25500000920E-02 0. -1.
       -2   -1    0    0    0  501  0.00000000000E+00  0.00000000000E+00 -0.48977056997E+03  0.48977056998E+03  0.25500000920E-02 0.  1.
    10030    2    1    2    0    0  0.00000000000E+00  0.00000000000E+00  0.17616609888E+04  0.27412021287E+04  0.21001761048E+04 0.  0.
        5    1    3    3  502    0 -0.87442177419E+03  0.34043986436E+03  0.14960195373E+04  0.17659584611E+04  0.46999998093E+01 0. -1.
       -5    1    3    3    0  502  0.87442177419E+03 -0.34043986436E+03  0.26564145144E+03  0.97524366758E+03  0.46999998093E+01 0.  1.
</event>
<event>
 5   0  0.1579820E-06  0.2099002E+04  0.7818609E-02  0.8561683E-01
       -1   -1    0    0    0  501  0.00000000000E+00  0.00000000000E+00  0.71213310996E+03  0.71213310998E+03  0.50400001928E-02 0. -1.
        1   -1    0    0  501    0  0.00000000000E+00  0.00000000000E+00 -0.15466944443E+04  0.15466944443E+04  0.50400001928E-02 0.  1.
    10030    2    1    2    0    0  0.00000000000E+00  0.00000000000E+00 -0.83456133435E+03  0.22588275543E+04  0.20990019770E+04 0.  0.
        2    1    3    3  502    0 -0.61470491390E+03  0.44604567718E+03  0.36218720051E+03  0.84142643500E+03  0.25500000920E-02 0. -1.
       -2    1    3    3    0  502  0.61470491390E+03 -0.44604567718E+03 -0.11967485349E+04  0.14174011193E+04  0.25500000920E-02 0.  1.
</event>
<event>
 5   0  0.3705828E-06  0.2099856E+04  0.7818609E-02  0.8561307E-01
        2   -1    0    0  501    0  0.00000000000E+00  0.00000000000E+00  0.11114311964E+04  0.11114311965E+04  0.25500000920E-02 0. -1.
       -2   -1    0    0    0  501  0.00000000000E+00  0.00000000000E+00 -0.99182843374E+03  0.99182843374E+03  0.25500000920E-02 0.  1.
    10030    2    1    2    0    0  0.00000000000E+00  0.00000000000E+00  0.11960276271E+03  0.21032596302E+04  0.20998562454E+04 0.  0.
        5    1    3    3  502    0 -0.10141951962E+04 -0.26821309059E+03  0.17343825370E+02  0.10492154479E+04  0.46999998093E+01 0. -1.
       -5    1    3    3    0  502  0.10141951962E+04  0.26821309059E+03  0.10225893734E+03  0.10540441823E+04  0.46999998093E+01 0.  1.
</event>
<event>
 5   0  0.1653260E-06  0.2099990E+04  0.7818609E-02  0.8561248E-01
       -1   -1    0    0    0  501  0.00000000000E+00  0.00000000000E+00  0.80081372810E+03  0.80081372811E+03  0.50400001928E-02 0. -1.
        1   -1    0    0  501    0  0.00000000000E+00  0.00000000000E+00 -0.13767112279E+04  0.13767112279E+04  0.50400001928E-02 0.  1.
    10030    2    1    2    0    0  0.00000000000E+00  0.00000000000E+00 -0.57589749978E+03  0.21775249560E+04  0.20999897628E+04 0.  0.
        3    1    3    3  502    0 -0.18031682271E+03 -0.10324441392E+04 -0.22208843643E+03  0.10713441748E+04  0.10100000352E+00 0. -1.
       -3    1    3    3    0  502  0.18031682271E+03  0.10324441392E+04 -0.35380906335E+03  0.11061807812E+04  0.10100000352E+00 0.  1.
</event>
<event>
 5   0  0.1646510E-06  0.2099630E+04  0.7818609E-02  0.8561406E-01
       -1   -1    0    0    0  501  0.00000000000E+00  0.00000000000E+00  0.87179021769E+03  0.87179021771E+03  0.50400001928E-02 0.  1.
        1   -1    0    0  501    0  0.00000000000E+00  0.00000000000E+00 -0.12641935101E+04  0.12641935102E+04  0.50400001928E-02 0. -1.
    10030    2    1    2    0    0  0.00000000000E+00  0.00000000000E+00 -0.39240329245E+03  0.21359837279E+04  0.20996300012E+04 0.  0.
        4    1    3    3  502    0  0.47311026473E+03 -0.93670541155E+03 -0.22602773312E+03  0.10734712384E+04  0.12699999809E+01 0. -1.
       -4    1    3    3    0  502 -0.47311026473E+03  0.93670541155E+03 -0.16637555933E+03  0.10625124895E+04  0.12699999809E+01 0.  1.
</event>
<event>
 5   0  0.1653260E-06  0.2103264E+04  0.7818609E-02  0.8559807E-01
        1   -1    0    0  501    0  0.00000000000E+00  0.00000000000E+00  0.17131987592E+04  0.17131987593E+04  0.50400001928E-02 0. -1.
       -1   -1    0    0    0  501  0.00000000000E+00  0.00000000000E+00 -0.64553494393E+03  0.64553494395E+03  0.50400001928E-02 0.  1.
    10030    2    1    2    0    0  0.00000000000E+00  0.00000000000E+00  0.10676638153E+04  0.23587337032E+04  0.21032638113E+04 0.  0.
        3    1    3    3  502    0 -0.66720718458E+03  0.13467821246E+03 -0.36517765597E+03  0.77243665028E+03  0.10100000352E+00 0.  1.
       -3    1    3    3    0  502  0.66720718458E+03 -0.13467821246E+03  0.14328414713E+04  0.15862970529E+04  0.10100000352E+00 0. -1.
</event>
<event>
 5   0  0.1653260E-06  0.2098619E+04  0.7818609E-02  0.8561852E-01
        1   -1    0    0  501    0  0.00000000000E+00  0.00000000000E+00  0.14317899056E+04  0.14317899056E+04  0.50400001928E-02 0.  1.
       -1   -1    0    0    0  501  0.00000000000E+00  0.00000000000E+00 -0.76900250737E+03  0.76900250738E+03  0.50400001928E-02 0. -1.
    10030    2    1    2    0    0  0.00000000000E+00  0.00000000000E+00  0.66278739827E+03  0.22007924130E+04  0.20986186195E+04 0.  0.
        3    1    3    3  502    0 -0.50951575335E+03 -0.69829151739E+03  0.95519248336E+03  0.12882585286E+04  0.10100000352E+00 0.  1.
       -3    1    3    3    0  502  0.50951575335E+03  0.69829151739E+03 -0.29240508508E+03  0.91253388438E+03  0.10100000352E+00 0. -1.
</event>
<event>
 5   0  0.3547583E-06  0.2098800E+04  0.7818609E-02  0.8561772E-01
        2   -1    0    0  501    0  0.00000000000E+00  0.00000000000E+00  0.89548719211E+03  0.89548719211E+03  0.25500000920E-02 0.  1.
       -2   -1    0    0    0  501  0.00000000000E+00  0.00000000000E+00 -0.12297661924E+04  0.12297661924E+04  0.25500000920E-02 0. -1.
    10030    2    1    2    0    0  0.00000000000E+00  0.00000000000E+00 -0.33427900024E+03  0.21252533845E+04  0.20987995374E+04 0.  0.
        2    1    3    3  502    0  0.43309154555E+03 -0.24391104964E+03  0.76872763961E+03  0.91542507660E+03  0.25500000920E-02 0.  1.
       -2    1    3    3    0  502 -0.43309154555E+03  0.24391104964E+03 -0.11030066399E+04  0.12098283079E+04  0.25500000920E-02 0. -1.
</event>
<event>
 5   0  0.1590067E-06  0.2101260E+04  0.7818609E-02  0.8560689E-01
       -1   -1    0    0    0  501  0.00000000000E+00  0.00000000000E+00  0.66748029167E+03  0.66748029169E+03  0.50400001928E-02 0.  1.
        1   -1    0    0  501    0  0.00000000000E+00  0.00000000000E+00 -0.16537165676E+04  0.16537165676E+04  0.50400001928E-02 0. -1.
    10030    2    1    2    0    0  0.00000000000E+00  0.00000000000E+00 -0.98623627596E+03  0.23211968593E+04  0.21012598287E+04 0.  0.
        5    1    3    3  502    0  0.99968916444E+03  0.32308176738E+03 -0.48605576665E+03  0.11575977506E+04  0.46999998093E+01 0.  1.
       -5    1    3    3    0  502 -0.99968916444E+03 -0.32308176738E+03 -0.50018050931E+03  0.11635991087E+04  0.46999998093E+01 0. -1.
</event>
<event>
 5   0  0.1579820E-06  0.2100192E+04  0.7818609E-02  0.8561159E-01
       -1   -1    0    0    0  501  0.00000000000E+00  0.00000000000E+00  0.13834200655E+04  0.13834200655E+04  0.50400001928E-02 0. -1.
        1   -1    0    0  501    0  0.00000000000E+00  0.00000000000E+00 -0.79708352040E+03  0.79708352041E+03  0.50400001928E-02 0.  1.
    10030    2    1    2    0    0  0.00000000000E+00  0.00000000000E+00  0.58633654514E+03  0.21805035860E+04  0.21001917399E+04 0.  0.
        2    1    3    3  502    0  0.79545638183E+03  0.49397755448E+03 -0.20033633048E+03  0.95754860192E+03  0.25500000920E-02 0.  1.
       -2    1    3    3    0  502 -0.79545638183E+03 -0.49397755448E+03  0.78667287562E+03  0.12229549840E+04  0.25500000920E-02 0. -1.
</event>
<event>
 5   0  0.1653260E-06  0.2100183E+04  0.7818609E-02  0.8561163E-01
        1   -1    0    0  501    0  0.00000000000E+00  0.00000000000E+00  0.13959704335E+04  0.13959704335E+04  0.50400001928E-02 0.  1.
       -1   -1    0    0    0  501  0.00000000000E+00  0.00000000000E+00 -0.78991070293E+03  0.78991070295E+03  0.50400001928E-02 0. -1.
    10030    2    1    2    0    0  0.00000000000E+00  0.00000000000E+00  0.60605973058E+03  0.21858811365E+04  0.21001828363E+04 0.  0.
        3    1    3    3  502    0  0.27850523020E+03 -0.52274045129E+03  0.12055161162E+04  0.13431648668E+04  0.10100000352E+00 0.  1.
       -3    1    3    3    0  502 -0.27850523020E+03  0.52274045129E+03 -0.59945638566E+03  0.84271626968E+03  0.10100000352E+00 0. -1.
</event>
<event>
 5   0  0.3480134E-06  0.2100483E+04  0.7818609E-02  0.8561031E-01
        2   -1    0    0  501    0  0.00000000000E+00  0.00000000000E+00  0.72963070603E+03  0.72963070604E+03  0.25500000920E-02 0. -1.
       -2   -1    0    0    0  501  0.00000000000E+00  0.00000000000E+00 -0.15117330460E+04  0.15117330460E+04  0.25500000920E-02 0.  1.
    10030    2    1    2    0    0  0.00000000000E+00  0.00000000000E+00 -0.78210233994E+03  0.22413637520E+04  0.21004826585E+04 0.  0.
        1    1    3    3  502    0 -0.10111485182E+03  0.11069023339E+03 -0.15002559191E+04  0.15077282129E+04  0.50400001928E-02 0.  1.
       -1    1    3    3    0  502  0.10111485182E+03 -0.11069023339E+03  0.71815357916E+03  0.73363553916E+03  0.50400001928E-02 0. -1.
</event>
<event>
 5   0  0.3547583E-06  0.2100148E+04  0.7818609E-02  0.8561178E-01
       -2   -1    0    0    0  501  0.00000000000E+00  0.00000000000E+00  0.59456588505E+03  0.59456588506E+03  0.25500000920E-02 0. -1.
        2   -1    0    0  501    0  0.00000000000E+00  0.00000000000E+00 -0.18545562865E+04  0.18545562865E+04  0.25500000920E-02 0.  1.
    10030    2    1    2    0    0  0.00000000000E+00  0.00000000000E+00 -0.12599904014E+04  0.24491221715E+04  0.21001484708E+04 0.  0.
        2    1    3    3  502    0 -0.79011272536E+03 -0.66001073078E+03 -0.38883942729E+03  0.11004946087E+04  0.25500000920E-02 0. -1.
       -2    1    3    3    0  502  0.79011272536E+03  0.66001073078E+03 -0.87115097412E+03  0.13486275628E+04  0.25500000920E-02 0.  1.
</event>
<event>
 5   0  0.1653260E-06  0.2100406E+04  0.7818609E-02  0.8561065E-01
        1   -1    0    0  501    0  0.00000000000E+00  0.00000000000E+00  0.93751993225E+03  0.93751993226E+03  0.50400001928E-02 0.  1.
       -1   -1    0    0    0  501  0.00000000000E+00  0.00000000000E+00 -0.11764292309E+04  0.11764292309E+04  0.50400001928E-02 0. -1.
    10030    2    1    2    0    0  0.00000000000E+00  0.00000000000E+00 -0.23890929861E+03  0.21139491631E+04  0.21004055350E+04 0.  0.
        3    1    3    3  502    0 -0.89644990463E+03  0.43110773847E+03 -0.45844921287E+03  0.10952862661E+04  0.10100000352E+00 0. -1.
       -3    1    3    3    0  502  0.89644990463E+03 -0.43110773847E+03  0.21953991426E+03  0.10186628971E+04  0.10100000352E+00 0.  1.
</event>
<event>
 5   0  0.3480134E-06  0.2099144E+04  0.7818609E-02  0.8561621E-01
        2   -1    0    0  501    0  0.00000000000E+00  0.00000000000E+00  0.14044626345E+04  0.14044626345E+04  0.25500000920E-02 0.  1.
       -2   -1    0    0    0  501  0.00000000000E+00  0.00000000000E+00 -0.78435792875E+03  0.78435792876E+03  0.25500000920E-02 0. -1.
    10030    2    1    2    0    0  0.00000000000E+00  0.00000000000E+00  0.62010470573E+03  0.21888205632E+04  0.20991440189E+04 0.  0.
        1    1    3    3  502    0  0.41265491798E+03  0.93228491601E+03  0.57002697898E+03  0.11680624995E+04  0.50400001928E-02 0.  1.
       -1    1    3    3    0  502 -0.41265491798E+03 -0.93228491601E+03  0.50077726745E+02  0.10207580637E+04  0.50400001928E-02 0. -1.
</event>
<event>
 5   0  0.1615098E-06  0.2098132E+04  0.7818609E-02  0.8562067E-01
        1   -1    0    0  501    0  0.00000000000E+00  0.00000000000E+00  0.71284251585E+03  0.71284251587E+03  0.50400001928E-02 0. -1.
       -1   -1    0    0    0  501  0.00000000000E+00  0.00000000000E+00 -0.15438739186E+04  0.15438739186E+04  0.50400001928E-02 0.  1.
    10030    2    1    2    0    0  0.00000000000E+00  0.00000000000E+00 -0.83103140270E+03  0.22567164344E+04  0.20981315195E+04 0.  0.
        1    1    3    3  502    0  0.11327053559E+03 -0.84401206202E+03  0.24345162003E+03  0.88569479302E+03  0.50400001928E-02 0. -1.
       -1    1    3    3    0  502 -0.11327053559E+03  0.84401206202E+03 -0.10744830227E+04  0.13710216414E+04  0.50400001928E-02 0.  1.
</event>
<event>
 5   0  0.1653260E-06  0.2101913E+04  0.7818609E-02  0.8560401E-01
       -1   -1    0    0    0  501  0.00000000000E+00  0.00000000000E+00  0.88584912723E+03  0.88584912724E+03  0.50400001928E-02 0. -1.
        1   -1    0    0  501    0  0.00000000000E+00  0.00000000000E+00 -0.12468375590E+04  0.12468375590E+04  0.50400001928E-02 0.  1.
    10030    2    1    2    0    0  0.00000000000E+00  0.00000000000E+00 -0.36098843180E+03  0.21326866863E+04  0.21019133793E+04 0.  0.
        3    1    3    3  502    0  0.46114350058E+03 -0.26401375587E+03  0.73950755155E+03  0.91061958051E+03  0.10100000352E+00 0. -1.
       -3    1    3    3    0  502 -0.46114350058E+03  0.26401375587E+03 -0.11004959833E+04  0.12220671058E+04  0.10100000352E+00 0.  1.
</event>
<event>
 5   0  0.3636435E-06  0.2100255E+04  0.7818609E-02  0.8561131E-01
        2   -1    0    0  501    0  0.00000000000E+00  0.00000000000E+00  0.33116538591E+04  0.33116538591E+04  0.25500000920E-02 0. -1.
       -2   -1    0    0    0  501  0.00000000000E+00  0.00000000000E+00 -0.33299620173E+03  0.33299620174E+03  0.25500000920E-02 0.  1.
    10030    2    1    2    0    0  0.00000000000E+00  0.00000000000E+00  0.29786576574E+04  0.36446500609E+04  0.21002553717E+04 0.  0.
        4    1    3    3  502    0 -0.20967841004E+03 -0.71838130982E+03  0.21090291032E+03  0.77750780859E+03  0.12699999809E+01 0.  1.
       -4    1    3    3    0  502  0.20967841004E+03  0.71838130982E+03  0.27677547471E+04  0.28671422523E+04  0.12699999809E+01 0. -1.
</event>
<event>
 5   0  0.1257125E-06  0.2098863E+04  0.7818609E-02  0.8561745E-01
       -4   -1    0    0    0  501  0.00000000000E+00  0.00000000000E+00  0.12020143620E+04  0.12020150329E+04  0.12699999809E+01 0. -1.
        4   -1    0    0  501    0  0.00000000000E+00  0.00000000000E+00 -0.91621577663E+03  0.91621665682E+03  0.12699999809E+01 0.  1.
    10030    2    1    2    0    0  0.00000000000E+00  0.00000000000E+00  0.28579858537E+03  0.21182316897E+04  0.20988627063E+04 0.  0.
        1    1    3    3  502    0  0.82049579380E+03 -0.74005158269E+02  0.79898779262E+03  0.11476374009E+04  0.50400001928E-02 0. -1.
       -1    1    3    3    0  502 -0.82049579380E+03  0.74005158269E+02 -0.51318920726E+03  0.97059428886E+03  0.50400001928E-02 0.  1.
</event>
<event>
 5   0  0.3480134E-06  0.2100136E+04  0.7818609E-02  0.8561184E-01
       -2   -1    0    0    0  501  0.00000000000E+00  0.00000000000E+00  0.10908893401E+04  0.10908893401E+04  0.25500000920E-02 0.  1.
        2   -1    0    0  501    0  0.00000000000E+00  0.00000000000E+00 -0.10107739351E+04  0.10107739351E+04  0.25500000920E-02 0. -1.
    10030    2    1    2    0    0  0.00000000000E+00  0.00000000000E+00  0.80115405061E+02  0.21016632752E+04  0.21001357204E+04 0.  0.
        1    1    3    3  502    0  0.35080236459E+03  0.58348506800E+03 -0.75997696804E+03  0.10203343156E+04  0.50400001928E-02 0. -1.
       -1    1    3    3    0  502 -0.35080236459E+03 -0.58348506800E+03  0.84009237311E+03  0.10813289596E+04  0.50400001928E-02 0.  1.
</event>
<event>
 5   0  0.3705828E-06  0.2088400E+04  0.7818609E-02  0.8566371E-01
        2   -1    0    0  501    0  0.00000000000E+00  0.00000000000E+00  0.59202333688E+03  0.59202333688E+03  0.25500000920E-02 0.  1.
       -2   -1    0    0    0  501  0.00000000000E+00  0.00000000000E+00 -0.18417405123E+04  0.18417405123E+04  0.25500000920E-02 0. -1.
    10030    2    1    2    0    0  0.00000000000E+00  0.00000000000E+00 -0.12497171754E+04  0.24337638492E+04  0.20883997354E+04 0.  0.
        5    1    3    3  502    0 -0.10215844752E+04 -0.21608378865E+03 -0.62725543189E+03  0.12181126838E+04  0.46999998093E+01 0.  1.
       -5    1    3    3    0  502  0.10215844752E+04  0.21608378865E+03 -0.62246174352E+03  0.12156511653E+04  0.46999998093E+01 0. -1.
</event>
<event>
 5   0  0.3636435E-06  0.2100074E+04  0.7818609E-02  0.8561211E-01
        2   -1    0    0  501    0  0.00000000000E+00  0.00000000000E+00  0.94224152007E+03  0.94224152007E+03  0.25500000920E-02 0. -1.
       -2   -1    0    0    0  501  0.00000000000E+00  0.00000000000E+00 -0.11701647489E+04  0.11701647489E+04  0.25500000920E-02 0.  1.
    10030    2    1    2    0    0  0.00000000000E+00  0.00000000000E+00 -0.22792322881E+03  0.21124062690E+04  0.21000741051E+04 0.  0.
        4    1    3    3  502    0  0.96239350052E+03 -0.15256181123E+03  0.27961582876E+03  0.10137371359E+04  0.12699999809E+01 0. -1.
       -4    1    3    3    0  502 -0.96239350052E+03  0.15256181123E+03 -0.50753905757E+03  0.10986691331E+04  0.12699999809E+01 0.  1.
</event>
<event>
 5   0  0.1653260E-06  0.2100289E+04  0.7818609E-02  0.8561116E-01
        1   -1    0    0  501    0  0.00000000000E+00  0.00000000000E+00  0.25946930386E+04  0.25946930386E+04  0.50400001928E-02 0.  1.
       -1   -1    0    0    0  501  0.00000000000E+00  0.00000000000E+00 -0.42502262871E+03  0.42502262874E+03  0.50400001928E-02 0. -1.
    10030    2    1    2    0    0  0.00000000000E+00  0.00000000000E+00  0.21696704099E+04  0.30197156674E+04  0.21002887954E+04 0.  0.
        3    1    3    3  502    0 -0.75753037046E+03 -0.70881150567E+03  0.13190502863E+04  0.16781417344E+04  0.10100000352E+00 0.  1.
       -3    1    3    3    0  502  0.75753037046E+03  0.70881150567E+03  0.85062012366E+03  0.13415739330E+04  0.10100000352E+00 0. -1.
</event>
<event>
 5   0  0.1653260E-06  0.2099505E+04  0.7818609E-02  0.8561462E-01
        1   -1    0    0  501    0  0.00000000000E+00  0.00000000000E+00  0.19397472428E+04  0.19397472428E+04  0.50400001928E-02 0.  1.
       -1   -1    0    0    0  501  0.00000000000E+00  0.00000000000E+00 -0.56810493586E+03  0.56810493588E+03  0.50400001928E-02 0. -1.
    10030    2    1    2    0    0  0.00000000000E+00  0.00000000000E+00  0.13716423070E+04  0.25078521787E+04  0.20995046873E+04 0.  0.
        3    1    3    3  502    0  0.36065551306E+03 -0.94255575482E+03  0.34066271135E+03  0.10651454563E+04  0.10100000352E+00 0.  1.
       -3    1    3    3    0  502 -0.36065551306E+03  0.94255575482E+03  0.10309795956E+04  0.14427067224E+04  0.10100000352E+00 0. -1.
</event>
<event>
 5   0  0.3574927E-06  0.2099727E+04  0.7818609E-02  0.8561364E-01
        2   -1    0    0  501    0  0.00000000000E+00  0.00000000000E+00  0.93202557964E+03  0.93202557964E+03  0.25500000920E-02 0.  1.
       -2   -1    0    0    0  501  0.00000000000E+00  0.00000000000E+00 -0.11826002724E+04  0.11826002724E+04  0.25500000920E-02 0. -1.
    10030    2    1    2    0    0  0.00000000000E+00  0.00000000000E+00 -0.25057469274E+03  0.21146258520E+04  0.20997273198E+04 0.  0.
        3    1    3    3  502    0  0.13166521380E+03  0.86221772224E+03 -0.71377810035E+03  0.11270467230E+04  0.10100000352E+00 0. -1.
       -3    1    3    3    0  502 -0.13166521380E+03 -0.86221772224E+03  0.46320340761E+03  0.98757912903E+03  0.10100000352E+00 0.  1.
</event>
<event>
 5   0  0.3636435E-06  0.2096746E+04  0.7818609E-02  0.8562678E-01
       -2   -1    0    0    0  501  0.00000000000E+00  0.00000000000E+00  0.94449478166E+03  0.94449478166E+03  0.25500000920E-02 0.  1.
        2   -1    0    0  501    0  0.00000000000E+00  0.00000000000E+00 -0.11636757871E+04  0.11636757871E+04  0.25500000920E-02 0. -1.
    10030    2    1    2    0    0  0.00000000000E+00  0.00000000000E+00 -0.21918100540E+03  0.21081705687E+04  0.20967457723E+04 0.  0.
        4    1    3    3  502    0 -0.80974957516E+02 -0.90490241096E+03  0.41640318381E+03  0.99939909020E+03  0.12699999809E+01 0.  1.
       -4    1    3    3    0  502  0.80974957516E+02  0.90490241096E+03 -0.63558418921E+03  0.11087714785E+04  0.12699999809E+01 0. -1.
</event>
<event>
 5   0  0.1579820E-06  0.2099708E+04  0.7818609E-02  0.8561372E-01
        1   -1    0    0  501    0  0.00000000000E+00  0.00000000000E+00  0.14430526338E+04  0.14430526338E+04  0.50400001928E-02 0.  1.
       -1   -1    0    0    0  501  0.00000000000E+00  0.00000000000E+00 -0.76379278771E+03  0.76379278773E+03  0.50400001928E-02 0. -1.
    10030    2    1    2    0    0  0.00000000000E+00  0.00000000000E+00  0.67925984610E+03  0.22068454216E+04  0.20997077835E+04 0.  0.
        2    1    3    3  502    0 -0.46876306052E+03 -0.93340535763E+03  0.22835607443E+03  0.10691729819E+04  0.25500000920E-02 0.  1.
       -2    1    3    3    0  502  0.46876306052E+03  0.93340535763E+03  0.45090377167E+03  0.11376724396E+04  0.25500000920E-02 0. -1.
</event>
<event>
 5   0  0.1615098E-06  0.2099568E+04  0.7818609E-02  0.8561434E-01
       -1   -1    0    0    0  501  0.00000000000E+00  0.00000000000E+00  0.16433192085E+04  0.16433192085E+04  0.50400001928E-02 0.  1.
        1   -1    0    0  501    0  0.00000000000E+00  0.00000000000E+00 -0.67062240035E+03  0.67062240037E+03  0.50400001928E-02 0. -1.
    10030    2    1    2    0    0  0.00000000000E+00  0.00000000000E+00  0.97269680813E+03  0.23139416089E+04  0.20995682148E+04 0.  0.
        1    1    3    3  502    0  0.97309317541E+03  0.30700938569E+03  0.21441324140E+03  0.10426591625E+04  0.50400001928E-02 0. -1.
       -1    1    3    3    0  502 -0.97309317541E+03 -0.30700938569E+03  0.75828356673E+03  0.12712824464E+04  0.50400001928E-02 0.  1.
</event>
<event>
 5   0  0.1579820E-06  0.2100507E+04  0.7818609E-02  0.8561020E-01
        1   -1    0    0  501    0  0.00000000000E+00  0.00000000000E+00  0.79347133606E+03  0.79347133607E+03  0.50400001928E-02 0. -1.
       -1   -1    0    0    0  501  0.00000000000E+00  0.00000000000E+00 -0.13901352336E+04  0.13901352336E+04  0.50400001928E-02 0.  1.
    10030    2    1    2    0    0  0.00000000000E+00  0.00000000000E+00 -0.59666389751E+03  0.21836065696E+04  0.21005070446E+04 0.  0.
        2    1    3    3  502    0  0.35167875477E+03  0.98376959292E+03 -0.18660009378E+03  0.10612728930E+04  0.25500000920E-02 0. -1.
       -2    1    3    3    0  502 -0.35167875477E+03 -0.98376959292E+03 -0.41006380373E+03  0.11223336766E+04  0.25500000920E-02 0.  1.
</event>
<event>
 5   0  0.3636435E-06  0.2099932E+04  0.7818609E-02  0.8561273E-01
        2   -1    0    0  501    0  0.00000000000E+00  0.00000000000E+00  0.18560851345E+04  0.18560851345E+04  0.25500000920E-02 0. -1.
       -2   -1    0    0    0  501  0.00000000000E+00  0.00000000000E+00 -0.59395371849E+03  0.59395371850E+03  0.25500000920E-02 0.  1.
    10030    2    1    2    0    0  0.00000000000E+00  0.00000000000E+00  0.12621314160E+04  0.24500388530E+04  0.20999320631E+04 0.  0.
        4    1    3    3  502    0  0.99769923031E+03  0.23810135846E+03  0.89281510753E+03  0.13598589781E+04  0.12699999809E+01 0. -1.
       -4    1    3    3    0  502 -0.99769923031E+03 -0.23810135846E+03  0.36931630843E+03  0.10901798749E+04  0.12699999809E+01 0.  1.
</event>
<event>
 5   0  0.3636435E-06  0.2100021E+04  0.7818609E-02  0.8561234E-01
       -2   -1    0    0    0  501  0.00000000000E+00  0.00000000000E+00  0.65846072454E+03  0.65846072454E+03  0.25500000920E-02 0. -1.
        2   -1    0    0  501    0  0.00000000000E+00  0.00000000000E+00 -0.16743925668E+04  0.16743925668E+04  0.25500000920E-02 0.  1.
    10030    2    1    2    0    0  0.00000000000E+00  0.00000000000E+00 -0.10159318423E+04  0.23328532914E+04  0.21000207072E+04 0.  0.
        4    1    3    3  502    0 -0.49075493501E+03  0.82231659051E+03 -0.29548798880E+02  0.95808127300E+03  0.12699999809E+01 0. -1.
       -4    1    3    3    0  502  0.49075493501E+03 -0.82231659051E+03 -0.98638304340E+03  0.13747720184E+04  0.12699999809E+01 0.  1.
</event>
<event>
 5   0  0.3705828E-06  0.2099925E+04  0.7818609E-02  0.8561276E-01
       -2   -1    0    0    0  501  0.00000000000E+00  0.00000000000E+00  0.65432329409E+03  0.65432329409E+03  0.25500000920E-02 0. -1.
        2   -1    0    0  501    0  0.00000000000E+00  0.00000000000E+00 -0.16848272160E+04  0.16848272160E+04  0.25500000920E-02 0.  1.
    10030    2    1    2    0    0  0.00000000000E+00  0.00000000000E+00 -0.10305039219E+04  0.23391505101E+04  0.20999254215E+04 0.  0.
        5    1    3    3  502    0 -0.33513555862E+03 -0.69922159582E+03  0.27333228135E+03  0.82216744569E+03  0.46999998093E+01 0. -1.
       -5    1    3    3    0  502  0.33513555862E+03  0.69922159582E+03 -0.13038362032E+04  0.15169830644E+04  0.46999998093E+01 0.  1.
</event>
<event>
 5   0  0.1653260E-06  0.2099949E+04  0.7818609E-02  0.8561266E-01
        1   -1    0    0  501    0  0.00000000000E+00  0.00000000000E+00  0.15660603940E+04  0.15660603940E+04  0.50400001928E-02 0.  1.
       -1   -1    0    0    0  501  0.00000000000E+00  0.00000000000E+00 -0.70396195986E+03  0.70396195988E+03  0.50400001928E-02 0. -1.
    10030    2    1    2    0    0  0.00000000000E+00  0.00000000000E+00  0.86209843418E+03  0.22700223539E+04  0.20999494701E+04 0.  0.
        3    1    3    3  502    0 -0.63309655576E+03 -0.78756265880E+03  0.12267211978E+03  0.10178971705E+04  0.10100000352E+00 0. -1.
       -3    1    3    3    0  502  0.63309655576E+03  0.78756265880E+03  0.73942631440E+03  0.12521251835E+04  0.10100000352E+00 0.  1.
</event>
<event>
 5   0  0.1579820E-06  0.2098972E+04  0.7818609E-02  0.8561696E-01
        1   -1    0    0  501    0  0.00000000000E+00  0.00000000000E+00  0.12006419557E+04  0.12006419558E+04  0.50400001928E-02 0. -1.
       -1   -1    0    0    0  501  0.00000000000E+00  0.00000000000E+00 -0.91736006026E+03  0.91736006027E+03  0.50400001928E-02 0.  1.
    10030    2    1    2    0    0  0.00000000000E+00  0.00000000000E+00  0.28328189549E+03  0.21180020160E+04  0.20989721074E+04 0.  0.
        2    1    3    3  502    0 -0.75154787115E+01  0.77108164590E+03 -0.57671050133E+03  0.96292179818E+03  0.25500000920E-02 0.  1.
       -2    1    3    3    0  502  0.75154787115E+01 -0.77108164590E+03  0.85999239681E+03  0.11550802178E+04  0.25500000920E-02 0. -1.
</event>
<event>
 5   0  0.3480134E-06  0.2099828E+04  0.7818609E-02  0.8561319E-01
       -2   -1    0    0    0  501  0.00000000000E+00  0.00000000000E+00  0.75797031531E+03  0.75797031531E+03  0.25500000920E-02 0.  1.
        2   -1    0    0  501    0  0.00000000000E+00  0.00000000000E+00 -0.14543048120E+04  0.14543048120E+04  0.25500000920E-02 0. -1.
    10030    2    1    2    0    0  0.00000000000E+00  0.00000000000E+00 -0.69633449665E+03  0.22122751273E+04  0.20998284472E+04 0.  0.
        1    1    3    3  502    0  0.61089611376E+02 -0.62030437861E+03 -0.12382835637E+04  0.13863100832E+04  0.50400001928E-02 0. -1.
       -1    1    3    3    0  502 -0.61089611376E+02  0.62030437861E+03  0.54194906702E+03  0.82596504406E+03  0.50400001928E-02 0.  1.
</event>
<event>
 5   0  0.1646510E-06  0.2099963E+04  0.7818609E-02  0.8561260E-01
       -1   -1    0    0    0  501  0.00000000000E+00  0.00000000000E+00  0.13189368412E+04  0.13189368412E+04  0.50400001928E-02 0.  1.
        1   -1    0    0  501    0  0.00000000000E+00  0.00000000000E+00 -0.83587085543E+03  0.83587085544E+03  0.50400001928E-02 0. -1.
    10030    2    1    2    0    0  0.00000000000E+00  0.00000000000E+00  0.48306598574E+03  0.21548076966E+04  0.20999627289E+04 0.  0.
        4    1    3    3  502    0 -0.55868902283E+03 -0.72446830573E+03  0.77022882326E+03  0.11959271731E+04  0.12699999809E+01 0.  1.
       -4    1    3    3    0  502  0.55868902283E+03  0.72446830573E+03 -0.28716283753E+03  0.95888052353E+03  0.12699999809E+01 0. -1.
</event>
<event>
 5   0  0.3480134E-06  0.2099546E+04  0.7818609E-02  0.8561443E-01
        2   -1    0    0  501    0  0.00000000000E+00  0.00000000000E+00  0.14456736202E+04  0.14456736202E+04  0.25500000920E-02 0. -1.
       -2   -1    0    0    0  501  0.00000000000E+00  0.00000000000E+00 -0.76229070539E+03  0.76229070540E+03  0.25500000920E-02 0.  1.
    10030    2    1    2    0    0  0.00000000000E+00  0.00000000000E+00  0.68338291482E+03  0.22079643256E+04  0.20995462021E+04 0.  0.
        1    1    3    3  502    0  0.12585807990E+03  0.10195861425E+04  0.11460708870E+03  0.10336977040E+04  0.50400001928E-02 0.  1.
       -1    1    3    3    0  502 -0.12585807990E+03 -0.10195861425E+04  0.56877582612E+03  0.11742666217E+04  0.50400001928E-02 0. -1.
</event>
<event>
 5   0  0.1257125E-06  0.2100432E+04  0.7818609E-02  0.8561053E-01
       -3   -1    0    0    0  501  0.00000000000E+00  0.00000000000E+00  0.13639224042E+04  0.13639224079E+04  0.10100000352E+00 0.  1.
        3   -1    0    0  501    0  0.00000000000E+00  0.00000000000E+00 -0.80866279887E+03  0.80866280518E+03  0.10100000352E+00 0. -1.
    10030    2    1    2    0    0  0.00000000000E+00  0.00000000000E+00  0.55525960533E+03  0.21725852131E+04  0.21004316887E+04 0.  0.
        3    1    3    3  502    0 -0.59189851898E+03 -0.44285494844E+03  0.10492374605E+04  0.12834966384E+04  0.10100000352E+00 0.  1.
       -3    1    3    3    0  502  0.59189851898E+03  0.44285494844E+03 -0.49397785514E+03  0.88908857472E+03  0.10100000352E+00 0. -1.
</event>
<event>
 5   0  0.3547583E-06  0.2099846E+04  0.7818609E-02  0.8561311E-01
        2   -1    0    0  501    0  0.00000000000E+00  0.00000000000E+00  0.13742260574E+04  0.13742260574E+04  0.25500000920E-02 0.  1.
       -2   -1    0    0    0  501  0.00000000000E+00  0.00000000000E+00 -0.80215181790E+03  0.80215181791E+03  0.25500000920E-02 0. -1.
    10030    2    1    2    0    0  0.00000000000E+00  0.00000000000E+00  0.57207423946E+03  0.21763778753E+04  0.20998456421E+04 0.  0.
        2    1    3    3  502    0 -0.15060459958E+03 -0.36209915296E+03 -0.72338971243E+03  0.82285491919E+03  0.25500000920E-02 0. -1.
       -2    1    3    3    0  502  0.15060459958E+03  0.36209915296E+03  0.12954639519E+04  0.13535229561E+04  0.25500000920E-02 0.  1.
</event>
<event>
 5   0  0.1646510E-06  0.2099860E+04  0.7818609E-02  0.8561305E-01
        1   -1    0    0  501    0  0.00000000000E+00  0.00000000000E+00  0.18167440887E+04  0.18167440887E+04  0.50400001928E-02 0. -1.
       -1   -1    0    0    0  501  0.00000000000E+00  0.00000000000E+00 -0.60677405649E+03  0.60677405651E+03  0.50400001928E-02 0.  1.
    10030    2    1    2    0    0  0.00000000000E+00  0.00000000000E+00  0.12099700322E+04  0.24235181452E+04  0.20998601671E+04 0.  0.
        4    1    3    3  502    0  0.71335260217E+03 -0.38774867266E+03  0.13732689836E+04  0.15953339093E+04  0.12699999809E+01 0.  1.
       -4    1    3    3    0  502 -0.71335260217E+03  0.38774867266E+03 -0.16329895134E+03  0.82818423589E+03  0.12699999809E+01 0. -1.
</event>
<event>
 5   0  0.3636435E-06  0.2098906E+04  0.7818609E-02  0.8561725E-01
       -2   -1    0    0    0  501  0.00000000000E+00  0.00000000000E+00  0.10155902393E+04  0.10155902393E+04  0.25500000920E-02 0. -1.
        2   -1    0    0  501    0  0.00000000000E+00  0.00000000000E+00 -0.10844451819E+04  0.10844451819E+04  0.25500000920E-02 0.  1.
    10030    2    1    2    0    0  0.00000000000E+00  0.00000000000E+00 -0.68854942584E+02  0.21000354212E+04  0.20989063264E+04 0.  0.
        4    1    3    3  502    0  0.80382260637E+03  0.34172810919E+03  0.54764268688E+03  0.10309330766E+04  0.12699999809E+01 0. -1.
       -4    1    3    3    0  502 -0.80382260637E+03 -0.34172810919E+03 -0.61649762946E+03  0.10691023446E+04  0.12699999809E+01 0.  1.
</event>
<event>
 5   0  0.1653260E-06  0.2097762E+04  0.7818609E-02  0.8562230E-01
        1   -1    0    0  501    0  0.00000000000E+00  0.00000000000E+00  0.11299728209E+04  0.11299728209E+04  0.50400001928E-02 0. -1.
       -1   -1    0    0    0  501  0.00000000000E+00  0.00000000000E+00 -0.97360835697E+03  0.97360835698E+03  0.50400001928E-02 0.  1.
    10030    2    1    2    0    0  0.00000000000E+00  0.00000000000E+00  0.15636446395E+03  0.21035811779E+04  0.20977616467E+04 0.  0.
        3    1    3    3  502    0  0.15862670315E+03 -0.70786308563E+03 -0.68149341908E+03  0.99532199283E+03  0.10100000352E+00 0.  1.
       -3    1    3    3    0  502 -0.15862670315E+03  0.70786308563E+03  0.83785788303E+03  0.11082591851E+04  0.10100000352E+00 0. -1.
</event>
<event>
 5   0  0.3705828E-06  0.2099567E+04  0.7818609E-02  0.8561434E-01
        2   -1    0    0  501    0  0.00000000000E+00  0.00000000000E+00  0.65870763506E+03  0.65870763507E+03  0.25500000920E-02 0.  1.
       -2   -1    0    0    0  501  0.00000000000E+00  0.00000000000E+00 -0.16730423885E+04  0.16730423885E+04  0.25500000920E-02 0. -1.
    10030    2    1    2    0    0  0.00000000000E+00  0.00000000000E+00 -0.10143347534E+04  0.23317500236E+04  0.20995673793E+04 0.  0.
        5    1    3    3  502    0  0.55461755416E+03 -0.79672571983E+03 -0.95091727686E+03  0.13589106893E+04  0.46999998093E+01 0. -1.
       -5    1    3    3    0  502 -0.55461755416E+03  0.79672571983E+03 -0.63417476594E+02  0.97283933430E+03  0.46999998093E+01 0.  1.
</event>
<event>
 5   0  0.3705828E-06  0.2101691E+04  0.7818609E-02  0.8560499E-01
       -2   -1    0    0    0  501  0.00000000000E+00  0.00000000000E+00  0.66727708769E+03  0.66727708769E+03  0.25500000920E-02 0.  1.
        2   -1    0    0  501    0  0.00000000000E+00  0.00000000000E+00 -0.16548994959E+04  0.16548994959E+04  0.25500000920E-02 0. -1.
    10030    2    1    2    0    0  0.00000000000E+00  0.00000000000E+00 -0.98762240821E+03  0.23221765836E+04  0.21016912390E+04 0.  0.
        5    1    3    3  502    0 -0.15488401719E+03  0.96236678535E+03 -0.60051163880E+02  0.97661001459E+03  0.46999998093E+01 0.  1.
       -5    1    3    3    0  502  0.15488401719E+03 -0.96236678535E+03 -0.92757124433E+03  0.13455665690E+04  0.46999998093E+01 0. -1.
</event>
<event>
 5   0  0.3480134E-06  0.2100125E+04  0.7818609E-02  0.8561188E-01
        2   -1    0    0  501    0  0.00000000000E+00  0.00000000000E+00  0.82555770261E+03  0.82555770261E+03  0.25500000920E-02 0. -1.
       -2   -1    0    0    0  501  0.00000000000E+00  0.00000000000E+00 -0.13356204668E+04  0.13356204668E+04  0.25500000920E-02 0.  1.
    10030    2    1    2    0    0  0.00000000000E+00  0.00000000000E+00 -0.51006276421E+03  0.21611781694E+04  0.21001254859E+04 0.  0.
        1    1    3    3  502    0  0.25263845960E+03  0.15208226744E+03  0.78207436497E+03  0.83582026759E+03  0.50400001928E-02 0. -1.
       -1    1    3    3    0  502 -0.25263845960E+03 -0.15208226744E+03 -0.12921371292E+04  0.13253579018E+04  0.50400001928E-02 0.  1.
</event>
<event>
 5   0  0.1646510E-06  0.2099579E+04  0.7818609E-02  0.8561429E-01
        1   -1    0    0  501    0  0.00000000000E+00  0.00000000000E+00  0.17970243722E+04  0.17970243722E+04  0.50400001928E-02 0.  1.
       -1   -1    0    0    0  501  0.00000000000E+00  0.00000000000E+00 -0.61326824087E+03  0.61326824090E+03  0.50400001928E-02 0. -1.
    10030    2    1    2    0    0  0.00000000000E+00  0.00000000000E+00  0.11837561313E+04  0.24102926131E+04  0.20995789821E+04 0.  0.
        4    1    3    3  502    0  0.10933534876E+03  0.35975566395E+03  0.17170696551E+04  0.17577565729E+04  0.12699999809E+01 0.  1.
       -4    1    3    3    0  502 -0.10933534876E+03 -0.35975566395E+03 -0.53331352377E+03  0.65253604020E+03  0.12699999809E+01 0. -1.
</event>
<event>
 5   0  0.1653260E-06  0.2099377E+04  0.7818609E-02  0.8561518E-01
       -1   -1    0    0    0  501  0.00000000000E+00  0.00000000000E+00  0.73125232303E+03  0.73125232305E+03  0.50400001928E-02 0.  1.
        1   -1    0    0  501    0  0.00000000000E+00  0.00000000000E+00 -0.15067937947E+04  0.15067937947E+04  0.50400001928E-02 0. -1.
    10030    2    1    2    0    0  0.00000000000E+00  0.00000000000E+00 -0.77554147170E+03  0.22380461178E+04  0.20993774913E+04 0.  0.
        3    1    3    3  502    0  0.25011317525E+03 -0.81718099001E+03  0.26200108683E+03  0.89386014039E+03  0.10100000352E+00 0.  1.
       -3    1    3    3    0  502 -0.25011317525E+03  0.81718099001E+03 -0.10375425585E+04  0.13441859774E+04  0.10100000352E+00 0. -1.
</event>
<event>
 5   0  0.1653260E-06  0.2099801E+04  0.7818609E-02  0.8561331E-01
       -1   -1    0    0    0  501  0.00000000000E+00  0.00000000000E+00  0.67256452407E+03  0.67256452409E+03  0.50400001928E-02 0.  1.
        1   -1    0    0  501    0  0.00000000000E+00  0.00000000000E+00 -0.16389366680E+04  0.16389366680E+04  0.50400001928E-02 0. -1.
    10030    2    1    2    0    0  0.00000000000E+00  0.00000000000E+00 -0.96637214397E+03  0.23115011921E+04  0.20998006192E+04 0.  0.
        3    1    3    3  502    0 -0.68633058926E+03 -0.59850100833E+03  0.92024982513E+02  0.91527140364E+03  0.10100000352E+00 0.  1.
       -3    1    3    3    0  502  0.68633058926E+03  0.59850100833E+03 -0.10583971265E+04  0.13962297885E+04  0.10100000352E+00 0. -1.
</event>
<event>
 5   0  0.3636435E-06  0.2100079E+04  0.7818609E-02  0.8561209E-01
        2   -1    0    0  501    0  0.00000000000E+00  0.00000000000E+00  0.20009730818E+04  0.20009730818E+04  0.25500000920E-02 0.  1.
       -2   -1    0    0    0  501  0.00000000000E+00  0.00000000000E+00 -0.55102313856E+03  0.55102313857E+03  0.25500000920E-02 0. -1.
    10030    2    1    2    0    0  0.00000000000E+00  0.00000000000E+00  0.14499499433E+04  0.25519962204E+04  0.21000785392E+04 0.  0.
        4    1    3    3  502    0 -0.45964152025E+03 -0.11673661442E+02 -0.42218980971E+03  0.62422147498E+03  0.12699999809E+01 0. -1.
       -4    1    3    3    0  502  0.45964152025E+03  0.11673661442E+02  0.18721397530E+04  0.19277747454E+04  0.12699999809E+01 0.  1.
</event>
<event>
 5   0  0.1590067E-06  0.2099664E+04  0.7818609E-02  0.8561391E-01
       -1   -1    0    0    0  501  0.00000000000E+00  0.00000000000E+00  0.66568295805E+03  0.66568295807E+03  0.50400001928E-02 0.  1.
        1   -1    0    0  501    0  0.00000000000E+00  0.00000000000E+00 -0.16556635734E+04  0.16556635734E+04  0.50400001928E-02 0. -1.
    10030    2    1    2    0    0  0.00000000000E+00  0.00000000000E+00 -0.98998061533E+03  0.23213465315E+04  0.20996638065E+04 0.  0.
        5    1    3    3  502    0  0.87808344742E+03  0.57415041037E+03 -0.45295352987E+03  0.11427459143E+04  0.46999998093E+01 0.  1.
       -5    1    3    3    0  502 -0.87808344742E+03 -0.57415041037E+03 -0.53702708546E+03  0.11786006172E+04  0.46999998093E+01 0. -1.
</event>
<event>
 5   0  0.1646510E-06  0.2097324E+04  0.7818609E-02  0.8562423E-01
        1   -1    0    0  501    0  0.00000000000E+00  0.00000000000E+00  0.13579616282E+04  0.13579616282E+04  0.50400001928E-02 0. -1.
       -1   -1    0    0    0  501  0.00000000000E+00  0.00000000000E+00 -0.80981052662E+03  0.80981052664E+03  0.50400001928E-02 0.  1.
    10030    2    1    2    0    0  0.00000000000E+00  0.00000000000E+00  0.54815110157E+03  0.21677721548E+04  0.20973236482E+04 0.  0.
        4    1    3    3  502    0 -0.70178903132E+03 -0.77683131240E+03  0.21107509095E+03  0.10679555418E+04  0.12699999809E+01 0. -1.
       -4    1    3    3    0  502  0.70178903132E+03  0.77683131240E+03  0.33707601062E+03  0.10998166130E+04  0.12699999809E+01 0.  1.
</event>
<event>
 5   0  0.1579820E-06  0.2099923E+04  0.7818609E-02  0.8561277E-01
        1   -1    0    0  501    0  0.00000000000E+00  0.00000000000E+00  0.24183276706E+04  0.24183276706E+04  0.50400001928E-02 0.  1.
       -1   -1    0    0    0  501  0.00000000000E+00  0.00000000000E+00 -0.45586016762E+03  0.45586016765E+03  0.50400001928E-02 0. -1.
    10030    2    1    2    0    0  0.00000000000E+00  0.00000000000E+00  0.19624675029E+04  0.28741878382E+04  0.20999231008E+04 0.  0.
        2    1    3    3  502    0 -0.29384520939E+03 -0.87686762051E+03  0.16617149953E+04  0.19017198944E+04  0.25500000920E-02 0. -1.
       -2    1    3    3    0  502  0.29384520939E+03  0.87686762051E+03  0.30075250763E+03  0.97246794386E+03  0.25500000920E-02 0.  1.
</event>
<event>
 5   0  0.3574927E-06  0.2100660E+04  0.7818609E-02  0.8560953E-01
       -2   -1    0    0    0  501  0.00000000000E+00  0.00000000000E+00  0.75215024917E+03  0.75215024917E+03  0.25500000920E-02 0. -1.
        2   -1    0    0  501    0  0.00000000000E+00  0.00000000000E+00 -0.14667188089E+04  0.14667188089E+04  0.25500000920E-02 0.  1.
    10030    2    1    2    0    0  0.00000000000E+00  0.00000000000E+00 -0.71456855974E+03  0.22188690581E+04  0.21006598179E+04 0.  0.
        3    1    3    3  502    0 -0.47138495350E+02 -0.87815119020E+02 -0.14617126417E+04  0.14651066139E+04  0.10100000352E+00 0.  1.
       -3    1    3    3    0  502  0.47138495350E+02  0.87815119020E+02  0.74714408197E+03  0.75376244421E+03  0.10100000352E+00 0. -1.
</event>
<event>
 5   0  0.3636435E-06  0.2099613E+04  0.7818609E-02  0.8561414E-01
       -2   -1    0    0    0  501  0.00000000000E+00  0.00000000000E+00  0.14958078600E+04  0.14958078600E+04  0.25500000920E-02 0.  1.
        2   -1    0    0  501    0  0.00000000000E+00  0.00000000000E+00 -0.73678812227E+03  0.73678812227E+03  0.25500000920E-02 0. -1.
    10030    2    1    2    0    0  0.00000000000E+00  0.00000000000E+00  0.75901973776E+03  0.22325959823E+04  0.20996127876E+04 0.  0.
        4    1    3    3  502    0  0.50203508313E+03 -0.89860365562E+03  0.16013208665E+03  0.10417157255E+04  0.12699999809E+01 0.  1.
       -4    1    3    3    0  502 -0.50203508313E+03  0.89860365562E+03  0.59888765112E+03  0.11908802568E+04  0.12699999809E+01 0. -1.
</event>
<event>
 5   0  0.3480134E-06  0.2100489E+04  0.7818609E-02  0.8561028E-01
        2   -1    0    0  501    0  0.00000000000E+00  0.00000000000E+00  0.19117260835E+04  0.19117260835E+04  0.25500000920E-02 0.  1.
       -2   -1    0    0    0  501  0.00000000000E+00  0.00000000000E+00 -0.57697233247E+03  0.57697233247E+03  0.25500000920E-02 0. -1.
    10030    2    1    2    0    0  0.00000000000E+00  0.00000000000E+00  0.13347537511E+04  0.24886984160E+04  0.21004885693E+04 0.  0.
        1    1    3    3  502    0 -0.84646606841E+03 -0.12536893681E+03 -0.54090125775E+02  0.85740767259E+03  0.50400001928E-02 0. -1.
       -1    1    3    3    0  502  0.84646606841E+03  0.12536893681E+03  0.13888438768E+04  0.16312907434E+04  0.50400001928E-02 0.  1.
</event>
<event>
 5   0  0.3574927E-06  0.2100942E+04  0.7818609E-02  0.8560829E-01
       -2   -1    0    0    0  501  0.00000000000E+00  0.00000000000E+00  0.10575622931E+04  0.10575622931E+04  0.25500000920E-02 0.  1.
        2   -1    0    0  501    0  0.00000000000E+00  0.00000000000E+00 -0.10434271693E+04  0.10434271693E+04  0.25500000920E-02 0. -1.
    10030    2    1    2    0    0  0.00000000000E+00  0.00000000000E+00  0.14135123854E+02  0.21009894624E+04  0.21009419124E+04 0.  0.
        3    1    3    3  502    0 -0.50701909373E+02  0.10392221730E+04 -0.13762783798E+03  0.10495212435E+04  0.10100000352E+00 0.  1.
       -3    1    3    3    0  502  0.50701909373E+02 -0.10392221730E+04  0.15176296183E+03  0.10514682189E+04  0.10100000352E+00 0. -1.
</event>
<event>
 5   0  0.1590067E-06  0.2100291E+04  0.7818609E-02  0.8561115E-01
       -1   -1    0    0    0  501  0.00000000000E+00  0.00000000000E+00  0.93315115748E+03  0.93315115749E+03  0.50400001928E-02 0. -1.
        1   -1    0    0  501    0  0.00000000000E+00  0.00000000000E+00 -0.11818079452E+04  0.11818079452E+04  0.50400001928E-02 0.  1.
    10030    2    1    2    0    0  0.00000000000E+00  0.00000000000E+00 -0.24865678768E+03  0.21149591027E+04  0.21002908865E+04 0.  0.
        5    1    3    3  502    0  0.59384482102E+03  0.71053371967E+03 -0.62303814628E+03  0.11161131036E+04  0.46999998093E+01 0.  1.
       -5    1    3    3    0  502 -0.59384482102E+03 -0.71053371967E+03  0.37438135861E+03  0.99884599909E+03  0.46999998093E+01 0. -1.
</event>
<event>
 5   0  0.1646510E-06  0.2100339E+04  0.7818609E-02  0.8561094E-01
       -1   -1    0    0    0  501  0.00000000000E+00  0.00000000000E+00  0.11438744514E+04  0.11438744514E+04  0.50400001928E-02 0.  1.
        1   -1    0    0  501    0  0.00000000000E+00  0.00000000000E+00 -0.96414071202E+03  0.96414071203E+03  0.50400001928E-02 0. -1.
    10030    2    1    2    0    0  0.00000000000E+00  0.00000000000E+00  0.17973373937E+03  0.21080151634E+04  0.21003389517E+04 0.  0.
        4    1    3    3  502    0  0.80130924794E+03 -0.58980423698E+03 -0.24735032211E+03  0.10252557454E+04  0.12699999809E+01 0. -1.
       -4    1    3    3    0  502 -0.80130924794E+03  0.58980423698E+03  0.42708406149E+03  0.10827594180E+04  0.12699999809E+01 0.  1.
</event>
<event>
 5   0  0.1590067E-06  0.2100537E+04  0.7818609E-02  0.8561007E-01
       -1   -1    0    0    0  501  0.00000000000E+00  0.00000000000E+00  0.10644398367E+04  0.10644398367E+04  0.50400001928E-02 0. -1.
        1   -1    0    0  501    0  0.00000000000E+00  0.00000000000E+00 -0.10362854508E+04  0.10362854508E+04  0.50400001928E-02 0.  1.
    10030    2    1    2    0    0  0.00000000000E+00  0.00000000000E+00  0.28154385923E+02  0.21007252876E+04  0.21005366134E+04 0.  0.
        5    1    3    3  502    0 -0.62809132430E+03  0.50154709073E+03 -0.66199627188E+03  0.10413017574E+04  0.46999998093E+01 0.  1.
       -5    1    3    3    0  502  0.62809132430E+03 -0.50154709073E+03  0.69015065781E+03  0.10594235302E+04  0.46999998093E+01 0. -1.
</event>
<event>
 5   0  0.1615098E-06  0.2099719E+04  0.7818609E-02  0.8561367E-01
        1   -1    0    0  501    0  0.00000000000E+00  0.00000000000E+00  0.24108620092E+04  0.24108620092E+04  0.50400001928E-02 0.  1.
       -1   -1    0    0    0  501  0.00000000000E+00  0.00000000000E+00 -0.45718293799E+03  0.45718293802E+03  0.50400001928E-02 0. -1.
    10030    2    1    2    0    0  0.00000000000E+00  0.00000000000E+00  0.19536790712E+04  0.28680449473E+04  0.20997190065E+04 0.  0.
        1    1    3    3  502    0 -0.16290839173E+03 -0.14188063651E+03 -0.42649508845E+03  0.47808714646E+03  0.50400001928E-02 0. -1.
       -1    1    3    3    0  502  0.16290839173E+03  0.14188063651E+03  0.23801741597E+04  0.23899578008E+04  0.50400001928E-02 0.  1.
</event>
<event>
 5   0  0.3636435E-06  0.2099745E+04  0.7818609E-02  0.8561356E-01
       -2   -1    0    0    0  501  0.00000000000E+00  0.00000000000E+00  0.76235492361E+03  0.76235492361E+03  0.25500000920E-02 0.  1.
        2   -1    0    0  501    0  0.00000000000E+00  0.00000000000E+00 -0.14458261396E+04  0.14458261396E+04  0.25500000920E-02 0. -1.
    10030    2    1    2    0    0  0.00000000000E+00  0.00000000000E+00 -0.68347121594E+03  0.22081810632E+04  0.20997453904E+04 0.  0.
        4    1    3    3  502    0 -0.11153861166E+03 -0.64062259165E+03 -0.12085548541E+04  0.13723864671E+04  0.12699999809E+01 0. -1.
       -4    1    3    3    0  502  0.11153861166E+03  0.64062259165E+03  0.52508363817E+03  0.83579459605E+03  0.12699999809E+01 0.  1.
</event>
<event>
 5   0  0.3480134E-06  0.2099680E+04  0.7818609E-02  0.8561384E-01
        2   -1    0    0  501    0  0.00000000000E+00  0.00000000000E+00  0.13671330325E+04  0.13671330325E+04  0.25500000920E-02 0.  1.
       -2   -1    0    0    0  501  0.00000000000E+00  0.00000000000E+00 -0.80618647381E+03  0.80618647382E+03  0.25500000920E-02 0. -1.
    10030    2    1    2    0    0  0.00000000000E+00  0.00000000000E+00  0.56094655872E+03  0.21733195064E+04  0.20996801268E+04 0.  0.
        1    1    3    3  502    0 -0.84457689601E+03  0.58182685455E+03  0.48258137132E+02  0.10267236579E+04  0.50400001928E-02 0.  1.
       -1    1    3    3    0  502  0.84457689601E+03 -0.58182685455E+03  0.51268842159E+03  0.11465958484E+04  0.50400001928E-02 0. -1.
</event>
<event>
 5   0  0.3547583E-06  0.2102172E+04  0.7818609E-02  0.8560287E-01
        2   -1    0    0  501    0  0.00000000000E+00  0.00000000000E+00  0.15071500887E+04  0.15071500887E+04  0.25500000920E-02 0.  1.
       -2   -1    0    0    0  501  0.00000000000E+00  0.00000000000E+00 -0.73302677637E+03  0.73302677638E+03  0.25500000920E-02 0. -1.
    10030    2    1    2    0    0  0.00000000000E+00  0.00000000000E+00  0.77412331230E+03  0.22401768651E+04  0.21021716115E+04 0.  0.
        2    1    3    3  502    0  0.65706230958E+03  0.59561960998E+02 -0.48488589215E+03  0.81877520375E+03  0.25500000920E-02 0. -1.
       -2    1    3    3    0  502 -0.65706230958E+03 -0.59561960998E+02  0.12590092044E+04  0.14214016613E+04  0.25500000920E-02 0.  1.
</event>
<event>
 5   0  0.1653260E-06  0.2099971E+04  0.7818609E-02  0.8561256E-01
        1   -1    0    0  501    0  0.00000000000E+00  0.00000000000E+00  0.30739679736E+04  0.30739679736E+04  0.50400001928E-02 0.  1.
       -1   -1    0    0    0  501  0.00000000000E+00  0.00000000000E+00 -0.35864719844E+03  0.35864719848E+03  0.50400001928E-02 0. -1.
    10030    2    1    2    0    0  0.00000000000E+00  0.00000000000E+00  0.27153207752E+04  0.34326151721E+04  0.20999714302E+04 0.  0.
        3    1    3    3  502    0 -0.71303819987E+03  0.12043266377E+03  0.11327651789E+03  0.73195565486E+03  0.10100000352E+00 0. -1.
       -3    1    3    3    0  502  0.71303819987E+03 -0.12043266377E+03  0.26020442573E+04  0.27006595173E+04  0.10100000352E+00 0.  1.
</event>
<event>
 5   0  0.3574927E-06  0.2100782E+04  0.7818609E-02  0.8560899E-01
       -2   -1    0    0    0  501  0.00000000000E+00  0.00000000000E+00  0.13767741367E+04  0.13767741367E+04  0.25500000920E-02 0. -1.
        2   -1    0    0  501    0  0.00000000000E+00  0.00000000000E+00 -0.80138127892E+03  0.80138127892E+03  0.25500000920E-02 0.  1.
    10030    2    1    2    0    0  0.00000000000E+00  0.00000000000E+00  0.57539285777E+03  0.21781554156E+04  0.21007817768E+04 0.  0.
        3    1    3    3  502    0  0.18558258508E+03 -0.58989620635E+03 -0.59263501045E+03  0.85652477837E+03  0.10100000352E+00 0.  1.
       -3    1    3    3    0  502 -0.18558258508E+03  0.58989620635E+03  0.11680278682E+04  0.13216306372E+04  0.10100000352E+00 0. -1.
</event>
<event>
 5   0  0.3705828E-06  0.2100078E+04  0.7818609E-02  0.8561209E-01
        2   -1    0    0  501    0  0.00000000000E+00  0.00000000000E+00  0.11220350005E+04  0.11220350005E+04  0.25500000920E-02 0. -1.
       -2   -1    0    0    0  501  0.00000000000E+00  0.00000000000E+00 -0.98266266029E+03  0.98266266029E+03  0.25500000920E-02 0.  1.
    10030    2    1    2    0    0  0.00000000000E+00  0.00000000000E+00  0.13937234025E+03  0.21046976608E+04  0.21000779972E+04 0.  0.
        5    1    3    3  502    0 -0.89666093805E+03  0.43865673062E+03 -0.25682067261E+03  0.10307276619E+04  0.46999998093E+01 0.  1.
       -5    1    3    3    0  502  0.89666093805E+03 -0.43865673062E+03  0.39619301285E+03  0.10739699989E+04  0.46999998093E+01 0. -1.
</event>
<event>
 5   0  0.3480134E-06  0.2099859E+04  0.7818609E-02  0.8561306E-01
        2   -1    0    0  501    0  0.00000000000E+00  0.00000000000E+00  0.13990846916E+04  0.13990846916E+04  0.25500000920E-02 0.  1.
       -2   -1    0    0    0  501  0.00000000000E+00  0.00000000000E+00 -0.78790906376E+03  0.78790906376E+03  0.25500000920E-02 0. -1.
    10030    2    1    2    0    0  0.00000000000E+00  0.00000000000E+00  0.61117562787E+03  0.21869937554E+04  0.20998585757E+04 0.  0.
        1    1    3    3  502    0 -0.13423769167E+03 -0.99029782914E+03 -0.29705820212E+02  0.99979597121E+03  0.50400001928E-02 0. -1.
       -1    1    3    3    0  502  0.13423769167E+03  0.99029782914E+03  0.64088144808E+03  0.11871977842E+04  0.50400001928E-02 0.  1.
</event>
<event>
 5   0  0.1653260E-06  0.2100262E+04  0.7818609E-02  0.8561128E-01
       -1   -1    0    0    0  501  0.00000000000E+00  0.00000000000E+00  0.78897106216E+03  0.78897106218E+03  0.50400001928E-02 0.  1.
        1   -1    0    0  501    0  0.00000000000E+00  0.00000000000E+00 -0.13977376978E+04  0.13977376978E+04  0.50400001928E-02 0. -1.
    10030    2    1    2    0    0  0.00000000000E+00  0.00000000000E+00 -0.60876663559E+03  0.21867087599E+04  0.21002615038E+04 0.  0.
        3    1    3    3  502    0 -0.26102116023E+02  0.87984011311E+02  0.78478777465E+03  0.79013566439E+03  0.10100000352E+00 0.  1.
       -3    1    3    3    0  502  0.26102116023E+02 -0.87984011311E+02 -0.13935544102E+04  0.13965730955E+04  0.10100000352E+00 0. -1.
</event>
<event>
 5   0  0.1646510E-06  0.2090046E+04  0.7818609E-02  0.8565641E-01
       -1   -1    0    0    0  501  0.00000000000E+00  0.00000000000E+00  0.62040832161E+03  0.62040832163E+03  0.50400001928E-02 0.  1.
        1   -1    0    0  501    0  0.00000000000E+00  0.00000000000E+00 -0.17602482766E+04  0.17602482766E+04  0.50400001928E-02 0. -1.
    10030    2    1    2    0    0  0.00000000000E+00  0.00000000000E+00 -0.11398399550E+04  0.23806565982E+04  0.20900456253E+04 0.  0.
        4    1    3    3  502    0  0.61551912506E+03  0.74858044945E+03 -0.10152190662E+04  0.14035340565E+04  0.12699999809E+01 0. -1.
       -4    1    3    3    0  502 -0.61551912506E+03 -0.74858044945E+03 -0.12462088877E+03  0.97712254166E+03  0.12699999809E+01 0.  1.
</event>
<event>
 5   0  0.1653260E-06  0.2114337E+04  0.7818609E-02  0.8554954E-01
        1   -1    0    0  501    0  0.00000000000E+00  0.00000000000E+00  0.15702093923E+04  0.15702093923E+04  0.50400001928E-02 0. -1.
       -1   -1    0    0    0  501  0.00000000000E+00  0.00000000000E+00 -0.71175587770E+03  0.71175587772E+03  0.50400001928E-02 0.  1.
    10030    2    1    2    0    0  0.00000000000E+00  0.00000000000E+00  0.85845351456E+03  0.22819652700E+04  0.21143374983E+04 0.  0.
        3    1    3    3  502    0 -0.45646987029E+03  0.43586848132E+03  0.13445565021E+04  0.14853209327E+04  0.10100000352E+00 0. -1.
       -3    1    3    3    0  502  0.45646987029E+03 -0.43586848132E+03 -0.48610298754E+03  0.79664433732E+03  0.10100000352E+00 0.  1.
</event>
<event>
 5   0  0.3636435E-06  0.2085697E+04  0.7818609E-02  0.8567570E-01
        2   -1    0    0  501    0  0.00000000000E+00  0.00000000000E+00  0.13663928117E+04  0.13663928117E+04  0.25500000920E-02 0.  1.
       -2   -1    0    0    0  501  0.00000000000E+00  0.00000000000E+00 -0.79591522963E+03  0.79591522963E+03  0.25500000920E-02 0. -1.
    10030    2    1    2    0    0  0.00000000000E+00  0.00000000000E+00  0.57047758205E+03  0.21623080413E+04  0.20856968605E+04 0.  0.
        4    1    3    3  502    0  0.28726920749E+03 -0.94991595423E+03 -0.46948095586E+02  0.99351379168E+03  0.12699999809E+01 0. -1.
       -4    1    3    3    0  502 -0.28726920749E+03  0.94991595423E+03  0.61742567764E+03  0.11687942496E+04  0.12699999809E+01 0.  1.
</event>
<event>
 5   0  0.3705828E-06  0.2099904E+04  0.7818609E-02  0.8561286E-01
       -2   -1    0    0    0  501  0.00000000000E+00  0.00000000000E+00  0.62492922540E+03  0.62492922541E+03  0.25500000920E-02 0.  1.
        2   -1    0    0  501    0  0.00000000000E+00  0.00000000000E+00 -0.17640383344E+04  0.17640383344E+04  0.25500000920E-02 0. -1.
    10030    2    1    2    0    0  0.00000000000E+00  0.00000000000E+00 -0.11391091090E+04  0.23889675598E+04  0.20999039120E+04 0.  0.
        5    1    3    3  502    0  0.39634593136E+03  0.91970448119E+03 -0.92828714841E+03  0.13655348952E+04  0.46999998093E+01 0. -1.
       -5    1    3    3    0  502 -0.39634593136E+03 -0.91970448119E+03 -0.21082196062E+03  0.10234326647E+04  0.46999998093E+01 0.  1.
</event>
<event>
 5   0  0.3547583E-06  0.2100448E+04  0.7818609E-02  0.8561046E-01
       -2   -1    0    0    0  501  0.00000000000E+00  0.00000000000E+00  0.45231634238E+03  0.45231634239E+03  0.25500000920E-02 0. -1.
        2   -1    0    0  501    0  0.00000000000E+00  0.00000000000E+00 -0.24384934278E+04  0.24384934278E+04  0.25500000920E-02 0.  1.
    10030    2    1    2    0    0  0.00000000000E+00  0.00000000000E+00 -0.19861770854E+04  0.28908097702E+04  0.21004479791E+04 0.  0.
        2    1    3    3  502    0 -0.16421067117E+03  0.93600771689E+03 -0.16084189446E+04  0.18681774787E+04  0.25500000920E-02 0.  1.
       -2    1    3    3    0  502  0.16421067117E+03 -0.93600771689E+03 -0.37775814082E+03  0.10226322915E+04  0.25500000920E-02 0. -1.
</event>
<event>
 5   0  0.3574927E-06  0.2099856E+04  0.7818609E-02  0.8561307E-01
        2   -1    0    0  501    0  0.00000000000E+00  0.00000000000E+00  0.18694229525E+04  0.18694229525E+04  0.25500000920E-02 0.  1.
       -2   -1    0    0    0  501  0.00000000000E+00  0.00000000000E+00 -0.58967309525E+03  0.58967309526E+03  0.25500000920E-02 0. -1.
    10030    2    1    2    0    0  0.00000000000E+00  0.00000000000E+00  0.12797498572E+04  0.24590960477E+04  0.20998556319E+04 0.  0.
        3    1    3    3  502    0 -0.33201171288E+03 -0.49706965980E+03 -0.37094868424E+03  0.70350050514E+03  0.10100000352E+00 0. -1.
       -3    1    3    3    0  502  0.33201171288E+03  0.49706965980E+03  0.16506985415E+04  0.17555955426E+04  0.10100000352E+00 0.  1.
</event>
<event>
 5   0  0.3547583E-06  0.2099586E+04  0.7818609E-02  0.8561426E-01
        2   -1    0    0  501    0  0.00000000000E+00  0.00000000000E+00  0.12276892707E+04  0.12276892707E+04  0.25500000920E-02 0. -1.
       -2   -1    0    0    0  501  0.00000000000E+00  0.00000000000E+00 -0.89767408310E+03  0.89767408311E+03  0.25500000920E-02 0.  1.
    10030    2    1    2    0    0  0.00000000000E+00  0.00000000000E+00  0.33001518762E+03  0.21253633538E+04  0.20995855214E+04 0.  0.
        2    1    3    3  502    0 -0.79063923147E+03 -0.29511640984E+03 -0.46704668572E+03  0.96453962922E+03  0.25500000920E-02 0.  1.
       -2    1    3    3    0  502  0.79063923147E+03  0.29511640984E+03  0.79706187334E+03  0.11608237246E+04  0.25500000920E-02 0. -1.
</event>
<event>
 5   0  0.3574927E-06  0.2101398E+04  0.7818609E-02  0.8560628E-01
       -2   -1    0    0    0  501  0.00000000000E+00  0.00000000000E+00  0.10972611424E+04  0.10972611424E+04  0.25500000920E-02 0. -1.
        2   -1    0    0  501    0  0.00000000000E+00  0.00000000000E+00 -0.10061128248E+04  0.10061128248E+04  0.25500000920E-02 0.  1.
    10030    2    1    2    0    0  0.00000000000E+00  0.00000000000E+00  0.91148317664E+02  0.21033739672E+04  0.21013981132E+04 0.  0.
        3    1    3    3  502    0 -0.80229449609E+03 -0.34348624298E+03 -0.54004795450E+03  0.10263094372E+04  0.10100000352E+00 0.  1.
       -3    1    3    3    0  502  0.80229449609E+03  0.34348624298E+03  0.63119627217E+03  0.10770645300E+04  0.10100000352E+00 0. -1.
</event>
<event>
 5   0  0.3574927E-06  0.2102040E+04  0.7818609E-02  0.8560345E-01
        2   -1    0    0  501    0  0.00000000000E+00  0.00000000000E+00  0.24617857075E+04  0.24617857075E+04  0.25500000920E-02 0. -1.
       -2   -1    0    0    0  501  0.00000000000E+00  0.00000000000E+00 -0.44871596371E+03  0.44871596372E+03  0.25500000920E-02 0.  1.
    10030    2    1    2    0    0  0.00000000000E+00  0.00000000000E+00  0.20130697438E+04  0.29105016712E+04  0.21020395298E+04 0.  0.
        3    1    3    3  502    0 -0.47047789230E+03 -0.12084070763E+03 -0.28396967254E+03  0.56266393957E+03  0.10100000352E+00 0.  1.
       -3    1    3    3    0  502  0.47047789230E+03  0.12084070763E+03  0.22970394163E+04  0.23478377316E+04  0.10100000352E+00 0. -1.
</event>
<event>
 5   0  0.3636435E-06  0.2098860E+04  0.7818609E-02  0.8561746E-01
        2   -1    0    0  501    0  0.00000000000E+00  0.00000000000E+00  0.11980495928E+04  0.11980495928E+04  0.25500000920E-02 0. -1.
       -2   -1    0    0    0  501  0.00000000000E+00  0.00000000000E+00 -0.91924719922E+03  0.91924719923E+03  0.25500000920E-02 0.  1.
    10030    2    1    2    0    0  0.00000000000E+00  0.00000000000E+00  0.27880239353E+03  0.21172967920E+04  0.20988603886E+04 0.  0.
        4    1    3    3  502    0  0.47313188641E+03 -0.16152701397E+03  0.10701963990E+04  0.11812140803E+04  0.12699999809E+01 0. -1.
       -4    1    3    3    0  502 -0.47313188641E+03  0.16152701397E+03 -0.79139400551E+03  0.93608271164E+03  0.12699999809E+01 0.  1.
</event>
<event>
 5   0  0.1590067E-06  0.2097281E+04  0.7818609E-02  0.8562442E-01
        1   -1    0    0  501    0  0.00000000000E+00  0.00000000000E+00  0.13209611915E+04  0.13209611915E+04  0.50400001928E-02 0.  1.
       -1   -1    0    0    0  501  0.00000000000E+00  0.00000000000E+00 -0.83245966037E+03  0.83245966039E+03  0.50400001928E-02 0. -1.
    10030    2    1    2    0    0  0.00000000000E+00  0.00000000000E+00  0.48850153108E+03  0.21534208519E+04  0.20972810063E+04 0.  0.
        5    1    3    3  502    0 -0.76523191002E+03 -0.22749392399E+03 -0.45386946352E+03  0.91834249683E+03  0.46999998093E+01 0. -1.
       -5    1    3    3    0  502  0.76523191002E+03  0.22749392399E+03  0.94237099460E+03  0.12350783550E+04  0.46999998093E+01 0.  1.
</event>
<event>
 5   0  0.1579820E-06  0.2100414E+04  0.7818609E-02  0.8561061E-01
       -1   -1    0    0    0  501  0.00000000000E+00  0.00000000000E+00  0.77259500158E+03  0.77259500159E+03  0.50400001928E-02 0. -1.
        1   -1    0    0  501    0  0.00000000000E+00  0.00000000000E+00 -0.14275712495E+04  0.14275712495E+04  0.50400001928E-02 0.  1.
    10030    2    1    2    0    0  0.00000000000E+00  0.00000000000E+00 -0.65497624790E+03  0.22001662511E+04  0.21004136847E+04 0.  0.
        2    1    3    3  502    0 -0.48144363463E+03 -0.62637947261E+03  0.39732416996E+03  0.88431086903E+03  0.25500000920E-02 0. -1.
       -2    1    3    3    0  502  0.48144363463E+03  0.62637947261E+03 -0.10523004179E+04  0.13158553821E+04  0.25500000920E-02 0.  1.
</event>
<event>
 5   0  0.1579820E-06  0.2100364E+04  0.7818609E-02  0.8561083E-01
       -1   -1    0    0    0  501  0.00000000000E+00  0.00000000000E+00  0.45572661591E+03  0.45572661594E+03  0.50400001928E-02 0.  1.
        1   -1    0    0  501    0  0.00000000000E+00  0.00000000000E+00 -0.24200522888E+04  0.24200522888E+04  0.50400001928E-02 0. -1.
    10030    2    1    2    0    0  0.00000000000E+00  0.00000000000E+00 -0.19643256729E+04  0.28757789048E+04  0.21003640065E+04 0.  0.
        2    1    3    3  502    0 -0.39270281202E+03 -0.76159802367E+03 -0.18134657885E+04  0.20057181293E+04  0.25500000920E-02 0. -1.
       -2    1    3    3    0  502  0.39270281202E+03  0.76159802367E+03 -0.15085988440E+03  0.87006077544E+03  0.25500000920E-02 0.  1.
</event>
<event>
 5   0  0.1653260E-06  0.2100516E+04  0.7818609E-02  0.8561016E-01
        1   -1    0    0  501    0  0.00000000000E+00  0.00000000000E+00  0.94812991668E+03  0.94812991669E+03  0.50400001928E-02 0.  1.
       -1   -1    0    0    0  501  0.00000000000E+00  0.00000000000E+00 -0.11633870375E+04  0.11633870375E+04  0.50400001928E-02 0. -1.
    10030    2    1    2    0    0  0.00000000000E+00  0.00000000000E+00 -0.21525712085E+03  0.21115169542E+04  0.21005161794E+04 0.  0.
        3    1    3    3  502    0  0.84271773387E+03  0.51983473160E+03 -0.45966359234E+03  0.10916464425E+04  0.10100000352E+00 0. -1.
       -3    1    3    3    0  502 -0.84271773387E+03 -0.51983473160E+03  0.24440647149E+03  0.10198705117E+04  0.10100000352E+00 0.  1.
</event>
<event>
 5   0  0.3480134E-06  0.2099704E+04  0.7818609E-02  0.8561374E-01
       -2   -1    0    0    0  501  0.00000000000E+00  0.00000000000E+00  0.64786460163E+03  0.64786460163E+03  0.25500000920E-02 0.  1.
        2   -1    0    0  501    0  0.00000000000E+00  0.00000000000E+00 -0.17012640708E+04  0.17012640708E+04  0.25500000920E-02 0. -1.
    10030    2    1    2    0    0  0.00000000000E+00  0.00000000000E+00 -0.10533994692E+04  0.23491286724E+04  0.20997035691E+04 0.  0.
        1    1    3    3  502    0 -0.89079307811E+02 -0.71931053908E+03  0.32302597777E+03  0.79352917844E+03  0.50400001928E-02 0.  1.
       -1    1    3    3    0  502  0.89079307811E+02  0.71931053908E+03 -0.13764254469E+04  0.15555994940E+04  0.50400001928E-02 0. -1.
</event>
<event>
 5   0  0.1653260E-06  0.2107238E+04  0.7818609E-02  0.8558062E-01
       -1   -1    0    0    0  501  0.00000000000E+00  0.00000000000E+00  0.56798406550E+03  0.56798406552E+03  0.50400001928E-02 0.  1.
        1   -1    0    0  501    0  0.00000000000E+00  0.00000000000E+00 -0.19544782353E+04  0.19544782353E+04  0.50400001928E-02 0. -1.
    10030    2    1    2    0    0  0.00000000000E+00  0.00000000000E+00 -0.13864941698E+04  0.25224623008E+04  0.21072375225E+04 0.  0.
        3    1    3    3  502    0 -0.52573768813E+03 -0.52253108897E+03 -0.15895736288E+04  0.17539051249E+04  0.10100000352E+00 0. -1.
       -3    1    3    3    0  502  0.52573768813E+03  0.52253108897E+03  0.20307945906E+03  0.76855717585E+03  0.10100000352E+00 0.  1.
</event>
<event>
 5   0  0.3574927E-06  0.2099503E+04  0.7818609E-02  0.8561462E-01
       -2   -1    0    0    0  501  0.00000000000E+00  0.00000000000E+00  0.71241925108E+03  0.71241925108E+03  0.25500000920E-02 0. -1.
        2   -1    0    0  501    0  0.00000000000E+00  0.00000000000E+00 -0.15468113985E+04  0.15468113985E+04  0.25500000920E-02 0.  1.
    10030    2    1    2    0    0  0.00000000000E+00  0.00000000000E+00 -0.83439214741E+03  0.22592306496E+04  0.20995030060E+04 0.  0.
        3    1    3    3  502    0  0.43229966068E+03 -0.75417176845E+03  0.21606523478E+03  0.89573559092E+03  0.10100000352E+00 0. -1.
       -3    1    3    3    0  502 -0.43229966068E+03  0.75417176845E+03 -0.10504573822E+04  0.13634950586E+04  0.10100000352E+00 0.  1.
</event>
<event>
 5   0  0.1615098E-06  0.2101032E+04  0.7818609E-02  0.8560789E-01
       -1   -1    0    0    0  501  0.00000000000E+00  0.00000000000E+00  0.15688961060E+04  0.15688961060E+04  0.50400001928E-02 0.  1.
        1   -1    0    0  501    0  0.00000000000E+00  0.00000000000E+00 -0.70341436512E+03  0.70341436514E+03  0.50400001928E-02 0. -1.
    10030    2    1    2    0    0  0.00000000000E+00  0.00000000000E+00  0.86548174083E+03  0.22723104711E+04  0.21010321828E+04 0.  0.
        1    1    3    3  502    0 -0.37914497481E+03 -0.30278455970E+03  0.14404461050E+04  0.15199718362E+04  0.50400001928E-02 0.  1.
       -1    1    3    3    0  502  0.37914497481E+03  0.30278455970E+03 -0.57496436412E+03  0.75233863490E+03  0.50400001928E-02 0. -1.
</event>
<event>
 5   0  0.3636435E-06  0.2100179E+04  0.7818609E-02  0.8561164E-01
        2   -1    0    0  501    0  0.00000000000E+00  0.00000000000E+00  0.12543173493E+04  0.12543173493E+04  0.25500000920E-02 0.  1.
       -2   -1    0    0    0  501  0.00000000000E+00  0.00000000000E+00 -0.87911418884E+03  0.87911418884E+03  0.25500000920E-02 0. -1.
    10030    2    1    2    0    0  0.00000000000E+00  0.00000000000E+00  0.37520316051E+03  0.21334315382E+04  0.21001792106E+04 0.  0.
        4    1    3    3  502    0  0.10154876784E+04  0.10181072358E+02  0.45897866111E+03  0.11144424182E+04  0.12699999809E+01 0.  1.
       -4    1    3    3    0  502 -0.10154876784E+04 -0.10181072358E+02 -0.83775500595E+02  0.10189891200E+04  0.12699999809E+01 0. -1.
</event>
<event>
 5   0  0.3636435E-06  0.2093577E+04  0.7818609E-02  0.8564078E-01
        2   -1    0    0  501    0  0.00000000000E+00  0.00000000000E+00  0.91821556643E+03  0.91821556643E+03  0.25500000920E-02 0.  1.
       -2   -1    0    0    0  501  0.00000000000E+00  0.00000000000E+00 -0.11933653153E+04  0.11933653153E+04  0.25500000920E-02 0. -1.
    10030    2    1    2    0    0  0.00000000000E+00  0.00000000000E+00 -0.27514974890E+03  0.21115808818E+04  0.20935774253E+04 0.  0.
        4    1    3    3  502    0 -0.13021005773E+03 -0.91553286223E+03 -0.63231308564E+03  0.11202573508E+04  0.12699999809E+01 0. -1.
       -4    1    3    3    0  502  0.13021005773E+03  0.91553286223E+03  0.35716333674E+03  0.99132353092E+03  0.12699999809E+01 0.  1.
</event>
<event>
 5   0  0.1590067E-06  0.2098163E+04  0.7818609E-02  0.8562053E-01
       -1   -1    0    0    0  501  0.00000000000E+00  0.00000000000E+00  0.11300967069E+04  0.11300967069E+04  0.50400001928E-02 0. -1.
        1   -1    0    0  501    0  0.00000000000E+00  0.00000000000E+00 -0.97387391824E+03  0.97387391826E+03  0.50400001928E-02 0.  1.
    10030    2    1    2    0    0  0.00000000000E+00  0.00000000000E+00  0.15622278861E+03  0.21039706251E+04  0.20981627276E+04 0.  0.
        5    1    3    3  502    0 -0.50121862431E+03 -0.71185835678E+03  0.66504106294E+03  0.10955656689E+04  0.46999998093E+01 0. -1.
       -5    1    3    3    0  502  0.50121862431E+03  0.71185835678E+03 -0.50881827432E+03  0.10084049562E+04  0.46999998093E+01 0.  1.
</event>
<event>
 5   0  0.1653260E-06  0.2099799E+04  0.7818609E-02  0.8561332E-01
       -1   -1    0    0    0  501  0.00000000000E+00  0.00000000000E+00  0.11611348175E+04  0.11611348175E+04  0.50400001928E-02 0. -1.
        1   -1    0    0  501    0  0.00000000000E+00  0.00000000000E+00 -0.94932061015E+03  0.94932061017E+03  0.50400001928E-02 0.  1.
    10030    2    1    2    0    0  0.00000000000E+00  0.00000000000E+00  0.21181420735E+03  0.21104554277E+04  0.20997992413E+04 0.  0.
        3    1    3    3  502    0 -0.22551791143E+03 -0.42578158201E+03 -0.83164023651E+03  0.96113150877E+03  0.10100000352E+00 0.  1.
       -3    1    3    3    0  502  0.22551791143E+03  0.42578158201E+03  0.10434544439E+04  0.11493239189E+04  0.10100000352E+00 0. -1.
</event>
<event>
 5   0  0.1579820E-06  0.2098879E+04  0.7818609E-02  0.8561738E-01
        1   -1    0    0  501    0  0.00000000000E+00  0.00000000000E+00  0.11890820247E+04  0.11890820247E+04  0.50400001928E-02 0. -1.
       -1   -1    0    0    0  501  0.00000000000E+00  0.00000000000E+00 -0.92619577989E+03  0.92619577990E+03  0.50400001928E-02 0.  1.
    10030    2    1    2    0    0  0.00000000000E+00  0.00000000000E+00  0.26288624481E+03  0.21152778046E+04  0.20988785132E+04 0.  0.
        2    1    3    3  502    0  0.37094440487E+03  0.73799776832E+03 -0.52098063633E+03  0.97655582585E+03  0.25500000920E-02 0.  1.
       -2    1    3    3    0  502 -0.37094440487E+03 -0.73799776832E+03  0.78386688114E+03  0.11387219788E+04  0.25500000920E-02 0. -1.
</event>
<event>
 5   0  0.3636435E-06  0.2099110E+04  0.7818609E-02  0.8561635E-01
       -2   -1    0    0    0  501  0.00000000000E+00  0.00000000000E+00  0.96372449228E+03  0.96372449228E+03  0.25500000920E-02 0. -1.
        2   -1    0    0  501    0  0.00000000000E+00  0.00000000000E+00 -0.11430301107E+04  0.11430301107E+04  0.25500000920E-02 0.  1.
    10030    2    1    2    0    0  0.00000000000E+00  0.00000000000E+00 -0.17930561847E+03  0.21067546030E+04  0.20991103955E+04 0.  0.
        4    1    3    3  502    0 -0.83267286110E+03 -0.53327539566E+03 -0.44284021943E+03  0.10834370374E+04  0.12699999809E+01 0.  1.
       -4    1    3    3    0  502  0.83267286110E+03  0.53327539566E+03  0.26353460097E+03  0.10233175656E+04  0.12699999809E+01 0. -1.
</event>
<event>
 5   0  0.1653260E-06  0.2098458E+04  0.7818609E-02  0.8561923E-01
        1   -1    0    0  501    0  0.00000000000E+00  0.00000000000E+00  0.73727202282E+03  0.73727202284E+03  0.50400001928E-02 0. -1.
       -1   -1    0    0    0  501  0.00000000000E+00  0.00000000000E+00 -0.14931824435E+04  0.14931824435E+04  0.50400001928E-02 0.  1.
    10030    2    1    2    0    0  0.00000000000E+00  0.00000000000E+00 -0.75591042068E+03  0.22304544664E+04  0.20984581393E+04 0.  0.
        3    1    3    3  502    0  0.10070569083E+03  0.93102039693E+03 -0.88094581440E+03  0.12856928691E+04  0.10100000352E+00 0.  1.
       -3    1    3    3    0  502 -0.10070569083E+03 -0.93102039693E+03  0.12503539371E+03  0.94476159720E+03  0.10100000352E+00 0. -1.
</event>
<event>
 5   0  0.3547583E-06  0.2101844E+04  0.7818609E-02  0.8560432E-01
        2   -1    0    0  501    0  0.00000000000E+00  0.00000000000E+00  0.16320699335E+04  0.16320699335E+04  0.25500000920E-02 0.  1.
       -2   -1    0    0    0  501  0.00000000000E+00  0.00000000000E+00 -0.67670935752E+03  0.67670935753E+03  0.25500000920E-02 0. -1.
    10030    2    1    2    0    0  0.00000000000E+00  0.00000000000E+00  0.95536057597E+03  0.23087792910E+04  0.21018439487E+04 0.  0.
        2    1    3    3  502    0  0.38349080711E+03 -0.97173888140E+03  0.60338176906E+03  0.12064042490E+04  0.25500000920E-02 0. -1.
       -2    1    3    3    0  502 -0.38349080711E+03  0.97173888140E+03  0.35197880691E+03  0.11023750420E+04  0.25500000920E-02 0.  1.
</event>
<event>
 5   0  0.3636435E-06  0.2106338E+04  0.7818609E-02  0.8558457E-01
       -2   -1    0    0    0  501  0.00000000000E+00  0.00000000000E+00  0.77687369009E+03  0.77687369009E+03  0.25500000920E-02 0. -1.
        2   -1    0    0  501    0  0.00000000000E+00  0.00000000000E+00 -0.14277285829E+04  0.14277285830E+04  0.25500000920E-02 0.  1.
    10030    2    1    2    0    0  0.00000000000E+00  0.00000000000E+00 -0.65085489286E+03  0.22046022730E+04  0.21063378387E+04 0.  0.
        4    1    3    3  502    0  0.87121420021E+03  0.82589407775E+02 -0.93870463659E+03  0.12833562251E+04  0.12699999809E+01 0.  1.
       -4    1    3    3    0  502 -0.87121420021E+03 -0.82589407775E+02  0.28784974373E+03  0.92124604791E+03  0.12699999809E+01 0. -1.
</event>
<event>
 5   0  0.1590067E-06  0.2100001E+04  0.7818609E-02  0.8561243E-01
        1   -1    0    0  501    0  0.00000000000E+00  0.00000000000E+00  0.70673350209E+03  0.70673350211E+03  0.50400001928E-02 0. -1.
       -1   -1    0    0    0  501  0.00000000000E+00  0.00000000000E+00 -0.15599955360E+04  0.15599955360E+04  0.50400001928E-02 0.  1.
    10030    2    1    2    0    0  0.00000000000E+00  0.00000000000E+00 -0.85326203387E+03  0.22667290381E+04  0.21000010556E+04 0.  0.
        5    1    3    3  502    0  0.36606640289E+03 -0.77965887284E+03 -0.10748128279E+04  0.13773588038E+04  0.46999998093E+01 0.  1.
       -5    1    3    3    0  502 -0.36606640289E+03  0.77965887284E+03  0.22155079404E+03  0.88937023430E+03  0.46999998093E+01 0. -1.
</event>
<event>
 5   0  0.1579820E-06  0.2097754E+04  0.7818609E-02  0.8562233E-01
       -1   -1    0    0    0  501  0.00000000000E+00  0.00000000000E+00  0.73835010284E+03  0.73835010286E+03  0.50400001928E-02 0.  1.
        1   -1    0    0  501    0  0.00000000000E+00  0.00000000000E+00 -0.14900016477E+04  0.14900016477E+04  0.50400001928E-02 0. -1.
    10030    2    1    2    0    0  0.00000000000E+00  0.00000000000E+00 -0.75165154482E+03  0.22283517505E+04  0.20977539129E+04 0.  0.
        2    1    3    3  502    0 -0.38400522378E+03  0.94540088456E+03 -0.11802337755E+03  0.10272158303E+04  0.25500000920E-02 0. -1.
       -2    1    3    3    0  502  0.38400522378E+03 -0.94540088456E+03 -0.63362816727E+03  0.12011359202E+04  0.25500000920E-02 0.  1.
</event>
<event>
 5   0  0.3547583E-06  0.2099121E+04  0.7818609E-02  0.8561630E-01
        2   -1    0    0  501    0  0.00000000000E+00  0.00000000000E+00  0.67572121758E+03  0.67572121758E+03  0.25500000920E-02 0. -1.
       -2   -1    0    0    0  501  0.00000000000E+00  0.00000000000E+00 -0.16302251135E+04  0.16302251135E+04  0.25500000920E-02 0.  1.
    10030    2    1    2    0    0  0.00000000000E+00  0.00000000000E+00 -0.95450389596E+03  0.23059463311E+04  0.20991214340E+04 0.  0.
        2    1    3    3  502    0  0.66140942015E+03 -0.66144007095E+03 -0.10001937765E+04  0.13694352774E+04  0.25500000920E-02 0.  1.
       -2    1    3    3    0  502 -0.66140942015E+03  0.66144007095E+03  0.45689880521E+02  0.93651105370E+03  0.25500000920E-02 0. -1.
</event>
<event>
 5   0  0.3574927E-06  0.2104496E+04  0.7818609E-02  0.8559266E-01
        2   -1    0    0  501    0  0.00000000000E+00  0.00000000000E+00  0.91044992822E+03  0.91044992822E+03  0.25500000920E-02 0. -1.
       -2   -1    0    0    0  501  0.00000000000E+00  0.00000000000E+00 -0.12161301543E+04  0.12161301543E+04  0.25500000920E-02 0.  1.
    10030    2    1    2    0    0  0.00000000000E+00  0.00000000000E+00 -0.30568022611E+03  0.21265800826E+04  0.21044957702E+04 0.  0.
        3    1    3    3  502    0 -0.79730041169E+03 -0.48010218777E+03  0.34326971844E+03  0.99197790650E+03  0.10100000352E+00 0. -1.
       -3    1    3    3    0  502  0.79730041169E+03  0.48010218777E+03 -0.64894994455E+03  0.11346021761E+04  0.10100000352E+00 0.  1.
</event>
<event>
 5   0  0.3705828E-06  0.2099649E+04  0.7818609E-02  0.8561398E-01
       -2   -1    0    0    0  501  0.00000000000E+00  0.00000000000E+00  0.12561923654E+04  0.12561923654E+04  0.25500000920E-02 0.  1.
        2   -1    0    0  501    0  0.00000000000E+00  0.00000000000E+00 -0.87735847289E+03  0.87735847289E+03  0.25500000920E-02 0. -1.
    10030    2    1    2    0    0  0.00000000000E+00  0.00000000000E+00  0.37883389247E+03  0.21335508383E+04  0.20996485566E+04 0.  0.
        5    1    3    3  502    0  0.52760949146E+03  0.90228199326E+03  0.89729104496E+02  0.10490748177E+04  0.46999998093E+01 0.  1.
       -5    1    3    3    0  502 -0.52760949146E+03 -0.90228199326E+03  0.28910478797E+03  0.10844760206E+04  0.46999998093E+01 0. -1.
</event>
<event>
 5   0  0.1579820E-06  0.2100078E+04  0.7818609E-02  0.8561209E-01
       -1   -1    0    0    0  501  0.00000000000E+00  0.00000000000E+00  0.85270308344E+03  0.85270308345E+03  0.50400001928E-02 0. -1.
        1   -1    0    0  501    0  0.00000000000E+00  0.00000000000E+00 -0.12930426333E+04  0.12930426333E+04  0.50400001928E-02 0.  1.
    10030    2    1    2    0    0  0.00000000000E+00  0.00000000000E+00 -0.44033954983E+03  0.21457457167E+04  0.21000775609E+04 0.  0.
        2    1    3    3  502    0  0.13302144549E+03  0.10396182463E+04 -0.15490078001E+03  0.10594786712E+04  0.25500000920E-02 0.  1.
       -2    1    3    3    0  502 -0.13302144549E+03 -0.10396182463E+04 -0.28543876982E+03  0.10862670456E+04  0.25500000920E-02 0. -1.
</event>
<event>
 5   0  0.3547583E-06  0.2099086E+04  0.7818609E-02  0.8561646E-01
       -2   -1    0    0    0  501  0.00000000000E+00  0.00000000000E+00  0.84903073043E+03  0.84903073043E+03  0.25500000920E-02 0. -1.
        2   -1    0    0  501    0  0.00000000000E+00  0.00000000000E+00 -0.12974094625E+04  0.12974094625E+04  0.25500000920E-02 0.  1.
    10030    2    1    2    0    0  0.00000000000E+00  0.00000000000E+00 -0.44837873203E+03  0.21464401929E+04  0.20990859950E+04 0.  0.
        2    1    3    3  502    0  0.90842343687E+03 -0.22372407102E+03  0.26220390783E+03  0.97161540226E+03  0.25500000920E-02 0. -1.
       -2    1    3    3    0  502 -0.90842343687E+03  0.22372407102E+03 -0.71058263986E+03  0.11748247906E+04  0.25500000920E-02 0.  1.
</event>
<event>
 5   0  0.1579820E-06  0.2100126E+04  0.7818609E-02  0.8561188E-01
       -1   -1    0    0    0  501  0.00000000000E+00  0.00000000000E+00  0.85099694211E+03  0.85099694213E+03  0.50400001928E-02 0.  1.
        1   -1    0    0  501    0  0.00000000000E+00  0.00000000000E+00 -0.12956951919E+04  0.12956951919E+04  0.50400001928E-02 0. -1.
    10030    2    1    2    0    0  0.00000000000E+00  0.00000000000E+00 -0.44469824982E+03  0.21466921341E+04  0.21001263260E+04 0.  0.
        2    1    3    3  502    0  0.86183231888E+03 -0.46979290746E+03 -0.60367896069E+03  0.11523404919E+04  0.25500000920E-02 0. -1.
       -2    1    3    3    0  502 -0.86183231888E+03  0.46979290746E+03  0.15898071087E+03  0.99435164213E+03  0.25500000920E-02 0.  1.
</event>
<event>
 5   0  0.3705828E-06  0.2100148E+04  0.7818609E-02  0.8561178E-01
       -2   -1    0    0    0  501  0.00000000000E+00  0.00000000000E+00  0.64590635572E+03  0.64590635572E+03  0.25500000920E-02 0.  1.
        2   -1    0    0  501    0  0.00000000000E+00  0.00000000000E+00 -0.17071445880E+04  0.17071445880E+04  0.25500000920E-02 0. -1.
    10030    2    1    2    0    0  0.00000000000E+00  0.00000000000E+00 -0.10612382323E+04  0.23530509437E+04  0.21001481276E+04 0.  0.
        5    1    3    3  502    0 -0.21450348878E+03 -0.24221372225E+03 -0.16498938773E+04  0.16813242192E+04  0.46999998093E+01 0. -1.
       -5    1    3    3    0  502  0.21450348878E+03  0.24221372225E+03  0.58865564501E+03  0.67172672446E+03  0.46999998093E+01 0.  1.
</event>
<event>
 5   0  0.1615098E-06  0.2099130E+04  0.7818609E-02  0.8561627E-01
        1   -1    0    0  501    0  0.00000000000E+00  0.00000000000E+00  0.10094305194E+04  0.10094305194E+04  0.50400001928E-02 0.  1.
       -1   -1    0    0    0  501  0.00000000000E+00  0.00000000000E+00 -0.10912947161E+04  0.10912947161E+04  0.50400001928E-02 0. -1.
    10030    2    1    2    0    0  0.00000000000E+00  0.00000000000E+00 -0.81864196688E+02  0.21007252354E+04  0.20991295263E+04 0.  0.
        1    1    3    3  502    0 -0.79897830778E+03 -0.78649384177E+02  0.63562480797E+03  0.10239975383E+04  0.50400001928E-02 0.  1.
       -1    1    3    3    0  502  0.79897830778E+03  0.78649384177E+02 -0.71748900466E+03  0.10767276971E+04  0.50400001928E-02 0. -1.
</event>
<event>
 5   0  0.1579820E-06  0.2098814E+04  0.7818609E-02  0.8561766E-01
        1   -1    0    0  501    0  0.00000000000E+00  0.00000000000E+00  0.81780803525E+03  0.81780803527E+03  0.50400001928E-02 0. -1.
       -1   -1    0    0    0  501  0.00000000000E+00  0.00000000000E+00 -0.13465932196E+04  0.13465932196E+04  0.50400001928E-02 0.  1.
    10030    2    1    2    0    0  0.00000000000E+00  0.00000000000E+00 -0.52878518433E+03  0.21644012549E+04  0.20988137175E+04 0.  0.
        2    1    3    3  502    0  0.74962216474E+03 -0.71673563775E+03 -0.42942926728E+03  0.11225207615E+04  0.25500000920E-02 0. -1.
       -2    1    3    3    0  502 -0.74962216474E+03  0.71673563775E+03 -0.99355917051E+02  0.10418804934E+04  0.25500000920E-02 0.  1.
</event>
<event>
 5   0  0.1615098E-06  0.2100588E+04  0.7818609E-02  0.8560984E-01
        1   -1    0    0  501    0  0.00000000000E+00  0.00000000000E+00  0.67058110125E+03  0.67058110127E+03  0.50400001928E-02 0. -1.
       -1   -1    0    0    0  501  0.00000000000E+00  0.00000000000E+00 -0.16450174254E+04  0.16450174254E+04  0.50400001928E-02 0.  1.
    10030    2    1    2    0    0  0.00000000000E+00  0.00000000000E+00 -0.97443632415E+03  0.23155985267E+04  0.21005881050E+04 0.  0.
        1    1    3    3  502    0 -0.42115002709E+03 -0.13278139457E+03 -0.15377127714E+04  0.15998621226E+04  0.50400001928E-02 0.  1.
       -1    1    3    3    0  502  0.42115002709E+03  0.13278139457E+03  0.56327644724E+03  0.71573640406E+03  0.50400001928E-02 0. -1.
</event>
<event>
 5   0  0.3705828E-06  0.2100246E+04  0.7818609E-02  0.8561135E-01
        2   -1    0    0  501    0  0.00000000000E+00  0.00000000000E+00  0.19342128840E+04  0.19342128840E+04  0.25500000920E-02 0. -1.
       -2   -1    0    0    0  501  0.00000000000E+00  0.00000000000E+00 -0.57013271620E+03  0.57013271621E+03  0.25500000920E-02 0.  1.
    10030    2    1    2    0    0  0.00000000000E+00  0.00000000000E+00  0.13640801678E+04  0.25043456002E+04  0.21002457430E+04 0.  0.
        5    1    3    3  502    0  0.72922066302E+01 -0.66086941925E+03 -0.29102047533E+03  0.72216104342E+03  0.46999998093E+01 0.  1.
       -5    1    3    3    0  502 -0.72922066302E+01  0.66086941925E+03  0.16551006431E+04  0.17821845568E+04  0.46999998093E+01 0. -1.
</event>
<event>
 5   0  0.1590067E-06  0.2101755E+04  0.7818609E-02  0.8560470E-01
        1   -1    0    0  501    0  0.00000000000E+00  0.00000000000E+00  0.16740187576E+04  0.16740187576E+04  0.50400001928E-02 0.  1.
       -1   -1    0    0    0  501  0.00000000000E+00  0.00000000000E+00 -0.65969630378E+03  0.65969630380E+03  0.50400001928E-02 0. -1.
    10030    2    1    2    0    0  0.00000000000E+00  0.00000000000E+00  0.10143224538E+04  0.23337150614E+04  0.21017554443E+04 0.  0.
        5    1    3    3  502    0  0.21171877351E+03  0.23243150764E+03 -0.60623765120E+03  0.68293149329E+03  0.46999998093E+01 0. -1.
       -5    1    3    3    0  502 -0.21171877351E+03 -0.23243150764E+03  0.16205601050E+04  0.16507835681E+04  0.46999998093E+01 0.  1.
</event>
<event>
 5   0  0.1653260E-06  0.2099935E+04  0.7818609E-02  0.8561272E-01
        1   -1    0    0  501    0  0.00000000000E+00  0.00000000000E+00  0.13950888586E+04  0.13950888586E+04  0.50400001928E-02 0. -1.
       -1   -1    0    0    0  501  0.00000000000E+00  0.00000000000E+00 -0.79022365470E+03  0.79022365472E+03  0.50400001928E-02 0.  1.
    10030    2    1    2    0    0  0.00000000000E+00  0.00000000000E+00  0.60486520389E+03  0.21853125133E+04  0.20999354433E+04 0.  0.
        3    1    3    3  502    0 -0.23479700722E+03  0.40548658127E+03  0.12802533232E+04  0.13633039221E+04  0.10100000352E+00 0. -1.
       -3    1    3    3    0  502  0.23479700722E+03 -0.40548658127E+03 -0.67538811931E+03  0.82200859125E+03  0.10100000352E+00 0.  1.
</event>
<event>
 5   0  0.3480134E-06  0.2099817E+04  0.7818609E-02  0.8561324E-01
        2   -1    0    0  501    0  0.00000000000E+00  0.00000000000E+00  0.13658487912E+04  0.13658487912E+04  0.25500000920E-02 0. -1.
       -2   -1    0    0    0  501  0.00000000000E+00  0.00000000000E+00 -0.80704972560E+03  0.80704972561E+03  0.25500000920E-02 0.  1.
    10030    2    1    2    0    0  0.00000000000E+00  0.00000000000E+00  0.55879906559E+03  0.21728985168E+04  0.20998170322E+04 0.  0.
        1    1    3    3  502    0 -0.13123688236E+03  0.57006403968E+03 -0.62278778170E+03  0.85443592486E+03  0.50400001928E-02 0.  1.
       -1    1    3    3    0  502  0.13123688236E+03 -0.57006403968E+03  0.11815868473E+04  0.13184625919E+04  0.50400001928E-02 0. -1.
</event>
<event>
 5   0  0.1653260E-06  0.2100293E+04  0.7818609E-02  0.8561114E-01
        1   -1    0    0  501    0  0.00000000000E+00  0.00000000000E+00  0.10468472557E+04  0.10468472557E+04  0.50400001928E-02 0.  1.
       -1   -1    0    0    0  501  0.00000000000E+00  0.00000000000E+00 -0.10534566041E+04  0.10534566041E+04  0.50400001928E-02 0. -1.
    10030    2    1    2    0    0  0.00000000000E+00  0.00000000000E+00 -0.66093483416E+01  0.21003038598E+04  0.21002934604E+04 0.  0.
        3    1    3    3  502    0 -0.85597559821E+03  0.18041571497E+03 -0.58431021001E+03  0.10519802691E+04  0.10100000352E+00 0. -1.
       -3    1    3    3    0  502  0.85597559821E+03 -0.18041571497E+03  0.57770086167E+03  0.10483235907E+04  0.10100000352E+00 0.  1.
</event>
<event>
 5   0  0.3574927E-06  0.2099556E+04  0.7818609E-02  0.8561439E-01
        2   -1    0    0  501    0  0.00000000000E+00  0.00000000000E+00  0.65596513990E+03  0.65596513990E+03  0.25500000920E-02 0.  1.
       -2   -1    0    0    0  501  0.00000000000E+00  0.00000000000E+00 -0.16800188091E+04  0.16800188091E+04  0.25500000920E-02 0. -1.
    10030    2    1    2    0    0  0.00000000000E+00  0.00000000000E+00 -0.10240536692E+04  0.23359839490E+04  0.20995559275E+04 0.  0.
        3    1    3    3  502    0 -0.67893130389E+02  0.35348925567E+03  0.58515960306E+03  0.68700502348E+03  0.10100000352E+00 0.  1.
       -3    1    3    3    0  502  0.67893130389E+02 -0.35348925567E+03 -0.16092132723E+04  0.16489789256E+04  0.10100000352E+00 0. -1.
</event>
<event>
 5   0  0.1615098E-06  0.2100461E+04  0.7818609E-02  0.8561040E-01
        1   -1    0    0  501    0  0.00000000000E+00  0.00000000000E+00  0.13192526512E+04  0.13192526512E+04  0.50400001928E-02 0.  1.
       -1   -1    0    0    0  501  0.00000000000E+00  0.00000000000E+00 -0.83606722375E+03  0.83606722376E+03  0.50400001928E-02 0. -1.
    10030    2    1    2    0    0  0.00000000000E+00  0.00000000000E+00  0.48318542746E+03  0.21553198750E+04  0.21004608080E+04 0.  0.
        1    1    3    3  502    0  0.32956454939E+03 -0.59581236204E+03  0.10620882947E+04  0.12616008516E+04  0.50400001928E-02 0.  1.
       -1    1    3    3    0  502 -0.32956454939E+03  0.59581236204E+03 -0.57890286726E+03  0.89371902336E+03  0.50400001928E-02 0. -1.
</event>
<event>
 5   0  0.1615098E-06  0.2100459E+04  0.7818609E-02  0.8561041E-01
       -1   -1    0    0    0  501  0.00000000000E+00  0.00000000000E+00  0.10051088411E+04  0.10051088411E+04  0.50400001928E-02 0.  1.
        1   -1    0    0  501    0  0.00000000000E+00  0.00000000000E+00 -0.10973758250E+04  0.10973758250E+04  0.50400001928E-02 0. -1.
    10030    2    1    2    0    0  0.00000000000E+00  0.00000000000E+00 -0.92266983933E+02  0.21024846661E+04  0.21004591343E+04 0.  0.
        1    1    3    3  502    0  0.38413460744E+03  0.41061358909E+03 -0.93401719102E+03  0.10902068746E+04  0.50400001928E-02 0. -1.
       -1    1    3    3    0  502 -0.38413460744E+03 -0.41061358909E+03  0.84175020709E+03  0.10122777916E+04  0.50400001928E-02 0.  1.
</event>
<event>
 5   0  0.3480134E-06  0.2100151E+04  0.7818609E-02  0.8561177E-01
        2   -1    0    0  501    0  0.00000000000E+00  0.00000000000E+00  0.11703713738E+04  0.11703713738E+04  0.25500000920E-02 0. -1.
       -2   -1    0    0    0  501  0.00000000000E+00  0.00000000000E+00 -0.94214457436E+03  0.94214457437E+03  0.25500000920E-02 0.  1.
    10030    2    1    2    0    0  0.00000000000E+00  0.00000000000E+00  0.22822679939E+03  0.21125159481E+04  0.21001514610E+04 0.  0.
        1    1    3    3  502    0  0.67941755483E+03  0.67130522215E+03  0.55303099754E+03  0.11036766734E+04  0.50400001928E-02 0.  1.
       -1    1    3    3    0  502 -0.67941755483E+03 -0.67130522215E+03 -0.32480419815E+03  0.10088392747E+04  0.50400001928E-02 0. -1.
</event>
<event>
 5   0  0.1615098E-06  0.2100719E+04  0.7818609E-02  0.8560927E-01
       -1   -1    0    0    0  501  0.00000000000E+00  0.00000000000E+00  0.78563599893E+03  0.78563599895E+03  0.50400001928E-02 0. -1.
        1   -1    0    0  501    0  0.00000000000E+00  0.00000000000E+00 -0.14042822860E+04  0.14042822860E+04  0.50400001928E-02 0.  1.
    10030    2    1    2    0    0  0.00000000000E+00  0.00000000000E+00 -0.61864628710E+03  0.21899182850E+04  0.21007186547E+04 0.  0.
        1    1    3    3  502    0  0.60251952136E+03 -0.54828759305E+03  0.38185763895E+03  0.89970234787E+03  0.50400001928E-02 0. -1.
       -1    1    3    3    0  502 -0.60251952136E+03  0.54828759305E+03 -0.10005039261E+04  0.12902159371E+04  0.50400001928E-02 0.  1.
</event>
<event>
 5   0  0.1615098E-06  0.2101259E+04  0.7818609E-02  0.8560689E-01
        1   -1    0    0  501    0  0.00000000000E+00  0.00000000000E+00  0.18331093907E+04  0.18331093907E+04  0.50400001928E-02 0. -1.
       -1   -1    0    0    0  501  0.00000000000E+00  0.00000000000E+00 -0.60215873927E+03  0.60215873929E+03  0.50400001928E-02 0.  1.
    10030    2    1    2    0    0  0.00000000000E+00  0.00000000000E+00  0.12309506514E+04  0.24352681300E+04  0.21012594696E+04 0.  0.
        1    1    3    3  502    0 -0.47723261650E+03  0.52044568487E+03  0.15170869213E+04  0.16733700750E+04  0.50400001928E-02 0. -1.
       -1    1    3    3    0  502  0.47723261650E+03 -0.52044568487E+03 -0.28613626991E+03  0.76189805495E+03  0.50400001928E-02 0.  1.
</event>
<event>
 5   0  0.3574927E-06  0.2100158E+04  0.7818609E-02  0.8561174E-01
       -2   -1    0    0    0  501  0.00000000000E+00  0.00000000000E+00  0.15367523452E+04  0.15367523452E+04  0.25500000920E-02 0.  1.
        2   -1    0    0  501    0  0.00000000000E+00  0.00000000000E+00 -0.71753021037E+03  0.71753021037E+03  0.25500000920E-02 0. -1.
    10030    2    1    2    0    0  0.00000000000E+00  0.00000000000E+00  0.81922213479E+03  0.22542825555E+04  0.21001583117E+04 0.  0.
        3    1    3    3  502    0 -0.86409996097E+03 -0.59413809932E+03  0.35084472691E+03  0.11057851763E+04  0.10100000352E+00 0. -1.
       -3    1    3    3    0  502  0.86409996097E+03  0.59413809932E+03  0.46837740789E+03  0.11484973792E+04  0.10100000352E+00 0.  1.
</event>
<event>
 5   0  0.3705828E-06  0.2104188E+04  0.7818609E-02  0.8559401E-01
       -2   -1    0    0    0  501  0.00000000000E+00  0.00000000000E+00  0.13308713055E+04  0.13308713055E+04  0.25500000920E-02 0. -1.
        2   -1    0    0  501    0  0.00000000000E+00  0.00000000000E+00 -0.83171230884E+03  0.83171230885E+03  0.25500000920E-02 0.  1.
    10030    2    1    2    0    0  0.00000000000E+00  0.00000000000E+00  0.49915899665E+03  0.21625836143E+04  0.21041882485E+04 0.  0.
        5    1    3    3  502    0 -0.71744035361E+03 -0.76872966556E+03  0.28538889846E+03  0.10895571913E+04  0.46999998093E+01 0. -1.
       -5    1    3    3    0  502  0.71744035361E+03  0.76872966556E+03  0.21377009818E+03  0.10730264231E+04  0.46999998093E+01 0.  1.
</event>
<event>
 5   0  0.3547583E-06  0.2099819E+04  0.7818609E-02  0.8561323E-01
        2   -1    0    0  501    0  0.00000000000E+00  0.00000000000E+00  0.21834476661E+04  0.21834476661E+04  0.25500000920E-02 0. -1.
       -2   -1    0    0    0  501  0.00000000000E+00  0.00000000000E+00 -0.50484843008E+03  0.50484843009E+03  0.25500000920E-02 0.  1.
    10030    2    1    2    0    0  0.00000000000E+00  0.00000000000E+00  0.16785992360E+04  0.26882960962E+04  0.20998191602E+04 0.  0.
        2    1    3    3  502    0 -0.46413321840E+03 -0.55073828874E+03  0.18173125459E+04  0.19548291988E+04  0.25500000920E-02 0. -1.
       -2    1    3    3    0  502  0.46413321840E+03  0.55073828874E+03 -0.13871330993E+03  0.73346689732E+03  0.25500000920E-02 0.  1.
</event>
<event>
 5   0  0.3547583E-06  0.2100369E+04  0.7818609E-02  0.8561081E-01
        2   -1    0    0  501    0  0.00000000000E+00  0.00000000000E+00  0.12804419906E+04  0.12804419906E+04  0.25500000920E-02 0.  1.
       -2   -1    0    0    0  501  0.00000000000E+00  0.00000000000E+00 -0.86133315905E+03  0.86133315905E+03  0.25500000920E-02 0. -1.
    10030    2    1    2    0    0  0.00000000000E+00  0.00000000000E+00  0.41910883156E+03  0.21417751497E+04  0.21003686769E+04 0.  0.
        2    1    3    3  502    0  0.32953735261E+03 -0.26262721769E+03  0.11904530604E+04  0.12628326933E+04  0.25500000920E-02 0.  1.
       -2    1    3    3    0  502 -0.32953735261E+03  0.26262721769E+03 -0.77134422884E+03  0.87894245637E+03  0.25500000920E-02 0. -1.
</event>
<event>
 5   0  0.3574927E-06  0.2100087E+04  0.7818609E-02  0.8561205E-01
        2   -1    0    0  501    0  0.00000000000E+00  0.00000000000E+00  0.32059695895E+04  0.32059695895E+04  0.25500000920E-02 0.  1.
       -2   -1    0    0    0  501  0.00000000000E+00  0.00000000000E+00 -0.34391821659E+03  0.34391821659E+03  0.25500000920E-02 0. -1.
    10030    2    1    2    0    0  0.00000000000E+00  0.00000000000E+00  0.28620513729E+04  0.35498878061E+04  0.21000869922E+04 0.  0.
        3    1    3    3  502    0  0.84461897203E+02 -0.22014282612E+03 -0.29858984032E+03  0.38046363679E+03  0.10100000352E+00 0. -1.
       -3    1    3    3    0  502 -0.84461897203E+02  0.22014282612E+03  0.31606412132E+04  0.31694241693E+04  0.10100000352E+00 0.  1.
</event>
<event>
 5   0  0.1579820E-06  0.2094514E+04  0.7818609E-02  0.8563664E-01
        1   -1    0    0  501    0  0.00000000000E+00  0.00000000000E+00  0.13376422514E+04  0.13376422514E+04  0.50400001928E-02 0.  1.
       -1   -1    0    0    0  501  0.00000000000E+00  0.00000000000E+00 -0.81991062067E+03  0.81991062068E+03  0.50400001928E-02 0. -1.
    10030    2    1    2    0    0  0.00000000000E+00  0.00000000000E+00  0.51773163075E+03  0.21575528721E+04  0.20945138707E+04 0.  0.
        2    1    3    3  502    0 -0.41866253006E+03 -0.61544000421E+03 -0.49998965253E+03  0.89667963371E+03  0.25500000920E-02 0. -1.
       -2    1    3    3    0  502  0.41866253006E+03  0.61544000421E+03  0.10177212833E+04  0.12608732384E+04  0.25500000920E-02 0.  1.
</event>
<event>
 5   0  0.3480134E-06  0.2097485E+04  0.7818609E-02  0.8562352E-01
        2   -1    0    0  501    0  0.00000000000E+00  0.00000000000E+00  0.16619282006E+04  0.16619282006E+04  0.25500000920E-02 0. -1.
       -2   -1    0    0    0  501  0.00000000000E+00  0.00000000000E+00 -0.66179809223E+03  0.66179809224E+03  0.25500000920E-02 0.  1.
    10030    2    1    2    0    0  0.00000000000E+00  0.00000000000E+00  0.10001301083E+04  0.23237262928E+04  0.20974850775E+04 0.  0.
        1    1    3    3  502    0  0.48859746480E+03  0.94486096494E+02  0.15227887939E+04  0.16020427010E+04  0.50400001928E-02 0. -1.
       -1    1    3    3    0  502 -0.48859746480E+03 -0.94486096494E+02 -0.52265868556E+03  0.72168359179E+03  0.50400001928E-02 0.  1.
</event>
<event>
 5   0  0.1653260E-06  0.2100334E+04  0.7818609E-02  0.8561096E-01
       -1   -1    0    0    0  501  0.00000000000E+00  0.00000000000E+00  0.41047966366E+03  0.41047966369E+03  0.50400001928E-02 0. -1.
        1   -1    0    0  501    0  0.00000000000E+00  0.00000000000E+00 -0.26867368072E+04  0.26867368072E+04  0.50400001928E-02 0.  1.
    10030    2    1    2    0    0  0.00000000000E+00  0.00000000000E+00 -0.22762571436E+04  0.30972164709E+04  0.21003340887E+04 0.  0.
        3    1    3    3  502    0  0.86474514882E+02 -0.53649752406E+03 -0.24632818296E+04  0.25225116089E+04  0.10100000352E+00 0.  1.
       -3    1    3    3    0  502 -0.86474514882E+02  0.53649752406E+03  0.18702468600E+03  0.57470486201E+03  0.10100000352E+00 0. -1.
</event>
<event>
 5   0  0.1653260E-06  0.2101101E+04  0.7818609E-02  0.8560759E-01
       -1   -1    0    0    0  501  0.00000000000E+00  0.00000000000E+00  0.94112703006E+03  0.94112703008E+03  0.50400001928E-02 0.  1.
        1   -1    0    0  501    0  0.00000000000E+00  0.00000000000E+00 -0.11726960696E+04  0.11726960696E+04  0.50400001928E-02 0. -1.
    10030    2    1    2    0    0  0.00000000000E+00  0.00000000000E+00 -0.23156903954E+03  0.21138230997E+04  0.21011006346E+04 0.  0.
        3    1    3    3  502    0 -0.10256197223E+04 -0.15732453029E+03 -0.28112421542E+03  0.10750244915E+04  0.10100000352E+00 0.  1.
       -3    1    3    3    0  502  0.10256197223E+04  0.15732453029E+03  0.49555175881E+02  0.10387986082E+04  0.10100000352E+00 0. -1.
</event>
<event>
 5   0  0.1646510E-06  0.2099478E+04  0.7818609E-02  0.8561473E-01
       -1   -1    0    0    0  501  0.00000000000E+00  0.00000000000E+00  0.80573824658E+03  0.80573824660E+03  0.50400001928E-02 0.  1.
        1   -1    0    0  501    0  0.00000000000E+00  0.00000000000E+00 -0.13676300262E+04  0.13676300262E+04  0.50400001928E-02 0. -1.
    10030    2    1    2    0    0  0.00000000000E+00  0.00000000000E+00 -0.56189177963E+03  0.21733682728E+04  0.20994778582E+04 0.  0.
        4    1    3    3  502    0 -0.82135669052E+03  0.56253550732E+03 -0.62564736498E+03  0.11758015344E+04  0.12699999809E+01 0. -1.
       -4    1    3    3    0  502  0.82135669052E+03 -0.56253550732E+03  0.63755585350E+02  0.99756673843E+03  0.12699999809E+01 0.  1.
</event>
<event>
 5   0  0.3636435E-06  0.2095864E+04  0.7818609E-02  0.8563068E-01
       -2   -1    0    0    0  501  0.00000000000E+00  0.00000000000E+00  0.52050648171E+03  0.52050648171E+03  0.25500000920E-02 0.  1.
        2   -1    0    0  501    0  0.00000000000E+00  0.00000000000E+00 -0.21097931633E+04  0.21097931633E+04  0.25500000920E-02 0. -1.
    10030    2    1    2    0    0  0.00000000000E+00  0.00000000000E+00 -0.15892866816E+04  0.26302996450E+04  0.20958635610E+04 0.  0.
        4    1    3    3  502    0  0.10242540699E+03  0.86804307719E+03 -0.69162871936E+02  0.87679807460E+03  0.12699999809E+01 0.  1.
       -4    1    3    3    0  502 -0.10242540699E+03 -0.86804307719E+03 -0.15201238096E+04  0.17535015704E+04  0.12699999809E+01 0. -1.
</event>
<event>
 5   0  0.1653260E-06  0.2099935E+04  0.7818609E-02  0.8561272E-01
       -1   -1    0    0    0  501  0.00000000000E+00  0.00000000000E+00  0.71298868883E+03  0.71298868885E+03  0.50400001928E-02 0. -1.
        1   -1    0    0  501    0  0.00000000000E+00  0.00000000000E+00 -0.15462124113E+04  0.15462124113E+04  0.50400001928E-02 0.  1.
    10030    2    1    2    0    0  0.00000000000E+00  0.00000000000E+00 -0.83322372249E+03  0.22592011002E+04  0.20999351988E+04 0.  0.
        3    1    3    3  502    0 -0.39652038090E+03 -0.89081784528E+02  0.62493996853E+03  0.74546224000E+03  0.10100000352E+00 0. -1.
       -3    1    3    3    0  502  0.39652038090E+03  0.89081784528E+02 -0.14581636910E+04  0.15137388602E+04  0.10100000352E+00 0.  1.
</event>
<event>
 5   0  0.3705828E-06  0.2100393E+04  0.7818609E-02  0.8561070E-01
       -2   -1    0    0    0  501  0.00000000000E+00  0.00000000000E+00  0.63106323849E+03  0.63106323850E+03  0.25500000920E-02 0. -1.
        2   -1    0    0  501    0  0.00000000000E+00  0.00000000000E+00 -0.17477048409E+04  0.17477048409E+04  0.25500000920E-02 0.  1.
    10030    2    1    2    0    0  0.00000000000E+00  0.00000000000E+00 -0.11166416024E+04  0.23787680793E+04  0.21003926079E+04 0.  0.
        5    1    3    3  502    0 -0.22526917573E+03 -0.17087219819E+03  0.58713442722E+03  0.65168430645E+03  0.46999998093E+01 0. -1.
       -5    1    3    3    0  502  0.22526917573E+03  0.17087219819E+03 -0.17037760296E+04  0.17270837729E+04  0.46999998093E+01 0.  1.
</event>
<event>
 5   0  0.1653260E-06  0.2099390E+04  0.7818609E-02  0.8561512E-01
        1   -1    0    0  501    0  0.00000000000E+00  0.00000000000E+00  0.94681012910E+03  0.94681012912E+03  0.50400001928E-02 0.  1.
       -1   -1    0    0    0  501  0.00000000000E+00  0.00000000000E+00 -0.11637593225E+04  0.11637593225E+04  0.50400001928E-02 0. -1.
    10030    2    1    2    0    0  0.00000000000E+00  0.00000000000E+00 -0.21694919335E+03  0.21105694516E+04  0.20993895440E+04 0.  0.
        3    1    3    3  502    0 -0.30108371038E+03  0.41999323485E+03 -0.10270214636E+04  0.11497037944E+04  0.10100000352E+00 0. -1.
       -3    1    3    3    0  502  0.30108371038E+03 -0.41999323485E+03  0.81007227023E+03  0.96086565719E+03  0.10100000352E+00 0.  1.
</event>
<event>
 5   0  0.3480134E-06  0.2101051E+04  0.7818609E-02  0.8560780E-01
        2   -1    0    0  501    0  0.00000000000E+00  0.00000000000E+00  0.13446466105E+04  0.13446466105E+04  0.25500000920E-02 0.  1.
       -2   -1    0    0    0  501  0.00000000000E+00  0.00000000000E+00 -0.82073929836E+03  0.82073929836E+03  0.25500000920E-02 0. -1.
    10030    2    1    2    0    0  0.00000000000E+00  0.00000000000E+00  0.52390731209E+03  0.21653859088E+04  0.21010514659E+04 0.  0.
        1    1    3    3  502    0  0.59242672356E+03 -0.53070680980E+03  0.96925133696E+03  0.12538210777E+04  0.50400001928E-02 0.  1.
       -1    1    3    3    0  502 -0.59242672356E+03  0.53070680980E+03 -0.44534402487E+03  0.91156483108E+03  0.50400001928E-02 0. -1.
</event>
<event>
 5   0  0.1653260E-06  0.2100971E+04  0.7818609E-02  0.8560816E-01
       -1   -1    0    0    0  501  0.00000000000E+00  0.00000000000E+00  0.76859765599E+03  0.76859765600E+03  0.50400001928E-02 0. -1.
        1   -1    0    0  501    0  0.00000000000E+00  0.00000000000E+00 -0.14357570450E+04  0.14357570450E+04  0.50400001928E-02 0.  1.
    10030    2    1    2    0    0  0.00000000000E+00  0.00000000000E+00 -0.66715938900E+03  0.22043547010E+04  0.21009707274E+04 0.  0.
        3    1    3    3  502    0  0.42685035124E+03 -0.85593535007E+03  0.12218355799E+03  0.96423823711E+03  0.10100000352E+00 0. -1.
       -3    1    3    3    0  502 -0.42685035124E+03  0.85593535007E+03 -0.78934294699E+03  0.12401164639E+04  0.10100000352E+00 0.  1.
</event>
<event>
 5   0  0.3705828E-06  0.2103435E+04  0.7818609E-02  0.8559732E-01
        2   -1    0    0  501    0  0.00000000000E+00  0.00000000000E+00  0.21649171986E+04  0.21649171986E+04  0.25500000920E-02 0.  1.
       -2   -1    0    0    0  501  0.00000000000E+00  0.00000000000E+00 -0.51092480553E+03  0.51092480554E+03  0.25500000920E-02 0. -1.
    10030    2    1    2    0    0  0.00000000000E+00  0.00000000000E+00  0.16539923931E+04  0.26758420042E+04  0.21034351891E+04 0.  0.
        5    1    3    3  502    0  0.39449253282E+03  0.95418361768E+03  0.57257959772E+03  0.11806609253E+04  0.46999998093E+01 0. -1.
       -5    1    3    3    0  502 -0.39449253282E+03 -0.95418361768E+03  0.10814127954E+04  0.14951810789E+04  0.46999998093E+01 0.  1.
</event>
<event>
 5   0  0.3574927E-06  0.2100174E+04  0.7818609E-02  0.8561167E-01
       -2   -1    0    0    0  501  0.00000000000E+00  0.00000000000E+00  0.76312558184E+03  0.76312558184E+03  0.25500000920E-02 0.  1.
        2   -1    0    0  501    0  0.00000000000E+00  0.00000000000E+00 -0.14449553988E+04  0.14449553988E+04  0.25500000920E-02 0. -1.
    10030    2    1    2    0    0  0.00000000000E+00  0.00000000000E+00 -0.68182981696E+03  0.22080809806E+04  0.21001737351E+04 0.  0.
        3    1    3    3  502    0  0.50279052661E+03 -0.86118397416E+03 -0.68682739616E+03  0.12108542577E+04  0.10100000352E+00 0. -1.
       -3    1    3    3    0  502 -0.50279052661E+03  0.86118397416E+03  0.49975792039E+01  0.99722672297E+03  0.10100000352E+00 0.  1.
</event>
<event>
 5   0  0.3574927E-06  0.2099169E+04  0.7818609E-02  0.8561610E-01
        2   -1    0    0  501    0  0.00000000000E+00  0.00000000000E+00  0.10078890646E+04  0.10078890646E+04  0.25500000920E-02 0. -1.
       -2   -1    0    0    0  501  0.00000000000E+00  0.00000000000E+00 -0.10930046468E+04  0.10930046468E+04  0.25500000920E-02 0.  1.
    10030    2    1    2    0    0  0.00000000000E+00  0.00000000000E+00 -0.85115582272E+02  0.21008937114E+04  0.20991688175E+04 0.  0.
        3    1    3    3  502    0  0.61663393656E+03  0.76217975623E+03 -0.41766174453E+03  0.10656438127E+04  0.10100000352E+00 0.  1.
       -3    1    3    3    0  502 -0.61663393656E+03 -0.76217975623E+03  0.33254616226E+03  0.10352498987E+04  0.10100000352E+00 0. -1.
</event>
<event>
 5   0  0.1615098E-06  0.2100025E+04  0.7818609E-02  0.8561233E-01
        1   -1    0    0  501    0  0.00000000000E+00  0.00000000000E+00  0.21572446749E+04  0.21572446749E+04  0.50400001928E-02 0.  1.
       -1   -1    0    0    0  501  0.00000000000E+00  0.00000000000E+00 -0.51108051859E+03  0.51108051861E+03  0.50400001928E-02 0. -1.
    10030    2    1    2    0    0  0.00000000000E+00  0.00000000000E+00  0.16461641563E+04  0.26683251935E+04  0.21000245020E+04 0.  0.
        1    1    3    3  502    0 -0.89867028438E+03  0.52715134603E+03  0.65727320690E+03  0.12318704843E+04  0.50400001928E-02 0.  1.
       -1    1    3    3    0  502  0.89867028438E+03 -0.52715134603E+03  0.98889094940E+03  0.14364547092E+04  0.50400001928E-02 0. -1.
</event>
<event>
 5   0  0.1646510E-06  0.2100449E+04  0.7818609E-02  0.8561046E-01
       -1   -1    0    0    0  501  0.00000000000E+00  0.00000000000E+00  0.16775288306E+04  0.16775288306E+04  0.50400001928E-02 0.  1.
        1   -1    0    0  501    0  0.00000000000E+00  0.00000000000E+00 -0.65749748876E+03  0.65749748878E+03  0.50400001928E-02 0. -1.
    10030    2    1    2    0    0  0.00000000000E+00  0.00000000000E+00  0.10200313418E+04  0.23350263194E+04  0.21004485173E+04 0.  0.
        4    1    3    3  502    0 -0.77261951669E+02  0.49426993317E+03 -0.51652735868E+03  0.71907878649E+03  0.12699999809E+01 0. -1.
       -4    1    3    3    0  502  0.77261951669E+02 -0.49426993317E+03  0.15365587005E+04  0.16159475329E+04  0.12699999809E+01 0.  1.
</event>
<event>
 5   0  0.1615098E-06  0.2095417E+04  0.7818609E-02  0.8563265E-01
       -1   -1    0    0    0  501  0.00000000000E+00  0.00000000000E+00  0.58877200679E+03  0.58877200681E+03  0.50400001928E-02 0.  1.
        1   -1    0    0  501    0  0.00000000000E+00  0.00000000000E+00 -0.18643777905E+04  0.18643777906E+04  0.50400001928E-02 0. -1.
    10030    2    1    2    0    0  0.00000000000E+00  0.00000000000E+00 -0.12756057838E+04  0.24531497974E+04  0.20954173362E+04 0.  0.
        1    1    3    3  502    0  0.34369073982E+03  0.97039233460E+03 -0.86574460862E+03  0.13451016077E+04  0.50400001928E-02 0. -1.
       -1    1    3    3    0  502 -0.34369073982E+03 -0.97039233460E+03 -0.40986117514E+03  0.11080481897E+04  0.50400001928E-02 0.  1.
</event>
<event>
 5   0  0.1257125E-06  0.2098734E+04  0.7818609E-02  0.8561801E-01
        3   -1    0    0  501    0  0.00000000000E+00  0.00000000000E+00  0.11790375024E+04  0.11790375067E+04  0.10100000352E+00 0. -1.
       -3   -1    0    0    0  501  0.00000000000E+00  0.00000000000E+00 -0.93395799865E+03  0.93395800411E+03  0.10100000352E+00 0.  1.
    10030    2    1    2    0    0  0.00000000000E+00  0.00000000000E+00  0.24507950372E+03  0.21129955108E+04  0.20987343961E+04 0.  0.
        2    1    3    3  502    0  0.59950698978E+02  0.58418469788E+03  0.99810753259E+03  0.11580520257E+04  0.25500000920E-02 0. -1.
       -2    1    3    3    0  502 -0.59950698978E+02 -0.58418469788E+03 -0.75302802887E+03  0.95494348514E+03  0.25500000920E-02 0.  1.
</event>
<event>
 5   0  0.1653260E-06  0.2101111E+04  0.7818609E-02  0.8560754E-01
       -1   -1    0    0    0  501  0.00000000000E+00  0.00000000000E+00  0.68353942963E+03  0.68353942965E+03  0.50400001928E-02 0. -1.
        1   -1    0    0  501    0  0.00000000000E+00  0.00000000000E+00 -0.16146347218E+04  0.16146347218E+04  0.50400001928E-02 0.  1.
    10030    2    1    2    0    0  0.00000000000E+00  0.00000000000E+00 -0.93109529216E+03  0.22981741515E+04  0.21011106557E+04 0.  0.
        3    1    3    3  502    0 -0.18841162145E+03 -0.10144199078E+04 -0.24920989400E+03  0.10614387736E+04  0.10100000352E+00 0. -1.
       -3    1    3    3    0  502  0.18841162145E+03  0.10144199078E+04 -0.68188539817E+03  0.12367353779E+04  0.10100000352E+00 0.  1.
</event>
<event>
 5   0  0.1646510E-06  0.2098879E+04  0.7818609E-02  0.8561737E-01
       -1   -1    0    0    0  501  0.00000000000E+00  0.00000000000E+00  0.92891873752E+03  0.92891873753E+03  0.50400001928E-02 0. -1.
        1   -1    0    0  501    0  0.00000000000E+00  0.00000000000E+00 -0.11855972935E+04  0.11855972935E+04  0.50400001928E-02 0.  1.
    10030    2    1    2    0    0  0.00000000000E+00  0.00000000000E+00 -0.25667855600E+03  0.21145160311E+04  0.20988792639E+04 0.  0.
        4    1    3    3  502    0 -0.55289687672E+02  0.33674145994E+03 -0.11281390111E+04  0.11786225018E+04  0.12699999809E+01 0.  1.
       -4    1    3    3    0  502  0.55289687672E+02 -0.33674145994E+03  0.87146045512E+03  0.93589352928E+03  0.12699999809E+01 0. -1.
</event>
<event>
 5   0  0.1579820E-06  0.2098418E+04  0.7818609E-02  0.8561941E-01
        1   -1    0    0  501    0  0.00000000000E+00  0.00000000000E+00  0.10544684072E+04  0.10544684073E+04  0.50400001928E-02 0.  1.
       -1   -1    0    0    0  501  0.00000000000E+00  0.00000000000E+00 -0.10439757612E+04  0.10439757612E+04  0.50400001928E-02 0. -1.
    10030    2    1    2    0    0  0.00000000000E+00  0.00000000000E+00  0.10492646076E+02  0.20984441684E+04  0.20984179356E+04 0.  0.
        2    1    3    3  502    0 -0.33999816964E+03  0.99210511346E+03 -0.25869120038E+02  0.10490665007E+04  0.25500000920E-02 0. -1.
       -2    1    3    3    0  502  0.33999816964E+03 -0.99210511346E+03  0.36361766114E+02  0.10493776677E+04  0.25500000920E-02 0.  1.
</event>
<event>
 5   0  0.3547583E-06  0.2100564E+04  0.7818609E-02  0.8560995E-01
        2   -1    0    0  501    0  0.00000000000E+00  0.00000000000E+00  0.68091195011E+03  0.68091195011E+03  0.25500000920E-02 0. -1.
       -2   -1    0    0    0  501  0.00000000000E+00  0.00000000000E+00 -0.16200211794E+04  0.16200211794E+04  0.25500000920E-02 0.  1.
    10030    2    1    2    0    0  0.00000000000E+00  0.00000000000E+00 -0.93910922929E+03  0.23009331295E+04  0.21005635249E+04 0.  0.
        2    1    3    3  502    0 -0.77957570341E+03 -0.56153061272E+03 -0.93433619603E+03  0.13401638085E+04  0.25500000920E-02 0.  1.
       -2    1    3    3    0  502  0.77957570341E+03  0.56153061272E+03 -0.47730332581E+01  0.96076932102E+03  0.25500000920E-02 0. -1.
</event>
<event>
 5   0  0.1590067E-06  0.2099941E+04  0.7818609E-02  0.8561269E-01
       -1   -1    0    0    0  501  0.00000000000E+00  0.00000000000E+00  0.78986658492E+03  0.78986658494E+03  0.50400001928E-02 0. -1.
        1   -1    0    0  501    0  0.00000000000E+00  0.00000000000E+00 -0.13957265938E+04  0.13957265938E+04  0.50400001928E-02 0.  1.
    10030    2    1    2    0    0  0.00000000000E+00  0.00000000000E+00 -0.60586000885E+03  0.21855931787E+04  0.20999407593E+04 0.  0.
        5    1    3    3  502    0 -0.95050718705E+03  0.39153762733E+03 -0.80556487924E+02  0.10311532689E+04  0.46999998093E+01 0.  1.
       -5    1    3    3    0  502  0.95050718705E+03 -0.39153762733E+03 -0.52530352093E+03  0.11544399098E+04  0.46999998093E+01 0. -1.
</event>
<event>
 5   0  0.1653260E-06  0.2100238E+04  0.7818609E-02  0.8561139E-01
       -1   -1    0    0    0  501  0.00000000000E+00  0.00000000000E+00  0.18820586771E+04  0.18820586771E+04  0.50400001928E-02 0.  1.
        1   -1    0    0  501    0  0.00000000000E+00  0.00000000000E+00 -0.58592721079E+03  0.58592721081E+03  0.50400001928E-02 0. -1.
    10030    2    1    2    0    0  0.00000000000E+00  0.00000000000E+00  0.12961314663E+04  0.24679858879E+04  0.21002375020E+04 0.  0.
        3    1    3    3  502    0 -0.55551059840E+03 -0.69267414552E+03 -0.10786197816E+02  0.88797851837E+03  0.10100000352E+00 0. -1.
       -3    1    3    3    0  502  0.55551059840E+03  0.69267414552E+03  0.13069176641E+04  0.15800073695E+04  0.10100000352E+00 0.  1.
</event>
<event>
 5   0  0.3547583E-06  0.2100327E+04  0.7818609E-02  0.8561100E-01
       -2   -1    0    0    0  501  0.00000000000E+00  0.00000000000E+00  0.87259458985E+03  0.87259458985E+03  0.25500000920E-02 0.  1.
        2   -1    0    0  501    0  0.00000000000E+00  0.00000000000E+00 -0.12638662882E+04  0.12638662882E+04  0.25500000920E-02 0. -1.
    10030    2    1    2    0    0  0.00000000000E+00  0.00000000000E+00 -0.39127169839E+03  0.21364608781E+04  0.21003265322E+04 0.  0.
        2    1    3    3  502    0 -0.22278598601E+03 -0.76491003786E+03 -0.89160119707E+03  0.11956896153E+04  0.25500000920E-02 0. -1.
       -2    1    3    3    0  502  0.22278598601E+03  0.76491003786E+03  0.50032949868E+03  0.94077126276E+03  0.25500000920E-02 0.  1.
</event>
<event>
 5   0  0.1579820E-06  0.2097516E+04  0.7818609E-02  0.8562339E-01
       -1   -1    0    0    0  501  0.00000000000E+00  0.00000000000E+00  0.10534234362E+04  0.10534234362E+04  0.50400001928E-02 0. -1.
        1   -1    0    0  501    0  0.00000000000E+00  0.00000000000E+00 -0.10441128431E+04  0.10441128431E+04  0.50400001928E-02 0.  1.
    10030    2    1    2    0    0  0.00000000000E+00  0.00000000000E+00  0.93105931593E+01  0.20975362793E+04  0.20975156152E+04 0.  0.
        2    1    3    3  502    0  0.39460435183E+03  0.94653821768E+02  0.97173307301E+03  0.10530608271E+04  0.25500000920E-02 0. -1.
       -2    1    3    3    0  502 -0.39460435183E+03 -0.94653821768E+02 -0.96242247985E+03  0.10444754522E+04  0.25500000920E-02 0.  1.
</event>
<event>
 5   0  0.1590067E-06  0.2100566E+04  0.7818609E-02  0.8560994E-01
       -1   -1    0    0    0  501  0.00000000000E+00  0.00000000000E+00  0.10755152063E+04  0.10755152063E+04  0.50400001928E-02 0. -1.
        1   -1    0    0  501    0  0.00000000000E+00  0.00000000000E+00 -0.10256429276E+04  0.10256429276E+04  0.50400001928E-02 0.  1.
    10030    2    1    2    0    0  0.00000000000E+00  0.00000000000E+00  0.49872278723E+02  0.21011581338E+04  0.21005661759E+04 0.  0.
        5    1    3    3  502    0  0.16511758138E+03  0.32299595718E+03  0.10108519027E+04  0.10739803831E+04  0.46999998093E+01 0. -1.
       -5    1    3    3    0  502 -0.16511758138E+03 -0.32299595718E+03 -0.96097962397E+03  0.10271777508E+04  0.46999998093E+01 0.  1.
</event>
<event>
 5   0  0.3480134E-06  0.2096236E+04  0.7818609E-02  0.8562903E-01
       -2   -1    0    0    0  501  0.00000000000E+00  0.00000000000E+00  0.13923026700E+04  0.13923026700E+04  0.25500000920E-02 0. -1.
        2   -1    0    0  501    0  0.00000000000E+00  0.00000000000E+00 -0.78901786567E+03  0.78901786567E+03  0.25500000920E-02 0.  1.
    10030    2    1    2    0    0  0.00000000000E+00  0.00000000000E+00  0.60328480428E+03  0.21813205356E+04  0.20962363235E+04 0.  0.
        1    1    3    3  502    0  0.30403992208E+03  0.73442493835E+03 -0.40926455338E+03  0.89404571414E+03  0.50400001928E-02 0.  1.
       -1    1    3    3    0  502 -0.30403992208E+03 -0.73442493835E+03  0.10125493577E+04  0.12872748215E+04  0.50400001928E-02 0. -1.
</event>
<event>
 5   0  0.3547583E-06  0.2099463E+04  0.7818609E-02  0.8561480E-01
       -2   -1    0    0    0  501  0.00000000000E+00  0.00000000000E+00  0.11027629773E+04  0.11027629773E+04  0.25500000920E-02 0.  1.
        2   -1    0    0  501    0  0.00000000000E+00  0.00000000000E+00 -0.99924985763E+03  0.99924985763E+03  0.25500000920E-02 0. -1.
    10030    2    1    2    0    0  0.00000000000E+00  0.00000000000E+00  0.10351311965E+03  0.21020128349E+04  0.20994625484E+04 0.  0.
        2    1    3    3  502    0  0.65371906467E+02 -0.35626284067E+03  0.10382142934E+04  0.10995842928E+04  0.25500000920E-02 0.  1.
       -2    1    3    3    0  502 -0.65371906467E+02  0.35626284067E+03 -0.93470117379E+03  0.10024285421E+04  0.25500000920E-02 0. -1.
</event>
<event>
 5   0  0.3636435E-06  0.2100441E+04  0.7818609E-02  0.8561049E-01
       -2   -1    0    0    0  501  0.00000000000E+00  0.00000000000E+00  0.13234186448E+04  0.13234186448E+04  0.25500000920E-02 0. -1.
        2   -1    0    0  501    0  0.00000000000E+00  0.00000000000E+00 -0.83341960421E+03  0.83341960421E+03  0.25500000920E-02 0.  1.
    10030    2    1    2    0    0  0.00000000000E+00  0.00000000000E+00  0.48999904057E+03  0.21568382490E+04  0.21004409472E+04 0.  0.
        4    1    3    3  502    0  0.52190298517E+03 -0.25957730053E+03 -0.65206939097E+03  0.87461946263E+03  0.12699999809E+01 0.  1.
       -4    1    3    3    0  502 -0.52190298517E+03  0.25957730053E+03  0.11420684315E+04  0.12822187864E+04  0.12699999809E+01 0. -1.
</event>
<event>
 5   0  0.3705828E-06  0.2099163E+04  0.7818609E-02  0.8561612E-01
        2   -1    0    0  501    0  0.00000000000E+00  0.00000000000E+00  0.89226380321E+03  0.89226380321E+03  0.25500000920E-02 0.  1.
       -2   -1    0    0    0  501  0.00000000000E+00  0.00000000000E+00 -0.12346362081E+04  0.12346362081E+04  0.25500000920E-02 0. -1.
    10030    2    1    2    0    0  0.00000000000E+00  0.00000000000E+00 -0.34237240487E+03  0.21269000113E+04  0.20991628794E+04 0.  0.
        5    1    3    3  502    0 -0.93794695850E+03  0.13219717462E+03  0.28686977955E+03  0.98971559064E+03  0.46999998093E+01 0.  1.
       -5    1    3    3    0  502  0.93794695850E+03 -0.13219717462E+03 -0.62924218443E+03  0.11371844207E+04  0.46999998093E+01 0. -1.
</event>
<event>
 5   0  0.3636435E-06  0.2097826E+04  0.7818609E-02  0.8562202E-01
       -2   -1    0    0    0  501  0.00000000000E+00  0.00000000000E+00  0.19306557352E+04  0.19306557352E+04  0.25500000920E-02 0. -1.
        2   -1    0    0  501    0  0.00000000000E+00  0.00000000000E+00 -0.56986757992E+03  0.56986757993E+03  0.25500000920E-02 0.  1.
    10030    2    1    2    0    0  0.00000000000E+00  0.00000000000E+00  0.13607881553E+04  0.25005233152E+04  0.20978256472E+04 0.  0.
        4    1    3    3  502    0 -0.40140553579E+03 -0.83684551732E+03  0.97942004127E+02  0.93329045484E+03  0.12699999809E+01 0.  1.
       -4    1    3    3    0  502  0.40140553579E+03  0.83684551732E+03  0.12628461512E+04  0.15672328603E+04  0.12699999809E+01 0. -1.
</event>
<event>
 5   0  0.3480134E-06  0.2100117E+04  0.7818609E-02  0.8561192E-01
        2   -1    0    0  501    0  0.00000000000E+00  0.00000000000E+00  0.16139755408E+04  0.16139755408E+04  0.25500000920E-02 0.  1.
       -2   -1    0    0    0  501  0.00000000000E+00  0.00000000000E+00 -0.68317211190E+03  0.68317211191E+03  0.25500000920E-02 0. -1.
    10030    2    1    2    0    0  0.00000000000E+00  0.00000000000E+00  0.93080342892E+03  0.22971476527E+04  0.21001172146E+04 0.  0.
        1    1    3    3  502    0 -0.12666754718E+03  0.38019053686E+03  0.15270448725E+04  0.15787512643E+04  0.50400001928E-02 0.  1.
       -1    1    3    3    0  502  0.12666754718E+03 -0.38019053686E+03 -0.59624144360E+03  0.71839638843E+03  0.50400001928E-02 0. -1.
</event>
<event>
 5   0  0.1579820E-06  0.2098695E+04  0.7818609E-02  0.8561818E-01
        1   -1    0    0  501    0  0.00000000000E+00  0.00000000000E+00  0.10985749237E+04  0.10985749237E+04  0.50400001928E-02 0.  1.
       -1   -1    0    0    0  501  0.00000000000E+00  0.00000000000E+00 -0.10023260853E+04  0.10023260853E+04  0.50400001928E-02 0. -1.
    10030    2    1    2    0    0  0.00000000000E+00  0.00000000000E+00  0.96248838407E+02  0.21009010090E+04  0.20986951209E+04 0.  0.
        2    1    3    3  502    0  0.62932563473E+03  0.80165171896E+03  0.29825515392E+03  0.10619097748E+04  0.25500000920E-02 0.  1.
       -2    1    3    3    0  502 -0.62932563473E+03 -0.80165171896E+03 -0.20200631552E+03  0.10389912341E+04  0.25500000920E-02 0. -1.
</event>
<event>
 5   0  0.3547583E-06  0.2099239E+04  0.7818609E-02  0.8561579E-01
       -2   -1    0    0    0  501  0.00000000000E+00  0.00000000000E+00  0.59345776146E+03  0.59345776146E+03  0.25500000920E-02 0. -1.
        2   -1    0    0  501    0  0.00000000000E+00  0.00000000000E+00 -0.18564104408E+04  0.18564104408E+04  0.25500000920E-02 0.  1.
    10030    2    1    2    0    0  0.00000000000E+00  0.00000000000E+00 -0.12629526793E+04  0.24498682022E+04  0.20992390855E+04 0.  0.
        2    1    3    3  502    0  0.29519348796E+03 -0.47443543279E+03  0.40545371037E+03  0.69037735078E+03  0.25500000920E-02 0. -1.
       -2    1    3    3    0  502 -0.29519348796E+03  0.47443543279E+03 -0.16684063897E+04  0.17594908515E+04  0.25500000920E-02 0.  1.
</event>
<event>
 5   0  0.3574927E-06  0.2103278E+04  0.7818609E-02  0.8559801E-01
       -2   -1    0    0    0  501  0.00000000000E+00  0.00000000000E+00  0.49638870630E+03  0.49638870631E+03  0.25500000920E-02 0.  1.
        2   -1    0    0  501    0  0.00000000000E+00  0.00000000000E+00 -0.22279818688E+04  0.22279818688E+04  0.25500000920E-02 0. -1.
    10030    2    1    2    0    0  0.00000000000E+00  0.00000000000E+00 -0.17315931625E+04  0.27243705751E+04  0.21032784290E+04 0.  0.
        3    1    3    3  502    0  0.91118426935E+03 -0.46491066091E+03 -0.54971665134E+03  0.11612868303E+04  0.10100000352E+00 0.  1.
       -3    1    3    3    0  502 -0.91118426935E+03  0.46491066091E+03 -0.11818765111E+04  0.15630837447E+04  0.10100000352E+00 0. -1.
</event>
<event>
 5   0  0.1257125E-06  0.2099940E+04  0.7818609E-02  0.8561270E-01
       -4   -1    0    0    0  501  0.00000000000E+00  0.00000000000E+00  0.92789011198E+03  0.92789098110E+03  0.12699999809E+01 0.  1.
        4   -1    0    0  501    0  0.00000000000E+00  0.00000000000E+00 -0.11881098990E+04  0.11881105778E+04  0.12699999809E+01 0. -1.
    10030    2    1    2    0    0  0.00000000000E+00  0.00000000000E+00 -0.26021978700E+03  0.21160015589E+04  0.20999400609E+04 0.  0.
        1    1    3    3  502    0 -0.22089901094E+03  0.76010059578E+03 -0.82523241452E+03  0.11434849482E+04  0.50400001928E-02 0.  1.
       -1    1    3    3    0  502  0.22089901094E+03 -0.76010059578E+03  0.56501262752E+03  0.97251661066E+03  0.50400001928E-02 0. -1.
</event>
<event>
 5   0  0.3480134E-06  0.2101636E+04  0.7818609E-02  0.8560523E-01
        2   -1    0    0  501    0  0.00000000000E+00  0.00000000000E+00  0.11332851476E+04  0.11332851476E+04  0.25500000920E-02 0. -1.
       -2   -1    0    0    0  501  0.00000000000E+00  0.00000000000E+00 -0.97435182164E+03  0.97435182164E+03  0.25500000920E-02 0.  1.
    10030    2    1    2    0    0  0.00000000000E+00  0.00000000000E+00  0.15893332599E+03  0.21076369693E+04  0.21016359799E+04 0.  0.
        1    1    3    3  502    0 -0.29127196763E+03 -0.29330702826E+03 -0.88939237832E+03  0.98075846904E+03  0.50400001928E-02 0.  1.
       -1    1    3    3    0  502  0.29127196763E+03  0.29330702826E+03  0.10483257043E+04  0.11268785002E+04  0.50400001928E-02 0. -1.
</event>
<event>
 5   0  0.1615098E-06  0.2100599E+04  0.7818609E-02  0.8560980E-01
       -1   -1    0    0    0  501  0.00000000000E+00  0.00000000000E+00  0.73547364951E+03  0.73547364953E+03  0.50400001928E-02 0. -1.
        1   -1    0    0  501    0  0.00000000000E+00  0.00000000000E+00 -0.14998894033E+04  0.14998894033E+04  0.50400001928E-02 0.  1.
    10030    2    1    2    0    0  0.00000000000E+00  0.00000000000E+00 -0.76441575380E+03  0.22353630529E+04  0.21005990892E+04 0.  0.
        1    1    3    3  502    0  0.62155513170E+03 -0.80986141061E+03 -0.64486851281E+03  0.12075022505E+04  0.50400001928E-02 0.  1.
       -1    1    3    3    0  502 -0.62155513170E+03  0.80986141061E+03 -0.11954724099E+03  0.10278608023E+04  0.50400001928E-02 0. -1.
</event>
<event>
 5   0  0.3547583E-06  0.2100205E+04  0.7818609E-02  0.8561153E-01
        2   -1    0    0  501    0  0.00000000000E+00  0.00000000000E+00  0.10800891379E+04  0.10800891379E+04  0.25500000920E-02 0.  1.
       -2   -1    0    0    0  501  0.00000000000E+00  0.00000000000E+00 -0.10209487658E+04  0.10209487658E+04  0.25500000920E-02 0. -1.
    10030    2    1    2    0    0  0.00000000000E+00  0.00000000000E+00  0.59140372154E+02  0.21010379037E+04  0.21002053922E+04 0.  0.
        2    1    3    3  502    0 -0.22522175555E+03 -0.29885910378E+03 -0.95197829436E+03  0.10228901583E+04  0.25500000920E-02 0. -1.
       -2    1    3    3    0  502  0.22522175555E+03  0.29885910378E+03  0.10111186665E+04  0.10781477454E+04  0.25500000920E-02 0.  1.
</event>
<event>
 5   0  0.1590067E-06  0.2099323E+04  0.7818609E-02  0.8561542E-01
       -1   -1    0    0    0  501  0.00000000000E+00  0.00000000000E+00  0.92770278468E+03  0.92770278470E+03  0.50400001928E-02 0.  1.
        1   -1    0    0  501    0  0.00000000000E+00  0.00000000000E+00 -0.11876533353E+04  0.11876533353E+04  0.50400001928E-02 0. -1.
    10030    2    1    2    0    0  0.00000000000E+00  0.00000000000E+00 -0.25995055061E+03  0.21153561200E+04  0.20993230399E+04 0.  0.
        5    1    3    3  502    0  0.60757544585E+03  0.31940065305E+03  0.67019436409E+03  0.95934731731E+03  0.46999998093E+01 0.  1.
       -5    1    3    3    0  502 -0.60757544585E+03 -0.31940065305E+03 -0.93014491470E+03  0.11560088027E+04  0.46999998093E+01 0. -1.
</event>
<event>
 5   0  0.3705828E-06  0.2100821E+04  0.7818609E-02  0.8560882E-01
       -2   -1    0    0    0  501  0.00000000000E+00  0.00000000000E+00  0.48193077588E+03  0.48193077589E+03  0.25500000920E-02 0.  1.
        2   -1    0    0  501    0  0.00000000000E+00  0.00000000000E+00 -0.22894619645E+04  0.22894619645E+04  0.25500000920E-02 0. -1.
    10030    2    1    2    0    0  0.00000000000E+00  0.00000000000E+00 -0.18075311886E+04  0.27713927404E+04  0.21008209642E+04 0.  0.
        5    1    3    3  502    0 -0.85596763743E+03  0.20923097554E+03 -0.16579967441E+04  0.18776137758E+04  0.46999998093E+01 0. -1.
       -5    1    3    3    0  502  0.85596763743E+03 -0.20923097554E+03 -0.14953444448E+03  0.89377896459E+03  0.46999998093E+01 0.  1.
</event>
<event>
 5   0  0.1646510E-06  0.2100837E+04  0.7818609E-02  0.8560875E-01
       -1   -1    0    0    0  501  0.00000000000E+00  0.00000000000E+00  0.57642760484E+03  0.57642760486E+03  0.50400001928E-02 0.  1.
        1   -1    0    0  501    0  0.00000000000E+00  0.00000000000E+00 -0.19141679875E+04  0.19141679875E+04  0.50400001928E-02 0. -1.
    10030    2    1    2    0    0  0.00000000000E+00  0.00000000000E+00 -0.13377403827E+04  0.24905955924E+04  0.21008372315E+04 0.  0.
        4    1    3    3  502    0  0.40501430173E+03 -0.95594070385E+03 -0.85825183593E+03  0.13470178323E+04  0.12699999809E+01 0.  1.
       -4    1    3    3    0  502 -0.40501430173E+03  0.95594070385E+03 -0.47948854674E+03  0.11435777600E+04  0.12699999809E+01 0. -1.
</event>
<event>
 5   0  0.3636435E-06  0.2100281E+04  0.7818609E-02  0.8561119E-01
        2   -1    0    0  501    0  0.00000000000E+00  0.00000000000E+00  0.13281134985E+04  0.13281134985E+04  0.25500000920E-02 0.  1.
       -2   -1    0    0    0  501  0.00000000000E+00  0.00000000000E+00 -0.83034736361E+03  0.83034736361E+03  0.25500000920E-02 0. -1.
    10030    2    1    2    0    0  0.00000000000E+00  0.00000000000E+00  0.49776613491E+03  0.21584608621E+04  0.21002814498E+04 0.  0.
        4    1    3    3  502    0  0.28603715264E+03  0.93822718888E+03  0.63438240504E+03  0.11681310540E+04  0.12699999809E+01 0.  1.
       -4    1    3    3    0  502 -0.28603715264E+03 -0.93822718888E+03 -0.13661627013E+03  0.99032980810E+03  0.12699999809E+01 0. -1.
</event>
<event>
 5   0  0.1615098E-06  0.2100031E+04  0.7818609E-02  0.8561230E-01
       -1   -1    0    0    0  501  0.00000000000E+00  0.00000000000E+00  0.14479223160E+04  0.14479223160E+04  0.50400001928E-02 0. -1.
        1   -1    0    0  501    0  0.00000000000E+00  0.00000000000E+00 -0.76145842003E+03  0.76145842005E+03  0.50400001928E-02 0.  1.
    10030    2    1    2    0    0  0.00000000000E+00  0.00000000000E+00  0.68646389600E+03  0.22093807361E+04  0.21000310846E+04 0.  0.
        1    1    3    3  502    0 -0.68146052592E+03  0.13568958637E+02  0.11835459297E+04  0.13657794598E+04  0.50400001928E-02 0. -1.
       -1    1    3    3    0  502  0.68146052592E+03 -0.13568958637E+02 -0.49708203374E+03  0.84360127627E+03  0.50400001928E-02 0.  1.
</event>
<event>
 5   0  0.3480134E-06  0.2101467E+04  0.7818609E-02  0.8560598E-01
       -2   -1    0    0    0  501  0.00000000000E+00  0.00000000000E+00  0.90413872701E+03  0.90413872701E+03  0.25500000920E-02 0.  1.
        2   -1    0    0  501    0  0.00000000000E+00  0.00000000000E+00 -0.12210965629E+04  0.12210965630E+04  0.25500000920E-02 0. -1.
    10030    2    1    2    0    0  0.00000000000E+00  0.00000000000E+00 -0.31695783594E+03  0.21252352900E+04  0.21014668134E+04 0.  0.
        1    1    3    3  502    0  0.94720997280E+03 -0.26947488811E+03  0.21202144809E+03  0.10073611777E+04  0.50400001928E-02 0.  1.
       -1    1    3    3    0  502 -0.94720997280E+03  0.26947488811E+03 -0.52897928403E+03  0.11178741123E+04  0.50400001928E-02 0. -1.
</event>
<event>
 5   0  0.1646510E-06  0.2100417E+04  0.7818609E-02  0.8561060E-01
       -1   -1    0    0    0  501  0.00000000000E+00  0.00000000000E+00  0.11244577070E+04  0.11244577070E+04  0.50400001928E-02 0.  1.
        1   -1    0    0  501    0  0.00000000000E+00  0.00000000000E+00 -0.98086180462E+03  0.98086180464E+03  0.50400001928E-02 0. -1.
    10030    2    1    2    0    0  0.00000000000E+00  0.00000000000E+00  0.14359590240E+03  0.21053195117E+04  0.21004167356E+04 0.  0.
        4    1    3    3  502    0  0.10174210255E+03  0.83390778906E+03 -0.55989715768E+03  0.10095742153E+04  0.12699999809E+01 0. -1.
       -4    1    3    3    0  502 -0.10174210255E+03 -0.83390778906E+03  0.70349306008E+03  0.10957452964E+04  0.12699999809E+01 0.  1.
</event>
<event>
 5   0  0.3574927E-06  0.2098822E+04  0.7818609E-02  0.8561763E-01
        2   -1    0    0  501    0  0.00000000000E+00  0.00000000000E+00  0.14739835778E+04  0.14739835778E+04  0.25500000920E-02 0. -1.
       -2   -1    0    0    0  501  0.00000000000E+00  0.00000000000E+00 -0.74713387397E+03  0.74713387397E+03  0.25500000920E-02 0.  1.
    10030    2    1    2    0    0  0.00000000000E+00  0.00000000000E+00  0.72684970380E+03  0.22211174517E+04  0.20988216319E+04 0.  0.
        3    1    3    3  502    0 -0.10039351045E+04 -0.40158340505E+02  0.68400286461E+03  0.12154662954E+04  0.10100000352E+00 0. -1.
       -3    1    3    3    0  502  0.10039351045E+04  0.40158340505E+02  0.42846839188E+02  0.10056511563E+04  0.10100000352E+00 0.  1.
</event>
<event>
 5   0  0.1653260E-06  0.2099751E+04  0.7818609E-02  0.8561353E-01
        1   -1    0    0  501    0  0.00000000000E+00  0.00000000000E+00  0.16062781370E+04  0.16062781370E+04  0.50400001928E-02 0. -1.
       -1   -1    0    0    0  501  0.00000000000E+00  0.00000000000E+00 -0.68620634187E+03  0.68620634188E+03  0.50400001928E-02 0.  1.
    10030    2    1    2    0    0  0.00000000000E+00  0.00000000000E+00  0.92007179517E+03  0.22924844789E+04  0.20997506942E+04 0.  0.
        3    1    3    3  502    0 -0.19852326576E+03 -0.48448983182E+03  0.14535615976E+04  0.15449864765E+04  0.10100000352E+00 0. -1.
       -3    1    3    3    0  502  0.19852326576E+03  0.48448983182E+03 -0.53348980244E+03  0.74749800247E+03  0.10100000352E+00 0.  1.
</event>
<event>
 5   0  0.3480134E-06  0.2099505E+04  0.7818609E-02  0.8561461E-01
        2   -1    0    0  501    0  0.00000000000E+00  0.00000000000E+00  0.16553639795E+04  0.16553639795E+04  0.25500000920E-02 0.  1.
       -2   -1    0    0    0  501  0.00000000000E+00  0.00000000000E+00 -0.66570270059E+03  0.66570270059E+03  0.25500000920E-02 0. -1.
    10030    2    1    2    0    0  0.00000000000E+00  0.00000000000E+00  0.98966127895E+03  0.23210666801E+04  0.20995049623E+04 0.  0.
        1    1    3    3  502    0 -0.94292659215E+03 -0.46085333787E+03  0.47051112032E+03  0.11501639325E+04  0.50400001928E-02 0. -1.
       -1    1    3    3    0  502  0.94292659215E+03  0.46085333787E+03  0.51915015862E+03  0.11709027476E+04  0.50400001928E-02 0.  1.
</event>
<event>
 5   0  0.1646510E-06  0.2100012E+04  0.7818609E-02  0.8561238E-01
        1   -1    0    0  501    0  0.00000000000E+00  0.00000000000E+00  0.18906281358E+04  0.18906281358E+04  0.50400001928E-02 0.  1.
       -1   -1    0    0    0  501  0.00000000000E+00  0.00000000000E+00 -0.58314627965E+03  0.58314627967E+03  0.50400001928E-02 0. -1.
    10030    2    1    2    0    0  0.00000000000E+00  0.00000000000E+00  0.13074818561E+04  0.24737744155E+04  0.21000121558E+04 0.  0.
        4    1    3    3  502    0 -0.56443571840E+03  0.50436524777E+03 -0.20346926992E+03  0.78381971146E+03  0.12699999809E+01 0. -1.
       -4    1    3    3    0  502  0.56443571840E+03 -0.50436524777E+03  0.15109511261E+04  0.16899547040E+04  0.12699999809E+01 0.  1.
</event>
<event>
 5   0  0.3574927E-06  0.2101688E+04  0.7818609E-02  0.8560500E-01
        2   -1    0    0  501    0  0.00000000000E+00  0.00000000000E+00  0.65045734028E+03  0.65045734028E+03  0.25500000920E-02 0.  1.
       -2   -1    0    0    0  501  0.00000000000E+00  0.00000000000E+00 -0.16976873362E+04  0.16976873362E+04  0.25500000920E-02 0. -1.
    10030    2    1    2    0    0  0.00000000000E+00  0.00000000000E+00 -0.10472299959E+04  0.23481446765E+04  0.21016880733E+04 0.  0.
        3    1    3    3  502    0 -0.95251686020E+03 -0.33123213984E+03 -0.85367224902E+03  0.13212718942E+04  0.10100000352E+00 0.  1.
       -3    1    3    3    0  502  0.95251686020E+03  0.33123213984E+03 -0.19355774691E+03  0.10268727823E+04  0.10100000352E+00 0. -1.
</event>
<event>
 5   0  0.1646510E-06  0.2099762E+04  0.7818609E-02  0.8561348E-01
       -1   -1    0    0    0  501  0.00000000000E+00  0.00000000000E+00  0.18497104225E+04  0.18497104225E+04  0.50400001928E-02 0. -1.
        1   -1    0    0  501    0  0.00000000000E+00  0.00000000000E+00 -0.59590394214E+03  0.59590394216E+03  0.50400001928E-02 0.  1.
    10030    2    1    2    0    0  0.00000000000E+00  0.00000000000E+00  0.12538064803E+04  0.24456143646E+04  0.20997616366E+04 0.  0.
        4    1    3    3  502    0 -0.41910279566E+03 -0.67746726799E+03  0.14233804850E+04  0.16311415238E+04  0.12699999809E+01 0. -1.
       -4    1    3    3    0  502  0.41910279566E+03  0.67746726799E+03 -0.16957400471E+03  0.81447284086E+03  0.12699999809E+01 0.  1.
</event>
<event>
 5   0  0.1257125E-06  0.2100652E+04  0.7818609E-02  0.8560956E-01
        3   -1    0    0  501    0  0.00000000000E+00  0.00000000000E+00  0.11910442880E+04  0.11910442923E+04  0.10100000352E+00 0.  1.
       -3   -1    0    0    0  501  0.00000000000E+00  0.00000000000E+00 -0.92623357729E+03  0.92623358280E+03  0.10100000352E+00 0. -1.
    10030    2    1    2    0    0  0.00000000000E+00  0.00000000000E+00  0.26481071075E+03  0.21172778751E+04  0.21006524910E+04 0.  0.
        2    1    3    3  502    0 -0.71270225619E+03 -0.67886573006E+03 -0.23707746932E+03  0.10124272378E+04  0.25500000920E-02 0. -1.
       -2    1    3    3    0  502  0.71270225619E+03  0.67886573006E+03  0.50188818007E+03  0.11048506373E+04  0.25500000920E-02 0.  1.
</event>
<event>
 5   0  0.1646510E-06  0.2108497E+04  0.7818609E-02  0.8557510E-01
       -1   -1    0    0    0  501  0.00000000000E+00  0.00000000000E+00  0.15846277326E+04  0.15846277326E+04  0.50400001928E-02 0. -1.
        1   -1    0    0  501    0  0.00000000000E+00  0.00000000000E+00 -0.70138861710E+03  0.70138861712E+03  0.50400001928E-02 0.  1.
    10030    2    1    2    0    0  0.00000000000E+00  0.00000000000E+00  0.88323911546E+03  0.22860163497E+04  0.21084969566E+04 0.  0.
        4    1    3    3  502    0 -0.73590457328E+03 -0.73360942884E+03  0.24858487724E+03  0.10684261271E+04  0.12699999809E+01 0.  1.
       -4    1    3    3    0  502  0.73590457328E+03  0.73360942884E+03  0.63465423822E+03  0.12175902225E+04  0.12699999809E+01 0. -1.
</event>
<event>
 5   0  0.1590067E-06  0.2096633E+04  0.7818609E-02  0.8562728E-01
       -1   -1    0    0    0  501  0.00000000000E+00  0.00000000000E+00  0.61525413572E+03  0.61525413574E+03  0.50400001928E-02 0.  1.
        1   -1    0    0  501    0  0.00000000000E+00  0.00000000000E+00 -0.17862001844E+04  0.17862001844E+04  0.50400001928E-02 0. -1.
    10030    2    1    2    0    0  0.00000000000E+00  0.00000000000E+00 -0.11709460487E+04  0.24014543201E+04  0.20966325865E+04 0.  0.
        5    1    3    3  502    0  0.63624400614E+03  0.39270458340E+03 -0.14270955757E+04  0.16111012374E+04  0.46999998093E+01 0. -1.
       -5    1    3    3    0  502 -0.63624400614E+03 -0.39270458340E+03  0.25614952698E+03  0.79035308271E+03  0.46999998093E+01 0.  1.
</event>
<event>
 5   0  0.3547583E-06  0.2100119E+04  0.7818609E-02  0.8561191E-01
        2   -1    0    0  501    0  0.00000000000E+00  0.00000000000E+00  0.94475840978E+03  0.94475840979E+03  0.25500000920E-02 0.  1.
       -2   -1    0    0    0  501  0.00000000000E+00  0.00000000000E+00 -0.11670977210E+04  0.11670977210E+04  0.25500000920E-02 0. -1.
    10030    2    1    2    0    0  0.00000000000E+00  0.00000000000E+00 -0.22233931117E+03  0.21118561307E+04  0.21001194127E+04 0.  0.
        2    1    3    3  502    0 -0.41899947901E+03  0.37651507644E+03 -0.10022943435E+04  0.11497469796E+04  0.25500000920E-02 0. -1.
       -2    1    3    3    0  502  0.41899947901E+03 -0.37651507644E+03  0.77995503232E+03  0.96210915110E+03  0.25500000920E-02 0.  1.
</event>
<event>
 5   0  0.3636435E-06  0.2101482E+04  0.7818609E-02  0.8560591E-01
       -2   -1    0    0    0  501  0.00000000000E+00  0.00000000000E+00  0.66396483899E+03  0.66396483899E+03  0.25500000920E-02 0. -1.
        2   -1    0    0  501    0  0.00000000000E+00  0.00000000000E+00 -0.16628237271E+04  0.16628237272E+04  0.25500000920E-02 0.  1.
    10030    2    1    2    0    0  0.00000000000E+00  0.00000000000E+00 -0.99885888816E+03  0.23267885661E+04  0.21014818470E+04 0.  0.
        4    1    3    3  502    0 -0.13758772599E+03 -0.77279249247E+03 -0.12728290071E+04  0.14954042641E+04  0.12699999809E+01 0.  1.
       -4    1    3    3    0  502  0.13758772599E+03  0.77279249247E+03  0.27397011895E+03  0.83138430207E+03  0.12699999809E+01 0. -1.
</event>
<event>
 5   0  0.3705828E-06  0.2095703E+04  0.7818609E-02  0.8563139E-01
        2   -1    0    0  501    0  0.00000000000E+00  0.00000000000E+00  0.15353722955E+04  0.15353722955E+04  0.25500000920E-02 0. -1.
       -2   -1    0    0    0  501  0.00000000000E+00  0.00000000000E+00 -0.71513124989E+03  0.71513124989E+03  0.25500000920E-02 0.  1.
    10030    2    1    2    0    0  0.00000000000E+00  0.00000000000E+00  0.82024104560E+03  0.22505035454E+04  0.20957029453E+04 0.  0.
        5    1    3    3  502    0  0.42200598843E+03 -0.30361931094E+03  0.13871004398E+04  0.14813316510E+04  0.46999998093E+01 0. -1.
       -5    1    3    3    0  502 -0.42200598843E+03  0.30361931094E+03 -0.56685939421E+03  0.76917189434E+03  0.46999998093E+01 0.  1.
</event>
<event>
 5   0  0.1257125E-06  0.2103504E+04  0.7818609E-02  0.8559701E-01
       -4   -1    0    0    0  501  0.00000000000E+00  0.00000000000E+00  0.11658096479E+04  0.11658103396E+04  0.12699999809E+01 0.  1.
        4   -1    0    0  501    0  0.00000000000E+00  0.00000000000E+00 -0.94885219950E+03  0.94885304942E+03  0.12699999809E+01 0. -1.
    10030    2    1    2    0    0  0.00000000000E+00  0.00000000000E+00  0.21695744835E+03  0.21146633890E+04  0.21035043890E+04 0.  0.
        2    1    3    3  502    0  0.16097815737E+03  0.77281144735E+03  0.80717013759E+03  0.11290151156E+04  0.25500000920E-02 0.  1.
       -2    1    3    3    0  502 -0.16097815737E+03 -0.77281144735E+03 -0.59021268923E+03  0.98564827340E+03  0.25500000920E-02 0. -1.
</event>
<event>
 5   0  0.1646510E-06  0.2099963E+04  0.7818609E-02  0.8561260E-01
       -1   -1    0    0    0  501  0.00000000000E+00  0.00000000000E+00  0.94525022088E+03  0.94525022089E+03  0.50400001928E-02 0.  1.
        1   -1    0    0  501    0  0.00000000000E+00  0.00000000000E+00 -0.11663168844E+04  0.11663168844E+04  0.50400001928E-02 0. -1.
    10030    2    1    2    0    0  0.00000000000E+00  0.00000000000E+00 -0.22106666348E+03  0.21115671053E+04  0.20999631355E+04 0.  0.
        4    1    3    3  502    0 -0.10314172673E+04  0.17921651785E+02  0.86295394977E+02  0.10351769284E+04  0.12699999809E+01 0.  1.
       -4    1    3    3    0  502  0.10314172673E+04 -0.17921651785E+02 -0.30736205845E+03  0.10763901769E+04  0.12699999809E+01 0. -1.
</event>
<event>
 5   0  0.1615098E-06  0.2100343E+04  0.7818609E-02  0.8561092E-01
       -1   -1    0    0    0  501  0.00000000000E+00  0.00000000000E+00  0.12379484126E+04  0.12379484126E+04  0.50400001928E-02 0. -1.
        1   -1    0    0  501    0  0.00000000000E+00  0.00000000000E+00 -0.89087740838E+03  0.89087740840E+03  0.50400001928E-02 0.  1.
    10030    2    1    2    0    0  0.00000000000E+00  0.00000000000E+00  0.34707100426E+03  0.21288258210E+04  0.21003430897E+04 0.  0.
        1    1    3    3  502    0  0.27685719542E+03  0.59752686121E+03 -0.65558713534E+03  0.92923772447E+03  0.50400001928E-02 0.  1.
       -1    1    3    3    0  502 -0.27685719542E+03 -0.59752686121E+03  0.10026581396E+04  0.11995880966E+04  0.50400001928E-02 0. -1.
</event>
<event>
 5   0  0.3574927E-06  0.2095835E+04  0.7818609E-02  0.8563080E-01
        2   -1    0    0  501    0  0.00000000000E+00  0.00000000000E+00  0.13429903504E+04  0.13429903504E+04  0.25500000920E-02 0.  1.
       -2   -1    0    0    0  501  0.00000000000E+00  0.00000000000E+00 -0.81767644905E+03  0.81767644905E+03  0.25500000920E-02 0. -1.
    10030    2    1    2    0    0  0.00000000000E+00  0.00000000000E+00  0.52531390139E+03  0.21606667995E+04  0.20958354715E+04 0.  0.
        3    1    3    3  502    0 -0.74585628586E+03  0.42016790620E+03  0.88574418168E+03  0.12318219978E+04  0.10100000352E+00 0. -1.
       -3    1    3    3    0  502  0.74585628586E+03 -0.42016790620E+03 -0.36043028030E+03  0.92884480174E+03  0.10100000352E+00 0.  1.
</event>
<event>
 5   0  0.3480134E-06  0.2099963E+04  0.7818609E-02  0.8561260E-01
        2   -1    0    0  501    0  0.00000000000E+00  0.00000000000E+00  0.91684835986E+03  0.91684835987E+03  0.25500000920E-02 0.  1.
       -2   -1    0    0    0  501  0.00000000000E+00  0.00000000000E+00 -0.12024461994E+04  0.12024461994E+04  0.25500000920E-02 0. -1.
    10030    2    1    2    0    0  0.00000000000E+00  0.00000000000E+00 -0.28559783949E+03  0.21192945592E+04  0.20999626908E+04 0.  0.
        1    1    3    3  502    0  0.46296746707E+03  0.51450025663E+03 -0.93963158049E+03  0.11670290899E+04  0.50400001928E-02 0. -1.
       -1    1    3    3    0  502 -0.46296746707E+03 -0.51450025663E+03  0.65403374100E+03  0.95226546930E+03  0.50400001928E-02 0.  1.
</event>
<event>
 5   0  0.3705828E-06  0.2099743E+04  0.7818609E-02  0.8561357E-01
       -2   -1    0    0    0  501  0.00000000000E+00  0.00000000000E+00  0.10289971622E+04  0.10289971622E+04  0.25500000920E-02 0.  1.
        2   -1    0    0  501    0  0.00000000000E+00  0.00000000000E+00 -0.10711689527E+04  0.10711689527E+04  0.25500000920E-02 0. -1.
    10030    2    1    2    0    0  0.00000000000E+00  0.00000000000E+00 -0.42171790513E+02  0.21001661149E+04  0.20997426628E+04 0.  0.
        5    1    3    3  502    0  0.71733655193E+03  0.71756555572E+03  0.24866400189E+03  0.10446664211E+04  0.46999998093E+01 0.  1.
       -5    1    3    3    0  502 -0.71733655193E+03 -0.71756555572E+03 -0.29083579240E+03  0.10554996938E+04  0.46999998093E+01 0. -1.
</event>
<event>
 5   0  0.1653260E-06  0.2100355E+04  0.7818609E-02  0.8561087E-01
       -1   -1    0    0    0  501  0.00000000000E+00  0.00000000000E+00  0.63887295288E+03  0.63887295290E+03  0.50400001928E-02 0. -1.
        1   -1    0    0  501    0  0.00000000000E+00  0.00000000000E+00 -0.17262787747E+04  0.17262787747E+04  0.50400001928E-02 0.  1.
    10030    2    1    2    0    0  0.00000000000E+00  0.00000000000E+00 -0.10874058218E+04  0.23651517276E+04  0.21003550351E+04 0.  0.
        3    1    3    3  502    0 -0.95947394536E+03  0.36419772522E+03 -0.79459873728E+03  0.12979281176E+04  0.10100000352E+00 0.  1.
       -3    1    3    3    0  502  0.95947394536E+03 -0.36419772522E+03 -0.29280708455E+03  0.10672236100E+04  0.10100000352E+00 0. -1.
</event>
<event>
 5   0  0.3547583E-06  0.2101826E+04  0.7818609E-02  0.8560440E-01
        2   -1    0    0  501    0  0.00000000000E+00  0.00000000000E+00  0.17090492726E+04  0.17090492726E+04  0.25500000920E-02 0.  1.
       -2   -1    0    0    0  501  0.00000000000E+00  0.00000000000E+00 -0.64621766535E+03  0.64621766536E+03  0.25500000920E-02 0. -1.
    10030    2    1    2    0    0  0.00000000000E+00  0.00000000000E+00  0.10628316072E+04  0.23552669379E+04  0.21018257120E+04 0.  0.
        2    1    3    3  502    0  0.73847450311E+02 -0.20177437230E+03 -0.62134149076E+03  0.65744322293E+03  0.25500000920E-02 0. -1.
       -2    1    3    3    0  502 -0.73847450311E+02  0.20177437230E+03  0.16841730980E+04  0.16978237150E+04  0.25500000920E-02 0.  1.
</event>
<event>
 5   0  0.1615098E-06  0.2099564E+04  0.7818609E-02  0.8561436E-01
       -1   -1    0    0    0  501  0.00000000000E+00  0.00000000000E+00  0.78597745869E+03  0.78597745871E+03  0.50400001928E-02 0.  1.
        1   -1    0    0  501    0  0.00000000000E+00  0.00000000000E+00 -0.14021293846E+04  0.14021293846E+04  0.50400001928E-02 0. -1.
    10030    2    1    2    0    0  0.00000000000E+00  0.00000000000E+00 -0.61615192595E+03  0.21881068434E+04  0.20995638504E+04 0.  0.
        1    1    3    3  502    0 -0.44270609537E+02  0.24723857616E+03  0.75420125407E+03  0.79492536258E+03  0.50400001928E-02 0.  1.
       -1    1    3    3    0  502  0.44270609537E+02 -0.24723857616E+03 -0.13703531800E+04  0.13931814808E+04  0.50400001928E-02 0. -1.
</event>
<event>
 5   0  0.3574927E-06  0.2098100E+04  0.7818609E-02  0.8562081E-01
       -2   -1    0    0    0  501  0.00000000000E+00  0.00000000000E+00  0.66886063862E+03  0.66886063863E+03  0.25500000920E-02 0.  1.
        2   -1    0    0  501    0  0.00000000000E+00  0.00000000000E+00 -0.16453444247E+04  0.16453444247E+04  0.25500000920E-02 0. -1.
    10030    2    1    2    0    0  0.00000000000E+00  0.00000000000E+00 -0.97648378611E+03  0.23142050634E+04  0.20981002099E+04 0.  0.
        3    1    3    3  502    0  0.80345678236E+03 -0.18328118513E+03 -0.12042337744E+04  0.14592168405E+04  0.10100000352E+00 0. -1.
       -3    1    3    3    0  502 -0.80345678236E+03  0.18328118513E+03  0.22774998825E+03  0.85498822290E+03  0.10100000352E+00 0.  1.
</event>
<event>
 5   0  0.3547583E-06  0.2100239E+04  0.7818609E-02  0.8561138E-01
       -2   -1    0    0    0  501  0.00000000000E+00  0.00000000000E+00  0.12084085245E+04  0.12084085245E+04  0.25500000920E-02 0. -1.
        2   -1    0    0  501    0  0.00000000000E+00  0.00000000000E+00 -0.91256465333E+03  0.91256465334E+03  0.25500000920E-02 0.  1.
    10030    2    1    2    0    0  0.00000000000E+00  0.00000000000E+00  0.29584387114E+03  0.21209731778E+04  0.21002389447E+04 0.  0.
        2    1    3    3  502    0 -0.37966990936E+03  0.66955783791E+03 -0.57347897532E+03  0.95986200754E+03  0.25500000920E-02 0.  1.
       -2    1    3    3    0  502  0.37966990936E+03 -0.66955783791E+03  0.86932284646E+03  0.11611111703E+04  0.25500000920E-02 0. -1.
</event>
<event>
 5   0  0.1615098E-06  0.2099903E+04  0.7818609E-02  0.8561286E-01
       -1   -1    0    0    0  501  0.00000000000E+00  0.00000000000E+00  0.60764566683E+03  0.60764566685E+03  0.50400001928E-02 0. -1.
        1   -1    0    0  501    0  0.00000000000E+00  0.00000000000E+00 -0.18142126021E+04  0.18142126021E+04  0.50400001928E-02 0.  1.
    10030    2    1    2    0    0  0.00000000000E+00  0.00000000000E+00 -0.12065669353E+04  0.24218582689E+04  0.20999032610E+04 0.  0.
        1    1    3    3  502    0  0.24397461383E+03 -0.19582782226E+03 -0.17592096134E+04  0.17868101779E+04  0.50400001928E-02 0.  1.
       -1    1    3    3    0  502 -0.24397461383E+03  0.19582782226E+03  0.55264267812E+03  0.63504809099E+03  0.50400001928E-02 0. -1.
</event>
<event>
 5   0  0.3705828E-06  0.2099353E+04  0.7818609E-02  0.8561528E-01
       -2   -1    0    0    0  501  0.00000000000E+00  0.00000000000E+00  0.70149145803E+03  0.70149145804E+03  0.25500000920E-02 0.  1.
        2   -1    0    0  501    0  0.00000000000E+00  0.00000000000E+00 -0.15706828681E+04  0.15706828681E+04  0.25500000920E-02 0. -1.
    10030    2    1    2    0    0  0.00000000000E+00  0.00000000000E+00 -0.86919141005E+03  0.22721743261E+04  0.20993528672E+04 0.  0.
        5    1    3    3  502    0 -0.47954896574E+03  0.92108795459E+03 -0.60025909500E+03  0.11994595874E+04  0.46999998093E+01 0.  1.
       -5    1    3    3    0  502  0.47954896574E+03 -0.92108795459E+03 -0.26893231504E+03  0.10727147387E+04  0.46999998093E+01 0. -1.
</event>
<event>
 5   0  0.3547583E-06  0.2103507E+04  0.7818609E-02  0.8559700E-01
        2   -1    0    0  501    0  0.00000000000E+00  0.00000000000E+00  0.18203344161E+04  0.18203344161E+04  0.25500000920E-02 0.  1.
       -2   -1    0    0    0  501  0.00000000000E+00  0.00000000000E+00 -0.60768228097E+03  0.60768228098E+03  0.25500000920E-02 0. -1.
    10030    2    1    2    0    0  0.00000000000E+00  0.00000000000E+00  0.12126521352E+04  0.24280166971E+04  0.21035065678E+04 0.  0.
        2    1    3    3  502    0 -0.59986354862E+02  0.10494247733E+04  0.56480033246E+03  0.11932686760E+04  0.25500000920E-02 0.  1.
       -2    1    3    3    0  502  0.59986354862E+02 -0.10494247733E+04  0.64785180271E+03  0.12347480212E+04  0.25500000920E-02 0. -1.
</event>
<event>
 5   0  0.3705828E-06  0.2099858E+04  0.7818609E-02  0.8561306E-01
        2   -1    0    0  501    0  0.00000000000E+00  0.00000000000E+00  0.23765789653E+04  0.23765789653E+04  0.25500000920E-02 0.  1.
       -2   -1    0    0    0  501  0.00000000000E+00  0.00000000000E+00 -0.46383934663E+03  0.46383934664E+03  0.25500000920E-02 0. -1.
    10030    2    1    2    0    0  0.00000000000E+00  0.00000000000E+00  0.19127396186E+04  0.28404183119E+04  0.20998579328E+04 0.  0.
        5    1    3    3  502    0  0.51429151578E+03 -0.56030496735E+03  0.19354381200E+04  0.20795144207E+04  0.46999998093E+01 0.  1.
       -5    1    3    3    0  502 -0.51429151578E+03  0.56030496735E+03 -0.22698501381E+02  0.76090389117E+03  0.46999998093E+01 0. -1.
</event>
<event>
 5   0  0.1615098E-06  0.2101718E+04  0.7818609E-02  0.8560487E-01
        1   -1    0    0  501    0  0.00000000000E+00  0.00000000000E+00  0.14158859401E+04  0.14158859401E+04  0.50400001928E-02 0.  1.
       -1   -1    0    0    0  501  0.00000000000E+00  0.00000000000E+00 -0.77993892842E+03  0.77993892844E+03  0.50400001928E-02 0. -1.
    10030    2    1    2    0    0  0.00000000000E+00  0.00000000000E+00  0.63594701164E+03  0.21958248685E+04  0.21017179286E+04 0.  0.
        1    1    3    3  502    0 -0.57536725274E+03 -0.11792646555E+02  0.12366152335E+04  0.13639661938E+04  0.50400001928E-02 0.  1.
       -1    1    3    3    0  502  0.57536725274E+03  0.11792646555E+02 -0.60066822182E+03  0.83185867476E+03  0.50400001928E-02 0. -1.
</event>
<event>
 5   0  0.3636435E-06  0.2099868E+04  0.7818609E-02  0.8561302E-01
       -2   -1    0    0    0  501  0.00000000000E+00  0.00000000000E+00  0.54771969446E+03  0.54771969447E+03  0.25500000920E-02 0. -1.
        2   -1    0    0  501    0  0.00000000000E+00  0.00000000000E+00 -0.20126374150E+04  0.20126374150E+04  0.25500000920E-02 0.  1.
    10030    2    1    2    0    0  0.00000000000E+00  0.00000000000E+00 -0.14649177205E+04  0.25603571094E+04  0.20998677577E+04 0.  0.
        4    1    3    3  502    0  0.51354804124E+03 -0.57624755873E+03  0.13535566648E+03  0.78365528708E+03  0.12699999809E+01 0. -1.
       -4    1    3    3    0  502 -0.51354804124E+03  0.57624755873E+03 -0.16002733870E+04  0.17767018224E+04  0.12699999809E+01 0.  1.
</event>
<event>
 5   0  0.3574927E-06  0.2102365E+04  0.7818609E-02  0.8560202E-01
       -2   -1    0    0    0  501  0.00000000000E+00  0.00000000000E+00  0.95518029628E+03  0.95518029629E+03  0.25500000920E-02 0.  1.
        2   -1    0    0  501    0  0.00000000000E+00  0.00000000000E+00 -0.11568339093E+04  0.11568339093E+04  0.25500000920E-02 0. -1.
    10030    2    1    2    0    0  0.00000000000E+00  0.00000000000E+00 -0.20165361303E+03  0.21120142056E+04  0.21023652929E+04 0.  0.
        3    1    3    3  502    0  0.84487210487E+03  0.61165653138E+03  0.30357204034E+02  0.10434817468E+04  0.10100000352E+00 0.  1.
       -3    1    3    3    0  502 -0.84487210487E+03 -0.61165653138E+03 -0.23201081706E+03  0.10685324587E+04  0.10100000352E+00 0. -1.
</event>
<event>
 5   0  0.3705828E-06  0.2100273E+04  0.7818609E-02  0.8561123E-01
       -2   -1    0    0    0  501  0.00000000000E+00  0.00000000000E+00  0.72890114772E+03  0.72890114772E+03  0.25500000920E-02 0. -1.
        2   -1    0    0  501    0  0.00000000000E+00  0.00000000000E+00 -0.15129444793E+04  0.15129444793E+04  0.25500000920E-02 0.  1.
    10030    2    1    2    0    0  0.00000000000E+00  0.00000000000E+00 -0.78404333158E+03  0.22418456270E+04  0.21002732845E+04 0.  0.
        5    1    3    3  502    0 -0.72775527775E+03 -0.12530774461E+03 -0.11889642840E+04  0.13996385011E+04  0.46999998093E+01 0.  1.
       -5    1    3    3    0  502  0.72775527775E+03  0.12530774461E+03  0.40492095246E+03  0.84220712588E+03  0.46999998093E+01 0. -1.
</event>
<event>
 5   0  0.3574927E-06  0.2099200E+04  0.7818609E-02  0.8561596E-01
       -2   -1    0    0    0  501  0.00000000000E+00  0.00000000000E+00  0.79235487132E+03  0.79235487132E+03  0.25500000920E-02 0. -1.
        2   -1    0    0  501    0  0.00000000000E+00  0.00000000000E+00 -0.13903624682E+04  0.13903624682E+04  0.25500000920E-02 0.  1.
    10030    2    1    2    0    0  0.00000000000E+00  0.00000000000E+00 -0.59800759691E+03  0.21827173396E+04  0.20992002997E+04 0.  0.
        3    1    3    3  502    0  0.15060483912E+03  0.35836248015E+03  0.71474940468E+03  0.81361674420E+03  0.10100000352E+00 0. -1.
       -3    1    3    3    0  502 -0.15060483912E+03 -0.35836248015E+03 -0.13127570016E+04  0.13691005953E+04  0.10100000352E+00 0.  1.
</event>
<event>
 5   0  0.1653260E-06  0.2101100E+04  0.7818609E-02  0.8560759E-01
       -1   -1    0    0    0  501  0.00000000000E+00  0.00000000000E+00  0.10164264672E+04  0.10164264672E+04  0.50400001928E-02 0.  1.
        1   -1    0    0  501    0  0.00000000000E+00  0.00000000000E+00 -0.10858194513E+04  0.10858194513E+04  0.50400001928E-02 0. -1.
    10030    2    1    2    0    0  0.00000000000E+00  0.00000000000E+00 -0.69392984140E+02  0.21022459185E+04  0.21011003107E+04 0.  0.
        3    1    3    3  502    0  0.93611976950E+03  0.16990380950E+03  0.41104398912E+03  0.10364095226E+04  0.10100000352E+00 0.  1.
       -3    1    3    3    0  502 -0.93611976950E+03 -0.16990380950E+03 -0.48043697326E+03  0.10658363959E+04  0.10100000352E+00 0. -1.
</event>
<event>
 5   0  0.1653260E-06  0.2100260E+04  0.7818609E-02  0.8561129E-01
       -1   -1    0    0    0  501  0.00000000000E+00  0.00000000000E+00  0.22850376470E+04  0.22850376471E+04  0.50400001928E-02 0.  1.
        1   -1    0    0  501    0  0.00000000000E+00  0.00000000000E+00 -0.48260626254E+03  0.48260626257E+03  0.50400001928E-02 0. -1.
    10030    2    1    2    0    0  0.00000000000E+00  0.00000000000E+00  0.18024313845E+04  0.27676439096E+04  0.21002604397E+04 0.  0.
        3    1    3    3  502    0 -0.78732437793E+03 -0.69450077548E+03  0.93246820199E+03  0.14041751889E+04  0.10100000352E+00 0. -1.
       -3    1    3    3    0  502  0.78732437793E+03  0.69450077548E+03  0.86996318251E+03  0.13634687207E+04  0.10100000352E+00 0.  1.
</event>
<event>
 5   0  0.3636435E-06  0.2100404E+04  0.7818609E-02  0.8561066E-01
        2   -1    0    0  501    0  0.00000000000E+00  0.00000000000E+00  0.12291904781E+04  0.12291904781E+04  0.25500000920E-02 0.  1.
       -2   -1    0    0    0  501  0.00000000000E+00  0.00000000000E+00 -0.89727670009E+03  0.89727670010E+03  0.25500000920E-02 0. -1.
    10030    2    1    2    0    0  0.00000000000E+00  0.00000000000E+00  0.33191377796E+03  0.21264671782E+04  0.21004037478E+04 0.  0.
        4    1    3    3  502    0 -0.69457451228E+02 -0.37901733593E+03 -0.82312237978E+03  0.90885122185E+03  0.12699999809E+01 0. -1.
       -4    1    3    3    0  502  0.69457451228E+02  0.37901733593E+03  0.11550361577E+04  0.12176159563E+04  0.12699999809E+01 0.  1.
</event>
<event>
 5   0  0.1590067E-06  0.2098361E+04  0.7818609E-02  0.8561966E-01
       -1   -1    0    0    0  501  0.00000000000E+00  0.00000000000E+00  0.61137821729E+03  0.61137821731E+03  0.50400001928E-02 0. -1.
        1   -1    0    0  501    0  0.00000000000E+00  0.00000000000E+00 -0.18004887314E+04  0.18004887314E+04  0.50400001928E-02 0.  1.
    10030    2    1    2    0    0  0.00000000000E+00  0.00000000000E+00 -0.11891105141E+04  0.24118669487E+04  0.20983608754E+04 0.  0.
        5    1    3    3  502    0  0.76643950741E+03 -0.48848116684E+03  0.78845581987E+01  0.90891563147E+03  0.46999998093E+01 0. -1.
       -5    1    3    3    0  502 -0.76643950741E+03  0.48848116684E+03 -0.11969950723E+04  0.15029513173E+04  0.46999998093E+01 0.  1.
</event>
<event>
 5   0  0.1257125E-06  0.2100294E+04  0.7818609E-02  0.8561114E-01
        3   -1    0    0  501    0  0.00000000000E+00  0.00000000000E+00  0.15214075763E+04  0.15214075797E+04  0.10100000352E+00 0. -1.
       -3   -1    0    0    0  501  0.00000000000E+00  0.00000000000E+00 -0.72486069294E+03  0.72486069998E+03  0.10100000352E+00 0.  1.
    10030    2    1    2    0    0  0.00000000000E+00  0.00000000000E+00  0.79654688339E+03  0.22462682797E+04  0.21002938477E+04 0.  0.
        3    1    3    3  502    0  0.28334313443E+03  0.26854362684E+03  0.14409196246E+04  0.14928658300E+04  0.10100000352E+00 0. -1.
       -3    1    3    3    0  502 -0.28334313443E+03 -0.26854362684E+03 -0.64437274126E+03  0.75340244971E+03  0.10100000352E+00 0.  1.
</event>
<event>
 5   0  0.1653260E-06  0.2109063E+04  0.7818609E-02  0.8557262E-01
        1   -1    0    0  501    0  0.00000000000E+00  0.00000000000E+00  0.15024463773E+04  0.15024463773E+04  0.50400001928E-02 0. -1.
       -1   -1    0    0    0  501  0.00000000000E+00  0.00000000000E+00 -0.74015038309E+03  0.74015038311E+03  0.50400001928E-02 0.  1.
    10030    2    1    2    0    0  0.00000000000E+00  0.00000000000E+00  0.76229599423E+03  0.22425967604E+04  0.21090625991E+04 0.  0.
        3    1    3    3  502    0  0.11687091044E+03 -0.50629780776E+03 -0.59457844436E+03  0.78963270990E+03  0.10100000352E+00 0.  1.
       -3    1    3    3    0  502 -0.11687091044E+03  0.50629780776E+03  0.13568744386E+04  0.14529640505E+04  0.10100000352E+00 0. -1.
</event>
<event>
 5   0  0.1257125E-06  0.2100354E+04  0.7818609E-02  0.8561087E-01
       -3   -1    0    0    0  501  0.00000000000E+00  0.00000000000E+00  0.11081670729E+04  0.11081670775E+04  0.10100000352E+00 0. -1.
        3   -1    0    0  501    0  0.00000000000E+00  0.00000000000E+00 -0.99522161461E+03  0.99522161974E+03  0.10100000352E+00 0.  1.
    10030    2    1    2    0    0  0.00000000000E+00  0.00000000000E+00  0.11294545830E+03  0.21033886972E+04  0.21003540976E+04 0.  0.
        4    1    3    3  502    0 -0.71955949887E+03 -0.68644382932E+03 -0.28150445865E+03  0.10335460204E+04  0.12699999809E+01 0.  1.
       -4    1    3    3    0  502  0.71955949887E+03  0.68644382932E+03  0.39444991695E+03  0.10698426768E+04  0.12699999809E+01 0. -1.
</event>
<event>
 5   0  0.1653260E-06  0.2100628E+04  0.7818609E-02  0.8560967E-01
        1   -1    0    0  501    0  0.00000000000E+00  0.00000000000E+00  0.16777889234E+04  0.16777889234E+04  0.50400001928E-02 0.  1.
       -1   -1    0    0    0  501  0.00000000000E+00  0.00000000000E+00 -0.65750809508E+03  0.65750809510E+03  0.50400001928E-02 0. -1.
    10030    2    1    2    0    0  0.00000000000E+00  0.00000000000E+00  0.10202808284E+04  0.23352970185E+04  0.21006282860E+04 0.  0.
        3    1    3    3  502    0  0.10501053846E+04  0.46237756719E+01  0.53284471861E+03  0.11775679184E+04  0.10100000352E+00 0. -1.
       -3    1    3    3    0  502 -0.10501053846E+04 -0.46237756719E+01  0.48743610975E+03  0.11577291002E+04  0.10100000352E+00 0.  1.
</event>
<event>
 5   0  0.3480134E-06  0.2099392E+04  0.7818609E-02  0.8561511E-01
       -2   -1    0    0    0  501  0.00000000000E+00  0.00000000000E+00  0.66124325243E+03  0.66124325244E+03  0.25500000920E-02 0.  1.
        2   -1    0    0  501    0  0.00000000000E+00  0.00000000000E+00 -0.16663491250E+04  0.16663491250E+04  0.25500000920E-02 0. -1.
    10030    2    1    2    0    0  0.00000000000E+00  0.00000000000E+00 -0.10051058726E+04  0.23275923775E+04  0.20993924027E+04 0.  0.
        1    1    3    3  502    0  0.10932197995E+03  0.80604701695E+02 -0.16565653138E+04  0.16621242589E+04  0.50400001928E-02 0. -1.
       -1    1    3    3    0  502 -0.10932197995E+03 -0.80604701695E+02  0.65145944120E+03  0.66546811854E+03  0.50400001928E-02 0.  1.
</event>
<event>
 5   0  0.1579820E-06  0.2099101E+04  0.7818609E-02  0.8561640E-01
       -1   -1    0    0    0  501  0.00000000000E+00  0.00000000000E+00  0.95211329084E+03  0.95211329085E+03  0.50400001928E-02 0. -1.
        1   -1    0    0  501    0  0.00000000000E+00  0.00000000000E+00 -0.11569590576E+04  0.11569590576E+04  0.50400001928E-02 0.  1.
    10030    2    1    2    0    0  0.00000000000E+00  0.00000000000E+00 -0.20484576680E+03  0.21090723485E+04  0.20991008511E+04 0.  0.
        2    1    3    3  502    0  0.57857476903E+03 -0.87196403965E+03 -0.21504316349E+02  0.10466768773E+04  0.25500000920E-02 0.  1.
       -2    1    3    3    0  502 -0.57857476903E+03  0.87196403965E+03 -0.18334145045E+03  0.10623954712E+04  0.25500000920E-02 0. -1.
</event>
<event>
 5   0  0.1653260E-06  0.2101155E+04  0.7818609E-02  0.8560735E-01
        1   -1    0    0  501    0  0.00000000000E+00  0.00000000000E+00  0.11532135347E+04  0.11532135347E+04  0.50400001928E-02 0.  1.
       -1   -1    0    0    0  501  0.00000000000E+00  0.00000000000E+00 -0.95707584373E+03  0.95707584374E+03  0.50400001928E-02 0. -1.
    10030    2    1    2    0    0  0.00000000000E+00  0.00000000000E+00  0.19613769097E+03  0.21102893784E+04  0.21011547461E+04 0.  0.
        3    1    3    3  502    0  0.42707541335E+03  0.80239752670E+03  0.62712033896E+03  0.11043165892E+04  0.10100000352E+00 0.  1.
       -3    1    3    3    0  502 -0.42707541335E+03 -0.80239752670E+03 -0.43098264798E+03  0.10059727892E+04  0.10100000352E+00 0. -1.
</event>
<event>
 5   0  0.1579820E-06  0.2101858E+04  0.7818609E-02  0.8560425E-01
        1   -1    0    0  501    0  0.00000000000E+00  0.00000000000E+00  0.16816646981E+04  0.16816646981E+04  0.50400001928E-02 0. -1.
       -1   -1    0    0    0  501  0.00000000000E+00  0.00000000000E+00 -0.65676103474E+03  0.65676103476E+03  0.50400001928E-02 0.  1.
    10030    2    1    2    0    0  0.00000000000E+00  0.00000000000E+00  0.10249036634E+04  0.23384257329E+04  0.21018580801E+04 0.  0.
        2    1    3    3  502    0 -0.40005713019E+03 -0.26679511832E+03 -0.52718976481E+03  0.71355055231E+03  0.25500000920E-02 0.  1.
       -2    1    3    3    0  502  0.40005713019E+03  0.26679511832E+03  0.15520934282E+04  0.16248751805E+04  0.25500000920E-02 0. -1.
</event>
<event>
 5   0  0.1653260E-06  0.2100826E+04  0.7818609E-02  0.8560879E-01
       -1   -1    0    0    0  501  0.00000000000E+00  0.00000000000E+00  0.91637035464E+03  0.91637035465E+03  0.50400001928E-02 0. -1.
        1   -1    0    0  501    0  0.00000000000E+00  0.00000000000E+00 -0.12040633900E+04  0.12040633900E+04  0.50400001928E-02 0.  1.
    10030    2    1    2    0    0  0.00000000000E+00  0.00000000000E+00 -0.28769303537E+03  0.21204337447E+04  0.21008265000E+04 0.  0.
        3    1    3    3  502    0 -0.27705676496E+03  0.72137146200E+03  0.57429292491E+03  0.96278222408E+03  0.10100000352E+00 0. -1.
       -3    1    3    3    0  502  0.27705676496E+03 -0.72137146200E+03 -0.86198596028E+03  0.11576515206E+04  0.10100000352E+00 0.  1.
</event>
<event>
 5   0  0.3705828E-06  0.2099355E+04  0.7818609E-02  0.8561528E-01
       -2   -1    0    0    0  501  0.00000000000E+00  0.00000000000E+00  0.10156665653E+04  0.10156665653E+04  0.25500000920E-02 0.  1.
        2   -1    0    0  501    0  0.00000000000E+00  0.00000000000E+00 -0.10848271841E+04  0.10848271841E+04  0.25500000920E-02 0. -1.
    10030    2    1    2    0    0  0.00000000000E+00  0.00000000000E+00 -0.69160618827E+02  0.21004937494E+04  0.20993548533E+04 0.  0.
        5    1    3    3  502    0  0.68897818248E+03  0.90240194522E+02 -0.82175128177E+03  0.10761651768E+04  0.46999998093E+01 0. -1.
       -5    1    3    3    0  502 -0.68897818248E+03 -0.90240194522E+02  0.75259066295E+03  0.10243285726E+04  0.46999998093E+01 0.  1.
</event>
<event>
 5   0  0.3480134E-06  0.2100693E+04  0.7818609E-02  0.8560938E-01
        2   -1    0    0  501    0  0.00000000000E+00  0.00000000000E+00  0.15882516419E+04  0.15882516419E+04  0.25500000920E-02 0. -1.
       -2   -1    0    0    0  501  0.00000000000E+00  0.00000000000E+00 -0.69461749543E+03  0.69461749543E+03  0.25500000920E-02 0.  1.
    10030    2    1    2    0    0  0.00000000000E+00  0.00000000000E+00  0.89363414645E+03  0.22828691373E+04  0.21006926263E+04 0.  0.
        1    1    3    3  502    0  0.48825789902E+03 -0.30030036902E+03 -0.50965353728E+03  0.76702204380E+03  0.50400001928E-02 0.  1.
       -1    1    3    3    0  502 -0.48825789902E+03  0.30030036902E+03  0.14032876837E+04  0.15158470935E+04  0.50400001928E-02 0. -1.
</event>
<event>
 5   0  0.1615098E-06  0.2096570E+04  0.7818609E-02  0.8562756E-01
        1   -1    0    0  501    0  0.00000000000E+00  0.00000000000E+00  0.14532035181E+04  0.14532035181E+04  0.50400001928E-02 0. -1.
       -1   -1    0    0    0  501  0.00000000000E+00  0.00000000000E+00 -0.75619238130E+03  0.75619238132E+03  0.50400001928E-02 0.  1.
    10030    2    1    2    0    0  0.00000000000E+00  0.00000000000E+00  0.69701113680E+03  0.22093958994E+04  0.20965699882E+04 0.  0.
        1    1    3    3  502    0 -0.69701800595E+03  0.67275110969E+02 -0.47356526352E+03  0.84535442272E+03  0.50400001928E-02 0.  1.
       -1    1    3    3    0  502  0.69701800595E+03 -0.67275110969E+02  0.11705764003E+04  0.13640414767E+04  0.50400001928E-02 0. -1.
</event>
<event>
 5   0  0.3547583E-06  0.2099747E+04  0.7818609E-02  0.8561355E-01
        2   -1    0    0  501    0  0.00000000000E+00  0.00000000000E+00  0.69264541891E+03  0.69264541891E+03  0.25500000920E-02 0. -1.
       -2   -1    0    0    0  501  0.00000000000E+00  0.00000000000E+00 -0.15913401831E+04  0.15913401831E+04  0.25500000920E-02 0.  1.
    10030    2    1    2    0    0  0.00000000000E+00  0.00000000000E+00 -0.89869476420E+03  0.22839856020E+04  0.20997471160E+04 0.  0.
        2    1    3    3  502    0  0.65517448919E+03 -0.50102292958E+03  0.25723111260E+03  0.86397073593E+03  0.25500000920E-02 0. -1.
       -2    1    3    3    0  502 -0.65517448919E+03  0.50102292958E+03 -0.11559258768E+04  0.14200148661E+04  0.25500000920E-02 0.  1.
</event>
<event>
 5   0  0.3705828E-06  0.2102208E+04  0.7818609E-02  0.8560272E-01
        2   -1    0    0  501    0  0.00000000000E+00  0.00000000000E+00  0.11948235925E+04  0.11948235925E+04  0.25500000920E-02 0. -1.
       -2   -1    0    0    0  501  0.00000000000E+00  0.00000000000E+00 -0.92467132669E+03  0.92467132669E+03  0.25500000920E-02 0.  1.
    10030    2    1    2    0    0  0.00000000000E+00  0.00000000000E+00  0.27015226578E+03  0.21194949192E+04  0.21022075220E+04 0.  0.
        5    1    3    3  502    0  0.74018463379E+03 -0.85984272830E+02 -0.61232313973E+03  0.96448343931E+03  0.46999998093E+01 0.  1.
       -5    1    3    3    0  502 -0.74018463379E+03  0.85984272830E+02  0.88247540550E+03  0.11550114798E+04  0.46999998093E+01 0. -1.
</event>
<event>
 5   0  0.1579820E-06  0.2101247E+04  0.7818609E-02  0.8560694E-01
       -1   -1    0    0    0  501  0.00000000000E+00  0.00000000000E+00  0.47423142866E+03  0.47423142869E+03  0.50400001928E-02 0.  1.
        1   -1    0    0  501    0  0.00000000000E+00  0.00000000000E+00 -0.23275767441E+04  0.23275767441E+04  0.50400001928E-02 0. -1.
    10030    2    1    2    0    0  0.00000000000E+00  0.00000000000E+00 -0.18533453154E+04  0.28018081728E+04  0.21012472912E+04 0.  0.
        2    1    3    3  502    0  0.94152783903E+03 -0.28014987444E+03 -0.42980995736E+03  0.10722384172E+04  0.25500000920E-02 0.  1.
       -2    1    3    3    0  502 -0.94152783903E+03  0.28014987444E+03 -0.14235353581E+04  0.17295697556E+04  0.25500000920E-02 0. -1.
</event>
<event>
 5   0  0.3547583E-06  0.2099303E+04  0.7818609E-02  0.8561551E-01
       -2   -1    0    0    0  501  0.00000000000E+00  0.00000000000E+00  0.10502222075E+04  0.10502222075E+04  0.25500000920E-02 0. -1.
        2   -1    0    0  501    0  0.00000000000E+00  0.00000000000E+00 -0.10490806574E+04  0.10490806574E+04  0.25500000920E-02 0.  1.
    10030    2    1    2    0    0  0.00000000000E+00  0.00000000000E+00  0.11415500667E+01  0.20993028649E+04  0.20993025545E+04 0.  0.
        2    1    3    3  502    0  0.97757544243E+03  0.37359769643E+03  0.81433753980E+02  0.10496954038E+04  0.25500000920E-02 0. -1.
       -2    1    3    3    0  502 -0.97757544243E+03 -0.37359769643E+03 -0.80292203913E+02  0.10496074611E+04  0.25500000920E-02 0.  1.
</event>
<event>
 5   0  0.3574927E-06  0.2100212E+04  0.7818609E-02  0.8561150E-01
        2   -1    0    0  501    0  0.00000000000E+00  0.00000000000E+00  0.16293724178E+04  0.16293724178E+04  0.25500000920E-02 0.  1.
       -2   -1    0    0    0  501  0.00000000000E+00  0.00000000000E+00 -0.67677758578E+03  0.67677758579E+03  0.25500000920E-02 0. -1.
    10030    2    1    2    0    0  0.00000000000E+00  0.00000000000E+00  0.95259483205E+03  0.23061500036E+04  0.21002121143E+04 0.  0.
        3    1    3    3  502    0 -0.45886437150E+03 -0.47988321672E+03 -0.41703576930E+03  0.78406840020E+03  0.10100000352E+00 0. -1.
       -3    1    3    3    0  502  0.45886437150E+03  0.47988321672E+03  0.13696306013E+04  0.15220816034E+04  0.10100000352E+00 0.  1.
</event>
<event>
 5   0  0.1590067E-06  0.2100038E+04  0.7818609E-02  0.8561227E-01
        1   -1    0    0  501    0  0.00000000000E+00  0.00000000000E+00  0.10713592672E+04  0.10713592672E+04  0.50400001928E-02 0.  1.
       -1   -1    0    0    0  501  0.00000000000E+00  0.00000000000E+00 -0.10291034189E+04  0.10291034189E+04  0.50400001928E-02 0. -1.
    10030    2    1    2    0    0  0.00000000000E+00  0.00000000000E+00  0.42255848281E+02  0.21004626861E+04  0.21000376042E+04 0.  0.
        5    1    3    3  502    0  0.44864568585E+03 -0.32834102885E+03 -0.86979735308E+03  0.10323082428E+04  0.46999998093E+01 0. -1.
       -5    1    3    3    0  502 -0.44864568585E+03  0.32834102885E+03  0.91205320136E+03  0.10681544433E+04  0.46999998093E+01 0.  1.
</event>
<event>
 5   0  0.1590067E-06  0.2101078E+04  0.7818609E-02  0.8560769E-01
       -1   -1    0    0    0  501  0.00000000000E+00  0.00000000000E+00  0.97705280866E+03  0.97705280867E+03  0.50400001928E-02 0.  1.
        1   -1    0    0  501    0  0.00000000000E+00  0.00000000000E+00 -0.11295518298E+04  0.11295518298E+04  0.50400001928E-02 0. -1.
    10030    2    1    2    0    0  0.00000000000E+00  0.00000000000E+00 -0.15249902114E+03  0.21066046385E+04  0.21010776167E+04 0.  0.
        5    1    3    3  502    0  0.99763287347E+03 -0.20879992410E+03  0.17886222545E+03  0.10348345492E+04  0.46999998093E+01 0.  1.
       -5    1    3    3    0  502 -0.99763287347E+03  0.20879992410E+03 -0.33136124660E+03  0.10717700893E+04  0.46999998093E+01 0. -1.
</event>
<event>
 5   0  0.3480134E-06  0.2097515E+04  0.7818609E-02  0.8562339E-01
       -2   -1    0    0    0  501  0.00000000000E+00  0.00000000000E+00  0.10789110503E+04  0.10789110503E+04  0.25500000920E-02 0. -1.
        2   -1    0    0  501    0  0.00000000000E+00  0.00000000000E+00 -0.10194469108E+04  0.10194469108E+04  0.25500000920E-02 0.  1.
    10030    2    1    2    0    0  0.00000000000E+00  0.00000000000E+00  0.59464139461E+02  0.20983579611E+04  0.20975152321E+04 0.  0.
        1    1    3    3  502    0  0.70767829569E+03  0.28718443318E+03  0.74877606899E+03  0.10695555480E+04  0.50400001928E-02 0. -1.
       -1    1    3    3    0  502 -0.70767829569E+03 -0.28718443318E+03 -0.68931192953E+03  0.10288024130E+04  0.50400001928E-02 0.  1.
</event>
<event>
 5   0  0.1646510E-06  0.2100359E+04  0.7818609E-02  0.8561085E-01
        1   -1    0    0  501    0  0.00000000000E+00  0.00000000000E+00  0.11510353184E+04  0.11510353184E+04  0.50400001928E-02 0. -1.
       -1   -1    0    0    0  501  0.00000000000E+00  0.00000000000E+00 -0.95816051160E+03  0.95816051161E+03  0.50400001928E-02 0.  1.
    10030    2    1    2    0    0  0.00000000000E+00  0.00000000000E+00  0.19287480675E+03  0.21091958300E+04  0.21003586261E+04 0.  0.
        4    1    3    3  502    0 -0.24923209658E+03 -0.86587033502E+03  0.63817629780E+03  0.11041370726E+04  0.12699999809E+01 0. -1.
       -4    1    3    3    0  502  0.24923209658E+03  0.86587033502E+03 -0.44530149104E+03  0.10050587574E+04  0.12699999809E+01 0.  1.
</event>
<event>
 5   0  0.1579820E-06  0.2099498E+04  0.7818609E-02  0.8561464E-01
       -1   -1    0    0    0  501  0.00000000000E+00  0.00000000000E+00  0.58368057127E+03  0.58368057129E+03  0.50400001928E-02 0. -1.
        1   -1    0    0  501    0  0.00000000000E+00  0.00000000000E+00 -0.18879733267E+04  0.18879733267E+04  0.50400001928E-02 0.  1.
    10030    2    1    2    0    0  0.00000000000E+00  0.00000000000E+00 -0.13042927554E+04  0.24716538980E+04  0.20994983686E+04 0.  0.
        2    1    3    3  502    0  0.29668321466E+03 -0.49750966693E+03 -0.16827940330E+04  0.17797001309E+04  0.25500000920E-02 0.  1.
       -2    1    3    3    0  502 -0.29668321466E+03  0.49750966693E+03  0.37850127761E+03  0.69195376703E+03  0.25500000920E-02 0. -1.
</event>
<event>
 5   0  0.3636435E-06  0.2101176E+04  0.7818609E-02  0.8560725E-01
        2   -1    0    0  501    0  0.00000000000E+00  0.00000000000E+00  0.20354957849E+04  0.20354957849E+04  0.25500000920E-02 0.  1.
       -2   -1    0    0    0  501  0.00000000000E+00  0.00000000000E+00 -0.54224396733E+03  0.54224396734E+03  0.25500000920E-02 0. -1.
    10030    2    1    2    0    0  0.00000000000E+00  0.00000000000E+00  0.14932518176E+04  0.25777397523E+04  0.21011761563E+04 0.  0.
        4    1    3    3  502    0  0.36198999608E+03  0.37110976137E+03 -0.37439369500E+03  0.63947749296E+03  0.12699999809E+01 0. -1.
       -4    1    3    3    0  502 -0.36198999608E+03 -0.37110976137E+03  0.18676455126E+04  0.19382622593E+04  0.12699999809E+01 0.  1.
</event>
<event>
 5   0  0.3547583E-06  0.2100474E+04  0.7818609E-02  0.8561035E-01
        2   -1    0    0  501    0  0.00000000000E+00  0.00000000000E+00  0.89900849520E+03  0.89900849521E+03  0.25500000920E-02 0.  1.
       -2   -1    0    0    0  501  0.00000000000E+00  0.00000000000E+00 -0.12269043046E+04  0.12269043046E+04  0.25500000920E-02 0. -1.
    10030    2    1    2    0    0  0.00000000000E+00  0.00000000000E+00 -0.32789580943E+03  0.21259127998E+04  0.21004736539E+04 0.  0.
        2    1    3    3  502    0 -0.13369936786E+03 -0.66195383649E+03  0.65011857284E+03  0.93739669371E+03  0.25500000920E-02 0.  1.
       -2    1    3    3    0  502  0.13369936786E+03  0.66195383649E+03 -0.97801438227E+03  0.11885161061E+04  0.25500000920E-02 0. -1.
</event>
<event>
 5   0  0.3574927E-06  0.2099915E+04  0.7818609E-02  0.8561281E-01
       -2   -1    0    0    0  501  0.00000000000E+00  0.00000000000E+00  0.11791732178E+04  0.11791732178E+04  0.25500000920E-02 0.  1.
        2   -1    0    0  501    0  0.00000000000E+00  0.00000000000E+00 -0.93490155698E+03  0.93490155698E+03  0.25500000920E-02 0. -1.
    10030    2    1    2    0    0  0.00000000000E+00  0.00000000000E+00  0.24427166078E+03  0.21140747747E+04  0.20999151195E+04 0.  0.
        3    1    3    3  502    0 -0.87310574269E+02 -0.39199138613E+03  0.10987961069E+04  0.11698860106E+04  0.10100000352E+00 0.  1.
       -3    1    3    3    0  502  0.87310574269E+02  0.39199138613E+03 -0.85452444608E+03  0.94418876414E+03  0.10100000352E+00 0. -1.
</event>
<event>
 5   0  0.1579820E-06  0.2100423E+04  0.7818609E-02  0.8561057E-01
        1   -1    0    0  501    0  0.00000000000E+00  0.00000000000E+00  0.18293195825E+04  0.18293195825E+04  0.50400001928E-02 0.  1.
       -1   -1    0    0    0  501  0.00000000000E+00  0.00000000000E+00 -0.60292610475E+03  0.60292610477E+03  0.50400001928E-02 0. -1.
    10030    2    1    2    0    0  0.00000000000E+00  0.00000000000E+00  0.12263934777E+04  0.24322456873E+04  0.21004233195E+04 0.  0.
        2    1    3    3  502    0 -0.10364413143E+03  0.57310605773E+02 -0.59516838733E+03  0.60683772196E+03  0.25500000920E-02 0. -1.
       -2    1    3    3    0  502  0.10364413143E+03 -0.57310605773E+02  0.18215618651E+04  0.18254079653E+04  0.25500000920E-02 0.  1.
</event>
<event>
 5   0  0.3636435E-06  0.2100686E+04  0.7818609E-02  0.8560941E-01
       -2   -1    0    0    0  501  0.00000000000E+00  0.00000000000E+00  0.45957424749E+03  0.45957424749E+03  0.25500000920E-02 0.  1.
        2   -1    0    0  501    0  0.00000000000E+00  0.00000000000E+00 -0.24005277626E+04  0.24005277626E+04  0.25500000920E-02 0. -1.
    10030    2    1    2    0    0  0.00000000000E+00  0.00000000000E+00 -0.19409535151E+04  0.28601020101E+04  0.21006863070E+04 0.  0.
        4    1    3    3  502    0 -0.51723248938E+03  0.46555801259E+03  0.10066387492E+03  0.70314190585E+03  0.12699999809E+01 0.  1.
       -4    1    3    3    0  502  0.51723248938E+03 -0.46555801259E+03 -0.20416173901E+04  0.21569601043E+04  0.12699999809E+01 0. -1.
</event>
<event>
 5   0  0.3574927E-06  0.2098411E+04  0.7818609E-02  0.8561943E-01
       -2   -1    0    0    0  501  0.00000000000E+00  0.00000000000E+00  0.15474939269E+04  0.15474939269E+04  0.25500000920E-02 0.  1.
        2   -1    0    0  501    0  0.00000000000E+00  0.00000000000E+00 -0.71136473005E+03  0.71136473005E+03  0.25500000920E-02 0. -1.
    10030    2    1    2    0    0  0.00000000000E+00  0.00000000000E+00  0.83612919690E+03  0.22588586570E+04  0.20984113988E+04 0.  0.
        3    1    3    3  502    0  0.38140805072E+03  0.95637308180E+03  0.63526188434E+03  0.12098261217E+04  0.10100000352E+00 0. -1.
       -3    1    3    3    0  502 -0.38140805072E+03 -0.95637308180E+03  0.20086731256E+03  0.10490325353E+04  0.10100000352E+00 0.  1.
</event>
<event>
 5   0  0.1653260E-06  0.2098753E+04  0.7818609E-02  0.8561793E-01
        1   -1    0    0  501    0  0.00000000000E+00  0.00000000000E+00  0.58884379065E+03  0.58884379067E+03  0.50400001928E-02 0.  1.
       -1   -1    0    0    0  501  0.00000000000E+00  0.00000000000E+00 -0.18700899228E+04  0.18700899228E+04  0.50400001928E-02 0. -1.
    10030    2    1    2    0    0  0.00000000000E+00  0.00000000000E+00 -0.12812461322E+04  0.24589337135E+04  0.20987528097E+04 0.  0.
        3    1    3    3  502    0  0.22683307172E+03  0.54198905866E+03 -0.16593135481E+04  0.17602632881E+04  0.10100000352E+00 0. -1.
       -3    1    3    3    0  502 -0.22683307172E+03 -0.54198905866E+03  0.37806741597E+03  0.69867042542E+03  0.10100000352E+00 0.  1.
</event>
<event>
 5   0  0.3574927E-06  0.2097148E+04  0.7818609E-02  0.8562501E-01
       -2   -1    0    0    0  501  0.00000000000E+00  0.00000000000E+00  0.55095692946E+03  0.55095692947E+03  0.25500000920E-02 0.  1.
        2   -1    0    0  501    0  0.00000000000E+00  0.00000000000E+00 -0.19956328692E+04  0.19956328692E+04  0.25500000920E-02 0. -1.
    10030    2    1    2    0    0  0.00000000000E+00  0.00000000000E+00 -0.14446759397E+04  0.25465897987E+04  0.20971483094E+04 0.  0.
        3    1    3    3  502    0 -0.95628575504E+03  0.28443058622E+03 -0.11141758397E+04  0.14955838377E+04  0.10100000352E+00 0.  1.
       -3    1    3    3    0  502  0.95628575504E+03 -0.28443058622E+03 -0.33050010007E+03  0.10510059610E+04  0.10100000352E+00 0. -1.
</event>
<event>
 5   0  0.1579820E-06  0.2100735E+04  0.7818609E-02  0.8560920E-01
        1   -1    0    0  501    0  0.00000000000E+00  0.00000000000E+00  0.68321937768E+03  0.68321937770E+03  0.50400001928E-02 0. -1.
       -1   -1    0    0    0  501  0.00000000000E+00  0.00000000000E+00 -0.16148129649E+04  0.16148129649E+04  0.50400001928E-02 0.  1.
    10030    2    1    2    0    0  0.00000000000E+00  0.00000000000E+00 -0.93159358718E+03  0.22980323426E+04  0.21007346419E+04 0.  0.
        2    1    3    3  502    0 -0.49779280150E+03  0.35919416586E+02 -0.14768186908E+04  0.15588718110E+04  0.25500000920E-02 0.  1.
       -2    1    3    3    0  502  0.49779280150E+03 -0.35919416586E+02  0.54522510364E+03  0.73916053152E+03  0.25500000920E-02 0. -1.
</event>
<event>
 5   0  0.1615098E-06  0.2100260E+04  0.7818609E-02  0.8561129E-01
       -1   -1    0    0    0  501  0.00000000000E+00  0.00000000000E+00  0.11164405984E+04  0.11164405984E+04  0.50400001928E-02 0. -1.
        1   -1    0    0  501    0  0.00000000000E+00  0.00000000000E+00 -0.98775769114E+03  0.98775769116E+03  0.50400001928E-02 0.  1.
    10030    2    1    2    0    0  0.00000000000E+00  0.00000000000E+00  0.12868290726E+03  0.21041982896E+04  0.21002597818E+04 0.  0.
        1    1    3    3  502    0  0.64159030847E+02 -0.10405315612E+04 -0.62190578089E+02  0.10443610386E+04  0.50400001928E-02 0.  1.
       -1    1    3    3    0  502 -0.64159030847E+02  0.10405315612E+04  0.19087348535E+03  0.10598372509E+04  0.50400001928E-02 0. -1.
</event>
<event>
 5   0  0.3636435E-06  0.2100341E+04  0.7818609E-02  0.8561093E-01
        2   -1    0    0  501    0  0.00000000000E+00  0.00000000000E+00  0.25121226043E+04  0.25121226043E+04  0.25500000920E-02 0.  1.
       -2   -1    0    0    0  501  0.00000000000E+00  0.00000000000E+00 -0.43901429184E+03  0.43901429184E+03  0.25500000920E-02 0. -1.
    10030    2    1    2    0    0  0.00000000000E+00  0.00000000000E+00  0.20731083125E+04  0.29511368962E+04  0.21003406639E+04 0.  0.
        4    1    3    3  502    0 -0.30938169321E+03 -0.78255373156E+03  0.19193494119E+04  0.20957125645E+04  0.12699999809E+01 0.  1.
       -4    1    3    3    0  502  0.30938169321E+03  0.78255373156E+03  0.15375890056E+03  0.85542433170E+03  0.12699999809E+01 0. -1.
</event>
<event>
 5   0  0.3636435E-06  0.2100383E+04  0.7818609E-02  0.8561075E-01
       -2   -1    0    0    0  501  0.00000000000E+00  0.00000000000E+00  0.78347780311E+03  0.78347780312E+03  0.25500000920E-02 0.  1.
        2   -1    0    0  501    0  0.00000000000E+00  0.00000000000E+00 -0.14077010915E+04  0.14077010915E+04  0.25500000920E-02 0. -1.
    10030    2    1    2    0    0  0.00000000000E+00  0.00000000000E+00 -0.62422328835E+03  0.21911788946E+04  0.21003833541E+04 0.  0.
        4    1    3    3  502    0  0.90878143622E+03 -0.18831471715E+03 -0.82483974123E+03  0.12416554849E+04  0.12699999809E+01 0. -1.
       -4    1    3    3    0  502 -0.90878143622E+03  0.18831471715E+03  0.20061645289E+03  0.94952340970E+03  0.12699999809E+01 0.  1.
</event>
<event>
 5   0  0.3636435E-06  0.2100714E+04  0.7818609E-02  0.8560929E-01
       -2   -1    0    0    0  501  0.00000000000E+00  0.00000000000E+00  0.10187845499E+04  0.10187845499E+04  0.25500000920E-02 0.  1.
        2   -1    0    0  501    0  0.00000000000E+00  0.00000000000E+00 -0.10829083799E+04  0.10829083799E+04  0.25500000920E-02 0. -1.
    10030    2    1    2    0    0  0.00000000000E+00  0.00000000000E+00 -0.64123829950E+02  0.21016929298E+04  0.21007144750E+04 0.  0.
        4    1    3    3  502    0 -0.41769496564E+03 -0.96372940455E+03 -0.29766513311E+02  0.10507764309E+04  0.12699999809E+01 0. -1.
       -4    1    3    3    0  502  0.41769496564E+03  0.96372940455E+03 -0.34357316640E+02  0.10509164989E+04  0.12699999809E+01 0.  1.
</event>
<event>
 5   0  0.1257125E-06  0.2093857E+04  0.7818609E-02  0.8563954E-01
        3   -1    0    0  501    0  0.00000000000E+00  0.00000000000E+00  0.97805607686E+03  0.97805608207E+03  0.10100000352E+00 0.  1.
       -3   -1    0    0    0  501  0.00000000000E+00  0.00000000000E+00 -0.11206502167E+04  0.11206502212E+04  0.10100000352E+00 0. -1.
    10030    2    1    2    0    0  0.00000000000E+00  0.00000000000E+00 -0.14259413984E+03  0.20987063033E+04  0.20938565039E+04 0.  0.
        5    1    3    3  502    0 -0.88365343150E+03  0.33669246723E+03 -0.52159421497E+03  0.10799480634E+04  0.46999998093E+01 0. -1.
       -5    1    3    3    0  502  0.88365343150E+03 -0.33669246723E+03  0.37900007513E+03  0.10187582399E+04  0.46999998093E+01 0.  1.
</event>
<event>
 5   0  0.1615098E-06  0.2098176E+04  0.7818609E-02  0.8562047E-01
       -1   -1    0    0    0  501  0.00000000000E+00  0.00000000000E+00  0.66007529427E+03  0.66007529429E+03  0.50400001928E-02 0.  1.
        1   -1    0    0  501    0  0.00000000000E+00  0.00000000000E+00 -0.16673640680E+04  0.16673640680E+04  0.50400001928E-02 0. -1.
    10030    2    1    2    0    0  0.00000000000E+00  0.00000000000E+00 -0.10072887737E+04  0.23274393623E+04  0.20981761869E+04 0.  0.
        1    1    3    3  502    0 -0.69481354413E+03  0.78594000113E+03 -0.51570847715E+03  0.11689408796E+04  0.50400001928E-02 0. -1.
       -1    1    3    3    0  502  0.69481354413E+03 -0.78594000113E+03 -0.49158029654E+03  0.11584984827E+04  0.50400001928E-02 0.  1.
</event>
<event>
 5   0  0.3574927E-06  0.2100355E+04  0.7818609E-02  0.8561087E-01
        2   -1    0    0  501    0  0.00000000000E+00  0.00000000000E+00  0.11806545875E+04  0.11806545875E+04  0.25500000920E-02 0. -1.
       -2   -1    0    0    0  501  0.00000000000E+00  0.00000000000E+00 -0.93412003179E+03  0.93412003179E+03  0.25500000920E-02 0.  1.
    10030    2    1    2    0    0  0.00000000000E+00  0.00000000000E+00  0.24653455574E+03  0.21147746193E+04  0.21003553041E+04 0.  0.
        3    1    3    3  502    0  0.32877182828E+03 -0.65709404283E+03  0.87875814666E+03  0.11454603383E+04  0.10100000352E+00 0. -1.
       -3    1    3    3    0  502 -0.32877182828E+03  0.65709404283E+03 -0.63222359092E+03  0.96931428098E+03  0.10100000352E+00 0.  1.
</event>
<event>
 5   0  0.3480134E-06  0.2101560E+04  0.7818609E-02  0.8560557E-01
        2   -1    0    0  501    0  0.00000000000E+00  0.00000000000E+00  0.14737161763E+04  0.14737161763E+04  0.25500000920E-02 0. -1.
       -2   -1    0    0    0  501  0.00000000000E+00  0.00000000000E+00 -0.74922045763E+03  0.74922045763E+03  0.25500000920E-02 0.  1.
    10030    2    1    2    0    0  0.00000000000E+00  0.00000000000E+00  0.72449571866E+03  0.22229366339E+04  0.21015597141E+04 0.  0.
        1    1    3    3  502    0 -0.37174853807E+02  0.92718876407E+03  0.88375178344E+03  0.12814359870E+04  0.50400001928E-02 0. -1.
       -1    1    3    3    0  502  0.37174853807E+02 -0.92718876407E+03 -0.15925606478E+03  0.94150064693E+03  0.50400001928E-02 0.  1.
</event>
<event>
 5   0  0.1579820E-06  0.2101086E+04  0.7818609E-02  0.8560765E-01
        1   -1    0    0  501    0  0.00000000000E+00  0.00000000000E+00  0.17782803173E+04  0.17782803173E+04  0.50400001928E-02 0.  1.
       -1   -1    0    0    0  501  0.00000000000E+00  0.00000000000E+00 -0.62062255825E+03  0.62062255827E+03  0.50400001928E-02 0. -1.
    10030    2    1    2    0    0  0.00000000000E+00  0.00000000000E+00  0.11576577590E+04  0.23989028755E+04  0.21010862713E+04 0.  0.
        2    1    3    3  502    0  0.42552116713E+03  0.15273763789E+03 -0.50386956628E+03  0.67696498398E+03  0.25500000920E-02 0. -1.
       -2    1    3    3    0  502 -0.42552116713E+03 -0.15273763789E+03  0.16615273253E+04  0.17219378916E+04  0.25500000920E-02 0.  1.
</event>
<event>
 5   0  0.1615098E-06  0.2099858E+04  0.7818609E-02  0.8561306E-01
        1   -1    0    0  501    0  0.00000000000E+00  0.00000000000E+00  0.11485532554E+04  0.11485532554E+04  0.50400001928E-02 0. -1.
       -1   -1    0    0    0  501  0.00000000000E+00  0.00000000000E+00 -0.95977321964E+03  0.95977321965E+03  0.50400001928E-02 0.  1.
    10030    2    1    2    0    0  0.00000000000E+00  0.00000000000E+00  0.18878003579E+03  0.21083264751E+04  0.20998577627E+04 0.  0.
        1    1    3    3  502    0 -0.38023137908E+02 -0.99224022033E+03 -0.24810775892E+03  0.10234959081E+04  0.50400001928E-02 0.  1.
       -1    1    3    3    0  502  0.38023137908E+02  0.99224022033E+03  0.43688779471E+03  0.10848305670E+04  0.50400001928E-02 0. -1.
</event>
<event>
 5   0  0.1579820E-06  0.2099480E+04  0.7818609E-02  0.8561473E-01
        1   -1    0    0  501    0  0.00000000000E+00  0.00000000000E+00  0.32703354194E+04  0.32703354194E+04  0.50400001928E-02 0.  1.
       -1   -1    0    0    0  501  0.00000000000E+00  0.00000000000E+00 -0.33695440485E+03  0.33695440488E+03  0.50400001928E-02 0. -1.
    10030    2    1    2    0    0  0.00000000000E+00  0.00000000000E+00  0.29333810146E+04  0.36072898243E+04  0.20994798641E+04 0.  0.
        2    1    3    3  502    0  0.88362844584E+03  0.82882100841E+02  0.50345757148E+03  0.10203617982E+04  0.25500000920E-02 0. -1.
       -2    1    3    3    0  502 -0.88362844584E+03 -0.82882100841E+02  0.24299234431E+04  0.25869280261E+04  0.25500000920E-02 0.  1.
</event>
<event>
 5   0  0.3574927E-06  0.2099111E+04  0.7818609E-02  0.8561635E-01
       -2   -1    0    0    0  501  0.00000000000E+00  0.00000000000E+00  0.43927590176E+03  0.43927590177E+03  0.25500000920E-02 0. -1.
        2   -1    0    0  501    0  0.00000000000E+00  0.00000000000E+00 -0.25076886894E+04  0.25076886894E+04  0.25500000920E-02 0.  1.
    10030    2    1    2    0    0  0.00000000000E+00  0.00000000000E+00 -0.20684127876E+04  0.29469645911E+04  0.20991114409E+04 0.  0.
        3    1    3    3  502    0 -0.97718028474E+03  0.30184133556E+03 -0.13651772130E+04  0.17057837887E+04  0.10100000352E+00 0.  1.
       -3    1    3    3    0  502  0.97718028474E+03 -0.30184133556E+03 -0.70323557459E+03  0.12411808024E+04  0.10100000352E+00 0. -1.
</event>
<event>
 5   0  0.1579820E-06  0.2101011E+04  0.7818609E-02  0.8560798E-01
        1   -1    0    0  501    0  0.00000000000E+00  0.00000000000E+00  0.16632975309E+04  0.16632975309E+04  0.50400001928E-02 0.  1.
       -1   -1    0    0    0  501  0.00000000000E+00  0.00000000000E+00 -0.66347841785E+03  0.66347841787E+03  0.50400001928E-02 0. -1.
    10030    2    1    2    0    0  0.00000000000E+00  0.00000000000E+00  0.99981911308E+03  0.23267759488E+04  0.21010111987E+04 0.  0.
        2    1    3    3  502    0 -0.81082699352E+03  0.44515779067E+03 -0.51549957979E+02  0.92642499437E+03  0.25500000920E-02 0. -1.
       -2    1    3    3    0  502  0.81082699352E+03 -0.44515779067E+03  0.10513690711E+04  0.14003509544E+04  0.25500000920E-02 0.  1.
</event>
<event>
 5   0  0.3636435E-06  0.2099971E+04  0.7818609E-02  0.8561256E-01
       -2   -1    0    0    0  501  0.00000000000E+00  0.00000000000E+00  0.48704348977E+03  0.48704348977E+03  0.25500000920E-02 0. -1.
        2   -1    0    0  501    0  0.00000000000E+00  0.00000000000E+00 -0.22635959482E+04  0.22635959482E+04  0.25500000920E-02 0.  1.
    10030    2    1    2    0    0  0.00000000000E+00  0.00000000000E+00 -0.17765524584E+04  0.27506394380E+04  0.20999711141E+04 0.  0.
        4    1    3    3  502    0 -0.10319755633E+04 -0.19027295772E+03 -0.93533409422E+03  0.14057129303E+04  0.12699999809E+01 0. -1.
       -4    1    3    3    0  502  0.10319755633E+04  0.19027295772E+03 -0.84121836422E+03  0.13449265077E+04  0.12699999809E+01 0.  1.
</event>
<event>
 5   0  0.1653260E-06  0.2097231E+04  0.7818609E-02  0.8562464E-01
       -1   -1    0    0    0  501  0.00000000000E+00  0.00000000000E+00  0.79997598167E+03  0.79997598169E+03  0.50400001928E-02 0. -1.
        1   -1    0    0  501    0  0.00000000000E+00  0.00000000000E+00 -0.13745342411E+04  0.13745342411E+04  0.50400001928E-02 0.  1.
    10030    2    1    2    0    0  0.00000000000E+00  0.00000000000E+00 -0.57455825946E+03  0.21745102228E+04  0.20972309161E+04 0.  0.
        3    1    3    3  502    0  0.92748308920E+03  0.47088587206E+03 -0.14958512100E+03  0.10508730199E+04  0.10100000352E+00 0. -1.
       -3    1    3    3    0  502 -0.92748308920E+03 -0.47088587206E+03 -0.42497313846E+03  0.11236372030E+04  0.10100000352E+00 0.  1.
</event>
<event>
 5   0  0.1615098E-06  0.2099268E+04  0.7818609E-02  0.8561566E-01
       -1   -1    0    0    0  501  0.00000000000E+00  0.00000000000E+00  0.98946728121E+03  0.98946728122E+03  0.50400001928E-02 0.  1.
        1   -1    0    0  501    0  0.00000000000E+00  0.00000000000E+00 -0.11134589449E+04  0.11134589449E+04  0.50400001928E-02 0. -1.
    10030    2    1    2    0    0  0.00000000000E+00  0.00000000000E+00 -0.12399166366E+03  0.21029262261E+04  0.20992676770E+04 0.  0.
        1    1    3    3  502    0  0.52707388345E+03 -0.66195281431E+03 -0.68416018674E+03  0.10881468504E+04  0.50400001928E-02 0. -1.
       -1    1    3    3    0  502 -0.52707388345E+03  0.66195281431E+03  0.56016852308E+03  0.10147793757E+04  0.50400001928E-02 0.  1.
</event>
<event>
 5   0  0.3636435E-06  0.2100659E+04  0.7818609E-02  0.8560953E-01
       -2   -1    0    0    0  501  0.00000000000E+00  0.00000000000E+00  0.85003639521E+03  0.85003639522E+03  0.25500000920E-02 0.  1.
        2   -1    0    0  501    0  0.00000000000E+00  0.00000000000E+00 -0.12978178924E+04  0.12978178924E+04  0.25500000920E-02 0. -1.
    10030    2    1    2    0    0  0.00000000000E+00  0.00000000000E+00 -0.44778149714E+03  0.21478542876E+04  0.21006593659E+04 0.  0.
        4    1    3    3  502    0  0.64874249029E+02  0.10684003840E+03 -0.12901854828E+04  0.12962266989E+04  0.12699999809E+01 0. -1.
       -4    1    3    3    0  502 -0.64874249029E+02 -0.10684003840E+03  0.84240398562E+03  0.85162758872E+03  0.12699999809E+01 0.  1.
</event>
<event>
 5   0  0.3705828E-06  0.2100798E+04  0.7818609E-02  0.8560892E-01
        2   -1    0    0  501    0  0.00000000000E+00  0.00000000000E+00  0.14162270289E+04  0.14162270289E+04  0.25500000920E-02 0.  1.
       -2   -1    0    0    0  501  0.00000000000E+00  0.00000000000E+00 -0.77906875817E+03  0.77906875817E+03  0.25500000920E-02 0. -1.
    10030    2    1    2    0    0  0.00000000000E+00  0.00000000000E+00  0.63715827073E+03  0.21952957871E+04  0.21007981652E+04 0.  0.
        5    1    3    3  502    0 -0.14024669917E+02 -0.48937821113E+03 -0.65253925089E+03  0.81579243000E+03  0.46999998093E+01 0. -1.
       -5    1    3    3    0  502  0.14024669917E+02  0.48937821113E+03  0.12896975216E+04  0.13795033571E+04  0.46999998093E+01 0.  1.
</event>
<event>
 5   0  0.1579820E-06  0.2101203E+04  0.7818609E-02  0.8560714E-01
        1   -1    0    0  501    0  0.00000000000E+00  0.00000000000E+00  0.14334341492E+04  0.14334341492E+04  0.50400001928E-02 0. -1.
       -1   -1    0    0    0  501  0.00000000000E+00  0.00000000000E+00 -0.77001347588E+03  0.77001347590E+03  0.50400001928E-02 0.  1.
    10030    2    1    2    0    0  0.00000000000E+00  0.00000000000E+00  0.66342067333E+03  0.22034476251E+04  0.21012030951E+04 0.  0.
        2    1    3    3  502    0  0.41844948021E+03 -0.78320900183E+03  0.92050028943E+03  0.12789984718E+04  0.25500000920E-02 0. -1.
       -2    1    3    3    0  502 -0.41844948021E+03  0.78320900183E+03 -0.25707961610E+03  0.92444915331E+03  0.25500000920E-02 0.  1.
</event>
<event>
 5   0  0.1579820E-06  0.2101001E+04  0.7818609E-02  0.8560803E-01
       -1   -1    0    0    0  501  0.00000000000E+00  0.00000000000E+00  0.63504443318E+03  0.63504443320E+03  0.50400001928E-02 0.  1.
        1   -1    0    0  501    0  0.00000000000E+00  0.00000000000E+00 -0.17377546375E+04  0.17377546375E+04  0.50400001928E-02 0. -1.
    10030    2    1    2    0    0  0.00000000000E+00  0.00000000000E+00 -0.11027102043E+04  0.23727990707E+04  0.21010011031E+04 0.  0.
        2    1    3    3  502    0 -0.51085355583E+03 -0.59814761416E+02 -0.15858211596E+04  0.16671466377E+04  0.25500000920E-02 0. -1.
       -2    1    3    3    0  502  0.51085355583E+03  0.59814761416E+02  0.48311095527E+03  0.70565243307E+03  0.25500000920E-02 0.  1.
</event>
<event>
 5   0  0.1615098E-06  0.2100190E+04  0.7818609E-02  0.8561160E-01
       -1   -1    0    0    0  501  0.00000000000E+00  0.00000000000E+00  0.68060189735E+03  0.68060189737E+03  0.50400001928E-02 0.  1.
        1   -1    0    0  501    0  0.00000000000E+00  0.00000000000E+00 -0.16201830378E+04  0.16201830378E+04  0.50400001928E-02 0. -1.
    10030    2    1    2    0    0  0.00000000000E+00  0.00000000000E+00 -0.93958114044E+03  0.23007849352E+04  0.21001901339E+04 0.  0.
        1    1    3    3  502    0 -0.16393139001E+03  0.14097924842E+03 -0.15955336713E+04  0.16101168732E+04  0.50400001928E-02 0. -1.
       -1    1    3    3    0  502  0.16393139001E+03 -0.14097924842E+03  0.65595253084E+03  0.69066806199E+03  0.50400001928E-02 0.  1.
</event>
<event>
 5   0  0.1590067E-06  0.2100070E+04  0.7818609E-02  0.8561212E-01
       -1   -1    0    0    0  501  0.00000000000E+00  0.00000000000E+00  0.13010414028E+04  0.13010414028E+04  0.50400001928E-02 0.  1.
        1   -1    0    0  501    0  0.00000000000E+00  0.00000000000E+00 -0.84745483937E+03  0.84745483939E+03  0.50400001928E-02 0. -1.
    10030    2    1    2    0    0  0.00000000000E+00  0.00000000000E+00  0.45358656339E+03  0.21484962422E+04  0.21000703160E+04 0.  0.
        5    1    3    3  502    0  0.10248028606E+04 -0.20295185477E+03  0.11880656259E+03  0.10514501641E+04  0.46999998093E+01 0.  1.
       -5    1    3    3    0  502 -0.10248028606E+04  0.20295185477E+03  0.33478000080E+03  0.10970460780E+04  0.46999998093E+01 0. -1.
</event>
<event>
 5   0  0.1653260E-06  0.2104541E+04  0.7818609E-02  0.8559246E-01
        1   -1    0    0  501    0  0.00000000000E+00  0.00000000000E+00  0.27101607197E+04  0.27101607197E+04  0.50400001928E-02 0. -1.
       -1   -1    0    0    0  501  0.00000000000E+00  0.00000000000E+00 -0.40856347430E+03  0.40856347433E+03  0.50400001928E-02 0.  1.
    10030    2    1    2    0    0  0.00000000000E+00  0.00000000000E+00  0.23015972454E+04  0.31187241941E+04  0.21045405006E+04 0.  0.
        3    1    3    3  502    0  0.10299856882E+04 -0.20168888802E+03  0.10386846395E+04  0.14766227399E+04  0.10100000352E+00 0.  1.
       -3    1    3    3    0  502 -0.10299856882E+04  0.20168888802E+03  0.12629126059E+04  0.16421014542E+04  0.10100000352E+00 0. -1.
</event>
<event>
 5   0  0.3480134E-06  0.2101332E+04  0.7818609E-02  0.8560657E-01
       -2   -1    0    0    0  501  0.00000000000E+00  0.00000000000E+00  0.77767762293E+03  0.77767762294E+03  0.25500000920E-02 0.  1.
        2   -1    0    0  501    0  0.00000000000E+00  0.00000000000E+00 -0.14194815354E+04  0.14194815354E+04  0.25500000920E-02 0. -1.
    10030    2    1    2    0    0  0.00000000000E+00  0.00000000000E+00 -0.64180391245E+03  0.21971591583E+04  0.21013319835E+04 0.  0.
        1    1    3    3  502    0  0.53724653047E+03 -0.89067954879E+03 -0.16597218354E+03  0.10533236249E+04  0.50400001928E-02 0. -1.
       -1    1    3    3    0  502 -0.53724653047E+03  0.89067954879E+03 -0.47583172892E+03  0.11438355334E+04  0.50400001928E-02 0.  1.
</event>
<event>
 5   0  0.1590067E-06  0.2100003E+04  0.7818609E-02  0.8561242E-01
       -1   -1    0    0    0  501  0.00000000000E+00  0.00000000000E+00  0.74335165658E+03  0.74335165660E+03  0.50400001928E-02 0.  1.
        1   -1    0    0  501    0  0.00000000000E+00  0.00000000000E+00 -0.14831510593E+04  0.14831510593E+04  0.50400001928E-02 0. -1.
    10030    2    1    2    0    0  0.00000000000E+00  0.00000000000E+00 -0.73979940269E+03  0.22265027159E+04  0.21000026637E+04 0.  0.
        5    1    3    3  502    0  0.14008961826E+03  0.88600956852E+03  0.20872481054E+03  0.92099196152E+03  0.46999998093E+01 0.  1.
       -5    1    3    3    0  502 -0.14008961826E+03 -0.88600956852E+03 -0.94852421324E+03  0.13055107544E+04  0.46999998093E+01 0. -1.
</event>
<event>
 5   0  0.1615098E-06  0.2100045E+04  0.7818609E-02  0.8561224E-01
       -1   -1    0    0    0  501  0.00000000000E+00  0.00000000000E+00  0.14749582861E+04  0.14749582861E+04  0.50400001928E-02 0. -1.
        1   -1    0    0  501    0  0.00000000000E+00  0.00000000000E+00 -0.74751070808E+03  0.74751070810E+03  0.50400001928E-02 0.  1.
    10030    2    1    2    0    0  0.00000000000E+00  0.00000000000E+00  0.72744757802E+03  0.22224689942E+04  0.21000448689E+04 0.  0.
        1    1    3    3  502    0  0.93440491941E+03 -0.24785099267E+03  0.79750178990E+03  0.12532165706E+04  0.50400001928E-02 0. -1.
       -1    1    3    3    0  502 -0.93440491941E+03  0.24785099267E+03 -0.70054211879E+02  0.96925242358E+03  0.50400001928E-02 0.  1.
</event>
<event>
 5   0  0.1615098E-06  0.2099686E+04  0.7818609E-02  0.8561382E-01
        1   -1    0    0  501    0  0.00000000000E+00  0.00000000000E+00  0.56362081509E+03  0.56362081512E+03  0.50400001928E-02 0. -1.
       -1   -1    0    0    0  501  0.00000000000E+00  0.00000000000E+00 -0.19555180332E+04  0.19555180332E+04  0.50400001928E-02 0.  1.
    10030    2    1    2    0    0  0.00000000000E+00  0.00000000000E+00 -0.13918972181E+04  0.25191388483E+04  0.20996863269E+04 0.  0.
        1    1    3    3  502    0  0.52444559673E+03  0.43912228419E+03  0.25958228678E+03  0.73161091302E+03  0.50400001928E-02 0. -1.
       -1    1    3    3    0  502 -0.52444559673E+03 -0.43912228419E+03 -0.16514795049E+04  0.17875279353E+04  0.50400001928E-02 0.  1.
</event>
<event>
 5   0  0.1646510E-06  0.2100581E+04  0.7818609E-02  0.8560987E-01
        1   -1    0    0  501    0  0.00000000000E+00  0.00000000000E+00  0.99112789015E+03  0.99112789017E+03  0.50400001928E-02 0.  1.
       -1   -1    0    0    0  501  0.00000000000E+00  0.00000000000E+00 -0.11129850686E+04  0.11129850686E+04  0.50400001928E-02 0. -1.
    10030    2    1    2    0    0  0.00000000000E+00  0.00000000000E+00 -0.12185717840E+03  0.21041129587E+04  0.21005813888E+04 0.  0.
        4    1    3    3  502    0  0.91290105369E+03 -0.32597136192E+03 -0.46591423028E+03  0.10755107370E+04  0.12699999809E+01 0.  1.
       -4    1    3    3    0  502 -0.91290105369E+03  0.32597136192E+03  0.34405705188E+03  0.10286022217E+04  0.12699999809E+01 0. -1.
</event>
<event>
 5   0  0.1653260E-06  0.2099386E+04  0.7818609E-02  0.8561514E-01
       -1   -1    0    0    0  501  0.00000000000E+00  0.00000000000E+00  0.79160967641E+03  0.79160967643E+03  0.50400001928E-02 0. -1.
        1   -1    0    0  501    0  0.00000000000E+00  0.00000000000E+00 -0.13919181449E+04  0.13919181449E+04  0.50400001928E-02 0.  1.
    10030    2    1    2    0    0  0.00000000000E+00  0.00000000000E+00 -0.60030846848E+03  0.21835278213E+04  0.20993864554E+04 0.  0.
        3    1    3    3  502    0 -0.16392445966E+03  0.47141991419E+03 -0.12606084512E+04  0.13558177022E+04  0.10100000352E+00 0.  1.
       -3    1    3    3    0  502  0.16392445966E+03 -0.47141991419E+03  0.66029998275E+03  0.82771011918E+03  0.10100000352E+00 0. -1.
</event>
<event>
 5   0  0.3480134E-06  0.2099220E+04  0.7818609E-02  0.8561587E-01
        2   -1    0    0  501    0  0.00000000000E+00  0.00000000000E+00  0.20232574460E+04  0.20232574460E+04  0.25500000920E-02 0. -1.
       -2   -1    0    0    0  501  0.00000000000E+00  0.00000000000E+00 -0.54450880944E+03  0.54450880944E+03  0.25500000920E-02 0.  1.
    10030    2    1    2    0    0  0.00000000000E+00  0.00000000000E+00  0.14787486365E+04  0.25677662554E+04  0.20992203344E+04 0.  0.
        1    1    3    3  502    0 -0.42649756622E+03 -0.15630551782E+03 -0.41805335232E+03  0.61733313074E+03  0.50400001928E-02 0.  1.
       -1    1    3    3    0  502  0.42649756622E+03  0.15630551782E+03  0.18968019889E+04  0.19504331247E+04  0.50400001928E-02 0. -1.
</event>
<event>
 5   0  0.3574927E-06  0.2100083E+04  0.7818609E-02  0.8561207E-01
       -2   -1    0    0    0  501  0.00000000000E+00  0.00000000000E+00  0.11166704972E+04  0.11166704972E+04  0.25500000920E-02 0. -1.
        2   -1    0    0  501    0  0.00000000000E+00  0.00000000000E+00 -0.98738843559E+03  0.98738843559E+03  0.25500000920E-02 0.  1.
    10030    2    1    2    0    0  0.00000000000E+00  0.00000000000E+00  0.12928206164E+03  0.21040589328E+04  0.21000833653E+04 0.  0.
        3    1    3    3  502    0  0.10426834033E+04  0.12860823320E+02 -0.59016459616E+02  0.10444314400E+04  0.10100000352E+00 0. -1.
       -3    1    3    3    0  502 -0.10426834033E+04 -0.12860823320E+02  0.18829852125E+03  0.10596274928E+04  0.10100000352E+00 0.  1.
</event>
<event>
 5   0  0.1653260E-06  0.2100058E+04  0.7818609E-02  0.8561218E-01
       -1   -1    0    0    0  501  0.00000000000E+00  0.00000000000E+00  0.15451347615E+04  0.15451347615E+04  0.50400001928E-02 0.  1.
        1   -1    0    0  501    0  0.00000000000E+00  0.00000000000E+00 -0.71356936949E+03  0.71356936950E+03  0.50400001928E-02 0. -1.
    10030    2    1    2    0    0  0.00000000000E+00  0.00000000000E+00  0.83156539199E+03  0.22587041310E+04  0.21000579397E+04 0.  0.
        3    1    3    3  502    0 -0.52976553254E+03 -0.42019236022E+03 -0.44823959813E+03  0.81125328140E+03  0.10100000352E+00 0. -1.
       -3    1    3    3    0  502  0.52976553254E+03  0.42019236022E+03  0.12798049901E+04  0.14474508496E+04  0.10100000352E+00 0.  1.
</event>
<event>
 5   0  0.1257125E-06  0.2099895E+04  0.7818609E-02  0.8561290E-01
        4   -1    0    0  501    0  0.00000000000E+00  0.00000000000E+00  0.90075735201E+03  0.90075824731E+03  0.12699999809E+01 0. -1.
       -4   -1    0    0    0  501  0.00000000000E+00  0.00000000000E+00 -0.12238454027E+04  0.12238460616E+04  0.12699999809E+01 0.  1.
    10030    2    1    2    0    0  0.00000000000E+00  0.00000000000E+00 -0.32308805067E+03  0.21246043089E+04  0.20998946595E+04 0.  0.
        3    1    3    3  502    0 -0.77984254808E+03 -0.69801651533E+03 -0.24624246590E+03  0.10751822253E+04  0.10100000352E+00 0. -1.
       -3    1    3    3    0  502  0.77984254808E+03  0.69801651533E+03 -0.76845584778E+02  0.10494220836E+04  0.10100000352E+00 0.  1.
</event>
<event>
 5   0  0.1646510E-06  0.2100240E+04  0.7818609E-02  0.8561138E-01
        1   -1    0    0  501    0  0.00000000000E+00  0.00000000000E+00  0.97355996467E+03  0.97355996468E+03  0.50400001928E-02 0.  1.
       -1   -1    0    0    0  501  0.00000000000E+00  0.00000000000E+00 -0.11327006597E+04  0.11327006597E+04  0.50400001928E-02 0. -1.
    10030    2    1    2    0    0  0.00000000000E+00  0.00000000000E+00 -0.15914069500E+03  0.21062606244E+04  0.21002399998E+04 0.  0.
        4    1    3    3  502    0  0.37144312247E+02  0.71586864884E+03 -0.84917021672E+03  0.11112782245E+04  0.12699999809E+01 0. -1.
       -4    1    3    3    0  502 -0.37144312247E+02 -0.71586864884E+03  0.69002952172E+03  0.99498239988E+03  0.12699999809E+01 0.  1.
</event>
<event>
 5   0  0.1579820E-06  0.2100120E+04  0.7818609E-02  0.8561191E-01
        1   -1    0    0  501    0  0.00000000000E+00  0.00000000000E+00  0.18088684831E+04  0.18088684831E+04  0.50400001928E-02 0.  1.
       -1   -1    0    0    0  501  0.00000000000E+00  0.00000000000E+00 -0.60956664852E+03  0.60956664854E+03  0.50400001928E-02 0. -1.
    10030    2    1    2    0    0  0.00000000000E+00  0.00000000000E+00  0.11993018345E+04  0.24184351316E+04  0.21001199003E+04 0.  0.
        2    1    3    3  502    0 -0.68510403668E+03  0.19933881450E+03  0.14868251264E+04  0.16491672021E+04  0.25500000920E-02 0.  1.
       -2    1    3    3    0  502  0.68510403668E+03 -0.19933881450E+03 -0.28752329183E+03  0.76926792952E+03  0.25500000920E-02 0. -1.
</event>
<event>
 5   0  0.1615098E-06  0.2100261E+04  0.7818609E-02  0.8561128E-01
       -1   -1    0    0    0  501  0.00000000000E+00  0.00000000000E+00  0.14739563459E+04  0.14739563459E+04  0.50400001928E-02 0.  1.
        1   -1    0    0  501    0  0.00000000000E+00  0.00000000000E+00 -0.74817315603E+03  0.74817315605E+03  0.50400001928E-02 0. -1.
    10030    2    1    2    0    0  0.00000000000E+00  0.00000000000E+00  0.72578318990E+03  0.22221295020E+04  0.21002614801E+04 0.  0.
        1    1    3    3  502    0 -0.96580897870E+03 -0.41225336167E+03  0.35665430087E+03  0.11090275506E+04  0.50400001928E-02 0. -1.
       -1    1    3    3    0  502  0.96580897870E+03  0.41225336167E+03  0.36912888903E+03  0.11131019514E+04  0.50400001928E-02 0.  1.
</event>
<event>
 5   0  0.1590067E-06  0.2100591E+04  0.7818609E-02  0.8560983E-01
       -1   -1    0    0    0  501  0.00000000000E+00  0.00000000000E+00  0.85075000881E+03  0.85075000882E+03  0.50400001928E-02 0.  1.
        1   -1    0    0  501    0  0.00000000000E+00  0.00000000000E+00 -0.12966454243E+04  0.12966454243E+04  0.50400001928E-02 0. -1.
    10030    2    1    2    0    0  0.00000000000E+00  0.00000000000E+00 -0.44589541546E+03  0.21473954331E+04  0.21005914464E+04 0.  0.
        5    1    3    3  502    0 -0.48363951145E+03  0.30745021754E+01 -0.11760201032E+04  0.12715982081E+04  0.46999998093E+01 0. -1.
       -5    1    3    3    0  502  0.48363951145E+03 -0.30745021754E+01  0.73012468778E+03  0.87579722500E+03  0.46999998093E+01 0.  1.
</event>
<event>
 5   0  0.3705828E-06  0.2100126E+04  0.7818609E-02  0.8561188E-01
        2   -1    0    0  501    0  0.00000000000E+00  0.00000000000E+00  0.10974667468E+04  0.10974667468E+04  0.25500000920E-02 0.  1.
       -2   -1    0    0    0  501  0.00000000000E+00  0.00000000000E+00 -0.10047070054E+04  0.10047070054E+04  0.25500000920E-02 0. -1.
    10030    2    1    2    0    0  0.00000000000E+00  0.00000000000E+00  0.92759741385E+02  0.21021737522E+04  0.21001262140E+04 0.  0.
        5    1    3    3  502    0 -0.75384735582E+03 -0.13857290400E+03  0.76479972654E+03  0.10827876049E+04  0.46999998093E+01 0.  1.
       -5    1    3    3    0  502  0.75384735582E+03  0.13857290400E+03 -0.67203998515E+03  0.10193861473E+04  0.46999998093E+01 0. -1.
</event>
<event>
 5   0  0.3636435E-06  0.2099913E+04  0.7818609E-02  0.8561282E-01
       -2   -1    0    0    0  501  0.00000000000E+00  0.00000000000E+00  0.94023150902E+03  0.94023150903E+03  0.25500000920E-02 0.  1.
        2   -1    0    0  501    0  0.00000000000E+00  0.00000000000E+00 -0.11724863032E+04  0.11724863032E+04  0.25500000920E-02 0. -1.
    10030    2    1    2    0    0  0.00000000000E+00  0.00000000000E+00 -0.23225479420E+03  0.21127178122E+04  0.20999129184E+04 0.  0.
        4    1    3    3  502    0  0.44124709389E+03  0.66436678938E+02 -0.10723407431E+04  0.11614771252E+04  0.12699999809E+01 0. -1.
       -4    1    3    3    0  502 -0.44124709389E+03 -0.66436678938E+02  0.84008594892E+03  0.95124068702E+03  0.12699999809E+01 0.  1.
</event>
<event>
 5   0  0.1590067E-06  0.2103497E+04  0.7818609E-02  0.8559704E-01
       -1   -1    0    0    0  501  0.00000000000E+00  0.00000000000E+00  0.43262383921E+03  0.43262383924E+03  0.50400001928E-02 0. -1.
        1   -1    0    0  501    0  0.00000000000E+00  0.00000000000E+00 -0.25568983663E+04  0.25568983663E+04  0.50400001928E-02 0.  1.
    10030    2    1    2    0    0  0.00000000000E+00  0.00000000000E+00 -0.21242745271E+04  0.29895222055E+04  0.21034972667E+04 0.  0.
        5    1    3    3  502    0  0.82995274160E+03  0.32563566461E+03 -0.26918967995E+03  0.93131375656E+03  0.46999998093E+01 0. -1.
       -5    1    3    3    0  502 -0.82995274160E+03 -0.32563566461E+03 -0.18550848471E+04  0.20582084489E+04  0.46999998093E+01 0.  1.
</event>
<event>
 5   0  0.1257125E-06  0.2100653E+04  0.7818609E-02  0.8560956E-01
       -3   -1    0    0    0  501  0.00000000000E+00  0.00000000000E+00  0.87550221626E+03  0.87550222208E+03  0.10100000352E+00 0. -1.
        3   -1    0    0  501    0  0.00000000000E+00  0.00000000000E+00 -0.12600603212E+04  0.12600603253E+04  0.10100000352E+00 0.  1.
    10030    2    1    2    0    0  0.00000000000E+00  0.00000000000E+00 -0.38455810498E+03  0.21355625474E+04  0.21006528646E+04 0.  0.
        4    1    3    3  502    0 -0.60641533468E+03 -0.34207333888E+03 -0.99175126953E+03  0.12117449900E+04  0.12699999809E+01 0.  1.
       -4    1    3    3    0  502  0.60641533468E+03  0.34207333888E+03  0.60719316455E+03  0.92381755736E+03  0.12699999809E+01 0. -1.
</event>
<event>
 5   0  0.3480134E-06  0.2102687E+04  0.7818609E-02  0.8560061E-01
       -2   -1    0    0    0  501  0.00000000000E+00  0.00000000000E+00  0.70894456713E+03  0.70894456714E+03  0.25500000920E-02 0. -1.
        2   -1    0    0  501    0  0.00000000000E+00  0.00000000000E+00 -0.15591113290E+04  0.15591113290E+04  0.25500000920E-02 0.  1.
    10030    2    1    2    0    0  0.00000000000E+00  0.00000000000E+00 -0.85016676191E+03  0.22680558962E+04  0.21026873341E+04 0.  0.
        1    1    3    3  502    0 -0.20763219680E+03  0.31653425194E+03  0.63288028839E+03  0.73745679281E+03  0.50400001928E-02 0. -1.
       -1    1    3    3    0  502  0.20763219680E+03 -0.31653425194E+03 -0.14830470503E+04  0.15305991034E+04  0.50400001928E-02 0.  1.
</event>
<event>
 5   0  0.3636435E-06  0.2099794E+04  0.7818609E-02  0.8561334E-01
        2   -1    0    0  501    0  0.00000000000E+00  0.00000000000E+00  0.64732115988E+03  0.64732115989E+03  0.25500000920E-02 0.  1.
       -2   -1    0    0    0  501  0.00000000000E+00  0.00000000000E+00 -0.17028394568E+04  0.17028394568E+04  0.25500000920E-02 0. -1.
    10030    2    1    2    0    0  0.00000000000E+00  0.00000000000E+00 -0.10555182969E+04  0.23501606167E+04  0.20997942874E+04 0.  0.
        4    1    3    3  502    0 -0.14685438132E+03 -0.58792391310E+03 -0.14873424472E+04  0.16060541414E+04  0.12699999809E+01 0. -1.
       -4    1    3    3    0  502  0.14685438132E+03  0.58792391310E+03  0.43182415029E+03  0.74410647530E+03  0.12699999809E+01 0.  1.
</event>
<event>
 5   0  0.3636435E-06  0.2097726E+04  0.7818609E-02  0.8562246E-01
       -2   -1    0    0    0  501  0.00000000000E+00  0.00000000000E+00  0.84807624692E+03  0.84807624693E+03  0.25500000920E-02 0. -1.
        2   -1    0    0  501    0  0.00000000000E+00  0.00000000000E+00 -0.12971874550E+04  0.12971874550E+04  0.25500000920E-02 0.  1.
    10030    2    1    2    0    0  0.00000000000E+00  0.00000000000E+00 -0.44911120807E+03  0.21452637019E+04  0.20977262628E+04 0.  0.
        4    1    3    3  502    0  0.11637649006E+03 -0.31576333998E+03  0.79136587893E+03  0.85994856913E+03  0.12699999809E+01 0. -1.
       -4    1    3    3    0  502 -0.11637649006E+03  0.31576333998E+03 -0.12404770870E+04  0.12853151328E+04  0.12699999809E+01 0.  1.
</event>
<event>
 5   0  0.1646510E-06  0.2100745E+04  0.7818609E-02  0.8560915E-01
        1   -1    0    0  501    0  0.00000000000E+00  0.00000000000E+00  0.17873795725E+04  0.17873795725E+04  0.50400001928E-02 0. -1.
       -1   -1    0    0    0  501  0.00000000000E+00  0.00000000000E+00 -0.61726223723E+03  0.61726223725E+03  0.50400001928E-02 0.  1.
    10030    2    1    2    0    0  0.00000000000E+00  0.00000000000E+00  0.11701173352E+04  0.24046418097E+04  0.21007445477E+04 0.  0.
        4    1    3    3  502    0 -0.97086481118E+03  0.38234846617E+03  0.44716864337E+03  0.11352225507E+04  0.12699999809E+01 0.  1.
       -4    1    3    3    0  502  0.97086481118E+03 -0.38234846617E+03  0.72294869188E+03  0.12694192590E+04  0.12699999809E+01 0. -1.
</event>
<event>
 5   0  0.1653260E-06  0.2099882E+04  0.7818609E-02  0.8561296E-01
       -1   -1    0    0    0  501  0.00000000000E+00  0.00000000000E+00  0.31516623556E+04  0.31516623556E+04  0.50400001928E-02 0.  1.
        1   -1    0    0  501    0  0.00000000000E+00  0.00000000000E+00 -0.34977594407E+03  0.34977594411E+03  0.50400001928E-02 0. -1.
    10030    2    1    2    0    0  0.00000000000E+00  0.00000000000E+00  0.28018864115E+04  0.35014382997E+04  0.20998815928E+04 0.  0.
        3    1    3    3  502    0 -0.14322920147E+03  0.70251391722E+03  0.26799242534E+04  0.27741727456E+04  0.10100000352E+00 0.  1.
       -3    1    3    3    0  502  0.14322920147E+03 -0.70251391722E+03  0.12196215812E+03  0.72726555415E+03  0.10100000352E+00 0. -1.
</event>
<event>
 5   0  0.1653260E-06  0.2099314E+04  0.7818609E-02  0.8561545E-01
       -1   -1    0    0    0  501  0.00000000000E+00  0.00000000000E+00  0.80646158844E+03  0.80646158846E+03  0.50400001928E-02 0. -1.
        1   -1    0    0  501    0  0.00000000000E+00  0.00000000000E+00 -0.13661905698E+04  0.13661905698E+04  0.50400001928E-02 0.  1.
    10030    2    1    2    0    0  0.00000000000E+00  0.00000000000E+00 -0.55972898135E+03  0.21726521583E+04  0.20993143805E+04 0.  0.
        3    1    3    3  502    0  0.69625434194E+02  0.35739987505E+03 -0.12987348739E+04  0.13488123126E+04  0.10100000352E+00 0.  1.
       -3    1    3    3    0  502 -0.69625434194E+02 -0.35739987505E+03  0.73900589257E+03  0.82383984562E+03  0.10100000352E+00 0. -1.
</event>
<event>
 5   0  0.3480134E-06  0.2100372E+04  0.7818609E-02  0.8561080E-01
       -2   -1    0    0    0  501  0.00000000000E+00  0.00000000000E+00  0.14558597872E+04  0.14558597872E+04  0.25500000920E-02 0.  1.
        2   -1    0    0  501    0  0.00000000000E+00  0.00000000000E+00 -0.75755277716E+03  0.75755277717E+03  0.25500000920E-02 0. -1.
    10030    2    1    2    0    0  0.00000000000E+00  0.00000000000E+00  0.69830701006E+03  0.22134125644E+04  0.21003719908E+04 0.  0.
        1    1    3    3  502    0  0.49513289612E+03 -0.34762818781E+03  0.12537754024E+04  0.13921044147E+04  0.50400001928E-02 0.  1.
       -1    1    3    3    0  502 -0.49513289612E+03  0.34762818781E+03 -0.55546839235E+03  0.82130814967E+03  0.50400001928E-02 0. -1.
</event>
<event>
 5   0  0.1646510E-06  0.2099115E+04  0.7818609E-02  0.8561634E-01
       -1   -1    0    0    0  501  0.00000000000E+00  0.00000000000E+00  0.38876172424E+03  0.38876172427E+03  0.50400001928E-02 0. -1.
        1   -1    0    0  501    0  0.00000000000E+00  0.00000000000E+00 -0.28335363720E+04  0.28335363720E+04  0.50400001928E-02 0.  1.
    10030    2    1    2    0    0  0.00000000000E+00  0.00000000000E+00 -0.24447746478E+04  0.32222980963E+04  0.20991145617E+04 0.  0.
        4    1    3    3  502    0 -0.25415724692E+03 -0.32116597444E+03 -0.27058014516E+04  0.27366232107E+04  0.12699999809E+01 0.  1.
       -4    1    3    3    0  502  0.25415724692E+03  0.32116597444E+03  0.26102680377E+03  0.48567488558E+03  0.12699999809E+01 0. -1.
</event>
<event>
 5   0  0.3480134E-06  0.2102429E+04  0.7818609E-02  0.8560174E-01
        2   -1    0    0  501    0  0.00000000000E+00  0.00000000000E+00  0.24902443485E+04  0.24902443485E+04  0.25500000920E-02 0. -1.
       -2   -1    0    0    0  501  0.00000000000E+00  0.00000000000E+00 -0.44375243473E+03  0.44375243474E+03  0.25500000920E-02 0.  1.
    10030    2    1    2    0    0  0.00000000000E+00  0.00000000000E+00  0.20464919138E+04  0.29339967832E+04  0.21024290644E+04 0.  0.
        1    1    3    3  502    0 -0.29718433820E+03 -0.76963854375E+02 -0.37980373371E+03  0.48835728921E+03  0.50400001928E-02 0.  1.
       -1    1    3    3    0  502  0.29718433820E+03  0.76963854375E+02  0.24262956475E+04  0.24456394940E+04  0.50400001928E-02 0. -1.
</event>
<event>
 5   0  0.1590067E-06  0.2099907E+04  0.7818609E-02  0.8561284E-01
        1   -1    0    0  501    0  0.00000000000E+00  0.00000000000E+00  0.85627223103E+03  0.85627223104E+03  0.50400001928E-02 0. -1.
       -1   -1    0    0    0  501  0.00000000000E+00  0.00000000000E+00 -0.12874440024E+04  0.12874440024E+04  0.50400001928E-02 0.  1.
    10030    2    1    2    0    0  0.00000000000E+00  0.00000000000E+00 -0.43117177138E+03  0.21437162335E+04  0.20999071868E+04 0.  0.
        5    1    3    3  502    0 -0.92831839843E+02  0.91619916543E+03  0.29925859882E+03  0.96830597447E+03  0.46999998093E+01 0. -1.
       -5    1    3    3    0  502  0.92831839843E+02 -0.91619916543E+03 -0.73043037020E+03  0.11754102590E+04  0.46999998093E+01 0.  1.
</event>
<event>
 5   0  0.3574927E-06  0.2101438E+04  0.7818609E-02  0.8560610E-01
       -2   -1    0    0    0  501  0.00000000000E+00  0.00000000000E+00  0.76529836202E+03  0.76529836202E+03  0.25500000920E-02 0. -1.
        2   -1    0    0  501    0  0.00000000000E+00  0.00000000000E+00 -0.14425888757E+04  0.14425888757E+04  0.25500000920E-02 0.  1.
    10030    2    1    2    0    0  0.00000000000E+00  0.00000000000E+00 -0.67729051372E+03  0.22078872378E+04  0.21014384632E+04 0.  0.
        3    1    3    3  502    0  0.49889749232E+03 -0.65811467448E+03  0.34387418686E+03  0.89457425583E+03  0.10100000352E+00 0. -1.
       -3    1    3    3    0  502 -0.49889749232E+03  0.65811467448E+03 -0.10211647006E+04  0.13133129819E+04  0.10100000352E+00 0.  1.
</event>
<event>
 5   0  0.3480134E-06  0.2101188E+04  0.7818609E-02  0.8560720E-01
        2   -1    0    0  501    0  0.00000000000E+00  0.00000000000E+00  0.14560451456E+04  0.14560451456E+04  0.25500000920E-02 0. -1.
       -2   -1    0    0    0  501  0.00000000000E+00  0.00000000000E+00 -0.75804471043E+03  0.75804471043E+03  0.25500000920E-02 0.  1.
    10030    2    1    2    0    0  0.00000000000E+00  0.00000000000E+00  0.69800043521E+03  0.22140898561E+04  0.21011875888E+04 0.  0.
        1    1    3    3  502    0  0.36584684236E+03  0.30390747137E+02  0.13862605739E+04  0.14340452881E+04  0.50400001928E-02 0. -1.
       -1    1    3    3    0  502 -0.36584684236E+03 -0.30390747137E+02 -0.68826013865E+03  0.78004456799E+03  0.50400001928E-02 0.  1.
</event>
<event>
 5   0  0.1590067E-06  0.2100337E+04  0.7818609E-02  0.8561095E-01
        1   -1    0    0  501    0  0.00000000000E+00  0.00000000000E+00  0.12837598256E+04  0.12837598256E+04  0.50400001928E-02 0.  1.
       -1   -1    0    0    0  501  0.00000000000E+00  0.00000000000E+00 -0.85908134845E+03  0.85908134846E+03  0.50400001928E-02 0. -1.
    10030    2    1    2    0    0  0.00000000000E+00  0.00000000000E+00  0.42467847713E+03  0.21428411740E+04  0.21003372320E+04 0.  0.
        5    1    3    3  502    0 -0.33338000419E+03 -0.11655739175E+02  0.12282583393E+04  0.12727602765E+04  0.46999998093E+01 0.  1.
       -5    1    3    3    0  502  0.33338000419E+03  0.11655739175E+02 -0.80357986214E+03  0.87008089755E+03  0.46999998093E+01 0. -1.
</event>
<event>
 5   0  0.1579820E-06  0.2100822E+04  0.7818609E-02  0.8560881E-01
       -1   -1    0    0    0  501  0.00000000000E+00  0.00000000000E+00  0.10672952333E+04  0.10672952333E+04  0.50400001928E-02 0. -1.
        1   -1    0    0  501    0  0.00000000000E+00  0.00000000000E+00 -0.10337939584E+04  0.10337939584E+04  0.50400001928E-02 0.  1.
    10030    2    1    2    0    0  0.00000000000E+00  0.00000000000E+00  0.33501274853E+02  0.21010891917E+04  0.21008220905E+04 0.  0.
        2    1    3    3  502    0  0.40570672153E+02  0.46483549246E+03  0.95795761147E+03  0.10655518757E+04  0.25500000920E-02 0. -1.
       -2    1    3    3    0  502 -0.40570672153E+02 -0.46483549246E+03 -0.92445633661E+03  0.10355373160E+04  0.25500000920E-02 0.  1.
</event>
<event>
 5   0  0.3547583E-06  0.2099458E+04  0.7818609E-02  0.8561482E-01
        2   -1    0    0  501    0  0.00000000000E+00  0.00000000000E+00  0.14635929457E+04  0.14635929457E+04  0.25500000920E-02 0. -1.
       -2   -1    0    0    0  501  0.00000000000E+00  0.00000000000E+00 -0.75289433103E+03  0.75289433103E+03  0.25500000920E-02 0.  1.
    10030    2    1    2    0    0  0.00000000000E+00  0.00000000000E+00  0.71069861471E+03  0.22164872768E+04  0.20994578650E+04 0.  0.
        2    1    3    3  502    0  0.99670101680E+02  0.27406808917E+03  0.14199669413E+04  0.14496046223E+04  0.25500000920E-02 0. -1.
       -2    1    3    3    0  502 -0.99670101680E+02 -0.27406808917E+03 -0.70926832656E+03  0.76688265447E+03  0.25500000920E-02 0.  1.
</event>
<event>
 5   0  0.3547583E-06  0.2100486E+04  0.7818609E-02  0.8561029E-01
       -2   -1    0    0    0  501  0.00000000000E+00  0.00000000000E+00  0.39414361838E+03  0.39414361839E+03  0.25500000920E-02 0.  1.
        2   -1    0    0  501    0  0.00000000000E+00  0.00000000000E+00 -0.27984992001E+04  0.27984992001E+04  0.25500000920E-02 0. -1.
    10030    2    1    2    0    0  0.00000000000E+00  0.00000000000E+00 -0.24043555817E+04  0.31926428185E+04  0.21004862301E+04 0.  0.
        2    1    3    3  502    0  0.10148385326E+03 -0.69519310356E+03 -0.23887336739E+04  0.24899078274E+04  0.25500000920E-02 0. -1.
       -2    1    3    3    0  502 -0.10148385326E+03  0.69519310356E+03 -0.15621907751E+02  0.70273499110E+03  0.25500000920E-02 0.  1.
</event>
<event>
 5   0  0.1653260E-06  0.2099715E+04  0.7818609E-02  0.8561369E-01
        1   -1    0    0  501    0  0.00000000000E+00  0.00000000000E+00  0.18734779080E+04  0.18734779080E+04  0.50400001928E-02 0.  1.
       -1   -1    0    0    0  501  0.00000000000E+00  0.00000000000E+00 -0.58831788251E+03  0.58831788253E+03  0.50400001928E-02 0. -1.
    10030    2    1    2    0    0  0.00000000000E+00  0.00000000000E+00  0.12851600254E+04  0.24617957905E+04  0.20997147957E+04 0.  0.
        3    1    3    3  502    0 -0.61463456641E+02  0.95450168482E+02 -0.58110001294E+03  0.59208591133E+03  0.10100000352E+00 0. -1.
       -3    1    3    3    0  502  0.61463456641E+02 -0.95450168482E+02  0.18662600384E+04  0.18697098792E+04  0.10100000352E+00 0.  1.
</event>
<event>
 5   0  0.1579820E-06  0.2099976E+04  0.7818609E-02  0.8561254E-01
       -1   -1    0    0    0  501  0.00000000000E+00  0.00000000000E+00  0.63305817352E+03  0.63305817354E+03  0.50400001928E-02 0. -1.
        1   -1    0    0  501    0  0.00000000000E+00  0.00000000000E+00 -0.17415059014E+04  0.17415059014E+04  0.50400001928E-02 0.  1.
    10030    2    1    2    0    0  0.00000000000E+00  0.00000000000E+00 -0.11084477279E+04  0.23745640749E+04  0.20999757571E+04 0.  0.
        2    1    3    3  502    0  0.10240689608E+04 -0.14626992727E+03 -0.35080553284E+03  0.10923262562E+04  0.25500000920E-02 0. -1.
       -2    1    3    3    0  502 -0.10240689608E+04  0.14626992727E+03 -0.75764219501E+03  0.12822378187E+04  0.25500000920E-02 0.  1.
</event>
<event>
 5   0  0.3480134E-06  0.2099492E+04  0.7818609E-02  0.8561467E-01
       -2   -1    0    0    0  501  0.00000000000E+00  0.00000000000E+00  0.63384894948E+03  0.63384894949E+03  0.25500000920E-02 0.  1.
        2   -1    0    0  501    0  0.00000000000E+00  0.00000000000E+00 -0.17385315882E+04  0.17385315882E+04  0.25500000920E-02 0. -1.
    10030    2    1    2    0    0  0.00000000000E+00  0.00000000000E+00 -0.11046826387E+04  0.23723805377E+04  0.20994917679E+04 0.  0.
        1    1    3    3  502    0  0.59801007406E+03  0.29790660391E+03  0.36259384703E+03  0.76015701751E+03  0.50400001928E-02 0.  1.
       -1    1    3    3    0  502 -0.59801007406E+03 -0.29790660391E+03 -0.14672764857E+04  0.16122235202E+04  0.50400001928E-02 0. -1.
</event>
<event>
 5   0  0.1646510E-06  0.2099617E+04  0.7818609E-02  0.8561412E-01
       -1   -1    0    0    0  501  0.00000000000E+00  0.00000000000E+00  0.11284146842E+04  0.11284146842E+04  0.50400001928E-02 0. -1.
        1   -1    0    0  501    0  0.00000000000E+00  0.00000000000E+00 -0.97667820184E+03  0.97667820185E+03  0.50400001928E-02 0.  1.
    10030    2    1    2    0    0  0.00000000000E+00  0.00000000000E+00  0.15173648233E+03  0.21050928860E+04  0.20996171315E+04 0.  0.
        4    1    3    3  502    0  0.31053057787E+03 -0.48935479398E+03 -0.80174256608E+03  0.98928767775E+03  0.12699999809E+01 0.  1.
       -4    1    3    3    0  502 -0.31053057787E+03  0.48935479398E+03  0.95347904841E+03  0.11158052083E+04  0.12699999809E+01 0. -1.
</event>
<event>
 5   0  0.3480134E-06  0.2099472E+04  0.7818609E-02  0.8561476E-01
        2   -1    0    0  501    0  0.00000000000E+00  0.00000000000E+00  0.18693781860E+04  0.18693781860E+04  0.25500000920E-02 0.  1.
       -2   -1    0    0    0  501  0.00000000000E+00  0.00000000000E+00 -0.58947185232E+03  0.58947185233E+03  0.25500000920E-02 0. -1.
    10030    2    1    2    0    0  0.00000000000E+00  0.00000000000E+00  0.12799063336E+04  0.24588500383E+04  0.20994721451E+04 0.  0.
        1    1    3    3  502    0  0.68110993596E+03 -0.79359431102E+03  0.74628625761E+03  0.12847746315E+04  0.50400001928E-02 0.  1.
       -1    1    3    3    0  502 -0.68110993596E+03  0.79359431102E+03  0.53362007604E+03  0.11740754068E+04  0.50400001928E-02 0. -1.
</event>
<event>
 5   0  0.1615098E-06  0.2099649E+04  0.7818609E-02  0.8561398E-01
        1   -1    0    0  501    0  0.00000000000E+00  0.00000000000E+00  0.18109437916E+04  0.18109437916E+04  0.50400001928E-02 0.  1.
       -1   -1    0    0    0  501  0.00000000000E+00  0.00000000000E+00 -0.60859518220E+03  0.60859518222E+03  0.50400001928E-02 0. -1.
    10030    2    1    2    0    0  0.00000000000E+00  0.00000000000E+00  0.12023486094E+04  0.24195389738E+04  0.20996491772E+04 0.  0.
        1    1    3    3  502    0  0.57420504450E+02 -0.28182858938E+03  0.17646564795E+04  0.17879421016E+04  0.50400001928E-02 0.  1.
       -1    1    3    3    0  502 -0.57420504450E+02  0.28182858938E+03 -0.56230787011E+03  0.63159687217E+03  0.50400001928E-02 0. -1.
</event>
<event>
 5   0  0.3636435E-06  0.2101216E+04  0.7818609E-02  0.8560708E-01
        2   -1    0    0  501    0  0.00000000000E+00  0.00000000000E+00  0.10059578871E+04  0.10059578871E+04  0.25500000920E-02 0. -1.
       -2   -1    0    0    0  501  0.00000000000E+00  0.00000000000E+00 -0.10972400976E+04  0.10972400976E+04  0.25500000920E-02 0.  1.
    10030    2    1    2    0    0  0.00000000000E+00  0.00000000000E+00 -0.91282210554E+02  0.21031979847E+04  0.21012161528E+04 0.  0.
        4    1    3    3  502    0  0.52020571023E+03 -0.37709399136E+03 -0.87766627319E+03  0.10877102368E+04  0.12699999809E+01 0.  1.
       -4    1    3    3    0  502 -0.52020571023E+03  0.37709399136E+03  0.78638406263E+03  0.10154877479E+04  0.12699999809E+01 0. -1.
</event>
<event>
 5   0  0.1257125E-06  0.2101305E+04  0.7818609E-02  0.8560669E-01
        3   -1    0    0  501    0  0.00000000000E+00  0.00000000000E+00  0.58717940788E+03  0.58717941656E+03  0.10100000352E+00 0. -1.
       -3   -1    0    0    0  501  0.00000000000E+00  0.00000000000E+00 -0.18799547463E+04  0.18799547490E+04  0.10100000352E+00 0.  1.
    10030    2    1    2    0    0  0.00000000000E+00  0.00000000000E+00 -0.12927753384E+04  0.24671341656E+04  0.21013050505E+04 0.  0.
        2    1    3    3  502    0  0.41507774890E+03  0.83657824024E+03 -0.81211832949E+02  0.93741562366E+03  0.25500000920E-02 0. -1.
       -2    1    3    3    0  502 -0.41507774890E+03 -0.83657824024E+03 -0.12115635055E+04  0.15297185419E+04  0.25500000920E-02 0.  1.
</event>
<event>
 5   0  0.3574927E-06  0.2098214E+04  0.7818609E-02  0.8562031E-01
        2   -1    0    0  501    0  0.00000000000E+00  0.00000000000E+00  0.10210880624E+04  0.10210880624E+04  0.25500000920E-02 0.  1.
       -2   -1    0    0    0  501  0.00000000000E+00  0.00000000000E+00 -0.10778943132E+04  0.10778943132E+04  0.25500000920E-02 0. -1.
    10030    2    1    2    0    0  0.00000000000E+00  0.00000000000E+00 -0.56806250777E+02  0.20989823756E+04  0.20982135408E+04 0.  0.
        3    1    3    3  502    0 -0.88938285271E+02  0.82699491643E+03 -0.66800771712E+03  0.10668012611E+04  0.10100000352E+00 0. -1.
       -3    1    3    3    0  502  0.88938285271E+02 -0.82699491643E+03  0.61120146635E+03  0.10321811145E+04  0.10100000352E+00 0.  1.
</event>
<event>
 5   0  0.3547583E-06  0.2099827E+04  0.7818609E-02  0.8561319E-01
       -2   -1    0    0    0  501  0.00000000000E+00  0.00000000000E+00  0.11696586467E+04  0.11696586467E+04  0.25500000920E-02 0. -1.
        2   -1    0    0  501    0  0.00000000000E+00  0.00000000000E+00 -0.94242768469E+03  0.94242768470E+03  0.25500000920E-02 0.  1.
    10030    2    1    2    0    0  0.00000000000E+00  0.00000000000E+00  0.22723096197E+03  0.21120863314E+04  0.20998273170E+04 0.  0.
        2    1    3    3  502    0 -0.19603433442E+03 -0.71453481196E+03 -0.63458828890E+03  0.97554690004E+03  0.25500000920E-02 0.  1.
       -2    1    3    3    0  502  0.19603433442E+03  0.71453481196E+03  0.86181925086E+03  0.11365394313E+04  0.25500000920E-02 0. -1.
</event>
<event>
 5   0  0.3480134E-06  0.2100200E+04  0.7818609E-02  0.8561155E-01
        2   -1    0    0  501    0  0.00000000000E+00  0.00000000000E+00  0.10778424792E+04  0.10778424792E+04  0.25500000920E-02 0.  1.
       -2   -1    0    0    0  501  0.00000000000E+00  0.00000000000E+00 -0.10230713227E+04  0.10230713227E+04  0.25500000920E-02 0. -1.
    10030    2    1    2    0    0  0.00000000000E+00  0.00000000000E+00  0.54771156538E+02  0.21009138019E+04  0.21001997341E+04 0.  0.
        1    1    3    3  502    0 -0.55886982408E+03 -0.12949065047E+03  0.90723361266E+03  0.10733946790E+04  0.50400001928E-02 0.  1.
       -1    1    3    3    0  502  0.55886982408E+03  0.12949065047E+03 -0.85246245613E+03  0.10275191229E+04  0.50400001928E-02 0. -1.
</event>
<event>
 5   0  0.1646510E-06  0.2099292E+04  0.7818609E-02  0.8561555E-01
       -1   -1    0    0    0  501  0.00000000000E+00  0.00000000000E+00  0.15644481243E+04  0.15644481244E+04  0.50400001928E-02 0.  1.
        1   -1    0    0  501    0  0.00000000000E+00  0.00000000000E+00 -0.70424616343E+03  0.70424616345E+03  0.50400001928E-02 0. -1.
    10030    2    1    2    0    0  0.00000000000E+00  0.00000000000E+00  0.86020196091E+03  0.22686942878E+04  0.20992918706E+04 0.  0.
        4    1    3    3  502    0  0.43119998656E+02  0.56838049040E+03  0.13826092101E+04  0.14955017743E+04  0.12699999809E+01 0.  1.
       -4    1    3    3    0  502 -0.43119998656E+02 -0.56838049040E+03 -0.52240724915E+03  0.77319251355E+03  0.12699999809E+01 0. -1.
</event>
<event>
 5   0  0.3547583E-06  0.2100545E+04  0.7818609E-02  0.8561003E-01
        2   -1    0    0  501    0  0.00000000000E+00  0.00000000000E+00  0.20337644300E+04  0.20337644300E+04  0.25500000920E-02 0.  1.
       -2   -1    0    0    0  501  0.00000000000E+00  0.00000000000E+00 -0.54237979899E+03  0.54237979900E+03  0.25500000920E-02 0. -1.
    10030    2    1    2    0    0  0.00000000000E+00  0.00000000000E+00  0.14913846310E+04  0.25761442290E+04  0.21005453985E+04 0.  0.
        2    1    3    3  502    0 -0.59736100933E+02  0.35990724973E+03  0.19535548260E+04  0.19873293860E+04  0.25500000920E-02 0.  1.
       -2    1    3    3    0  502  0.59736100933E+02 -0.35990724973E+03 -0.46217019502E+03  0.58881484300E+03  0.25500000920E-02 0. -1.
</event>
<event>
 5   0  0.1653260E-06  0.2100653E+04  0.7818609E-02  0.8560956E-01
       -1   -1    0    0    0  501  0.00000000000E+00  0.00000000000E+00  0.10965396960E+04  0.10965396961E+04  0.50400001928E-02 0. -1.
        1   -1    0    0  501    0  0.00000000000E+00  0.00000000000E+00 -0.10060605616E+04  0.10060605616E+04  0.50400001928E-02 0.  1.
    10030    2    1    2    0    0  0.00000000000E+00  0.00000000000E+00  0.90479134491E+02  0.21026002576E+04  0.21006526056E+04 0.  0.
        3    1    3    3  502    0  0.74881986809E+03 -0.68462472929E+03  0.31704818539E+03  0.10629966025E+04  0.10100000352E+00 0.  1.
       -3    1    3    3    0  502 -0.74881986809E+03  0.68462472929E+03 -0.22656905090E+03  0.10396036552E+04  0.10100000352E+00 0. -1.
</event>
<event>
 5   0  0.1646510E-06  0.2093229E+04  0.7818609E-02  0.8564232E-01
        1   -1    0    0  501    0  0.00000000000E+00  0.00000000000E+00  0.20118484547E+04  0.20118484547E+04  0.50400001928E-02 0.  1.
       -1   -1    0    0    0  501  0.00000000000E+00  0.00000000000E+00 -0.54447540967E+03  0.54447540969E+03  0.50400001928E-02 0. -1.
    10030    2    1    2    0    0  0.00000000000E+00  0.00000000000E+00  0.14673730450E+04  0.25563238644E+04  0.20932290955E+04 0.  0.
        4    1    3    3  502    0 -0.40660789620E+03  0.55768115254E+03  0.16945600694E+04  0.18297195662E+04  0.12699999809E+01 0.  1.
       -4    1    3    3    0  502  0.40660789620E+03 -0.55768115254E+03 -0.22718702442E+03  0.72660429817E+03  0.12699999809E+01 0. -1.
</event>
<event>
 5   0  0.1579820E-06  0.2099385E+04  0.7818609E-02  0.8561514E-01
       -1   -1    0    0    0  501  0.00000000000E+00  0.00000000000E+00  0.10952515901E+04  0.10952515901E+04  0.50400001928E-02 0.  1.
        1   -1    0    0  501    0  0.00000000000E+00  0.00000000000E+00 -0.10060289115E+04  0.10060289116E+04  0.50400001928E-02 0. -1.
    10030    2    1    2    0    0  0.00000000000E+00  0.00000000000E+00  0.89222678508E+02  0.21012805016E+04  0.20993854006E+04 0.  0.
        2    1    3    3  502    0  0.26728133512E+03 -0.64181104276E+03  0.83176517625E+03  0.10840636675E+04  0.25500000920E-02 0.  1.
       -2    1    3    3    0  502 -0.26728133512E+03  0.64181104276E+03 -0.74254249774E+03  0.10172168341E+04  0.25500000920E-02 0. -1.
</event>
<event>
 5   0  0.1590067E-06  0.2099850E+04  0.7818609E-02  0.8561309E-01
       -1   -1    0    0    0  501  0.00000000000E+00  0.00000000000E+00  0.64389286369E+03  0.64389286371E+03  0.50400001928E-02 0. -1.
        1   -1    0    0  501    0  0.00000000000E+00  0.00000000000E+00 -0.17119969820E+04  0.17119969820E+04  0.50400001928E-02 0.  1.
    10030    2    1    2    0    0  0.00000000000E+00  0.00000000000E+00 -0.10681041183E+04  0.23558898457E+04  0.20998501274E+04 0.  0.
        5    1    3    3  502    0  0.25229609654E+03 -0.48817500988E+03  0.46965575230E+03  0.72288780338E+03  0.46999998093E+01 0. -1.
       -5    1    3    3    0  502 -0.25229609654E+03  0.48817500988E+03 -0.15377598706E+04  0.16330020423E+04  0.46999998093E+01 0.  1.
</event>
<event>
 5   0  0.3574927E-06  0.2099567E+04  0.7818609E-02  0.8561434E-01
       -2   -1    0    0    0  501  0.00000000000E+00  0.00000000000E+00  0.52856033388E+03  0.52856033389E+03  0.25500000920E-02 0. -1.
        2   -1    0    0  501    0  0.00000000000E+00  0.00000000000E+00 -0.20849944685E+04  0.20849944685E+04  0.25500000920E-02 0.  1.
    10030    2    1    2    0    0  0.00000000000E+00  0.00000000000E+00 -0.15564341346E+04  0.26135548024E+04  0.20995669767E+04 0.  0.
        3    1    3    3  502    0 -0.38397052559E+03  0.46502519102E+03  0.29142138776E+03  0.66978222449E+03  0.10100000352E+00 0. -1.
       -3    1    3    3    0  502  0.38397052559E+03 -0.46502519102E+03 -0.18478555223E+04  0.19437725779E+04  0.10100000352E+00 0.  1.
</event>
<event>
 5   0  0.3636435E-06  0.2097630E+04  0.7818609E-02  0.8562288E-01
       -2   -1    0    0    0  501  0.00000000000E+00  0.00000000000E+00  0.55379527575E+03  0.55379527575E+03  0.25500000920E-02 0. -1.
        2   -1    0    0  501    0  0.00000000000E+00  0.00000000000E+00 -0.19863159389E+04  0.19863159389E+04  0.25500000920E-02 0.  1.
    10030    2    1    2    0    0  0.00000000000E+00  0.00000000000E+00 -0.14325206631E+04  0.25401112146E+04  0.20976295031E+04 0.  0.
        4    1    3    3  502    0 -0.34397822611E+03 -0.44241351302E+03 -0.17898150386E+04  0.18754973266E+04  0.12699999809E+01 0.  1.
       -4    1    3    3    0  502  0.34397822611E+03  0.44241351302E+03  0.35729437551E+03  0.66461388807E+03  0.12699999809E+01 0. -1.
</event>
<event>
 5   0  0.3574927E-06  0.2099380E+04  0.7818609E-02  0.8561517E-01
       -2   -1    0    0    0  501  0.00000000000E+00  0.00000000000E+00  0.80627688524E+03  0.80627688525E+03  0.25500000920E-02 0.  1.
        2   -1    0    0  501    0  0.00000000000E+00  0.00000000000E+00 -0.13665885813E+04  0.13665885813E+04  0.25500000920E-02 0. -1.
    10030    2    1    2    0    0  0.00000000000E+00  0.00000000000E+00 -0.56031169602E+03  0.21728654665E+04  0.20993797034E+04 0.  0.
        3    1    3    3  502    0 -0.28207352949E+03  0.48926921559E+03 -0.11959433118E+04  0.13225846879E+04  0.10100000352E+00 0. -1.
       -3    1    3    3    0  502  0.28207352949E+03 -0.48926921559E+03  0.63563161577E+03  0.85028077864E+03  0.10100000352E+00 0.  1.
</event>
<event>
 5   0  0.1579820E-06  0.2100715E+04  0.7818609E-02  0.8560929E-01
       -1   -1    0    0    0  501  0.00000000000E+00  0.00000000000E+00  0.78286185102E+03  0.78286185103E+03  0.50400001928E-02 0. -1.
        1   -1    0    0  501    0  0.00000000000E+00  0.00000000000E+00 -0.14092530219E+04  0.14092530219E+04  0.50400001928E-02 0.  1.
    10030    2    1    2    0    0  0.00000000000E+00  0.00000000000E+00 -0.62639117084E+03  0.21921148729E+04  0.21007145730E+04 0.  0.
        2    1    3    3  502    0 -0.51187147933E+02 -0.67204707642E+01  0.78153709462E+03  0.78324039676E+03  0.25500000920E-02 0. -1.
       -2    1    3    3    0  502  0.51187147933E+02  0.67204707642E+01 -0.14079282655E+04  0.14088744761E+04  0.25500000920E-02 0.  1.
</event>
<event>
 5   0  0.1579820E-06  0.2100085E+04  0.7818609E-02  0.8561206E-01
       -1   -1    0    0    0  501  0.00000000000E+00  0.00000000000E+00  0.84131607117E+03  0.84131607118E+03  0.50400001928E-02 0.  1.
        1   -1    0    0  501    0  0.00000000000E+00  0.00000000000E+00 -0.13105526811E+04  0.13105526811E+04  0.50400001928E-02 0. -1.
    10030    2    1    2    0    0  0.00000000000E+00  0.00000000000E+00 -0.46923660993E+03  0.21518687523E+04  0.21000847914E+04 0.  0.
        2    1    3    3  502    0  0.83959406150E+03  0.81357009390E+01  0.41148904195E+03  0.93504417510E+03  0.25500000920E-02 0.  1.
       -2    1    3    3    0  502 -0.83959406150E+03 -0.81357009390E+01 -0.88072565188E+03  0.12168245772E+04  0.25500000920E-02 0. -1.
</event>
<event>
 5   0  0.1257125E-06  0.2101071E+04  0.7818609E-02  0.8560772E-01
        3   -1    0    0  501    0  0.00000000000E+00  0.00000000000E+00  0.22690972716E+04  0.22690972739E+04  0.10100000352E+00 0.  1.
       -3   -1    0    0    0  501  0.00000000000E+00  0.00000000000E+00 -0.48637197349E+03  0.48637198397E+03  0.10100000352E+00 0. -1.
    10030    2    1    2    0    0  0.00000000000E+00  0.00000000000E+00  0.17827252982E+04  0.27554692579E+04  0.21010714748E+04 0.  0.
        1    1    3    3  502    0  0.53829483365E+03 -0.37376884909E+03 -0.18544097698E+03  0.68106742430E+03  0.50400001928E-02 0. -1.
       -1    1    3    3    0  502 -0.53829483365E+03  0.37376884909E+03  0.19681662751E+04  0.20744018336E+04  0.50400001928E-02 0.  1.
</event>
<event>
 5   0  0.1257125E-06  0.2100917E+04  0.7818609E-02  0.8560840E-01
       -3   -1    0    0    0  501  0.00000000000E+00  0.00000000000E+00  0.10858612980E+04  0.10858613026E+04  0.10100000352E+00 0.  1.
        3   -1    0    0  501    0  0.00000000000E+00  0.00000000000E+00 -0.10162099316E+04  0.10162099366E+04  0.10100000352E+00 0. -1.
    10030    2    1    2    0    0  0.00000000000E+00  0.00000000000E+00  0.69651366368E+02  0.21020712393E+04  0.21009169860E+04 0.  0.
        2    1    3    3  502    0 -0.58958671411E+03 -0.79942344834E+03 -0.30708226998E+03  0.10397066239E+04  0.25500000920E-02 0. -1.
       -2    1    3    3    0  502  0.58958671411E+03  0.79942344834E+03  0.37673363635E+03  0.10623646154E+04  0.25500000920E-02 0.  1.
</event>
<event>
 5   0  0.1646510E-06  0.2101939E+04  0.7818609E-02  0.8560390E-01
        1   -1    0    0  501    0  0.00000000000E+00  0.00000000000E+00  0.92818524697E+03  0.92818524698E+03  0.50400001928E-02 0.  1.
       -1   -1    0    0    0  501  0.00000000000E+00  0.00000000000E+00 -0.11899962870E+04  0.11899962871E+04  0.50400001928E-02 0. -1.
    10030    2    1    2    0    0  0.00000000000E+00  0.00000000000E+00 -0.26181104008E+03  0.21181815340E+04  0.21019391025E+04 0.  0.
        4    1    3    3  502    0 -0.49491475402E+03  0.11852220961E+02  0.80332584000E+03  0.94361809382E+03  0.12699999809E+01 0.  1.
       -4    1    3    3    0  502  0.49491475402E+03 -0.11852220961E+02 -0.10651368801E+04  0.11745634402E+04  0.12699999809E+01 0. -1.
</event>
<event>
 5   0  0.1615098E-06  0.2099992E+04  0.7818609E-02  0.8561247E-01
        1   -1    0    0  501    0  0.00000000000E+00  0.00000000000E+00  0.14746046659E+04  0.14746046659E+04  0.50400001928E-02 0.  1.
       -1   -1    0    0    0  501  0.00000000000E+00  0.00000000000E+00 -0.74765213094E+03  0.74765213095E+03  0.50400001928E-02 0. -1.
    10030    2    1    2    0    0  0.00000000000E+00  0.00000000000E+00  0.72695253492E+03  0.22222567968E+04  0.20999917340E+04 0.  0.
        1    1    3    3  502    0 -0.14133569270E+03  0.10693928905E+03  0.14586613453E+04  0.14693892302E+04  0.50400001928E-02 0.  1.
       -1    1    3    3    0  502  0.14133569270E+03 -0.10693928905E+03 -0.73170881040E+03  0.75286756659E+03  0.50400001928E-02 0. -1.
</event>
<event>
 5   0  0.3636435E-06  0.2100017E+04  0.7818609E-02  0.8561236E-01
       -2   -1    0    0    0  501  0.00000000000E+00  0.00000000000E+00  0.46004817087E+03  0.46004817088E+03  0.25500000920E-02 0. -1.
        2   -1    0    0  501    0  0.00000000000E+00  0.00000000000E+00 -0.23965275020E+04  0.23965275020E+04  0.25500000920E-02 0.  1.
    10030    2    1    2    0    0  0.00000000000E+00  0.00000000000E+00 -0.19364793312E+04  0.28565756729E+04  0.21000172321E+04 0.  0.
        4    1    3    3  502    0  0.91751788333E+03  0.24462723039E+03 -0.15778362185E+04  0.18415347658E+04  0.12699999809E+01 0.  1.
       -4    1    3    3    0  502 -0.91751788333E+03 -0.24462723039E+03 -0.35864311263E+03  0.10150409072E+04  0.12699999809E+01 0. -1.
</event>
<event>
 5   0  0.3705828E-06  0.2099637E+04  0.7818609E-02  0.8561403E-01
        2   -1    0    0  501    0  0.00000000000E+00  0.00000000000E+00  0.14531541420E+04  0.14531541420E+04  0.25500000920E-02 0.  1.
       -2   -1    0    0    0  501  0.00000000000E+00  0.00000000000E+00 -0.75843251379E+03  0.75843251379E+03  0.25500000920E-02 0. -1.
    10030    2    1    2    0    0  0.00000000000E+00  0.00000000000E+00  0.69472162824E+03  0.22115866558E+04  0.20996374438E+04 0.  0.
        5    1    3    3  502    0  0.67172828787E+03 -0.61889910729E+03  0.89248970945E+03  0.12770336602E+04  0.46999998093E+01 0.  1.
       -5    1    3    3    0  502 -0.67172828787E+03  0.61889910729E+03 -0.19776808121E+03  0.93455299565E+03  0.46999998093E+01 0. -1.
</event>
<event>
 5   0  0.1590067E-06  0.2099694E+04  0.7818609E-02  0.8561378E-01
        1   -1    0    0  501    0  0.00000000000E+00  0.00000000000E+00  0.14454426317E+04  0.14454426317E+04  0.50400001928E-02 0. -1.
       -1   -1    0    0    0  501  0.00000000000E+00  0.00000000000E+00 -0.76251955070E+03  0.76251955072E+03  0.50400001928E-02 0.  1.
    10030    2    1    2    0    0  0.00000000000E+00  0.00000000000E+00  0.68292308100E+03  0.22079621824E+04  0.20996935644E+04 0.  0.
        5    1    3    3  502    0 -0.11643237693E+03 -0.68491825119E+03  0.11691210233E+04  0.13599763109E+04  0.46999998093E+01 0. -1.
       -5    1    3    3    0  502  0.11643237693E+03  0.68491825119E+03 -0.48619794227E+03  0.84798587150E+03  0.46999998093E+01 0.  1.
</event>
<event>
 5   0  0.3480134E-06  0.2096936E+04  0.7818609E-02  0.8562594E-01
       -2   -1    0    0    0  501  0.00000000000E+00  0.00000000000E+00  0.18693523629E+04  0.18693523629E+04  0.25500000920E-02 0. -1.
        2   -1    0    0  501    0  0.00000000000E+00  0.00000000000E+00 -0.58805684241E+03  0.58805684242E+03  0.25500000920E-02 0.  1.
    10030    2    1    2    0    0  0.00000000000E+00  0.00000000000E+00  0.12812955204E+04  0.24574092053E+04  0.20969362869E+04 0.  0.
        1    1    3    3  502    0  0.77528277075E+03  0.53739641205E+00  0.14678345728E+04  0.16600006014E+04  0.50400001928E-02 0. -1.
       -1    1    3    3    0  502 -0.77528277075E+03 -0.53739641205E+00 -0.18653905240E+03  0.79740860387E+03  0.50400001928E-02 0.  1.
</event>
<event>
 5   0  0.3547583E-06  0.2105666E+04  0.7818609E-02  0.8558752E-01
        2   -1    0    0  501    0  0.00000000000E+00  0.00000000000E+00  0.14176488196E+04  0.14176488196E+04  0.25500000920E-02 0.  1.
       -2   -1    0    0    0  501  0.00000000000E+00  0.00000000000E+00 -0.78189806867E+03  0.78189806868E+03  0.25500000920E-02 0. -1.
    10030    2    1    2    0    0  0.00000000000E+00  0.00000000000E+00  0.63575075097E+03  0.21995468883E+04  0.21056655709E+04 0.  0.
        2    1    3    3  502    0 -0.47699793805E+03 -0.63551421383E+03 -0.40360823938E+03  0.89123788059E+03  0.25500000920E-02 0.  1.
       -2    1    3    3    0  502  0.47699793805E+03  0.63551421383E+03  0.10393589903E+04  0.13083090077E+04  0.25500000920E-02 0. -1.
</event>
<event>
 5   0  0.3547583E-06  0.2099854E+04  0.7818609E-02  0.8561308E-01
       -2   -1    0    0    0  501  0.00000000000E+00  0.00000000000E+00  0.68168617271E+03  0.68168617271E+03  0.25500000920E-02 0. -1.
        2   -1    0    0  501    0  0.00000000000E+00  0.00000000000E+00 -0.16170887851E+04  0.16170887851E+04  0.25500000920E-02 0.  1.
    10030    2    1    2    0    0  0.00000000000E+00  0.00000000000E+00 -0.93540261239E+03  0.22987749578E+04  0.20998543424E+04 0.  0.
        2    1    3    3  502    0 -0.41679405389E+03 -0.82999820846E+03 -0.10037089404E+04  0.13674962327E+04  0.25500000920E-02 0.  1.
       -2    1    3    3    0  502  0.41679405389E+03  0.82999820846E+03  0.68306328004E+02  0.93127872512E+03  0.25500000920E-02 0. -1.
</event>
<event>
 5   0  0.1646510E-06  0.2099525E+04  0.7818609E-02  0.8561452E-01
        1   -1    0    0  501    0  0.00000000000E+00  0.00000000000E+00  0.11317958576E+04  0.11317958576E+04  0.50400001928E-02 0.  1.
       -1   -1    0    0    0  501  0.00000000000E+00  0.00000000000E+00 -0.97367529455E+03  0.97367529457E+03  0.50400001928E-02 0. -1.
    10030    2    1    2    0    0  0.00000000000E+00  0.00000000000E+00  0.15812056305E+03  0.21054711522E+04  0.20995253416E+04 0.  0.
        4    1    3    3  502    0  0.73848028970E+03 -0.59102345016E+03 -0.37757328352E+03  0.10184424649E+04  0.12699999809E+01 0. -1.
       -4    1    3    3    0  502 -0.73848028970E+03  0.59102345016E+03  0.53569384657E+03  0.10870286873E+04  0.12699999809E+01 0.  1.
</event>
<event>
 5   0  0.1615098E-06  0.2100890E+04  0.7818609E-02  0.8560851E-01
       -1   -1    0    0    0  501  0.00000000000E+00  0.00000000000E+00  0.66659673314E+03  0.66659673316E+03  0.50400001928E-02 0. -1.
        1   -1    0    0  501    0  0.00000000000E+00  0.00000000000E+00 -0.16553260615E+04  0.16553260615E+04  0.50400001928E-02 0.  1.
    10030    2    1    2    0    0  0.00000000000E+00  0.00000000000E+00 -0.98872932831E+03  0.23219227946E+04  0.21008902350E+04 0.  0.
        1    1    3    3  502    0 -0.19851325303E+03  0.81511759187E+02  0.64211227907E+03  0.67702278948E+03  0.50400001928E-02 0. -1.
       -1    1    3    3    0  502  0.19851325303E+03 -0.81511759187E+02 -0.16308416074E+04  0.16449000051E+04  0.50400001928E-02 0.  1.
</event>
<event>
 5   0  0.3705828E-06  0.2103808E+04  0.7818609E-02  0.8559568E-01
        2   -1    0    0  501    0  0.00000000000E+00  0.00000000000E+00  0.22751315847E+04  0.22751315847E+04  0.25500000920E-02 0. -1.
       -2   -1    0    0    0  501  0.00000000000E+00  0.00000000000E+00 -0.48634660928E+03  0.48634660929E+03  0.25500000920E-02 0.  1.
    10030    2    1    2    0    0  0.00000000000E+00  0.00000000000E+00  0.17887849754E+04  0.27614781940E+04  0.21038084817E+04 0.  0.
        5    1    3    3  502    0 -0.18275112256E+03 -0.75210120855E+03  0.18294145919E+04  0.19864123539E+04  0.46999998093E+01 0. -1.
       -5    1    3    3    0  502  0.18275112256E+03  0.75210120855E+03 -0.40629616506E+02  0.77506584006E+03  0.46999998093E+01 0.  1.
</event>
<event>
 5   0  0.1590067E-06  0.2099697E+04  0.7818609E-02  0.8561377E-01
        1   -1    0    0  501    0  0.00000000000E+00  0.00000000000E+00  0.60354326338E+03  0.60354326340E+03  0.50400001928E-02 0.  1.
       -1   -1    0    0    0  501  0.00000000000E+00  0.00000000000E+00 -0.18261859936E+04  0.18261859936E+04  0.50400001928E-02 0. -1.
    10030    2    1    2    0    0  0.00000000000E+00  0.00000000000E+00 -0.12226427302E+04  0.24297292570E+04  0.20996973631E+04 0.  0.
        5    1    3    3  502    0 -0.35476603778E+03  0.71380728525E+03 -0.14019225810E+04  0.16126961261E+04  0.46999998093E+01 0. -1.
       -5    1    3    3    0  502  0.35476603778E+03 -0.71380728525E+03  0.17927985081E+03  0.81703313087E+03  0.46999998093E+01 0.  1.
</event>
<event>
 5   0  0.3547583E-06  0.2100403E+04  0.7818609E-02  0.8561066E-01
        2   -1    0    0  501    0  0.00000000000E+00  0.00000000000E+00  0.95279390325E+03  0.95279390326E+03  0.25500000920E-02 0.  1.
       -2   -1    0    0    0  501  0.00000000000E+00  0.00000000000E+00 -0.11575671388E+04  0.11575671388E+04  0.25500000920E-02 0. -1.
    10030    2    1    2    0    0  0.00000000000E+00  0.00000000000E+00 -0.20477323553E+03  0.21103610420E+04  0.21004027351E+04 0.  0.
        2    1    3    3  502    0 -0.11926780396E+03 -0.19335711734E+03 -0.11325825168E+04  0.11551428229E+04  0.25500000920E-02 0. -1.
       -2    1    3    3    0  502  0.11926780396E+03  0.19335711734E+03  0.92780928125E+03  0.95521821919E+03  0.25500000920E-02 0.  1.
</event>
<event>
 5   0  0.3636435E-06  0.2098716E+04  0.7818609E-02  0.8561809E-01
        2   -1    0    0  501    0  0.00000000000E+00  0.00000000000E+00  0.18394928604E+04  0.18394928604E+04  0.25500000920E-02 0.  1.
       -2   -1    0    0    0  501  0.00000000000E+00  0.00000000000E+00 -0.59861717871E+03  0.59861717872E+03  0.25500000920E-02 0. -1.
    10030    2    1    2    0    0  0.00000000000E+00  0.00000000000E+00  0.12408756817E+04  0.24381100391E+04  0.20987158229E+04 0.  0.
        4    1    3    3  502    0 -0.10347287261E+04 -0.13875459447E+03  0.74356890544E+03  0.12817225535E+04  0.12699999809E+01 0.  1.
       -4    1    3    3    0  502  0.10347287261E+04  0.13875459447E+03  0.49730677622E+03  0.11563874856E+04  0.12699999809E+01 0. -1.
</event>
<event>
 5   0  0.1646510E-06  0.2099794E+04  0.7818609E-02  0.8561334E-01
        1   -1    0    0  501    0  0.00000000000E+00  0.00000000000E+00  0.13737596998E+04  0.13737596999E+04  0.50400001928E-02 0. -1.
       -1   -1    0    0    0  501  0.00000000000E+00  0.00000000000E+00 -0.80238460175E+03  0.80238460177E+03  0.50400001928E-02 0.  1.
    10030    2    1    2    0    0  0.00000000000E+00  0.00000000000E+00  0.57137509810E+03  0.21761443016E+04  0.20997939229E+04 0.  0.
        4    1    3    3  502    0  0.56971328128E+03 -0.71624836651E+03  0.81888195461E+03  0.12280693034E+04  0.12699999809E+01 0.  1.
       -4    1    3    3    0  502 -0.56971328128E+03  0.71624836651E+03 -0.24750685651E+03  0.94807499826E+03  0.12699999809E+01 0. -1.
</event>
<event>
 5   0  0.3705828E-06  0.2098232E+04  0.7818609E-02  0.8562023E-01
        2   -1    0    0  501    0  0.00000000000E+00  0.00000000000E+00  0.50965571658E+03  0.50965571658E+03  0.25500000920E-02 0.  1.
       -2   -1    0    0    0  501  0.00000000000E+00  0.00000000000E+00 -0.21595836760E+04  0.21595836760E+04  0.25500000920E-02 0. -1.
    10030    2    1    2    0    0  0.00000000000E+00  0.00000000000E+00 -0.16499279594E+04  0.26692393926E+04  0.20982317945E+04 0.  0.
        5    1    3    3  502    0  0.44429824576E+03  0.78240538315E+03 -0.15112853684E+04  0.17588532257E+04  0.46999998093E+01 0. -1.
       -5    1    3    3    0  502 -0.44429824576E+03 -0.78240538315E+03 -0.13864259097E+03  0.91038616685E+03  0.46999998093E+01 0.  1.
</event>
<event>
 5   0  0.3574927E-06  0.2100088E+04  0.7818609E-02  0.8561205E-01
        2   -1    0    0  501    0  0.00000000000E+00  0.00000000000E+00  0.12337109381E+04  0.12337109381E+04  0.25500000920E-02 0.  1.
       -2   -1    0    0    0  501  0.00000000000E+00  0.00000000000E+00 -0.89372008051E+03  0.89372008051E+03  0.25500000920E-02 0. -1.
    10030    2    1    2    0    0  0.00000000000E+00  0.00000000000E+00  0.33999085760E+03  0.21274310186E+04  0.21000878448E+04 0.  0.
        3    1    3    3  502    0 -0.18946198502E+03 -0.65074435258E+03  0.98245274654E+03  0.11935566453E+04  0.10100000352E+00 0.  1.
       -3    1    3    3    0  502  0.18946198502E+03  0.65074435258E+03 -0.64246188894E+03  0.93387437331E+03  0.10100000352E+00 0. -1.
</event>
<event>
 5   0  0.3636435E-06  0.2102371E+04  0.7818609E-02  0.8560200E-01
       -2   -1    0    0    0  501  0.00000000000E+00  0.00000000000E+00  0.97446597392E+03  0.97446597393E+03  0.25500000920E-02 0. -1.
        2   -1    0    0  501    0  0.00000000000E+00  0.00000000000E+00 -0.11339448842E+04  0.11339448842E+04  0.25500000920E-02 0.  1.
    10030    2    1    2    0    0  0.00000000000E+00  0.00000000000E+00 -0.15947891024E+03  0.21084108581E+04  0.21023707627E+04 0.  0.
        4    1    3    3  502    0  0.14644719653E+02 -0.20988658159E+03 -0.11126120985E+04  0.11323312853E+04  0.12699999809E+01 0.  1.
       -4    1    3    3    0  502 -0.14644719653E+02  0.20988658159E+03  0.95313318829E+03  0.97607957281E+03  0.12699999809E+01 0. -1.
</event>
<event>
 5   0  0.1579820E-06  0.2100453E+04  0.7818609E-02  0.8561044E-01
       -1   -1    0    0    0  501  0.00000000000E+00  0.00000000000E+00  0.72209064834E+03  0.72209064836E+03  0.50400001928E-02 0. -1.
        1   -1    0    0  501    0  0.00000000000E+00  0.00000000000E+00 -0.15274758163E+04  0.15274758163E+04  0.50400001928E-02 0.  1.
    10030    2    1    2    0    0  0.00000000000E+00  0.00000000000E+00 -0.80538516800E+03  0.22495664647E+04  0.21004532869E+04 0.  0.
        2    1    3    3  502    0  0.71325415801E+03 -0.28688230191E+03  0.36360354015E+03  0.85043546697E+03  0.25500000920E-02 0.  1.
       -2    1    3    3    0  502 -0.71325415801E+03  0.28688230191E+03 -0.11689887081E+04  0.13991309977E+04  0.25500000920E-02 0. -1.
</event>
<event>
 5   0  0.3705828E-06  0.2101245E+04  0.7818609E-02  0.8560695E-01
        2   -1    0    0  501    0  0.00000000000E+00  0.00000000000E+00  0.60526079929E+03  0.60526079929E+03  0.25500000920E-02 0.  1.
       -2   -1    0    0    0  501  0.00000000000E+00  0.00000000000E+00 -0.18236888322E+04  0.18236888322E+04  0.25500000920E-02 0. -1.
    10030    2    1    2    0    0  0.00000000000E+00  0.00000000000E+00 -0.12184280329E+04  0.24289496315E+04  0.21012447361E+04 0.  0.
        5    1    3    3  502    0 -0.26184014313E+03 -0.24021542151E+03 -0.17521056229E+04  0.17877807229E+04  0.46999998093E+01 0. -1.
       -5    1    3    3    0  502  0.26184014313E+03  0.24021542151E+03  0.53367759000E+03  0.64116890860E+03  0.46999998093E+01 0.  1.
</event>
<event>
 5   0  0.1590067E-06  0.2099088E+04  0.7818609E-02  0.8561645E-01
       -1   -1    0    0    0  501  0.00000000000E+00  0.00000000000E+00  0.88421866582E+03  0.88421866583E+03  0.50400001928E-02 0. -1.
        1   -1    0    0  501    0  0.00000000000E+00  0.00000000000E+00 -0.12457806136E+04  0.12457806136E+04  0.50400001928E-02 0.  1.
    10030    2    1    2    0    0  0.00000000000E+00  0.00000000000E+00 -0.36156194782E+03  0.21299992795E+04  0.20990878706E+04 0.  0.
        5    1    3    3  502    0 -0.69454104530E+03  0.17909849529E+03 -0.95826041979E+03  0.11969747937E+04  0.46999998093E+01 0.  1.
       -5    1    3    3    0  502  0.69454104530E+03 -0.17909849529E+03  0.59669847197E+03  0.93302448578E+03  0.46999998093E+01 0. -1.
</event>
<event>
 5   0  0.3636435E-06  0.2101063E+04  0.7818609E-02  0.8560775E-01
        2   -1    0    0  501    0  0.00000000000E+00  0.00000000000E+00  0.20330122574E+04  0.20330122574E+04  0.25500000920E-02 0. -1.
       -2   -1    0    0    0  501  0.00000000000E+00  0.00000000000E+00 -0.54284796117E+03  0.54284796118E+03  0.25500000920E-02 0.  1.
    10030    2    1    2    0    0  0.00000000000E+00  0.00000000000E+00  0.14901642963E+04  0.25758602186E+04  0.21010631204E+04 0.  0.
        4    1    3    3  502    0  0.46731771347E+03  0.72578016614E+03  0.11056958640E+02  0.86328822772E+03  0.12699999809E+01 0.  1.
       -4    1    3    3    0  502 -0.46731771347E+03 -0.72578016614E+03  0.14791073376E+04  0.17125719909E+04  0.12699999809E+01 0. -1.
</event>
<event>
 5   0  0.1615098E-06  0.2100195E+04  0.7818609E-02  0.8561158E-01
       -1   -1    0    0    0  501  0.00000000000E+00  0.00000000000E+00  0.11459509981E+04  0.11459509981E+04  0.50400001928E-02 0.  1.
        1   -1    0    0  501    0  0.00000000000E+00  0.00000000000E+00 -0.96226135899E+03  0.96226135900E+03  0.50400001928E-02 0. -1.
    10030    2    1    2    0    0  0.00000000000E+00  0.00000000000E+00  0.18368963910E+03  0.21082123571E+04  0.21001946241E+04 0.  0.
        1    1    3    3  502    0 -0.56335545673E+03  0.29540393427E+03  0.93054120031E+03  0.11271822304E+04  0.50400001928E-02 0.  1.
       -1    1    3    3    0  502  0.56335545673E+03 -0.29540393427E+03 -0.74685156121E+03  0.98103012671E+03  0.50400001928E-02 0. -1.
</event>
<event>
 5   0  0.3705828E-06  0.2100247E+04  0.7818609E-02  0.8561134E-01
       -2   -1    0    0    0  501  0.00000000000E+00  0.00000000000E+00  0.78484592054E+03  0.78484592054E+03  0.25500000920E-02 0. -1.
        2   -1    0    0  501    0  0.00000000000E+00  0.00000000000E+00 -0.14050654436E+04  0.14050654436E+04  0.25500000920E-02 0.  1.
    10030    2    1    2    0    0  0.00000000000E+00  0.00000000000E+00 -0.62021952305E+03  0.21899113641E+04  0.21002474916E+04 0.  0.
        5    1    3    3  502    0 -0.54270391661E+02 -0.32448014164E+03  0.72971362685E+03  0.80046030816E+03  0.46999998093E+01 0. -1.
       -5    1    3    3    0  502  0.54270391661E+02  0.32448014164E+03 -0.13499331499E+04  0.13894510560E+04  0.46999998093E+01 0.  1.
</event>
<event>
 5   0  0.1590067E-06  0.2099712E+04  0.7818609E-02  0.8561370E-01
       -1   -1    0    0    0  501  0.00000000000E+00  0.00000000000E+00  0.10088285097E+04  0.10088285097E+04  0.50400001928E-02 0.  1.
        1   -1    0    0  501    0  0.00000000000E+00  0.00000000000E+00 -0.10925522730E+04  0.10925522731E+04  0.50400001928E-02 0. -1.
    10030    2    1    2    0    0  0.00000000000E+00  0.00000000000E+00 -0.83723763327E+02  0.21013807828E+04  0.20997122483E+04 0.  0.
        5    1    3    3  502    0 -0.45696697552E+03  0.66255951037E+03 -0.71646864806E+03  0.10775682508E+04  0.46999998093E+01 0.  1.
       -5    1    3    3    0  502  0.45696697552E+03 -0.66255951037E+03  0.63274488473E+03  0.10238125320E+04  0.46999998093E+01 0. -1.
</event>
<event>
 5   0  0.1590067E-06  0.2099944E+04  0.7818609E-02  0.8561268E-01
       -1   -1    0    0    0  501  0.00000000000E+00  0.00000000000E+00  0.78958098121E+03  0.78958098123E+03  0.50400001928E-02 0.  1.
        1   -1    0    0  501    0  0.00000000000E+00  0.00000000000E+00 -0.13962351999E+04  0.13962351999E+04  0.50400001928E-02 0. -1.
    10030    2    1    2    0    0  0.00000000000E+00  0.00000000000E+00 -0.60665421872E+03  0.21858161812E+04  0.20999435794E+04 0.  0.
        5    1    3    3  502    0  0.78770378973E+02 -0.10039872797E+04 -0.61249757579E+03  0.11787156573E+04  0.46999998093E+01 0. -1.
       -5    1    3    3    0  502 -0.78770378973E+02  0.10039872797E+04  0.58433570666E+01  0.10071005239E+04  0.46999998093E+01 0.  1.
</event>
<event>
 5   0  0.3705828E-06  0.2100223E+04  0.7818609E-02  0.8561145E-01
       -2   -1    0    0    0  501  0.00000000000E+00  0.00000000000E+00  0.10510705461E+04  0.10510705461E+04  0.25500000920E-02 0.  1.
        2   -1    0    0  501    0  0.00000000000E+00  0.00000000000E+00 -0.10491537831E+04  0.10491537831E+04  0.25500000920E-02 0. -1.
    10030    2    1    2    0    0  0.00000000000E+00  0.00000000000E+00  0.19167630401E+01  0.21002243293E+04  0.21002234546E+04 0.  0.
        5    1    3    3  502    0 -0.38572966526E+03 -0.96262187385E+03 -0.16422129599E+03  0.10499614139E+04  0.46999998093E+01 0.  1.
       -5    1    3    3    0  502  0.38572966526E+03  0.96262187385E+03  0.16613805903E+03  0.10502629153E+04  0.46999998093E+01 0. -1.
</event>
<event>
 5   0  0.1646510E-06  0.2099667E+04  0.7818609E-02  0.8561390E-01
        1   -1    0    0  501    0  0.00000000000E+00  0.00000000000E+00  0.10085820234E+04  0.10085820234E+04  0.50400001928E-02 0.  1.
       -1   -1    0    0    0  501  0.00000000000E+00  0.00000000000E+00 -0.10927724703E+04  0.10927724703E+04  0.50400001928E-02 0. -1.
    10030    2    1    2    0    0  0.00000000000E+00  0.00000000000E+00 -0.84190446944E+02  0.21013544937E+04  0.20996672777E+04 0.  0.
        4    1    3    3  502    0  0.95199058912E+03  0.33919615900E+03 -0.32659278534E+03  0.10620755982E+04  0.12699999809E+01 0. -1.
       -4    1    3    3    0  502 -0.95199058912E+03 -0.33919615900E+03  0.24240233840E+03  0.10392788955E+04  0.12699999809E+01 0.  1.
</event>
<event>
 5   0  0.1646510E-06  0.2101894E+04  0.7818609E-02  0.8560410E-01
        1   -1    0    0  501    0  0.00000000000E+00  0.00000000000E+00  0.13339863101E+04  0.13339863102E+04  0.50400001928E-02 0. -1.
       -1   -1    0    0    0  501  0.00000000000E+00  0.00000000000E+00 -0.82796167277E+03  0.82796167279E+03  0.50400001928E-02 0.  1.
    10030    2    1    2    0    0  0.00000000000E+00  0.00000000000E+00  0.50602463737E+03  0.21619479829E+04  0.21018939429E+04 0.  0.
        4    1    3    3  502    0  0.18684613761E+03 -0.11978766478E+03  0.13096046722E+04  0.13282795542E+04  0.12699999809E+01 0. -1.
       -4    1    3    3    0  502 -0.18684613761E+03  0.11978766478E+03 -0.80358003484E+03  0.83366842873E+03  0.12699999809E+01 0.  1.
</event>
<event>
 5   0  0.1590067E-06  0.2109493E+04  0.7818609E-02  0.8557073E-01
       -1   -1    0    0    0  501  0.00000000000E+00  0.00000000000E+00  0.12714136288E+04  0.12714136288E+04  0.50400001928E-02 0.  1.
        1   -1    0    0  501    0  0.00000000000E+00  0.00000000000E+00 -0.87500285134E+03  0.87500285136E+03  0.50400001928E-02 0. -1.
    10030    2    1    2    0    0  0.00000000000E+00  0.00000000000E+00  0.39641077747E+03  0.21464164802E+04  0.21094933519E+04 0.  0.
        5    1    3    3  502    0 -0.65259274421E+03  0.71301511129E+03 -0.23132158350E+03  0.99388108127E+03  0.46999998093E+01 0. -1.
       -5    1    3    3    0  502  0.65259274421E+03 -0.71301511129E+03  0.62773236097E+03  0.11525353989E+04  0.46999998093E+01 0.  1.
</event>
<event>
 5   0  0.1646510E-06  0.2100563E+04  0.7818609E-02  0.8560995E-01
        1   -1    0    0  501    0  0.00000000000E+00  0.00000000000E+00  0.96537702521E+03  0.96537702522E+03  0.50400001928E-02 0. -1.
       -1   -1    0    0    0  501  0.00000000000E+00  0.00000000000E+00 -0.11426534602E+04  0.11426534602E+04  0.50400001928E-02 0.  1.
    10030    2    1    2    0    0  0.00000000000E+00  0.00000000000E+00 -0.17727643498E+03  0.21080304854E+04  0.21005631609E+04 0.  0.
        4    1    3    3  502    0 -0.77300032701E+03  0.62284551124E+03 -0.43282061153E+03  0.10829595242E+04  0.12699999809E+01 0.  1.
       -4    1    3    3    0  502  0.77300032701E+03 -0.62284551124E+03  0.25554417655E+03  0.10250709612E+04  0.12699999809E+01 0. -1.
</event>
<event>
 5   0  0.1646510E-06  0.2099768E+04  0.7818609E-02  0.8561346E-01
        1   -1    0    0  501    0  0.00000000000E+00  0.00000000000E+00  0.14752881369E+04  0.14752881369E+04  0.50400001928E-02 0. -1.
       -1   -1    0    0    0  501  0.00000000000E+00  0.00000000000E+00 -0.74714626355E+03  0.74714626357E+03  0.50400001928E-02 0.  1.
    10030    2    1    2    0    0  0.00000000000E+00  0.00000000000E+00  0.72814187335E+03  0.22224344005E+04  0.20997676245E+04 0.  0.
        4    1    3    3  502    0 -0.35193138212E+03  0.88890734099E+01  0.14109538545E+04  0.14542101312E+04  0.12699999809E+01 0. -1.
       -4    1    3    3    0  502  0.35193138212E+03 -0.88890734099E+01 -0.68281198116E+03  0.76822426925E+03  0.12699999809E+01 0.  1.
</event>
<event>
 5   0  0.1646510E-06  0.2099965E+04  0.7818609E-02  0.8561259E-01
        1   -1    0    0  501    0  0.00000000000E+00  0.00000000000E+00  0.16385651439E+04  0.16385651439E+04  0.50400001928E-02 0.  1.
       -1   -1    0    0    0  501  0.00000000000E+00  0.00000000000E+00 -0.67282231429E+03  0.67282231430E+03  0.50400001928E-02 0. -1.
    10030    2    1    2    0    0  0.00000000000E+00  0.00000000000E+00  0.96574282958E+03  0.23113874582E+04  0.20999649447E+04 0.  0.
        4    1    3    3  502    0 -0.61415302256E+03  0.20816202174E+03  0.13918125736E+04  0.15354671001E+04  0.12699999809E+01 0.  1.
       -4    1    3    3    0  502  0.61415302256E+03 -0.20816202174E+03 -0.42606974405E+03  0.77592035810E+03  0.12699999809E+01 0. -1.
</event>
<event>
 5   0  0.1615098E-06  0.2098166E+04  0.7818609E-02  0.8562052E-01
       -1   -1    0    0    0  501  0.00000000000E+00  0.00000000000E+00  0.10642711171E+04  0.10642711171E+04  0.50400001928E-02 0. -1.
        1   -1    0    0  501    0  0.00000000000E+00  0.00000000000E+00 -0.10341114411E+04  0.10341114411E+04  0.50400001928E-02 0.  1.
    10030    2    1    2    0    0  0.00000000000E+00  0.00000000000E+00  0.30159676009E+02  0.20983825583E+04  0.20981658073E+04 0.  0.
        1    1    3    3  502    0  0.86721416220E+03  0.53745487185E+03 -0.22919280189E+03  0.10456803923E+04  0.50400001928E-02 0.  1.
       -1    1    3    3    0  502 -0.86721416220E+03 -0.53745487185E+03  0.25935247790E+03  0.10527021660E+04  0.50400001928E-02 0. -1.
</event>
<event>
 5   0  0.3547583E-06  0.2101361E+04  0.7818609E-02  0.8560644E-01
       -2   -1    0    0    0  501  0.00000000000E+00  0.00000000000E+00  0.72320808761E+03  0.72320808761E+03  0.25500000920E-02 0. -1.
        2   -1    0    0  501    0  0.00000000000E+00  0.00000000000E+00 -0.15264338853E+04  0.15264338853E+04  0.25500000920E-02 0.  1.
    10030    2    1    2    0    0  0.00000000000E+00  0.00000000000E+00 -0.80322579770E+03  0.22496419729E+04  0.21013608268E+04 0.  0.
        2    1    3    3  502    0  0.33828086609E+03  0.35005147939E+02  0.66265407691E+03  0.74482865841E+03  0.25500000920E-02 0. -1.
       -2    1    3    3    0  502 -0.33828086609E+03 -0.35005147939E+02 -0.14658798746E+04  0.15048133145E+04  0.25500000920E-02 0.  1.
</event>
<event>
 5   0  0.1615098E-06  0.2100344E+04  0.7818609E-02  0.8561092E-01
        1   -1    0    0  501    0  0.00000000000E+00  0.00000000000E+00  0.18405081668E+04  0.18405081668E+04  0.50400001928E-02 0.  1.
       -1   -1    0    0    0  501  0.00000000000E+00  0.00000000000E+00 -0.59921585149E+03  0.59921585151E+03  0.50400001928E-02 0. -1.
    10030    2    1    2    0    0  0.00000000000E+00  0.00000000000E+00  0.12412923153E+04  0.24397240183E+04  0.21003444178E+04 0.  0.
        1    1    3    3  502    0  0.48444374949E+03  0.78512301172E+03  0.12034758027E+04  0.15163963524E+04  0.50400001928E-02 0.  1.
       -1    1    3    3    0  502 -0.48444374949E+03 -0.78512301172E+03  0.37816512618E+02  0.92332766589E+03  0.50400001928E-02 0. -1.
</event>
<event>
 5   0  0.1615098E-06  0.2099614E+04  0.7818609E-02  0.8561414E-01
       -1   -1    0    0    0  501  0.00000000000E+00  0.00000000000E+00  0.49855079147E+03  0.49855079149E+03  0.50400001928E-02 0.  1.
        1   -1    0    0  501    0  0.00000000000E+00  0.00000000000E+00 -0.22105961547E+04  0.22105961547E+04  0.50400001928E-02 0. -1.
    10030    2    1    2    0    0  0.00000000000E+00  0.00000000000E+00 -0.17120453632E+04  0.27091469462E+04  0.20996137384E+04 0.  0.
        1    1    3    3  502    0 -0.35363998392E+03  0.54864473014E+03  0.20487531755E+03  0.68413900188E+03  0.50400001928E-02 0.  1.
       -1    1    3    3    0  502  0.35363998392E+03 -0.54864473014E+03 -0.19169206808E+04  0.20250079443E+04  0.50400001928E-02 0. -1.
</event>
<event>
 5   0  0.3705828E-06  0.2104580E+04  0.7818609E-02  0.8559228E-01
        2   -1    0    0  501    0  0.00000000000E+00  0.00000000000E+00  0.17766978889E+04  0.17766978889E+04  0.25500000920E-02 0. -1.
       -2   -1    0    0    0  501  0.00000000000E+00  0.00000000000E+00 -0.62324300937E+03  0.62324300937E+03  0.25500000920E-02 0.  1.
    10030    2    1    2    0    0  0.00000000000E+00  0.00000000000E+00  0.11534548796E+04  0.23999408983E+04  0.21045802803E+04 0.  0.
        5    1    3    3  502    0  0.27274930601E+03  0.52161062736E+03  0.15713922594E+04  0.16780243006E+04  0.46999998093E+01 0. -1.
       -5    1    3    3    0  502 -0.27274930601E+03 -0.52161062736E+03 -0.41793737987E+03  0.72191659767E+03  0.46999998093E+01 0.  1.
</event>
<event>
 5   0  0.1257125E-06  0.2099832E+04  0.7818609E-02  0.8561317E-01
        4   -1    0    0  501    0  0.00000000000E+00  0.00000000000E+00  0.15734962828E+04  0.15734967953E+04  0.12699999809E+01 0.  1.
       -4   -1    0    0    0  501  0.00000000000E+00  0.00000000000E+00 -0.70055548567E+03  0.70055663683E+03  0.12699999809E+01 0. -1.
    10030    2    1    2    0    0  0.00000000000E+00  0.00000000000E+00  0.87294079716E+03  0.22740534322E+04  0.20998317497E+04 0.  0.
        5    1    3    3  502    0 -0.88603604371E+03 -0.46134486822E+03  0.78639235337E+03  0.12713512424E+04  0.46999998093E+01 0.  1.
       -5    1    3    3    0  502  0.88603604371E+03  0.46134486822E+03  0.86548443785E+02  0.10027021897E+04  0.46999998093E+01 0. -1.
</event>
<event>
 5   0  0.1653260E-06  0.2101330E+04  0.7818609E-02  0.8560658E-01
        1   -1    0    0  501    0  0.00000000000E+00  0.00000000000E+00  0.12744360853E+04  0.12744360853E+04  0.50400001928E-02 0. -1.
       -1   -1    0    0    0  501  0.00000000000E+00  0.00000000000E+00 -0.86618456573E+03  0.86618456574E+03  0.50400001928E-02 0.  1.
    10030    2    1    2    0    0  0.00000000000E+00  0.00000000000E+00  0.40825151954E+03  0.21406206510E+04  0.21013299285E+04 0.  0.
        3    1    3    3  502    0 -0.66709543500E+03 -0.54107922421E+03 -0.41226131128E+03  0.95275518642E+03  0.10100000352E+00 0.  1.
       -3    1    3    3    0  502  0.66709543500E+03  0.54107922421E+03  0.82051283082E+03  0.11878654646E+04  0.10100000352E+00 0. -1.
</event>
<event>
 5   0  0.1646510E-06  0.2100128E+04  0.7818609E-02  0.8561187E-01
       -1   -1    0    0    0  501  0.00000000000E+00  0.00000000000E+00  0.87586220076E+03  0.87586220077E+03  0.50400001928E-02 0. -1.
        1   -1    0    0  501    0  0.00000000000E+00  0.00000000000E+00 -0.12589128089E+04  0.12589128089E+04  0.50400001928E-02 0.  1.
    10030    2    1    2    0    0  0.00000000000E+00  0.00000000000E+00 -0.38305060818E+03  0.21347750097E+04  0.21001277518E+04 0.  0.
        4    1    3    3  502    0 -0.84472701778E+03 -0.59824867252E+03 -0.37098054191E+03  0.10995878246E+04  0.12699999809E+01 0.  1.
       -4    1    3    3    0  502  0.84472701778E+03  0.59824867252E+03 -0.12070066268E+02  0.10351871851E+04  0.12699999809E+01 0. -1.
</event>
<event>
 5   0  0.1646510E-06  0.2099669E+04  0.7818609E-02  0.8561389E-01
       -1   -1    0    0    0  501  0.00000000000E+00  0.00000000000E+00  0.93750045776E+03  0.93750045778E+03  0.50400001928E-02 0. -1.
        1   -1    0    0  501    0  0.00000000000E+00  0.00000000000E+00 -0.11756285060E+04  0.11756285061E+04  0.50400001928E-02 0.  1.
    10030    2    1    2    0    0  0.00000000000E+00  0.00000000000E+00 -0.23812804828E+03  0.21131289638E+04  0.20996687954E+04 0.  0.
        4    1    3    3  502    0 -0.88056997768E+03 -0.55948086741E+02  0.45345623121E+03  0.99204729752E+03  0.12699999809E+01 0. -1.
       -4    1    3    3    0  502  0.88056997768E+03  0.55948086741E+02 -0.69158427949E+03  0.11210816663E+04  0.12699999809E+01 0.  1.
</event>
<event>
 5   0  0.3636435E-06  0.2088012E+04  0.7818609E-02  0.8566543E-01
        2   -1    0    0  501    0  0.00000000000E+00  0.00000000000E+00  0.17705883892E+04  0.17705883892E+04  0.25500000920E-02 0.  1.
       -2   -1    0    0    0  501  0.00000000000E+00  0.00000000000E+00 -0.61558522186E+03  0.61558522186E+03  0.25500000920E-02 0. -1.
    10030    2    1    2    0    0  0.00000000000E+00  0.00000000000E+00  0.11550031673E+04  0.23861736111E+04  0.20880115387E+04 0.  0.
        4    1    3    3  502    0 -0.55602982498E+03 -0.51017838992E+03 -0.24697351055E+03  0.79400798713E+03  0.12699999809E+01 0. -1.
       -4    1    3    3    0  502  0.55602982498E+03  0.51017838992E+03  0.14019766779E+04  0.15921656239E+04  0.12699999809E+01 0.  1.
</event>
<event>
 5   0  0.1257125E-06  0.2101868E+04  0.7818609E-02  0.8560421E-01
        3   -1    0    0  501    0  0.00000000000E+00  0.00000000000E+00  0.10047510594E+04  0.10047510645E+04  0.10100000352E+00 0.  1.
       -3   -1    0    0    0  501  0.00000000000E+00  0.00000000000E+00 -0.10992398089E+04  0.10992398136E+04  0.10100000352E+00 0. -1.
    10030    2    1    2    0    0  0.00000000000E+00  0.00000000000E+00 -0.94488749499E+02  0.21039908781E+04  0.21018680956E+04 0.  0.
        4    1    3    3  502    0 -0.91509165477E+03  0.40857673486E+02 -0.56293325719E+03  0.10751546638E+04  0.12699999809E+01 0. -1.
       -4    1    3    3    0  502  0.91509165477E+03 -0.40857673486E+02  0.46844450769E+03  0.10288362143E+04  0.12699999809E+01 0.  1.
</event>
<event>
 5   0  0.1653260E-06  0.2099606E+04  0.7818609E-02  0.8561417E-01
       -1   -1    0    0    0  501  0.00000000000E+00  0.00000000000E+00  0.88716330279E+03  0.88716330280E+03  0.50400001928E-02 0.  1.
        1   -1    0    0  501    0  0.00000000000E+00  0.00000000000E+00 -0.12422583390E+04  0.12422583390E+04  0.50400001928E-02 0. -1.
    10030    2    1    2    0    0  0.00000000000E+00  0.00000000000E+00 -0.35509503619E+03  0.21294216418E+04  0.20996056877E+04 0.  0.
        3    1    3    3  502    0  0.54023103638E+03 -0.80617005838E+03 -0.58364122620E+03  0.11324296123E+04  0.10100000352E+00 0. -1.
       -3    1    3    3    0  502 -0.54023103638E+03  0.80617005838E+03  0.22854619000E+03  0.99699202949E+03  0.10100000352E+00 0.  1.
</event>
<event>
 5   0  0.3547583E-06  0.2099957E+04  0.7818609E-02  0.8561262E-01
        2   -1    0    0  501    0  0.00000000000E+00  0.00000000000E+00  0.62125582784E+03  0.62125582785E+03  0.25500000920E-02 0.  1.
       -2   -1    0    0    0  501  0.00000000000E+00  0.00000000000E+00 -0.17745591030E+04  0.17745591030E+04  0.25500000920E-02 0. -1.
    10030    2    1    2    0    0  0.00000000000E+00  0.00000000000E+00 -0.11533032751E+04  0.23958149308E+04  0.20999573182E+04 0.  0.
        2    1    3    3  502    0 -0.12751530934E+03 -0.10411063832E+04 -0.52202553107E+03  0.11716114161E+04  0.25500000920E-02 0. -1.
       -2    1    3    3    0  502  0.12751530934E+03  0.10411063832E+04 -0.63127774406E+03  0.12242035147E+04  0.25500000920E-02 0.  1.
</event>
<event>
 5   0  0.3705828E-06  0.2096783E+04  0.7818609E-02  0.8562662E-01
        2   -1    0    0  501    0  0.00000000000E+00  0.00000000000E+00  0.10977606440E+04  0.10977606440E+04  0.25500000920E-02 0.  1.
       -2   -1    0    0    0  501  0.00000000000E+00  0.00000000000E+00 -0.10012427481E+04  0.10012427481E+04  0.25500000920E-02 0. -1.
    10030    2    1    2    0    0  0.00000000000E+00  0.00000000000E+00  0.96517895930E+02  0.20990033921E+04  0.20967831399E+04 0.  0.
        5    1    3    3  502    0  0.13470110359E+03 -0.21507378752E+03  0.10665389158E+04  0.10963249839E+04  0.46999998093E+01 0.  1.
       -5    1    3    3    0  502 -0.13470110359E+03  0.21507378752E+03 -0.97002101986E+03  0.10026784082E+04  0.46999998093E+01 0. -1.
</event>
<event>
 5   0  0.3574927E-06  0.2097062E+04  0.7818609E-02  0.8562539E-01
        2   -1    0    0  501    0  0.00000000000E+00  0.00000000000E+00  0.20306673525E+04  0.20306673525E+04  0.25500000920E-02 0. -1.
       -2   -1    0    0    0  501  0.00000000000E+00  0.00000000000E+00 -0.54140698524E+03  0.54140698525E+03  0.25500000920E-02 0.  1.
    10030    2    1    2    0    0  0.00000000000E+00  0.00000000000E+00  0.14892603672E+04  0.25720743377E+04  0.20970622207E+04 0.  0.
        3    1    3    3  502    0 -0.40798169839E+03  0.86222850563E+03  0.12785937917E+04  0.15952081860E+04  0.10100000352E+00 0. -1.
       -3    1    3    3    0  502  0.40798169839E+03 -0.86222850563E+03  0.21066657547E+03  0.97686615172E+03  0.10100000352E+00 0.  1.
</event>
<event>
 5   0  0.1579820E-06  0.2100911E+04  0.7818609E-02  0.8560842E-01
        1   -1    0    0  501    0  0.00000000000E+00  0.00000000000E+00  0.16505701786E+04  0.16505701786E+04  0.50400001928E-02 0. -1.
       -1   -1    0    0    0  501  0.00000000000E+00  0.00000000000E+00 -0.66853049582E+03  0.66853049584E+03  0.50400001928E-02 0.  1.
    10030    2    1    2    0    0  0.00000000000E+00  0.00000000000E+00  0.98203968278E+03  0.23191006744E+04  0.21009107548E+04 0.  0.
        2    1    3    3  502    0 -0.38609371173E+02  0.93567866480E+03 -0.34293630963E+02  0.93710260934E+03  0.25500000920E-02 0.  1.
       -2    1    3    3    0  502  0.38609371173E+02 -0.93567866480E+03  0.10163333137E+04  0.13819980651E+04  0.25500000920E-02 0. -1.
</event>
<event>
 5   0  0.3574927E-06  0.2100040E+04  0.7818609E-02  0.8561226E-01
       -2   -1    0    0    0  501  0.00000000000E+00  0.00000000000E+00  0.10369527121E+04  0.10369527122E+04  0.25500000920E-02 0. -1.
        2   -1    0    0  501    0  0.00000000000E+00  0.00000000000E+00 -0.10632518186E+04  0.10632518186E+04  0.25500000920E-02 0.  1.
    10030    2    1    2    0    0  0.00000000000E+00  0.00000000000E+00 -0.26299106476E+02  0.21002045308E+04  0.21000398635E+04 0.  0.
        3    1    3    3  502    0  0.80052651093E+03 -0.37748401371E+03 -0.57817612977E+03  0.10571776211E+04  0.10100000352E+00 0. -1.
       -3    1    3    3    0  502 -0.80052651093E+03  0.37748401371E+03  0.55187702329E+03  0.10430269097E+04  0.10100000352E+00 0.  1.
</event>
<event>
 5   0  0.1590067E-06  0.2101173E+04  0.7818609E-02  0.8560727E-01
        1   -1    0    0  501    0  0.00000000000E+00  0.00000000000E+00  0.10375059030E+04  0.10375059030E+04  0.50400001928E-02 0.  1.
       -1   -1    0    0    0  501  0.00000000000E+00  0.00000000000E+00 -0.10638322753E+04  0.10638322753E+04  0.50400001928E-02 0. -1.
    10030    2    1    2    0    0  0.00000000000E+00  0.00000000000E+00 -0.26326372344E+02  0.21013381783E+04  0.21011732583E+04 0.  0.
        5    1    3    3  502    0 -0.54833204706E+03 -0.60645157338E+03  0.64662993278E+03  0.10424029474E+04  0.46999998093E+01 0.  1.
       -5    1    3    3    0  502  0.54833204706E+03  0.60645157338E+03 -0.67295630512E+03  0.10589352309E+04  0.46999998093E+01 0. -1.
</event>
<event>
 5   0  0.1653260E-06  0.2099186E+04  0.7818609E-02  0.8561602E-01
        1   -1    0    0  501    0  0.00000000000E+00  0.00000000000E+00  0.11614873184E+04  0.11614873184E+04  0.50400001928E-02 0.  1.
       -1   -1    0    0    0  501  0.00000000000E+00  0.00000000000E+00 -0.94847867000E+03  0.94847867002E+03  0.50400001928E-02 0. -1.
    10030    2    1    2    0    0  0.00000000000E+00  0.00000000000E+00  0.21300864835E+03  0.21099659884E+04  0.20991864586E+04 0.  0.
        3    1    3    3  502    0  0.79182590007E+03  0.30456738259E+03  0.72765536208E+03  0.11176904235E+04  0.10100000352E+00 0.  1.
       -3    1    3    3    0  502 -0.79182590007E+03 -0.30456738259E+03 -0.51464671373E+03  0.99227556491E+03  0.10100000352E+00 0. -1.
</event>
<event>
 5   0  0.1646510E-06  0.2099704E+04  0.7818609E-02  0.8561374E-01
        1   -1    0    0  501    0  0.00000000000E+00  0.00000000000E+00  0.16158967143E+04  0.16158967143E+04  0.50400001928E-02 0. -1.
       -1   -1    0    0    0  501  0.00000000000E+00  0.00000000000E+00 -0.68209160809E+03  0.68209160810E+03  0.50400001928E-02 0.  1.
    10030    2    1    2    0    0  0.00000000000E+00  0.00000000000E+00  0.93380510625E+03  0.22979883225E+04  0.20997043491E+04 0.  0.
        4    1    3    3  502    0 -0.67010298822E+03 -0.74870404127E+02 -0.41379023504E+03  0.79111792026E+03  0.12699999809E+01 0.  1.
       -4    1    3    3    0  502  0.67010298822E+03  0.74870404127E+02  0.13475953413E+04  0.15068704022E+04  0.12699999809E+01 0. -1.
</event>
<event>
 5   0  0.3636435E-06  0.2102900E+04  0.7818609E-02  0.8559967E-01
        2   -1    0    0  501    0  0.00000000000E+00  0.00000000000E+00  0.21791180471E+04  0.21791180471E+04  0.25500000920E-02 0.  1.
       -2   -1    0    0    0  501  0.00000000000E+00  0.00000000000E+00 -0.50733673697E+03  0.50733673698E+03  0.25500000920E-02 0. -1.
    10030    2    1    2    0    0  0.00000000000E+00  0.00000000000E+00  0.16717813101E+04  0.26864547841E+04  0.21028995597E+04 0.  0.
        4    1    3    3  502    0  0.15697749031E+03 -0.14677659093E+03  0.21507604062E+04  0.21614710819E+04  0.12699999809E+01 0.  1.
       -4    1    3    3    0  502 -0.15697749031E+03  0.14677659093E+03 -0.47897909611E+03  0.52498370215E+03  0.12699999809E+01 0. -1.
</event>
<event>
 5   0  0.1646510E-06  0.2097515E+04  0.7818609E-02  0.8562339E-01
        1   -1    0    0  501    0  0.00000000000E+00  0.00000000000E+00  0.97259894256E+03  0.97259894258E+03  0.50400001928E-02 0.  1.
       -1   -1    0    0    0  501  0.00000000000E+00  0.00000000000E+00 -0.11308798746E+04  0.11308798746E+04  0.50400001928E-02 0. -1.
    10030    2    1    2    0    0  0.00000000000E+00  0.00000000000E+00 -0.15828093202E+03  0.21034788172E+04  0.20975152636E+04 0.  0.
        4    1    3    3  502    0 -0.63441346662E+03 -0.99522576966E+02  0.75237663597E+03  0.98917005879E+03  0.12699999809E+01 0.  1.
       -4    1    3    3    0  502  0.63441346662E+03  0.99522576966E+02 -0.91065756799E+03  0.11143087584E+04  0.12699999809E+01 0. -1.
</event>
<event>
 5   0  0.1257125E-06  0.2099327E+04  0.7818609E-02  0.8561540E-01
        4   -1    0    0  501    0  0.00000000000E+00  0.00000000000E+00  0.14276047856E+04  0.14276053505E+04  0.12699999809E+01 0. -1.
       -4   -1    0    0    0  501  0.00000000000E+00  0.00000000000E+00 -0.77177647153E+03  0.77177751646E+03  0.12699999809E+01 0.  1.
    10030    2    1    2    0    0  0.00000000000E+00  0.00000000000E+00  0.65582831411E+03  0.21993828670E+04  0.20993270870E+04 0.  0.
        4    1    3    3  502    0  0.46549617717E+03  0.74011748079E+03  0.93639805512E+03  0.12811336803E+04  0.12699999809E+01 0. -1.
       -4    1    3    3    0  502 -0.46549617717E+03 -0.74011748079E+03 -0.28056974102E+03  0.91824918666E+03  0.12699999809E+01 0.  1.
</event>
<event>
 5   0  0.1653260E-06  0.2100275E+04  0.7818609E-02  0.8561122E-01
        1   -1    0    0  501    0  0.00000000000E+00  0.00000000000E+00  0.20684097265E+04  0.20684097265E+04  0.50400001928E-02 0. -1.
       -1   -1    0    0    0  501  0.00000000000E+00  0.00000000000E+00 -0.53315756254E+03  0.53315756256E+03  0.50400001928E-02 0.  1.
    10030    2    1    2    0    0  0.00000000000E+00  0.00000000000E+00  0.15352521640E+04  0.26015672891E+04  0.21002745422E+04 0.  0.
        3    1    3    3  502    0 -0.52221469879E+03  0.57787531662E+03  0.16401175844E+04  0.18156634529E+04  0.10100000352E+00 0. -1.
       -3    1    3    3    0  502  0.52221469879E+03 -0.57787531662E+03 -0.10486542043E+03  0.78590383623E+03  0.10100000352E+00 0.  1.
</event>
<event>
 5   0  0.3547583E-06  0.2099855E+04  0.7818609E-02  0.8561307E-01
       -2   -1    0    0    0  501  0.00000000000E+00  0.00000000000E+00  0.16379542775E+04  0.16379542775E+04  0.25500000920E-02 0.  1.
        2   -1    0    0  501    0  0.00000000000E+00  0.00000000000E+00 -0.67300290329E+03  0.67300290329E+03  0.25500000920E-02 0. -1.
    10030    2    1    2    0    0  0.00000000000E+00  0.00000000000E+00  0.96495137421E+03  0.23109571808E+04  0.20998552181E+04 0.  0.
        2    1    3    3  502    0  0.10406702156E+04  0.48627142764E+02  0.62592055591E+03  0.12153746908E+04  0.25500000920E-02 0. -1.
       -2    1    3    3    0  502 -0.10406702156E+04 -0.48627142764E+02  0.33903081830E+03  0.10955824900E+04  0.25500000920E-02 0.  1.
</event>
<event>
 5   0  0.3636435E-06  0.2099802E+04  0.7818609E-02  0.8561330E-01
       -2   -1    0    0    0  501  0.00000000000E+00  0.00000000000E+00  0.69529181919E+03  0.69529181920E+03  0.25500000920E-02 0. -1.
        2   -1    0    0  501    0  0.00000000000E+00  0.00000000000E+00 -0.15853666220E+04  0.15853666220E+04  0.25500000920E-02 0.  1.
    10030    2    1    2    0    0  0.00000000000E+00  0.00000000000E+00 -0.89007480283E+03  0.22806584412E+04  0.20998023171E+04 0.  0.
        4    1    3    3  502    0  0.26946999546E+03  0.41917514111E+02 -0.15462252927E+04  0.15700908971E+04  0.12699999809E+01 0.  1.
       -4    1    3    3    0  502 -0.26946999546E+03 -0.41917514111E+02  0.65615048990E+03  0.71056754410E+03  0.12699999809E+01 0. -1.
</event>
<event>
 5   0  0.3547583E-06  0.2109682E+04  0.7818609E-02  0.8556990E-01
        2   -1    0    0  501    0  0.00000000000E+00  0.00000000000E+00  0.19225222247E+04  0.19225222247E+04  0.25500000920E-02 0. -1.
       -2   -1    0    0    0  501  0.00000000000E+00  0.00000000000E+00 -0.57876572013E+03  0.57876572014E+03  0.25500000920E-02 0.  1.
    10030    2    1    2    0    0  0.00000000000E+00  0.00000000000E+00  0.13437565045E+04  0.25012879448E+04  0.21096824025E+04 0.  0.
        2    1    3    3  502    0  0.19004199026E+02 -0.43862613665E+03 -0.46529175389E+03  0.63972686639E+03  0.25500000920E-02 0.  1.
       -2    1    3    3    0  502 -0.19004199026E+02  0.43862613665E+03  0.18090482584E+04  0.18615610784E+04  0.25500000920E-02 0. -1.
</event>
<event>
 5   0  0.1646510E-06  0.2099941E+04  0.7818609E-02  0.8561269E-01
        1   -1    0    0  501    0  0.00000000000E+00  0.00000000000E+00  0.19200705789E+04  0.19200705789E+04  0.50400001928E-02 0. -1.
       -1   -1    0    0    0  501  0.00000000000E+00  0.00000000000E+00 -0.57416533636E+03  0.57416533638E+03  0.50400001928E-02 0.  1.
    10030    2    1    2    0    0  0.00000000000E+00  0.00000000000E+00  0.13459052426E+04  0.24942359153E+04  0.20999409228E+04 0.  0.
        4    1    3    3  502    0 -0.33679676510E+03  0.16803863707E+03  0.18371846986E+04  0.18753448414E+04  0.12699999809E+01 0. -1.
       -4    1    3    3    0  502  0.33679676510E+03 -0.16803863707E+03 -0.49127945604E+03  0.61889107390E+03  0.12699999809E+01 0.  1.
</event>
<event>
 5   0  0.3705828E-06  0.2105171E+04  0.7818609E-02  0.8558969E-01
        2   -1    0    0  501    0  0.00000000000E+00  0.00000000000E+00  0.66909640925E+03  0.66909640926E+03  0.25500000920E-02 0. -1.
       -2   -1    0    0    0  501  0.00000000000E+00  0.00000000000E+00 -0.16558690588E+04  0.16558690588E+04  0.25500000920E-02 0.  1.
    10030    2    1    2    0    0  0.00000000000E+00  0.00000000000E+00 -0.98677264959E+03  0.23249654681E+04  0.21051708163E+04 0.  0.
        5    1    3    3  502    0  0.45112126450E+03  0.90370090881E+03 -0.16627254920E+03  0.10236475851E+04  0.46999998093E+01 0. -1.
       -5    1    3    3    0  502 -0.45112126450E+03 -0.90370090881E+03 -0.82050010040E+03  0.13013178830E+04  0.46999998093E+01 0.  1.
</event>
<event>
 5   0  0.1579820E-06  0.2100437E+04  0.7818609E-02  0.8561051E-01
        1   -1    0    0  501    0  0.00000000000E+00  0.00000000000E+00  0.21947084642E+04  0.21947084642E+04  0.50400001928E-02 0.  1.
       -1   -1    0    0    0  501  0.00000000000E+00  0.00000000000E+00 -0.50255389034E+03  0.50255389036E+03  0.50400001928E-02 0. -1.
    10030    2    1    2    0    0  0.00000000000E+00  0.00000000000E+00  0.16921545739E+04  0.26972623546E+04  0.21004373610E+04 0.  0.
        2    1    3    3  502    0  0.74478147877E+03 -0.42043977844E+03  0.63392039642E+02  0.85760574223E+03  0.25500000920E-02 0. -1.
       -2    1    3    3    0  502 -0.74478147877E+03  0.42043977844E+03  0.16287625342E+04  0.18396566123E+04  0.25500000920E-02 0.  1.
</event>
<event>
 5   0  0.1615098E-06  0.2101844E+04  0.7818609E-02  0.8560431E-01
        1   -1    0    0  501    0  0.00000000000E+00  0.00000000000E+00  0.74826745391E+03  0.74826745393E+03  0.50400001928E-02 0. -1.
       -1   -1    0    0    0  501  0.00000000000E+00  0.00000000000E+00 -0.14759927691E+04  0.14759927691E+04  0.50400001928E-02 0.  1.
    10030    2    1    2    0    0  0.00000000000E+00  0.00000000000E+00 -0.72772531518E+03  0.22242602230E+04  0.21018442867E+04 0.  0.
        1    1    3    3  502    0  0.18616960327E+03 -0.99995778312E+03 -0.84152896691E+02  0.10206156962E+04  0.50400001928E-02 0. -1.
       -1    1    3    3    0  502 -0.18616960327E+03  0.99995778312E+03 -0.64357241848E+03  0.12036445269E+04  0.50400001928E-02 0.  1.
</event>
<event>
 5   0  0.1590067E-06  0.2100026E+04  0.7818609E-02  0.8561232E-01
       -1   -1    0    0    0  501  0.00000000000E+00  0.00000000000E+00  0.11145594231E+04  0.11145594231E+04  0.50400001928E-02 0. -1.
        1   -1    0    0  501    0  0.00000000000E+00  0.00000000000E+00 -0.98920415141E+03  0.98920415143E+03  0.50400001928E-02 0.  1.
    10030    2    1    2    0    0  0.00000000000E+00  0.00000000000E+00  0.12535527164E+03  0.21037635745E+04  0.21000255316E+04 0.  0.
        5    1    3    3  502    0 -0.13236299088E+03 -0.25883925810E+02  0.11058355207E+04  0.11140395989E+04  0.46999998093E+01 0. -1.
       -5    1    3    3    0  502  0.13236299088E+03  0.25883925810E+02 -0.98048024911E+03  0.98972397559E+03  0.46999998093E+01 0.  1.
</event>
<event>
 5   0  0.1646510E-06  0.2098015E+04  0.7818609E-02  0.8562118E-01
       -1   -1    0    0    0  501  0.00000000000E+00  0.00000000000E+00  0.88064886757E+03  0.88064886759E+03  0.50400001928E-02 0. -1.
        1   -1    0    0  501    0  0.00000000000E+00  0.00000000000E+00 -0.12495526880E+04  0.12495526880E+04  0.50400001928E-02 0.  1.
    10030    2    1    2    0    0  0.00000000000E+00  0.00000000000E+00 -0.36890382043E+03  0.21302015556E+04  0.20980154048E+04 0.  0.
        4    1    3    3  502    0  0.33483367746E+03  0.15518010746E+03  0.81255998046E+03  0.89244035770E+03  0.12699999809E+01 0. -1.
       -4    1    3    3    0  502 -0.33483367746E+03 -0.15518010746E+03 -0.11814638009E+04  0.12377611979E+04  0.12699999809E+01 0.  1.
</event>
<event>
 5   0  0.3480134E-06  0.2099623E+04  0.7818609E-02  0.8561409E-01
        2   -1    0    0  501    0  0.00000000000E+00  0.00000000000E+00  0.16455778643E+04  0.16455778644E+04  0.25500000920E-02 0. -1.
       -2   -1    0    0    0  501  0.00000000000E+00  0.00000000000E+00 -0.66973713659E+03  0.66973713659E+03  0.25500000920E-02 0.  1.
    10030    2    1    2    0    0  0.00000000000E+00  0.00000000000E+00  0.97584072776E+03  0.23153150009E+04  0.20996234014E+04 0.  0.
        1    1    3    3  502    0  0.33358052055E+03 -0.99537366553E+03  0.49645559588E+03  0.11612548628E+04  0.50400001928E-02 0.  1.
       -1    1    3    3    0  502 -0.33358052055E+03  0.99537366553E+03  0.47938513188E+03  0.11540601381E+04  0.50400001928E-02 0. -1.
</event>
<event>
 5   0  0.1615098E-06  0.2098766E+04  0.7818609E-02  0.8561787E-01
       -1   -1    0    0    0  501  0.00000000000E+00  0.00000000000E+00  0.75076590151E+03  0.75076590153E+03  0.50400001928E-02 0.  1.
        1   -1    0    0  501    0  0.00000000000E+00  0.00000000000E+00 -0.14667743999E+04  0.14667743999E+04  0.50400001928E-02 0. -1.
    10030    2    1    2    0    0  0.00000000000E+00  0.00000000000E+00 -0.71600849837E+03  0.22175403014E+04  0.20987655464E+04 0.  0.
        1    1    3    3  502    0  0.79426731554E+03 -0.66043484786E+03 -0.55331519169E+03  0.11718329481E+04  0.50400001928E-02 0. -1.
       -1    1    3    3    0  502 -0.79426731554E+03  0.66043484786E+03 -0.16269330667E+03  0.10457073534E+04  0.50400001928E-02 0.  1.
</event>
<event>
 5   0  0.3574927E-06  0.2099029E+04  0.7818609E-02  0.8561671E-01
       -2   -1    0    0    0  501  0.00000000000E+00  0.00000000000E+00  0.51013167169E+03  0.51013167170E+03  0.25500000920E-02 0. -1.
        2   -1    0    0  501    0  0.00000000000E+00  0.00000000000E+00 -0.21592092288E+04  0.21592092288E+04  0.25500000920E-02 0.  1.
    10030    2    1    2    0    0  0.00000000000E+00  0.00000000000E+00 -0.16490775571E+04  0.26693409005E+04  0.20990293123E+04 0.  0.
        3    1    3    3  502    0 -0.36514836788E+03 -0.76030859448E+03 -0.16187966950E+04  0.18253507168E+04  0.10100000352E+00 0.  1.
       -3    1    3    3    0  502  0.36514836788E+03  0.76030859448E+03 -0.30280862142E+02  0.84399018372E+03  0.10100000352E+00 0. -1.
</event>
<event>
 5   0  0.3480134E-06  0.2099955E+04  0.7818609E-02  0.8561263E-01
       -2   -1    0    0    0  501  0.00000000000E+00  0.00000000000E+00  0.67593341528E+03  0.67593341528E+03  0.25500000920E-02 0. -1.
        2   -1    0    0  501    0  0.00000000000E+00  0.00000000000E+00 -0.16310073631E+04  0.16310073631E+04  0.25500000920E-02 0.  1.
    10030    2    1    2    0    0  0.00000000000E+00  0.00000000000E+00 -0.95507394777E+03  0.23069407783E+04  0.20999546445E+04 0.  0.
        1    1    3    3  502    0  0.51695914405E+03  0.32517962323E+03  0.46073428514E+03  0.76502589859E+03  0.50400001928E-02 0. -1.
       -1    1    3    3    0  502 -0.51695914405E+03 -0.32517962323E+03 -0.14158082329E+04  0.15419148798E+04  0.50400001928E-02 0.  1.
</event>
<event>
 5   0  0.3480134E-06  0.2099901E+04  0.7818609E-02  0.8561287E-01
        2   -1    0    0  501    0  0.00000000000E+00  0.00000000000E+00  0.17969934998E+04  0.17969934998E+04  0.25500000920E-02 0. -1.
       -2   -1    0    0    0  501  0.00000000000E+00  0.00000000000E+00 -0.61346709170E+03  0.61346709170E+03  0.25500000920E-02 0.  1.
    10030    2    1    2    0    0  0.00000000000E+00  0.00000000000E+00  0.11835264081E+04  0.24104605915E+04  0.20999013083E+04 0.  0.
        1    1    3    3  502    0 -0.22003502365E+02  0.99196717327E+03  0.19759404662E+03  0.10116948326E+04  0.50400001928E-02 0.  1.
       -1    1    3    3    0  502  0.22003502365E+02 -0.99196717327E+03  0.98593236150E+03  0.13987657590E+04  0.50400001928E-02 0. -1.
</event>
<event>
 5   0  0.3705828E-06  0.2098439E+04  0.7818609E-02  0.8561931E-01
        2   -1    0    0  501    0  0.00000000000E+00  0.00000000000E+00  0.16520328151E+04  0.16520328151E+04  0.25500000920E-02 0. -1.
       -2   -1    0    0    0  501  0.00000000000E+00  0.00000000000E+00 -0.66636766648E+03  0.66636766648E+03  0.25500000920E-02 0.  1.
    10030    2    1    2    0    0  0.00000000000E+00  0.00000000000E+00  0.98566514861E+03  0.23184004816E+04  0.20984387072E+04 0.  0.
        5    1    3    3  502    0  0.42419157282E+03  0.13980166101E+03  0.15417477941E+04  0.16051452724E+04  0.46999998093E+01 0. -1.
       -5    1    3    3    0  502 -0.42419157282E+03 -0.13980166101E+03 -0.55608264547E+03  0.71325520920E+03  0.46999998093E+01 0.  1.
</event>
<event>
 5   0  0.1590067E-06  0.2100111E+04  0.7818609E-02  0.8561195E-01
       -1   -1    0    0    0  501  0.00000000000E+00  0.00000000000E+00  0.55480720550E+03  0.55480720552E+03  0.50400001928E-02 0.  1.
        1   -1    0    0  501    0  0.00000000000E+00  0.00000000000E+00 -0.19873859393E+04  0.19873859393E+04  0.50400001928E-02 0. -1.
    10030    2    1    2    0    0  0.00000000000E+00  0.00000000000E+00 -0.14325787338E+04  0.25421931449E+04  0.21001105107E+04 0.  0.
        5    1    3    3  502    0  0.36657087629E+03  0.15628235292E+03  0.45970532537E+03  0.60839909381E+03  0.46999998093E+01 0.  1.
       -5    1    3    3    0  502 -0.36657087629E+03 -0.15628235292E+03 -0.18922840592E+04  0.19337940511E+04  0.46999998093E+01 0. -1.
</event>
<event>
 5   0  0.3574927E-06  0.2104620E+04  0.7818609E-02  0.8559211E-01
        2   -1    0    0  501    0  0.00000000000E+00  0.00000000000E+00  0.11020179264E+04  0.11020179264E+04  0.25500000920E-02 0.  1.
       -2   -1    0    0    0  501  0.00000000000E+00  0.00000000000E+00 -0.10048444147E+04  0.10048444147E+04  0.25500000920E-02 0. -1.
    10030    2    1    2    0    0  0.00000000000E+00  0.00000000000E+00  0.97173511704E+02  0.21068623412E+04  0.21046202112E+04 0.  0.
        3    1    3    3  502    0  0.43364072283E+03  0.46551061180E+03 -0.79052585692E+03  0.10147292973E+04  0.10100000352E+00 0. -1.
       -3    1    3    3    0  502 -0.43364072283E+03 -0.46551061180E+03  0.88769936862E+03  0.10921330438E+04  0.10100000352E+00 0.  1.
</event>
<event>
 5   0  0.1579820E-06  0.2099307E+04  0.7818609E-02  0.8561549E-01
       -1   -1    0    0    0  501  0.00000000000E+00  0.00000000000E+00  0.10869135936E+04  0.10869135936E+04  0.50400001928E-02 0.  1.
        1   -1    0    0  501    0  0.00000000000E+00  0.00000000000E+00 -0.10136706651E+04  0.10136706652E+04  0.50400001928E-02 0. -1.
    10030    2    1    2    0    0  0.00000000000E+00  0.00000000000E+00  0.73242928487E+02  0.21005842588E+04  0.20993069575E+04 0.  0.
        2    1    3    3  502    0  0.43892403944E+03  0.18901581959E+03  0.97174405923E+03  0.10828978757E+04  0.25500000920E-02 0.  1.
       -2    1    3    3    0  502 -0.43892403944E+03 -0.18901581959E+03 -0.89850113075E+03  0.10176863831E+04  0.25500000920E-02 0. -1.
</event>
<event>
 5   0  0.1615098E-06  0.2100238E+04  0.7818609E-02  0.8561138E-01
       -1   -1    0    0    0  501  0.00000000000E+00  0.00000000000E+00  0.12560784940E+04  0.12560784940E+04  0.50400001928E-02 0.  1.
        1   -1    0    0  501    0  0.00000000000E+00  0.00000000000E+00 -0.87793112228E+03  0.87793112230E+03  0.50400001928E-02 0. -1.
    10030    2    1    2    0    0  0.00000000000E+00  0.00000000000E+00  0.37814737175E+03  0.21340096163E+04  0.21002384645E+04 0.  0.
        1    1    3    3  502    0 -0.77120781023E+03  0.71170074426E+03  0.22804356702E+03  0.10739102870E+04  0.50400001928E-02 0. -1.
       -1    1    3    3    0  502  0.77120781023E+03 -0.71170074426E+03  0.15010380473E+03  0.10600993294E+04  0.50400001928E-02 0.  1.
</event>
<event>
 5   0  0.1653260E-06  0.2098171E+04  0.7818609E-02  0.8562049E-01
       -1   -1    0    0    0  501  0.00000000000E+00  0.00000000000E+00  0.15131544892E+04  0.15131544892E+04  0.50400001928E-02 0.  1.
        1   -1    0    0  501    0  0.00000000000E+00  0.00000000000E+00 -0.72734198055E+03  0.72734198057E+03  0.50400001928E-02 0. -1.
    10030    2    1    2    0    0  0.00000000000E+00  0.00000000000E+00  0.78581250863E+03  0.22404964698E+04  0.20981713782E+04 0.  0.
        3    1    3    3  502    0 -0.84342226731E+03 -0.55690713449E+02 -0.27062814078E+03  0.88752587418E+03  0.10100000352E+00 0. -1.
       -3    1    3    3    0  502  0.84342226731E+03  0.55690713449E+02  0.10564406494E+04  0.13529705956E+04  0.10100000352E+00 0.  1.
</event>
<event>
 5   0  0.1653260E-06  0.2099979E+04  0.7818609E-02  0.8561252E-01
        1   -1    0    0  501    0  0.00000000000E+00  0.00000000000E+00  0.78966118335E+03  0.78966118336E+03  0.50400001928E-02 0. -1.
       -1   -1    0    0    0  501  0.00000000000E+00  0.00000000000E+00 -0.13961409302E+04  0.13961409302E+04  0.50400001928E-02 0.  1.
    10030    2    1    2    0    0  0.00000000000E+00  0.00000000000E+00 -0.60647974684E+03  0.21858021136E+04  0.20999793324E+04 0.  0.
        3    1    3    3  502    0  0.50947068680E+03 -0.51660080477E+01 -0.12588518547E+04  0.13580482578E+04  0.10100000352E+00 0.  1.
       -3    1    3    3    0  502 -0.50947068680E+03  0.51660080477E+01  0.65237210786E+03  0.82775385572E+03  0.10100000352E+00 0. -1.
</event>
<event>
 5   0  0.3547583E-06  0.2100033E+04  0.7818609E-02  0.8561229E-01
        2   -1    0    0  501    0  0.00000000000E+00  0.00000000000E+00  0.15976798850E+04  0.15976798850E+04  0.25500000920E-02 0.  1.
       -2   -1    0    0    0  501  0.00000000000E+00  0.00000000000E+00 -0.69008459058E+03  0.69008459059E+03  0.25500000920E-02 0. -1.
    10030    2    1    2    0    0  0.00000000000E+00  0.00000000000E+00  0.90759529437E+03  0.22877644755E+04  0.21000326372E+04 0.  0.
        2    1    3    3  502    0  0.94567562246E+03  0.44011101751E+03  0.58513265813E+03  0.11959850828E+04  0.25500000920E-02 0.  1.
       -2    1    3    3    0  502 -0.94567562246E+03 -0.44011101751E+03  0.32246263624E+03  0.10917793927E+04  0.25500000920E-02 0. -1.
</event>
<event>
 5   0  0.1590067E-06  0.2099019E+04  0.7818609E-02  0.8561675E-01
        1   -1    0    0  501    0  0.00000000000E+00  0.00000000000E+00  0.12654349365E+04  0.12654349365E+04  0.50400001928E-02 0. -1.
       -1   -1    0    0    0  501  0.00000000000E+00  0.00000000000E+00 -0.87042844002E+03  0.87042844003E+03  0.50400001928E-02 0.  1.
    10030    2    1    2    0    0  0.00000000000E+00  0.00000000000E+00  0.39500649651E+03  0.21358633766E+04  0.20990193499E+04 0.  0.
        5    1    3    3  502    0  0.97350072006E+03  0.38401699285E+03  0.27811351605E+03  0.10828397483E+04  0.46999998093E+01 0.  1.
       -5    1    3    3    0  502 -0.97350072006E+03 -0.38401699285E+03  0.11689298046E+03  0.10530236282E+04  0.46999998093E+01 0. -1.
</event>
<event>
 5   0  0.3705828E-06  0.2100378E+04  0.7818609E-02  0.8561077E-01
        2   -1    0    0  501    0  0.00000000000E+00  0.00000000000E+00  0.12668792756E+04  0.12668792756E+04  0.25500000920E-02 0. -1.
       -2   -1    0    0    0  501  0.00000000000E+00  0.00000000000E+00 -0.87056233530E+03  0.87056233530E+03  0.25500000920E-02 0.  1.
    10030    2    1    2    0    0  0.00000000000E+00  0.00000000000E+00  0.39631694035E+03  0.21374416109E+04  0.21003784238E+04 0.  0.
        5    1    3    3  502    0  0.35141915697E+03 -0.97789758482E+03  0.35281447735E+03  0.10973965809E+04  0.46999998093E+01 0.  1.
       -5    1    3    3    0  502 -0.35141915697E+03  0.97789758482E+03  0.43502462993E+02  0.10400450301E+04  0.46999998093E+01 0. -1.
</event>
<event>
 5   0  0.1579820E-06  0.2089238E+04  0.7818609E-02  0.8565999E-01
        1   -1    0    0  501    0  0.00000000000E+00  0.00000000000E+00  0.12097639191E+04  0.12097639191E+04  0.50400001928E-02 0. -1.
       -1   -1    0    0    0  501  0.00000000000E+00  0.00000000000E+00 -0.90201772812E+03  0.90201772814E+03  0.50400001928E-02 0.  1.
    10030    2    1    2    0    0  0.00000000000E+00  0.00000000000E+00  0.30774619096E+03  0.21117816472E+04  0.20892376618E+04 0.  0.
        2    1    3    3  502    0  0.57443052466E+03  0.64764874601E+03  0.74482620725E+03  0.11420093716E+04  0.25500000920E-02 0.  1.
       -2    1    3    3    0  502 -0.57443052466E+03 -0.64764874601E+03 -0.43708001629E+03  0.96977227560E+03  0.25500000920E-02 0. -1.
</event>
<event>
 5   0  0.1579820E-06  0.2108744E+04  0.7818609E-02  0.8557401E-01
       -1   -1    0    0    0  501  0.00000000000E+00  0.00000000000E+00  0.63258231479E+03  0.63258231481E+03  0.50400001928E-02 0. -1.
        1   -1    0    0  501    0  0.00000000000E+00  0.00000000000E+00 -0.17574008071E+04  0.17574008071E+04  0.50400001928E-02 0.  1.
    10030    2    1    2    0    0  0.00000000000E+00  0.00000000000E+00 -0.11248184923E+04  0.23899831219E+04  0.21087443379E+04 0.  0.
        2    1    3    3  502    0 -0.60105265224E+03 -0.43182954853E+03 -0.14135373078E+04  0.15955653451E+04  0.25500000920E-02 0.  1.
       -2    1    3    3    0  502  0.60105265224E+03  0.43182954853E+03  0.28871881552E+03  0.79441777686E+03  0.25500000920E-02 0. -1.
</event>
<event>
 5   0  0.1615098E-06  0.2106010E+04  0.7818609E-02  0.8558601E-01
        1   -1    0    0  501    0  0.00000000000E+00  0.00000000000E+00  0.89655842327E+03  0.89655842328E+03  0.50400001928E-02 0. -1.
       -1   -1    0    0    0  501  0.00000000000E+00  0.00000000000E+00 -0.12367505991E+04  0.12367505991E+04  0.50400001928E-02 0.  1.
    10030    2    1    2    0    0  0.00000000000E+00  0.00000000000E+00 -0.34019217585E+03  0.21333090224E+04  0.21060096554E+04 0.  0.
        1    1    3    3  502    0  0.86036103682E+03 -0.54578772407E+03  0.99271627035E+02  0.10236992768E+04  0.50400001928E-02 0. -1.
       -1    1    3    3    0  502 -0.86036103682E+03  0.54578772407E+03 -0.43946380289E+03  0.11096097456E+04  0.50400001928E-02 0.  1.
</event>
<event>
 5   0  0.1579820E-06  0.2099964E+04  0.7818609E-02  0.8561259E-01
        1   -1    0    0  501    0  0.00000000000E+00  0.00000000000E+00  0.10390798701E+04  0.10390798701E+04  0.50400001928E-02 0.  1.
       -1   -1    0    0    0  501  0.00000000000E+00  0.00000000000E+00 -0.10609986400E+04  0.10609986400E+04  0.50400001928E-02 0. -1.
    10030    2    1    2    0    0  0.00000000000E+00  0.00000000000E+00 -0.21918769877E+02  0.21000785101E+04  0.20999641226E+04 0.  0.
        2    1    3    3  502    0 -0.58000642339E+03 -0.87510232170E+03  0.48782832299E+01  0.10498739554E+04  0.25500000920E-02 0.  1.
       -2    1    3    3    0  502  0.58000642339E+03  0.87510232170E+03 -0.26797053107E+02  0.10502045547E+04  0.25500000920E-02 0. -1.
</event>
<event>
 5   0  0.3480134E-06  0.2104985E+04  0.7818609E-02  0.8559051E-01
       -2   -1    0    0    0  501  0.00000000000E+00  0.00000000000E+00  0.80776388892E+03  0.80776388892E+03  0.25500000920E-02 0. -1.
        2   -1    0    0  501    0  0.00000000000E+00  0.00000000000E+00 -0.13713664867E+04  0.13713664867E+04  0.25500000920E-02 0.  1.
    10030    2    1    2    0    0  0.00000000000E+00  0.00000000000E+00 -0.56360259781E+03  0.21791303757E+04  0.21049848707E+04 0.  0.
        1    1    3    3  502    0 -0.19802535483E+03  0.93387741083E+03  0.17697837341E+03  0.97090803081E+03  0.50400001928E-02 0. -1.
       -1    1    3    3    0  502  0.19802535483E+03 -0.93387741083E+03 -0.74058097122E+03  0.12082223448E+04  0.50400001928E-02 0.  1.
</event>
<event>
 5   0  0.3480134E-06  0.2099414E+04  0.7818609E-02  0.8561502E-01
       -2   -1    0    0    0  501  0.00000000000E+00  0.00000000000E+00  0.12757573077E+04  0.12757573077E+04  0.25500000920E-02 0. -1.
        2   -1    0    0  501    0  0.00000000000E+00  0.00000000000E+00 -0.86371034030E+03  0.86371034031E+03  0.25500000920E-02 0.  1.
    10030    2    1    2    0    0  0.00000000000E+00  0.00000000000E+00  0.41204696739E+03  0.21394676480E+04  0.20994139929E+04 0.  0.
        1    1    3    3  502    0 -0.60915281308E+02  0.57122880789E+02 -0.86031985954E+03  0.86436332392E+03  0.50400001928E-02 0.  1.
       -1    1    3    3    0  502  0.60915281308E+02 -0.57122880789E+02  0.12723668269E+04  0.12751043241E+04  0.50400001928E-02 0. -1.
</event>
<event>
 5   0  0.1257125E-06  0.2102745E+04  0.7818609E-02  0.8560035E-01
       -3   -1    0    0    0  501  0.00000000000E+00  0.00000000000E+00  0.91938541460E+03  0.91938542015E+03  0.10100000352E+00 0.  1.
        3   -1    0    0  501    0  0.00000000000E+00  0.00000000000E+00 -0.12023075405E+04  0.12023075448E+04  0.10100000352E+00 0. -1.
    10030    2    1    2    0    0  0.00000000000E+00  0.00000000000E+00 -0.28292212592E+03  0.21216929649E+04  0.21027448985E+04 0.  0.
        1    1    3    3  502    0  0.35041849064E+03 -0.45999740870E+03  0.74451349001E+03  0.94270412719E+03  0.50400001928E-02 0.  1.
       -1    1    3    3    0  502 -0.35041849064E+03  0.45999740870E+03 -0.10274356159E+04  0.11789888377E+04  0.50400001928E-02 0. -1.
</event>
<event>
 5   0  0.1646510E-06  0.2099918E+04  0.7818609E-02  0.8561279E-01
       -1   -1    0    0    0  501  0.00000000000E+00  0.00000000000E+00  0.72667881060E+03  0.72667881062E+03  0.50400001928E-02 0. -1.
        1   -1    0    0  501    0  0.00000000000E+00  0.00000000000E+00 -0.15170581182E+04  0.15170581182E+04  0.50400001928E-02 0.  1.
    10030    2    1    2    0    0  0.00000000000E+00  0.00000000000E+00 -0.79037930760E+03  0.22437369288E+04  0.20999180831E+04 0.  0.
        4    1    3    3  502    0 -0.98737877167E+03 -0.23338123884E+03 -0.10644332548E+03  0.10201546137E+04  0.12699999809E+01 0. -1.
       -4    1    3    3    0  502  0.98737877167E+03  0.23338123884E+03 -0.68393598211E+03  0.12235823151E+04  0.12699999809E+01 0.  1.
</event>
<event>
 5   0  0.3705828E-06  0.2100117E+04  0.7818609E-02  0.8561192E-01
        2   -1    0    0  501    0  0.00000000000E+00  0.00000000000E+00  0.10208109243E+04  0.10208109243E+04  0.25500000920E-02 0. -1.
       -2   -1    0    0    0  501  0.00000000000E+00  0.00000000000E+00 -0.10801440686E+04  0.10801440686E+04  0.25500000920E-02 0.  1.
    10030    2    1    2    0    0  0.00000000000E+00  0.00000000000E+00 -0.59333144246E+02  0.21009549929E+04  0.21001170111E+04 0.  0.
        5    1    3    3  502    0  0.95526460766E+03  0.14311057574E+03 -0.44164355299E+03  0.10621121529E+04  0.46999998093E+01 0.  1.
       -5    1    3    3    0  502 -0.95526460766E+03 -0.14311057574E+03  0.38231040874E+03  0.10388428400E+04  0.46999998093E+01 0. -1.
</event>
<event>
 5   0  0.1590067E-06  0.2100229E+04  0.7818609E-02  0.8561143E-01
       -1   -1    0    0    0  501  0.00000000000E+00  0.00000000000E+00  0.99208086033E+03  0.99208086034E+03  0.50400001928E-02 0. -1.
        1   -1    0    0  501    0  0.00000000000E+00  0.00000000000E+00 -0.11115428581E+04  0.11115428581E+04  0.50400001928E-02 0.  1.
    10030    2    1    2    0    0  0.00000000000E+00  0.00000000000E+00 -0.11946199772E+03  0.21036237184E+04  0.21002289351E+04 0.  0.
        5    1    3    3  502    0 -0.11188518370E+03  0.72009436066E+03 -0.81703785686E+03  0.10948183101E+04  0.46999998093E+01 0.  1.
       -5    1    3    3    0  502  0.11188518370E+03 -0.72009436066E+03  0.69757585914E+03  0.10088054083E+04  0.46999998093E+01 0. -1.
</event>
<event>
 5   0  0.1579820E-06  0.2100010E+04  0.7818609E-02  0.8561239E-01
        1   -1    0    0  501    0  0.00000000000E+00  0.00000000000E+00  0.13847596396E+04  0.13847596396E+04  0.50400001928E-02 0. -1.
       -1   -1    0    0    0  501  0.00000000000E+00  0.00000000000E+00 -0.79617435646E+03  0.79617435647E+03  0.50400001928E-02 0.  1.
    10030    2    1    2    0    0  0.00000000000E+00  0.00000000000E+00  0.58858528316E+03  0.21809339961E+04  0.21000096333E+04 0.  0.
        2    1    3    3  502    0 -0.54404464750E+03 -0.79966578856E+03 -0.13018780137E+03  0.97590922503E+03  0.25500000920E-02 0.  1.
       -2    1    3    3    0  502  0.54404464750E+03  0.79966578856E+03  0.71877308453E+03  0.12050247711E+04  0.25500000920E-02 0. -1.
</event>
<event>
 5   0  0.3705828E-06  0.2099501E+04  0.7818609E-02  0.8561463E-01
       -2   -1    0    0    0  501  0.00000000000E+00  0.00000000000E+00  0.67003212494E+03  0.67003212495E+03  0.25500000920E-02 0.  1.
        2   -1    0    0  501    0  0.00000000000E+00  0.00000000000E+00 -0.16446620942E+04  0.16446620942E+04  0.25500000920E-02 0. -1.
    10030    2    1    2    0    0  0.00000000000E+00  0.00000000000E+00 -0.97462996925E+03  0.23146942191E+04  0.20995013101E+04 0.  0.
        5    1    3    3  502    0 -0.23234221340E+03  0.47779452404E+03 -0.14854761351E+04  0.15776349227E+04  0.46999998093E+01 0. -1.
       -5    1    3    3    0  502  0.23234221340E+03 -0.47779452404E+03  0.51084616585E+03  0.73705929646E+03  0.46999998093E+01 0.  1.
</event>
<event>
 5   0  0.3480134E-06  0.2099821E+04  0.7818609E-02  0.8561322E-01
       -2   -1    0    0    0  501  0.00000000000E+00  0.00000000000E+00  0.10621059638E+04  0.10621059638E+04  0.25500000920E-02 0.  1.
        2   -1    0    0  501    0  0.00000000000E+00  0.00000000000E+00 -0.10378547449E+04  0.10378547449E+04  0.25500000920E-02 0. -1.
    10030    2    1    2    0    0  0.00000000000E+00  0.00000000000E+00  0.24251218904E+02  0.20999607087E+04  0.20998206725E+04 0.  0.
        1    1    3    3  502    0 -0.93653272864E+03  0.41580799122E+03  0.24088062167E+03  0.10526221123E+04  0.50400001928E-02 0.  1.
       -1    1    3    3    0  502  0.93653272864E+03 -0.41580799122E+03 -0.21662940276E+03  0.10473385964E+04  0.50400001928E-02 0. -1.
</event>
<event>
 5   0  0.1579820E-06  0.2099374E+04  0.7818609E-02  0.8561519E-01
       -1   -1    0    0    0  501  0.00000000000E+00  0.00000000000E+00  0.52178712553E+03  0.52178712555E+03  0.50400001928E-02 0.  1.
        1   -1    0    0  501    0  0.00000000000E+00  0.00000000000E+00 -0.21116715563E+04  0.21116715563E+04  0.50400001928E-02 0. -1.
    10030    2    1    2    0    0  0.00000000000E+00  0.00000000000E+00 -0.15898844308E+04  0.26334586819E+04  0.20993742224E+04 0.  0.
        2    1    3    3  502    0 -0.46443268690E+03 -0.39391566444E+01 -0.19757666134E+04  0.20296223659E+04  0.25500000920E-02 0. -1.
       -2    1    3    3    0  502  0.46443268690E+03  0.39391566444E+01  0.38588218261E+03  0.60383631596E+03  0.25500000920E-02 0.  1.
</event>
<event>
 5   0  0.1590067E-06  0.2100655E+04  0.7818609E-02  0.8560955E-01
       -1   -1    0    0    0  501  0.00000000000E+00  0.00000000000E+00  0.53572212412E+03  0.53572212414E+03  0.50400001928E-02 0.  1.
        1   -1    0    0  501    0  0.00000000000E+00  0.00000000000E+00 -0.20592536619E+04  0.20592536619E+04  0.50400001928E-02 0. -1.
    10030    2    1    2    0    0  0.00000000000E+00  0.00000000000E+00 -0.15235315378E+04  0.25949757860E+04  0.21006548940E+04 0.  0.
        5    1    3    3  502    0 -0.53979077458E+02  0.48031117994E+03  0.39016571892E+03  0.62117948179E+03  0.46999998093E+01 0.  1.
       -5    1    3    3    0  502  0.53979077458E+02 -0.48031117994E+03 -0.19136972567E+04  0.19737963042E+04  0.46999998093E+01 0. -1.
</event>
<event>
 5   0  0.1653260E-06  0.2100597E+04  0.7818609E-02  0.8560981E-01
        1   -1    0    0  501    0  0.00000000000E+00  0.00000000000E+00  0.15099013292E+04  0.15099013292E+04  0.50400001928E-02 0. -1.
       -1   -1    0    0    0  501  0.00000000000E+00  0.00000000000E+00 -0.73059521714E+03  0.73059521716E+03  0.50400001928E-02 0.  1.
    10030    2    1    2    0    0  0.00000000000E+00  0.00000000000E+00  0.77930611204E+03  0.22404965463E+04  0.21005967623E+04 0.  0.
        3    1    3    3  502    0 -0.99538897090E+03 -0.12991585262E+03  0.71917782795E+03  0.12348660213E+04  0.10100000352E+00 0. -1.
       -3    1    3    3    0  502  0.99538897090E+03  0.12991585262E+03  0.60128284086E+02  0.10056305250E+04  0.10100000352E+00 0.  1.
</event>
<event>
 5   0  0.1653260E-06  0.2099599E+04  0.7818609E-02  0.8561420E-01
        1   -1    0    0  501    0  0.00000000000E+00  0.00000000000E+00  0.75614213380E+03  0.75614213382E+03  0.50400001928E-02 0.  1.
       -1   -1    0    0    0  501  0.00000000000E+00  0.00000000000E+00 -0.14575029681E+04  0.14575029681E+04  0.50400001928E-02 0. -1.
    10030    2    1    2    0    0  0.00000000000E+00  0.00000000000E+00 -0.70136083425E+03  0.22136451019E+04  0.20995993945E+04 0.  0.
        3    1    3    3  502    0  0.26376358552E+03 -0.82961515258E+03  0.26791479178E+03  0.91082977350E+03  0.10100000352E+00 0.  1.
       -3    1    3    3    0  502 -0.26376358552E+03  0.82961515258E+03 -0.96927562603E+03  0.13028153284E+04  0.10100000352E+00 0. -1.
</event>
<event>
 5   0  0.1590067E-06  0.2099826E+04  0.7818609E-02  0.8561320E-01
        1   -1    0    0  501    0  0.00000000000E+00  0.00000000000E+00  0.82967139695E+03  0.82967139696E+03  0.50400001928E-02 0. -1.
       -1   -1    0    0    0  501  0.00000000000E+00  0.00000000000E+00 -0.13286191109E+04  0.13286191109E+04  0.50400001928E-02 0.  1.
    10030    2    1    2    0    0  0.00000000000E+00  0.00000000000E+00 -0.49894771392E+03  0.21582905078E+04  0.20998259678E+04 0.  0.
        5    1    3    3  502    0 -0.10084917009E+04  0.10454806187E+03 -0.52966113049E+03  0.11439181837E+04  0.46999998093E+01 0.  1.
       -5    1    3    3    0  502  0.10084917009E+04 -0.10454806187E+03  0.30713416575E+02  0.10143723241E+04  0.46999998093E+01 0. -1.
</event>
<event>
 5   0  0.1646510E-06  0.2099798E+04  0.7818609E-02  0.8561332E-01
        1   -1    0    0  501    0  0.00000000000E+00  0.00000000000E+00  0.11296423309E+04  0.11296423309E+04  0.50400001928E-02 0.  1.
       -1   -1    0    0    0  501  0.00000000000E+00  0.00000000000E+00 -0.97578512447E+03  0.97578512448E+03  0.50400001928E-02 0. -1.
    10030    2    1    2    0    0  0.00000000000E+00  0.00000000000E+00  0.15385720647E+03  0.21054274554E+04  0.20997982594E+04 0.  0.
        4    1    3    3  502    0  0.88133696612E+03  0.23228554730E+03  0.59945438256E+03  0.10908980672E+04  0.12699999809E+01 0.  1.
       -4    1    3    3    0  502 -0.88133696612E+03 -0.23228554730E+03 -0.44559717609E+03  0.10145293882E+04  0.12699999809E+01 0. -1.
</event>
<event>
 5   0  0.1590067E-06  0.2083914E+04  0.7818609E-02  0.8568363E-01
        1   -1    0    0  501    0  0.00000000000E+00  0.00000000000E+00  0.86926438019E+03  0.86926438021E+03  0.50400001928E-02 0.  1.
       -1   -1    0    0    0  501  0.00000000000E+00  0.00000000000E+00 -0.12489580807E+04  0.12489580807E+04  0.50400001928E-02 0. -1.
    10030    2    1    2    0    0  0.00000000000E+00  0.00000000000E+00 -0.37969370049E+03  0.21182224609E+04  0.20839143667E+04 0.  0.
        5    1    3    3  502    0  0.61431666176E+03 -0.63146598663E+03  0.37565620563E+03  0.95774418715E+03  0.46999998093E+01 0.  1.
       -5    1    3    3    0  502 -0.61431666176E+03  0.63146598663E+03 -0.75534990612E+03  0.11604782738E+04  0.46999998093E+01 0. -1.
</event>
<event>
 5   0  0.3636435E-06  0.2101709E+04  0.7818609E-02  0.8560491E-01
       -2   -1    0    0    0  501  0.00000000000E+00  0.00000000000E+00  0.47863404095E+03  0.47863404095E+03  0.25500000920E-02 0.  1.
        2   -1    0    0  501    0  0.00000000000E+00  0.00000000000E+00 -0.23071806303E+04  0.23071806303E+04  0.25500000920E-02 0. -1.
    10030    2    1    2    0    0  0.00000000000E+00  0.00000000000E+00 -0.18285465893E+04  0.27858146712E+04  0.21017090077E+04 0.  0.
        4    1    3    3  502    0 -0.72231241541E+03 -0.37783644869E+03 -0.35238138002E+02  0.81592827300E+03  0.12699999809E+01 0.  1.
       -4    1    3    3    0  502  0.72231241541E+03  0.37783644869E+03 -0.17933084513E+04  0.19698863982E+04  0.12699999809E+01 0. -1.
</event>
<event>
 5   0  0.1590067E-06  0.2097063E+04  0.7818609E-02  0.8562538E-01
       -1   -1    0    0    0  501  0.00000000000E+00  0.00000000000E+00  0.86343984423E+03  0.86343984424E+03  0.50400001928E-02 0.  1.
        1   -1    0    0  501    0  0.00000000000E+00  0.00000000000E+00 -0.12733001755E+04  0.12733001756E+04  0.50400001928E-02 0. -1.
    10030    2    1    2    0    0  0.00000000000E+00  0.00000000000E+00 -0.40986033132E+03  0.21367400198E+04  0.20970628081E+04 0.  0.
        5    1    3    3  502    0 -0.89584515793E+03 -0.59043860399E+02 -0.75681575241E+03  0.11742303426E+04  0.46999998093E+01 0. -1.
       -5    1    3    3    0  502  0.89584515793E+03  0.59043860399E+02  0.34695542109E+03  0.96250967718E+03  0.46999998093E+01 0.  1.
</event>
<event>
 5   0  0.3574927E-06  0.2100878E+04  0.7818609E-02  0.8560857E-01
       -2   -1    0    0    0  501  0.00000000000E+00  0.00000000000E+00  0.10067268276E+04  0.10067268276E+04  0.25500000920E-02 0. -1.
        2   -1    0    0  501    0  0.00000000000E+00  0.00000000000E+00 -0.10960487640E+04  0.10960487640E+04  0.25500000920E-02 0.  1.
    10030    2    1    2    0    0  0.00000000000E+00  0.00000000000E+00 -0.89321936391E+02  0.21027755916E+04  0.21008776215E+04 0.  0.
        3    1    3    3  502    0  0.28430871286E+03 -0.84247638185E+03 -0.60447277869E+03  0.10751675444E+04  0.10100000352E+00 0.  1.
       -3    1    3    3    0  502 -0.28430871286E+03  0.84247638185E+03  0.51515084230E+03  0.10276080472E+04  0.10100000352E+00 0. -1.
</event>
<event>
 5   0  0.3574927E-06  0.2100848E+04  0.7818609E-02  0.8560870E-01
        2   -1    0    0  501    0  0.00000000000E+00  0.00000000000E+00  0.18249166550E+04  0.18249166550E+04  0.25500000920E-02 0. -1.
       -2   -1    0    0    0  501  0.00000000000E+00  0.00000000000E+00 -0.60462491936E+03  0.60462491936E+03  0.25500000920E-02 0.  1.
    10030    2    1    2    0    0  0.00000000000E+00  0.00000000000E+00  0.12202917357E+04  0.24295415744E+04  0.21008475293E+04 0.  0.
        3    1    3    3  502    0  0.31139111374E+02 -0.81286496406E+02  0.18207384609E+04  0.18228180633E+04  0.10100000352E+00 0. -1.
       -3    1    3    3    0  502 -0.31139111374E+02  0.81286496406E+02 -0.60044672527E+03  0.60672351103E+03  0.10100000352E+00 0.  1.
</event>
<event>
 5   0  0.1579820E-06  0.2099628E+04  0.7818609E-02  0.8561407E-01
       -1   -1    0    0    0  501  0.00000000000E+00  0.00000000000E+00  0.63221112185E+03  0.63221112187E+03  0.50400001928E-02 0. -1.
        1   -1    0    0  501    0  0.00000000000E+00  0.00000000000E+00 -0.17432609875E+04  0.17432609875E+04  0.50400001928E-02 0.  1.
    10030    2    1    2    0    0  0.00000000000E+00  0.00000000000E+00 -0.11110498657E+04  0.23754721094E+04  0.20996275714E+04 0.  0.
        2    1    3    3  502    0 -0.23473366973E+02 -0.10774058243E+03  0.62564109370E+03  0.63528403899E+03  0.25500000920E-02 0. -1.
       -2    1    3    3    0  502  0.23473366973E+02  0.10774058243E+03 -0.17366909594E+04  0.17401880704E+04  0.25500000920E-02 0.  1.
</event>
<event>
 5   0  0.3705828E-06  0.2099200E+04  0.7818609E-02  0.8561596E-01
       -2   -1    0    0    0  501  0.00000000000E+00  0.00000000000E+00  0.97636433361E+03  0.97636433361E+03  0.25500000920E-02 0. -1.
        2   -1    0    0  501    0  0.00000000000E+00  0.00000000000E+00 -0.11283291258E+04  0.11283291258E+04  0.25500000920E-02 0.  1.
    10030    2    1    2    0    0  0.00000000000E+00  0.00000000000E+00 -0.15196479221E+03  0.21046934594E+04  0.20992001477E+04 0.  0.
        5    1    3    3  502    0  0.66719757137E+03  0.81254130863E+02 -0.88424544077E+03  0.11107055967E+04  0.46999998093E+01 0.  1.
       -5    1    3    3    0  502 -0.66719757137E+03 -0.81254130863E+02  0.73228064856E+03  0.99398786274E+03  0.46999998093E+01 0. -1.
</event>
<event>
 5   0  0.1590067E-06  0.2100222E+04  0.7818609E-02  0.8561145E-01
       -1   -1    0    0    0  501  0.00000000000E+00  0.00000000000E+00  0.72227147652E+03  0.72227147654E+03  0.50400001928E-02 0. -1.
        1   -1    0    0  501    0  0.00000000000E+00  0.00000000000E+00 -0.15267578177E+04  0.15267578178E+04  0.50400001928E-02 0.  1.
    10030    2    1    2    0    0  0.00000000000E+00  0.00000000000E+00 -0.80448634123E+03  0.22490292943E+04  0.21002224866E+04 0.  0.
        5    1    3    3  502    0 -0.54040650329E+03 -0.13546507046E+03  0.55094917214E+03  0.78355411708E+03  0.46999998093E+01 0. -1.
       -5    1    3    3    0  502  0.54040650329E+03  0.13546507046E+03 -0.13554355134E+04  0.14654751772E+04  0.46999998093E+01 0.  1.
</event>
<event>
 5   0  0.1579820E-06  0.2098615E+04  0.7818609E-02  0.8561854E-01
       -1   -1    0    0    0  501  0.00000000000E+00  0.00000000000E+00  0.10105971409E+04  0.10105971409E+04  0.50400001928E-02 0.  1.
        1   -1    0    0  501    0  0.00000000000E+00  0.00000000000E+00 -0.10895011322E+04  0.10895011322E+04  0.50400001928E-02 0. -1.
    10030    2    1    2    0    0  0.00000000000E+00  0.00000000000E+00 -0.78903991248E+02  0.21000982731E+04  0.20986154762E+04 0.  0.
        2    1    3    3  502    0  0.84572839120E+03 -0.56918788968E+03  0.20935063125E+03  0.10407012310E+04  0.25500000920E-02 0.  1.
       -2    1    3    3    0  502 -0.84572839120E+03  0.56918788968E+03 -0.28825462250E+03  0.10593970421E+04  0.25500000920E-02 0. -1.
</event>
<event>
 5   0  0.3705828E-06  0.2099985E+04  0.7818609E-02  0.8561250E-01
       -2   -1    0    0    0  501  0.00000000000E+00  0.00000000000E+00  0.91635868824E+03  0.91635868824E+03  0.25500000920E-02 0. -1.
        2   -1    0    0  501    0  0.00000000000E+00  0.00000000000E+00 -0.12031137632E+04  0.12031137632E+04  0.25500000920E-02 0.  1.
    10030    2    1    2    0    0  0.00000000000E+00  0.00000000000E+00 -0.28675507492E+03  0.21194724514E+04  0.20999845236E+04 0.  0.
        5    1    3    3  502    0  0.56304345963E+03 -0.21361424706E+03  0.72472807904E+03  0.94228544641E+03  0.46999998093E+01 0. -1.
       -5    1    3    3    0  502 -0.56304345963E+03  0.21361424706E+03 -0.10114831540E+04  0.11771870050E+04  0.46999998093E+01 0.  1.
</event>
<event>
 5   0  0.3480134E-06  0.2100163E+04  0.7818609E-02  0.8561172E-01
        2   -1    0    0  501    0  0.00000000000E+00  0.00000000000E+00  0.25857134347E+04  0.25857134347E+04  0.25500000920E-02 0. -1.
       -2   -1    0    0    0  501  0.00000000000E+00  0.00000000000E+00 -0.42644735971E+03  0.42644735971E+03  0.25500000920E-02 0.  1.
    10030    2    1    2    0    0  0.00000000000E+00  0.00000000000E+00  0.21592660750E+04  0.30121607944E+04  0.21001625339E+04 0.  0.
        1    1    3    3  502    0  0.51238263426E+03 -0.21445292079E+03 -0.19849703036E+03  0.58985344808E+03  0.50400001928E-02 0.  1.
       -1    1    3    3    0  502 -0.51238263426E+03  0.21445292079E+03  0.23577631053E+04  0.24223073463E+04  0.50400001928E-02 0. -1.
</event>
<event>
 5   0  0.1579820E-06  0.2100354E+04  0.7818609E-02  0.8561088E-01
       -1   -1    0    0    0  501  0.00000000000E+00  0.00000000000E+00  0.96731478253E+03  0.96731478254E+03  0.50400001928E-02 0. -1.
        1   -1    0    0  501    0  0.00000000000E+00  0.00000000000E+00 -0.11401371191E+04  0.11401371191E+04  0.50400001928E-02 0.  1.
    10030    2    1    2    0    0  0.00000000000E+00  0.00000000000E+00 -0.17282233657E+03  0.21074519016E+04  0.21003537697E+04 0.  0.
        2    1    3    3  502    0  0.35487112200E+03 -0.69253288083E+03 -0.79401512112E+03  0.11117532626E+04  0.25500000920E-02 0.  1.
       -2    1    3    3    0  502 -0.35487112200E+03  0.69253288083E+03  0.62119278456E+03  0.99569863907E+03  0.25500000920E-02 0. -1.
</event>
<event>
 5   0  0.3480134E-06  0.2099507E+04  0.7818609E-02  0.8561461E-01
        2   -1    0    0  501    0  0.00000000000E+00  0.00000000000E+00  0.97963929576E+03  0.97963929577E+03  0.25500000920E-02 0. -1.
       -2   -1    0    0    0  501  0.00000000000E+00  0.00000000000E+00 -0.11248859441E+04  0.11248859441E+04  0.25500000920E-02 0.  1.
    10030    2    1    2    0    0  0.00000000000E+00  0.00000000000E+00 -0.14524664830E+03  0.21045252398E+04  0.20995070603E+04 0.  0.
        1    1    3    3  502    0  0.48552586602E+03  0.73206076908E+01  0.86029637485E+03  0.98787590844E+03  0.50400001928E-02 0. -1.
       -1    1    3    3    0  502 -0.48552586602E+03 -0.73206076908E+01 -0.10055430231E+04  0.11166493314E+04  0.50400001928E-02 0.  1.
</event>
<event>
 5   0  0.1646510E-06  0.2099925E+04  0.7818609E-02  0.8561277E-01
       -1   -1    0    0    0  501  0.00000000000E+00  0.00000000000E+00  0.12802063509E+04  0.12802063509E+04  0.50400001928E-02 0. -1.
        1   -1    0    0  501    0  0.00000000000E+00  0.00000000000E+00 -0.86112746917E+03  0.86112746919E+03  0.50400001928E-02 0.  1.
    10030    2    1    2    0    0  0.00000000000E+00  0.00000000000E+00  0.41907888172E+03  0.21413338201E+04  0.20999246224E+04 0.  0.
        4    1    3    3  502    0  0.41892724683E+02  0.97031103686E+03  0.61635601323E+03  0.11502846850E+04  0.12699999809E+01 0. -1.
       -4    1    3    3    0  502 -0.41892724683E+02 -0.97031103686E+03 -0.19727713151E+03  0.99104913508E+03  0.12699999809E+01 0.  1.
</event>
<event>
 5   0  0.3574927E-06  0.2111265E+04  0.7818609E-02  0.8556297E-01
        2   -1    0    0  501    0  0.00000000000E+00  0.00000000000E+00  0.18336189093E+04  0.18336189093E+04  0.25500000920E-02 0. -1.
       -2   -1    0    0    0  501  0.00000000000E+00  0.00000000000E+00 -0.60773823743E+03  0.60773823743E+03  0.25500000920E-02 0.  1.
    10030    2    1    2    0    0  0.00000000000E+00  0.00000000000E+00  0.12258806719E+04  0.24413571467E+04  0.21112653306E+04 0.  0.
        3    1    3    3  502    0  0.41951633828E+03  0.61252321906E+03  0.14807265639E+04  0.16564207857E+04  0.10100000352E+00 0. -1.
       -3    1    3    3    0  502 -0.41951633828E+03 -0.61252321906E+03 -0.25484589205E+03  0.78493636103E+03  0.10100000352E+00 0.  1.
</event>
<event>
 5   0  0.1646510E-06  0.2111654E+04  0.7818609E-02  0.8556127E-01
        1   -1    0    0  501    0  0.00000000000E+00  0.00000000000E+00  0.14392740692E+04  0.14392740692E+04  0.50400001928E-02 0. -1.
       -1   -1    0    0    0  501  0.00000000000E+00  0.00000000000E+00 -0.77453664923E+03  0.77453664925E+03  0.50400001928E-02 0.  1.
    10030    2    1    2    0    0  0.00000000000E+00  0.00000000000E+00  0.66473741993E+03  0.22138107184E+04  0.21116538683E+04 0.  0.
        4    1    3    3  502    0 -0.10456670177E+04  0.14468352345E+03  0.35375325520E+03  0.11133264626E+04  0.12699999809E+01 0.  1.
       -4    1    3    3    0  502  0.10456670177E+04 -0.14468352345E+03  0.31098416473E+03  0.11004842559E+04  0.12699999809E+01 0. -1.
</event>
<event>
 5   0  0.3574927E-06  0.2100226E+04  0.7818609E-02  0.8561144E-01
       -2   -1    0    0    0  501  0.00000000000E+00  0.00000000000E+00  0.99038803935E+03  0.99038803936E+03  0.25500000920E-02 0. -1.
        2   -1    0    0  501    0  0.00000000000E+00  0.00000000000E+00 -0.11134400927E+04  0.11134400927E+04  0.25500000920E-02 0.  1.
    10030    2    1    2    0    0  0.00000000000E+00  0.00000000000E+00 -0.12305205334E+03  0.21038281321E+04  0.21002264167E+04 0.  0.
        3    1    3    3  502    0  0.33801199817E+02 -0.10428498522E+04  0.57249675966E+02  0.10449669234E+04  0.10100000352E+00 0. -1.
       -3    1    3    3    0  502 -0.33801199817E+02  0.10428498522E+04 -0.18030172931E+03  0.10588612087E+04  0.10100000352E+00 0.  1.
</event>
<event>
 5   0  0.3636435E-06  0.2101418E+04  0.7818609E-02  0.8560619E-01
        2   -1    0    0  501    0  0.00000000000E+00  0.00000000000E+00  0.27683892143E+04  0.27683892143E+04  0.25500000920E-02 0.  1.
       -2   -1    0    0    0  501  0.00000000000E+00  0.00000000000E+00 -0.39878401353E+03  0.39878401353E+03  0.25500000920E-02 0. -1.
    10030    2    1    2    0    0  0.00000000000E+00  0.00000000000E+00  0.23696052008E+04  0.31671732278E+04  0.21014179612E+04 0.  0.
        4    1    3    3  502    0 -0.70906636815E+03  0.71986174874E+03  0.16190417990E+04  0.19084742627E+04  0.12699999809E+01 0.  1.
       -4    1    3    3    0  502  0.70906636815E+03 -0.71986174874E+03  0.75056340180E+03  0.12586989651E+04  0.12699999809E+01 0. -1.
</event>
<event>
 5   0  0.3547583E-06  0.2099854E+04  0.7818609E-02  0.8561308E-01
        2   -1    0    0  501    0  0.00000000000E+00  0.00000000000E+00  0.21163038732E+04  0.21163038732E+04  0.25500000920E-02 0.  1.
       -2   -1    0    0    0  501  0.00000000000E+00  0.00000000000E+00 -0.52088320379E+03  0.52088320379E+03  0.25500000920E-02 0. -1.
    10030    2    1    2    0    0  0.00000000000E+00  0.00000000000E+00  0.15954206694E+04  0.26371870770E+04  0.20998544156E+04 0.  0.
        2    1    3    3  502    0 -0.65712033586E+03 -0.68774347301E+03  0.13559093734E+04  0.16562875503E+04  0.25500000920E-02 0.  1.
       -2    1    3    3    0  502  0.65712033586E+03  0.68774347301E+03  0.23951129599E+03  0.98089952665E+03  0.25500000920E-02 0. -1.
</event>
<event>
 5   0  0.3547583E-06  0.2100024E+04  0.7818609E-02  0.8561233E-01
        2   -1    0    0  501    0  0.00000000000E+00  0.00000000000E+00  0.86933056648E+03  0.86933056648E+03  0.25500000920E-02 0. -1.
       -2   -1    0    0    0  501  0.00000000000E+00  0.00000000000E+00 -0.12682458436E+04  0.12682458436E+04  0.25500000920E-02 0.  1.
    10030    2    1    2    0    0  0.00000000000E+00  0.00000000000E+00 -0.39891527713E+03  0.21375764101E+04  0.21000236929E+04 0.  0.
        2    1    3    3  502    0 -0.33097557467E+03 -0.46881180875E+03 -0.10944969737E+04  0.12358207671E+04  0.25500000920E-02 0.  1.
       -2    1    3    3    0  502  0.33097557467E+03  0.46881180875E+03  0.69558169655E+03  0.90175564297E+03  0.25500000920E-02 0. -1.
</event>
<event>
 5   0  0.1646510E-06  0.2095653E+04  0.7818609E-02  0.8563161E-01
        1   -1    0    0  501    0  0.00000000000E+00  0.00000000000E+00  0.20616953799E+04  0.20616953799E+04  0.50400001928E-02 0.  1.
       -1   -1    0    0    0  501  0.00000000000E+00  0.00000000000E+00 -0.53254267863E+03  0.53254267865E+03  0.50400001928E-02 0. -1.
    10030    2    1    2    0    0  0.00000000000E+00  0.00000000000E+00  0.15291527012E+04  0.25942380585E+04  0.20956533875E+04 0.  0.
        4    1    3    3  502    0 -0.27923004940E+03  0.61315920625E+03  0.17580015506E+04  0.18826855015E+04  0.12699999809E+01 0.  1.
       -4    1    3    3    0  502  0.27923004940E+03 -0.61315920625E+03 -0.22884884934E+03  0.71155255705E+03  0.12699999809E+01 0. -1.
</event>
<event>
 5   0  0.3547583E-06  0.2099698E+04  0.7818609E-02  0.8561376E-01
       -2   -1    0    0    0  501  0.00000000000E+00  0.00000000000E+00  0.60581290911E+03  0.60581290912E+03  0.25500000920E-02 0. -1.
        2   -1    0    0  501    0  0.00000000000E+00  0.00000000000E+00 -0.18193453226E+04  0.18193453227E+04  0.25500000920E-02 0.  1.
    10030    2    1    2    0    0  0.00000000000E+00  0.00000000000E+00 -0.12135324135E+04  0.24251582318E+04  0.20996979617E+04 0.  0.
        2    1    3    3  502    0 -0.14373625627E+03 -0.10398995272E+04 -0.62002333774E+03  0.12192128926E+04  0.25500000920E-02 0. -1.
       -2    1    3    3    0  502  0.14373625627E+03  0.10398995272E+04 -0.59350907580E+03  0.12059453392E+04  0.25500000920E-02 0.  1.
</event>
<event>
 5   0  0.3705828E-06  0.2101821E+04  0.7818609E-02  0.8560442E-01
       -2   -1    0    0    0  501  0.00000000000E+00  0.00000000000E+00  0.65464968528E+03  0.65464968528E+03  0.25500000920E-02 0. -1.
        2   -1    0    0  501    0  0.00000000000E+00  0.00000000000E+00 -0.16870286694E+04  0.16870286694E+04  0.25500000920E-02 0.  1.
    10030    2    1    2    0    0  0.00000000000E+00  0.00000000000E+00 -0.10323789841E+04  0.23416783547E+04  0.21018209129E+04 0.  0.
        5    1    3    3  502    0  0.11237548744E+03 -0.11134707033E+02 -0.16802376497E+04  0.16840347031E+04  0.46999998093E+01 0.  1.
       -5    1    3    3    0  502 -0.11237548744E+03  0.11134707033E+02  0.64785866558E+03  0.65764365156E+03  0.46999998093E+01 0. -1.
</event>
<event>
 5   0  0.3705828E-06  0.2103226E+04  0.7818609E-02  0.8559823E-01
       -2   -1    0    0    0  501  0.00000000000E+00  0.00000000000E+00  0.13015500345E+04  0.13015500345E+04  0.25500000920E-02 0. -1.
        2   -1    0    0  501    0  0.00000000000E+00  0.00000000000E+00 -0.84967179860E+03  0.84967179861E+03  0.25500000920E-02 0.  1.
    10030    2    1    2    0    0  0.00000000000E+00  0.00000000000E+00  0.45187823585E+03  0.21512218331E+04  0.21032264346E+04 0.  0.
        5    1    3    3  502    0 -0.75056077492E+03  0.74819958028E+02 -0.52353648685E+03  0.91817865692E+03  0.46999998093E+01 0.  1.
       -5    1    3    3    0  502  0.75056077492E+03 -0.74819958028E+02  0.97541472270E+03  0.12330431761E+04  0.46999998093E+01 0. -1.
</event>
<event>
 5   0  0.3574927E-06  0.2099976E+04  0.7818609E-02  0.8561254E-01
        2   -1    0    0  501    0  0.00000000000E+00  0.00000000000E+00  0.14594887461E+04  0.14594887461E+04  0.25500000920E-02 0.  1.
       -2   -1    0    0    0  501  0.00000000000E+00  0.00000000000E+00 -0.75538453368E+03  0.75538453368E+03  0.25500000920E-02 0. -1.
    10030    2    1    2    0    0  0.00000000000E+00  0.00000000000E+00  0.70410421245E+03  0.22148732798E+04  0.20999764055E+04 0.  0.
        3    1    3    3  502    0  0.69593319470E+03 -0.47680393226E+03  0.10114042487E+04  0.13170434943E+04  0.10100000352E+00 0.  1.
       -3    1    3    3    0  502 -0.69593319470E+03  0.47680393226E+03 -0.30730003626E+03  0.89782978554E+03  0.10100000352E+00 0. -1.
</event>
<event>
 5   0  0.1590067E-06  0.2099882E+04  0.7818609E-02  0.8561295E-01
       -1   -1    0    0    0  501  0.00000000000E+00  0.00000000000E+00  0.17132836585E+04  0.17132836585E+04  0.50400001928E-02 0. -1.
        1   -1    0    0  501    0  0.00000000000E+00  0.00000000000E+00 -0.64342887353E+03  0.64342887355E+03  0.50400001928E-02 0.  1.
    10030    2    1    2    0    0  0.00000000000E+00  0.00000000000E+00  0.10698547850E+04  0.23567125321E+04  0.20998820676E+04 0.  0.
        5    1    3    3  502    0  0.34878278798E+03 -0.11273313442E+03  0.16391292248E+04  0.16796204626E+04  0.46999998093E+01 0. -1.
       -5    1    3    3    0  502 -0.34878278798E+03  0.11273313442E+03 -0.56927443979E+03  0.67709206950E+03  0.46999998093E+01 0.  1.
</event>
<event>
 5   0  0.1615098E-06  0.2109884E+04  0.7818609E-02  0.8556902E-01
       -1   -1    0    0    0  501  0.00000000000E+00  0.00000000000E+00  0.92820051663E+03  0.92820051664E+03  0.50400001928E-02 0. -1.
        1   -1    0    0  501    0  0.00000000000E+00  0.00000000000E+00 -0.11989892106E+04  0.11989892106E+04  0.50400001928E-02 0.  1.
    10030    2    1    2    0    0  0.00000000000E+00  0.00000000000E+00 -0.27078869393E+03  0.21271897272E+04  0.21098837927E+04 0.  0.
        1    1    3    3  502    0 -0.14732189512E+03  0.40435445431E+03 -0.11064644100E+04  0.11872109147E+04  0.50400001928E-02 0.  1.
       -1    1    3    3    0  502  0.14732189512E+03 -0.40435445431E+03  0.83567571605E+03  0.93997881248E+03  0.50400001928E-02 0. -1.
</event>
<event>
 5   0  0.3574927E-06  0.2092865E+04  0.7818609E-02  0.8564393E-01
       -2   -1    0    0    0  501  0.00000000000E+00  0.00000000000E+00  0.10277703181E+04  0.10277703181E+04  0.25500000920E-02 0.  1.
        2   -1    0    0  501    0  0.00000000000E+00  0.00000000000E+00 -0.10654340108E+04  0.10654340108E+04  0.25500000920E-02 0. -1.
    10030    2    1    2    0    0  0.00000000000E+00  0.00000000000E+00 -0.37663692734E+02  0.20932043289E+04  0.20928654541E+04 0.  0.
        3    1    3    3  502    0  0.69279041641E+03 -0.27453590411E+03  0.71592505601E+03  0.10333814493E+04  0.10100000352E+00 0.  1.
       -3    1    3    3    0  502 -0.69279041641E+03  0.27453590411E+03 -0.75358874874E+03  0.10598228796E+04  0.10100000352E+00 0. -1.
</event>
<event>
 5   0  0.1579820E-06  0.2100333E+04  0.7818609E-02  0.8561097E-01
        1   -1    0    0  501    0  0.00000000000E+00  0.00000000000E+00  0.15370022416E+04  0.15370022416E+04  0.50400001928E-02 0. -1.
       -1   -1    0    0    0  501  0.00000000000E+00  0.00000000000E+00 -0.71753271329E+03  0.71753271331E+03  0.50400001928E-02 0.  1.
    10030    2    1    2    0    0  0.00000000000E+00  0.00000000000E+00  0.81946952829E+03  0.22545349549E+04  0.21003327248E+04 0.  0.
        2    1    3    3  502    0 -0.19344352933E+03  0.86016356785E+03 -0.20272299431E+03  0.90465373206E+03  0.25500000920E-02 0.  1.
       -2    1    3    3    0  502  0.19344352933E+03 -0.86016356785E+03  0.10221925226E+04  0.13498812228E+04  0.25500000920E-02 0. -1.
</event>
<event>
 5   0  0.3636435E-06  0.2099336E+04  0.7818609E-02  0.8561536E-01
       -2   -1    0    0    0  501  0.00000000000E+00  0.00000000000E+00  0.16168924376E+04  0.16168924376E+04  0.25500000920E-02 0.  1.
        2   -1    0    0  501    0  0.00000000000E+00  0.00000000000E+00 -0.68143210458E+03  0.68143210458E+03  0.25500000920E-02 0. -1.
    10030    2    1    2    0    0  0.00000000000E+00  0.00000000000E+00  0.93546033300E+03  0.22983245422E+04  0.20993355298E+04 0.  0.
        4    1    3    3  502    0 -0.10981408223E+03  0.21282677200E+03 -0.65112168483E+03  0.69376900254E+03  0.12699999809E+01 0. -1.
       -4    1    3    3    0  502  0.10981408223E+03 -0.21282677200E+03  0.15865820178E+04  0.16045555396E+04  0.12699999809E+01 0.  1.
</event>
<event>
 5   0  0.1646510E-06  0.2101183E+04  0.7818609E-02  0.8560723E-01
        1   -1    0    0  501    0  0.00000000000E+00  0.00000000000E+00  0.91966810505E+03  0.91966810506E+03  0.50400001928E-02 0.  1.
       -1   -1    0    0    0  501  0.00000000000E+00  0.00000000000E+00 -0.12001528741E+04  0.12001528741E+04  0.50400001928E-02 0. -1.
    10030    2    1    2    0    0  0.00000000000E+00  0.00000000000E+00 -0.28048476905E+03  0.21198209792E+04  0.21011828283E+04 0.  0.
        4    1    3    3  502    0 -0.70511440192E+03 -0.33658861256E+03 -0.84879872662E+03  0.11536633413E+04  0.12699999809E+01 0. -1.
       -4    1    3    3    0  502  0.70511440192E+03  0.33658861256E+03  0.56831395757E+03  0.96615763785E+03  0.12699999809E+01 0.  1.
</event>
<event>
 5   0  0.3636435E-06  0.2099913E+04  0.7818609E-02  0.8561282E-01
       -2   -1    0    0    0  501  0.00000000000E+00  0.00000000000E+00  0.85408099619E+03  0.85408099620E+03  0.25500000920E-02 0.  1.
        2   -1    0    0  501    0  0.00000000000E+00  0.00000000000E+00 -0.12907540458E+04  0.12907540458E+04  0.25500000920E-02 0. -1.
    10030    2    1    2    0    0  0.00000000000E+00  0.00000000000E+00 -0.43667304957E+03  0.21448350420E+04  0.20999128565E+04 0.  0.
        4    1    3    3  502    0 -0.85590368006E+03  0.24021437237E+03  0.35230366025E+03  0.95623926721E+03  0.12699999809E+01 0.  1.
       -4    1    3    3    0  502  0.85590368006E+03 -0.24021437237E+03 -0.78897670982E+03  0.11885957748E+04  0.12699999809E+01 0. -1.
</event>
<event>
 5   0  0.3480134E-06  0.2101142E+04  0.7818609E-02  0.8560741E-01
        2   -1    0    0  501    0  0.00000000000E+00  0.00000000000E+00  0.14102595402E+04  0.14102595402E+04  0.25500000920E-02 0. -1.
       -2   -1    0    0    0  501  0.00000000000E+00  0.00000000000E+00 -0.78262131142E+03  0.78262131142E+03  0.25500000920E-02 0.  1.
    10030    2    1    2    0    0  0.00000000000E+00  0.00000000000E+00  0.62763822880E+03  0.21928808516E+04  0.21011417571E+04 0.  0.
        1    1    3    3  502    0  0.50128033590E+03 -0.15547032338E+03  0.12636349385E+04  0.13682931902E+04  0.50400001928E-02 0. -1.
       -1    1    3    3    0  502 -0.50128033590E+03  0.15547032338E+03 -0.63599670968E+03  0.82458766142E+03  0.50400001928E-02 0.  1.
</event>
<event>
 5   0  0.3547583E-06  0.2100369E+04  0.7818609E-02  0.8561081E-01
       -2   -1    0    0    0  501  0.00000000000E+00  0.00000000000E+00  0.91399420934E+03  0.91399420935E+03  0.25500000920E-02 0.  1.
        2   -1    0    0  501    0  0.00000000000E+00  0.00000000000E+00 -0.12066681642E+04  0.12066681642E+04  0.25500000920E-02 0. -1.
    10030    2    1    2    0    0  0.00000000000E+00  0.00000000000E+00 -0.29267395481E+03  0.21206623735E+04  0.21003692196E+04 0.  0.
        2    1    3    3  502    0  0.46262753780E+03 -0.30717380547E+03 -0.10463005870E+04  0.11845357335E+04  0.25500000920E-02 0. -1.
       -2    1    3    3    0  502 -0.46262753780E+03  0.30717380547E+03  0.75362663217E+03  0.93612664005E+03  0.25500000920E-02 0.  1.
</event>
<event>
 5   0  0.1653260E-06  0.2099680E+04  0.7818609E-02  0.8561384E-01
        1   -1    0    0  501    0  0.00000000000E+00  0.00000000000E+00  0.14685725854E+04  0.14685725854E+04  0.50400001928E-02 0.  1.
       -1   -1    0    0    0  501  0.00000000000E+00  0.00000000000E+00 -0.75050001761E+03  0.75050001762E+03  0.50400001928E-02 0. -1.
    10030    2    1    2    0    0  0.00000000000E+00  0.00000000000E+00  0.71807256779E+03  0.22190726030E+04  0.20996797387E+04 0.  0.
        3    1    3    3  502    0 -0.33692538600E+02 -0.29989228547E+03  0.14217445110E+04  0.14534194284E+04  0.10100000352E+00 0.  1.
       -3    1    3    3    0  502  0.33692538600E+02  0.29989228547E+03 -0.70367194319E+03  0.76565317467E+03  0.10100000352E+00 0. -1.
</event>
<event>
 5   0  0.1615098E-06  0.2100247E+04  0.7818609E-02  0.8561135E-01
       -1   -1    0    0    0  501  0.00000000000E+00  0.00000000000E+00  0.13411754281E+04  0.13411754281E+04  0.50400001928E-02 0. -1.
        1   -1    0    0  501    0  0.00000000000E+00  0.00000000000E+00 -0.82223320854E+03  0.82223320855E+03  0.50400001928E-02 0.  1.
    10030    2    1    2    0    0  0.00000000000E+00  0.00000000000E+00  0.51894221958E+03  0.21634086367E+04  0.21002466289E+04 0.  0.
        1    1    3    3  502    0  0.25421720202E+03  0.89411653880E+03  0.76272106144E+03  0.12024201380E+04  0.50400001928E-02 0. -1.
       -1    1    3    3    0  502 -0.25421720202E+03 -0.89411653880E+03 -0.24377884186E+03  0.96098849864E+03  0.50400001928E-02 0.  1.
</event>
<event>
 5   0  0.1579820E-06  0.2101743E+04  0.7818609E-02  0.8560476E-01
       -1   -1    0    0    0  501  0.00000000000E+00  0.00000000000E+00  0.79807667261E+03  0.79807667263E+03  0.50400001928E-02 0. -1.
        1   -1    0    0  501    0  0.00000000000E+00  0.00000000000E+00 -0.13837397346E+04  0.13837397346E+04  0.50400001928E-02 0.  1.
    10030    2    1    2    0    0  0.00000000000E+00  0.00000000000E+00 -0.58566306198E+03  0.21818164072E+04  0.21017425182E+04 0.  0.
        2    1    3    3  502    0  0.15725867095E+03  0.10130758126E+04 -0.53244468660E+03  0.11552273525E+04  0.25500000920E-02 0.  1.
       -2    1    3    3    0  502 -0.15725867095E+03 -0.10130758126E+04 -0.53218375384E+02  0.10265890547E+04  0.25500000920E-02 0. -1.
</event>
<event>
 5   0  0.3547583E-06  0.2100365E+04  0.7818609E-02  0.8561082E-01
        2   -1    0    0  501    0  0.00000000000E+00  0.00000000000E+00  0.11215326250E+04  0.11215326250E+04  0.25500000920E-02 0.  1.
       -2   -1    0    0    0  501  0.00000000000E+00  0.00000000000E+00 -0.98337185173E+03  0.98337185174E+03  0.25500000920E-02 0. -1.
    10030    2    1    2    0    0  0.00000000000E+00  0.00000000000E+00  0.13816077326E+03  0.21049044767E+04  0.21003653151E+04 0.  0.
        2    1    3    3  502    0  0.79749616455E+03  0.21274727458E+03 -0.58164721228E+03  0.10097400729E+04  0.25500000920E-02 0. -1.
       -2    1    3    3    0  502 -0.79749616455E+03 -0.21274727458E+03  0.71980798554E+03  0.10951644038E+04  0.25500000920E-02 0.  1.
</event>
<event>
 5   0  0.3705828E-06  0.2097881E+04  0.7818609E-02  0.8562178E-01
       -2   -1    0    0    0  501  0.00000000000E+00  0.00000000000E+00  0.82281583628E+03  0.82281583628E+03  0.25500000920E-02 0.  1.
        2   -1    0    0  501    0  0.00000000000E+00  0.00000000000E+00 -0.13372077297E+04  0.13372077297E+04  0.25500000920E-02 0. -1.
    10030    2    1    2    0    0  0.00000000000E+00  0.00000000000E+00 -0.51439189338E+03  0.21600235659E+04  0.20978805460E+04 0.  0.
        5    1    3    3  502    0 -0.68448082962E+03  0.54341689420E+03  0.34001814681E+03  0.93779014560E+03  0.46999998093E+01 0.  1.
       -5    1    3    3    0  502  0.68448082962E+03 -0.54341689420E+03 -0.85441004019E+03  0.12222334203E+04  0.46999998093E+01 0. -1.
</event>
<event>
 5   0  0.1615098E-06  0.2099372E+04  0.7818609E-02  0.8561520E-01
       -1   -1    0    0    0  501  0.00000000000E+00  0.00000000000E+00  0.85080716523E+03  0.85080716525E+03  0.50400001928E-02 0.  1.
        1   -1    0    0  501    0  0.00000000000E+00  0.00000000000E+00 -0.12950531405E+04  0.12950531405E+04  0.50400001928E-02 0. -1.
    10030    2    1    2    0    0  0.00000000000E+00  0.00000000000E+00 -0.44424597523E+03  0.21458603057E+04  0.20993718025E+04 0.  0.
        1    1    3    3  502    0 -0.20512635471E+03  0.96327028033E+03  0.14906314005E+03  0.99608547530E+03  0.50400001928E-02 0.  1.
       -1    1    3    3    0  502  0.20512635471E+03 -0.96327028033E+03 -0.59330911528E+03  0.11497748304E+04  0.50400001928E-02 0. -1.
</event>
<event>
 5   0  0.3480134E-06  0.2099361E+04  0.7818609E-02  0.8561525E-01
        2   -1    0    0  501    0  0.00000000000E+00  0.00000000000E+00  0.21011396360E+04  0.21011396360E+04  0.25500000920E-02 0. -1.
       -2   -1    0    0    0  501  0.00000000000E+00  0.00000000000E+00 -0.52439584987E+03  0.52439584988E+03  0.25500000920E-02 0.  1.
    10030    2    1    2    0    0  0.00000000000E+00  0.00000000000E+00  0.15767437861E+04  0.26255354858E+04  0.20993607647E+04 0.  0.
        1    1    3    3  502    0  0.24928356376E+02 -0.10480720465E+04  0.72275858788E+03  0.12733642110E+04  0.50400001928E-02 0.  1.
       -1    1    3    3    0  502 -0.24928356376E+02  0.10480720465E+04  0.85398519821E+03  0.13521712748E+04  0.50400001928E-02 0. -1.
</event>
<event>
 5   0  0.1615098E-06  0.2099668E+04  0.7818609E-02  0.8561389E-01
       -1   -1    0    0    0  501  0.00000000000E+00  0.00000000000E+00  0.10926497072E+04  0.10926497072E+04  0.50400001928E-02 0. -1.
        1   -1    0    0  501    0  0.00000000000E+00  0.00000000000E+00 -0.10086964915E+04  0.10086964915E+04  0.50400001928E-02 0.  1.
    10030    2    1    2    0    0  0.00000000000E+00  0.00000000000E+00  0.83953215698E+02  0.21013461988E+04  0.20996684749E+04 0.  0.
        1    1    3    3  502    0 -0.65863813473E+03  0.73227149504E+03  0.40575871892E+03  0.10652069625E+04  0.50400001928E-02 0. -1.
       -1    1    3    3    0  502  0.65863813473E+03 -0.73227149504E+03 -0.32180550322E+03  0.10361392362E+04  0.50400001928E-02 0.  1.
</event>
<event>
 5   0  0.3705828E-06  0.2101031E+04  0.7818609E-02  0.8560789E-01
        2   -1    0    0  501    0  0.00000000000E+00  0.00000000000E+00  0.10437241632E+04  0.10437241632E+04  0.25500000920E-02 0. -1.
       -2   -1    0    0    0  501  0.00000000000E+00  0.00000000000E+00 -0.10573507824E+04  0.10573507824E+04  0.25500000920E-02 0.  1.
    10030    2    1    2    0    0  0.00000000000E+00  0.00000000000E+00 -0.13626619256E+02  0.21010749456E+04  0.21010307571E+04 0.  0.
        5    1    3    3  502    0 -0.49832738083E+03 -0.39059101609E+03 -0.84508445152E+03  0.10559741193E+04  0.46999998093E+01 0.  1.
       -5    1    3    3    0  502  0.49832738083E+03  0.39059101609E+03  0.83145783227E+03  0.10451008263E+04  0.46999998093E+01 0. -1.
</event>
<event>
 5   0  0.3480134E-06  0.2098251E+04  0.7818609E-02  0.8562014E-01
       -2   -1    0    0    0  501  0.00000000000E+00  0.00000000000E+00  0.59488800842E+03  0.59488800843E+03  0.25500000920E-02 0.  1.
        2   -1    0    0  501    0  0.00000000000E+00  0.00000000000E+00 -0.18502043136E+04  0.18502043136E+04  0.25500000920E-02 0. -1.
    10030    2    1    2    0    0  0.00000000000E+00  0.00000000000E+00 -0.12553163052E+04  0.24450923221E+04  0.20982510425E+04 0.  0.
        1    1    3    3  502    0 -0.88494676452E+03 -0.29973730102E+03 -0.71611956576E+02  0.93707070065E+03  0.50400001928E-02 0.  1.
       -1    1    3    3    0  502  0.88494676452E+03  0.29973730102E+03 -0.11837043486E+04  0.15080216214E+04  0.50400001928E-02 0. -1.
</event>
<event>
 5   0  0.3705828E-06  0.2100095E+04  0.7818609E-02  0.8561201E-01
       -2   -1    0    0    0  501  0.00000000000E+00  0.00000000000E+00  0.96096166903E+03  0.96096166903E+03  0.25500000920E-02 0. -1.
        2   -1    0    0  501    0  0.00000000000E+00  0.00000000000E+00 -0.11473923883E+04  0.11473923883E+04  0.25500000920E-02 0.  1.
    10030    2    1    2    0    0  0.00000000000E+00  0.00000000000E+00 -0.18643071930E+03  0.21083540574E+04  0.21000953355E+04 0.  0.
        5    1    3    3  502    0  0.19562557723E+03  0.26222917828E+03 -0.10949089014E+04  0.11427515482E+04  0.46999998093E+01 0.  1.
       -5    1    3    3    0  502 -0.19562557723E+03 -0.26222917828E+03  0.90847818212E+03  0.96560250921E+03  0.46999998093E+01 0. -1.
</event>
<event>
 5   0  0.3705828E-06  0.2096481E+04  0.7818609E-02  0.8562795E-01
       -2   -1    0    0    0  501  0.00000000000E+00  0.00000000000E+00  0.32412470989E+03  0.32412470990E+03  0.25500000920E-02 0.  1.
        2   -1    0    0  501    0  0.00000000000E+00  0.00000000000E+00 -0.33900768495E+04  0.33900768495E+04  0.25500000920E-02 0. -1.
    10030    2    1    2    0    0  0.00000000000E+00  0.00000000000E+00 -0.30659521396E+04  0.37142015594E+04  0.20964805512E+04 0.  0.
        5    1    3    3  502    0 -0.60623621820E+03  0.19073044977E+02 -0.18356903079E+02  0.60683210132E+03  0.46999998093E+01 0.  1.
       -5    1    3    3    0  502  0.60623621820E+03 -0.19073044977E+02 -0.30475952365E+04  0.31073694581E+04  0.46999998093E+01 0. -1.
</event>
<event>
 5   0  0.1579820E-06  0.2101238E+04  0.7818609E-02  0.8560698E-01
       -1   -1    0    0    0  501  0.00000000000E+00  0.00000000000E+00  0.78164111807E+03  0.78164111809E+03  0.50400001928E-02 0. -1.
        1   -1    0    0  501    0  0.00000000000E+00  0.00000000000E+00 -0.14121572193E+04  0.14121572193E+04  0.50400001928E-02 0.  1.
    10030    2    1    2    0    0  0.00000000000E+00  0.00000000000E+00 -0.63051610118E+03  0.21937983373E+04  0.21012378711E+04 0.  0.
        2    1    3    3  502    0 -0.89159968519E+03  0.35851547402E+03  0.12808467205E+03  0.96947873982E+03  0.25500000920E-02 0. -1.
       -2    1    3    3    0  502  0.89159968519E+03 -0.35851547402E+03 -0.75860077323E+03  0.12243195975E+04  0.25500000920E-02 0.  1.
</event>
<event>
 5   0  0.3480134E-06  0.2100497E+04  0.7818609E-02  0.8561025E-01
       -2   -1    0    0    0  501  0.00000000000E+00  0.00000000000E+00  0.12643366975E+04  0.12643366975E+04  0.25500000920E-02 0. -1.
        2   -1    0    0  501    0  0.00000000000E+00  0.00000000000E+00 -0.87241120793E+03  0.87241120793E+03  0.25500000920E-02 0.  1.
    10030    2    1    2    0    0  0.00000000000E+00  0.00000000000E+00  0.39192548954E+03  0.21367479054E+04  0.21004966132E+04 0.  0.
        1    1    3    3  502    0 -0.70826655667E+03 -0.69470130548E+03  0.54654088864E+03  0.11326775190E+04  0.50400001928E-02 0. -1.
       -1    1    3    3    0  502  0.70826655667E+03  0.69470130548E+03 -0.15461539910E+03  0.10040703864E+04  0.50400001928E-02 0.  1.
</event>
<event>
 5   0  0.1579820E-06  0.2099894E+04  0.7818609E-02  0.8561290E-01
       -1   -1    0    0    0  501  0.00000000000E+00  0.00000000000E+00  0.10613966724E+04  0.10613966724E+04  0.50400001928E-02 0. -1.
        1   -1    0    0  501    0  0.00000000000E+00  0.00000000000E+00 -0.10386209283E+04  0.10386209283E+04  0.50400001928E-02 0.  1.
    10030    2    1    2    0    0  0.00000000000E+00  0.00000000000E+00  0.22775744095E+02  0.21000176008E+04  0.20998940899E+04 0.  0.
        2    1    3    3  502    0 -0.83092225871E+02  0.40493619980E+03 -0.95381715028E+03  0.10395406678E+04  0.25500000920E-02 0.  1.
       -2    1    3    3    0  502  0.83092225871E+02 -0.40493619980E+03  0.97659289437E+03  0.10604769329E+04  0.25500000920E-02 0. -1.
</event>
<event>
 5   0  0.3636435E-06  0.2099882E+04  0.7818609E-02  0.8561295E-01
        2   -1    0    0  501    0  0.00000000000E+00  0.00000000000E+00  0.15281440724E+04  0.15281440724E+04  0.25500000920E-02 0.  1.
       -2   -1    0    0    0  501  0.00000000000E+00  0.00000000000E+00 -0.72138253796E+03  0.72138253796E+03  0.25500000920E-02 0. -1.
    10030    2    1    2    0    0  0.00000000000E+00  0.00000000000E+00  0.80676153443E+03  0.22495266103E+04  0.20998823294E+04 0.  0.
        4    1    3    3  502    0  0.95304155689E+03 -0.36643544076E+03  0.66537349160E+03  0.12187233639E+04  0.12699999809E+01 0.  1.
       -4    1    3    3    0  502 -0.95304155689E+03  0.36643544076E+03  0.14138804283E+03  0.10308032465E+04  0.12699999809E+01 0. -1.
</event>
<event>
 5   0  0.1653260E-06  0.2097375E+04  0.7818609E-02  0.8562401E-01
        1   -1    0    0  501    0  0.00000000000E+00  0.00000000000E+00  0.18968584156E+04  0.18968584156E+04  0.50400001928E-02 0. -1.
       -1   -1    0    0    0  501  0.00000000000E+00  0.00000000000E+00 -0.57977184677E+03  0.57977184679E+03  0.50400001928E-02 0.  1.
    10030    2    1    2    0    0  0.00000000000E+00  0.00000000000E+00  0.13170865689E+04  0.24766302624E+04  0.20973746511E+04 0.  0.
        3    1    3    3  502    0 -0.75338170244E+03 -0.57329230208E+03  0.11912206122E+04  0.15215960733E+04  0.10100000352E+00 0.  1.
       -3    1    3    3    0  502  0.75338170244E+03  0.57329230208E+03  0.12586595671E+03  0.95503418915E+03  0.10100000352E+00 0. -1.
</event>
<event>
 5   0  0.3574927E-06  0.2099943E+04  0.7818609E-02  0.8561268E-01
        2   -1    0    0  501    0  0.00000000000E+00  0.00000000000E+00  0.12243195819E+04  0.12243195819E+04  0.25500000920E-02 0. -1.
       -2   -1    0    0    0  501  0.00000000000E+00  0.00000000000E+00 -0.90045145347E+03  0.90045145348E+03  0.25500000920E-02 0.  1.
    10030    2    1    2    0    0  0.00000000000E+00  0.00000000000E+00  0.32386812847E+03  0.21247710354E+04  0.20999431869E+04 0.  0.
        3    1    3    3  502    0  0.13496198297E+03  0.10191667719E+04  0.37782186193E+03  0.10952922055E+04  0.10100000352E+00 0. -1.
       -3    1    3    3    0  502 -0.13496198297E+03 -0.10191667719E+04 -0.53953733465E+02  0.10294788300E+04  0.10100000352E+00 0.  1.
</event>
<event>
 5   0  0.1646510E-06  0.2099917E+04  0.7818609E-02  0.8561280E-01
       -1   -1    0    0    0  501  0.00000000000E+00  0.00000000000E+00  0.74840885995E+03  0.74840885996E+03  0.50400001928E-02 0.  1.
        1   -1    0    0  501    0  0.00000000000E+00  0.00000000000E+00 -0.14730081627E+04  0.14730081627E+04  0.50400001928E-02 0. -1.
    10030    2    1    2    0    0  0.00000000000E+00  0.00000000000E+00 -0.72459930279E+03  0.22214170227E+04  0.20999165315E+04 0.  0.
        4    1    3    3  502    0  0.20584732941E+03  0.49508726863E+03 -0.13172641105E+04  0.14222063410E+04  0.12699999809E+01 0. -1.
       -4    1    3    3    0  502 -0.20584732941E+03 -0.49508726863E+03  0.59266480771E+03  0.79921068173E+03  0.12699999809E+01 0.  1.
</event>
<event>
 5   0  0.3480134E-06  0.2100111E+04  0.7818609E-02  0.8561195E-01
       -2   -1    0    0    0  501  0.00000000000E+00  0.00000000000E+00  0.69958585607E+03  0.69958585608E+03  0.25500000920E-02 0.  1.
        2   -1    0    0  501    0  0.00000000000E+00  0.00000000000E+00 -0.15760986948E+04  0.15760986948E+04  0.25500000920E-02 0. -1.
    10030    2    1    2    0    0  0.00000000000E+00  0.00000000000E+00 -0.87651283872E+03  0.22756845509E+04  0.21001108110E+04 0.  0.
        1    1    3    3  502    0  0.41962097804E+03 -0.24603100074E+03  0.57013614143E+03  0.74944528708E+03  0.50400001928E-02 0.  1.
       -1    1    3    3    0  502 -0.41962097804E+03  0.24603100074E+03 -0.14466489802E+04  0.15262392638E+04  0.50400001928E-02 0. -1.
</event>
<event>
 5   0  0.1590067E-06  0.2100048E+04  0.7818609E-02  0.8561222E-01
       -1   -1    0    0    0  501  0.00000000000E+00  0.00000000000E+00  0.10237633820E+04  0.10237633820E+04  0.50400001928E-02 0. -1.
        1   -1    0    0  501    0  0.00000000000E+00  0.00000000000E+00 -0.10769585616E+04  0.10769585616E+04  0.50400001928E-02 0.  1.
    10030    2    1    2    0    0  0.00000000000E+00  0.00000000000E+00 -0.53195179593E+02  0.21007219437E+04  0.21000483227E+04 0.  0.
        5    1    3    3  502    0  0.20981745417E+03 -0.23215540218E+03  0.97602584094E+03  0.10249722079E+04  0.46999998093E+01 0. -1.
       -5    1    3    3    0  502 -0.20981745417E+03  0.23215540218E+03 -0.10292210205E+04  0.10757497357E+04  0.46999998093E+01 0.  1.
</event>
<event>
 5   0  0.1646510E-06  0.2100834E+04  0.7818609E-02  0.8560876E-01
        1   -1    0    0  501    0  0.00000000000E+00  0.00000000000E+00  0.64568645116E+03  0.64568645118E+03  0.50400001928E-02 0. -1.
       -1   -1    0    0    0  501  0.00000000000E+00  0.00000000000E+00 -0.17088408942E+04  0.17088408942E+04  0.50400001928E-02 0.  1.
    10030    2    1    2    0    0  0.00000000000E+00  0.00000000000E+00 -0.10631544431E+04  0.23545273454E+04  0.21008335609E+04 0.  0.
        4    1    3    3  502    0  0.70871784730E+03 -0.41492337811E+03  0.20243960121E+03  0.84582847068E+03  0.12699999809E+01 0. -1.
       -4    1    3    3    0  502 -0.70871784730E+03  0.41492337811E+03 -0.12655940443E+04  0.15086988747E+04  0.12699999809E+01 0.  1.
</event>
<event>
 5   0  0.3574927E-06  0.2100564E+04  0.7818609E-02  0.8560995E-01
       -2   -1    0    0    0  501  0.00000000000E+00  0.00000000000E+00  0.62926499367E+03  0.62926499368E+03  0.25500000920E-02 0. -1.
        2   -1    0    0  501    0  0.00000000000E+00  0.00000000000E+00 -0.17529852946E+04  0.17529852946E+04  0.25500000920E-02 0.  1.
    10030    2    1    2    0    0  0.00000000000E+00  0.00000000000E+00 -0.11237203009E+04  0.23822502882E+04  0.21005640007E+04 0.  0.
        3    1    3    3  502    0  0.31530698276E+03  0.38607970671E+03  0.48656405633E+03  0.69657779495E+03  0.10100000352E+00 0. -1.
       -3    1    3    3    0  502 -0.31530698276E+03 -0.38607970671E+03 -0.16102843572E+04  0.16856724933E+04  0.10100000352E+00 0.  1.
</event>
<event>
 5   0  0.1590067E-06  0.2099995E+04  0.7818609E-02  0.8561246E-01
        1   -1    0    0  501    0  0.00000000000E+00  0.00000000000E+00  0.47295486420E+03  0.47295486423E+03  0.50400001928E-02 0. -1.
       -1   -1    0    0    0  501  0.00000000000E+00  0.00000000000E+00 -0.23310778873E+04  0.23310778874E+04  0.50400001928E-02 0.  1.
    10030    2    1    2    0    0  0.00000000000E+00  0.00000000000E+00 -0.18581230231E+04  0.28040327516E+04  0.20999948816E+04 0.  0.
        5    1    3    3  502    0  0.75182774861E+03  0.73295044741E+03 -0.93353287929E+03  0.14049793766E+04  0.46999998093E+01 0. -1.
       -5    1    3    3    0  502 -0.75182774861E+03 -0.73295044741E+03 -0.92459014386E+03  0.13990533750E+04  0.46999998093E+01 0.  1.
</event>
<event>
 5   0  0.1653260E-06  0.2099216E+04  0.7818609E-02  0.8561589E-01
       -1   -1    0    0    0  501  0.00000000000E+00  0.00000000000E+00  0.10094773801E+04  0.10094773801E+04  0.50400001928E-02 0. -1.
        1   -1    0    0  501    0  0.00000000000E+00  0.00000000000E+00 -0.10913341020E+04  0.10913341020E+04  0.50400001928E-02 0.  1.
    10030    2    1    2    0    0  0.00000000000E+00  0.00000000000E+00 -0.81856721927E+02  0.21008114821E+04  0.20992161300E+04 0.  0.
        3    1    3    3  502    0  0.25667680704E+02 -0.46340490211E+03  0.90120843979E+03  0.10136960073E+04  0.10100000352E+00 0. -1.
       -3    1    3    3    0  502 -0.25667680704E+02  0.46340490211E+03 -0.98306516171E+03  0.10871154748E+04  0.10100000352E+00 0.  1.
</event>
<event>
 5   0  0.1579820E-06  0.2094110E+04  0.7818609E-02  0.8563843E-01
       -1   -1    0    0    0  501  0.00000000000E+00  0.00000000000E+00  0.91604104803E+03  0.91604104805E+03  0.50400001928E-02 0. -1.
        1   -1    0    0  501    0  0.00000000000E+00  0.00000000000E+00 -0.11968065194E+04  0.11968065194E+04  0.50400001928E-02 0.  1.
    10030    2    1    2    0    0  0.00000000000E+00  0.00000000000E+00 -0.28076547137E+03  0.21128475675E+04  0.20941097377E+04 0.  0.
        2    1    3    3  502    0 -0.45063171932E+03 -0.53195114075E+03 -0.92857894676E+03  0.11611631337E+04  0.25500000920E-02 0.  1.
       -2    1    3    3    0  502  0.45063171932E+03  0.53195114075E+03  0.64781347540E+03  0.95168443379E+03  0.25500000920E-02 0. -1.
</event>
<event>
 5   0  0.3547583E-06  0.2100192E+04  0.7818609E-02  0.8561159E-01
       -2   -1    0    0    0  501  0.00000000000E+00  0.00000000000E+00  0.96120290336E+03  0.96120290336E+03  0.25500000920E-02 0.  1.
        2   -1    0    0  501    0  0.00000000000E+00  0.00000000000E+00 -0.11472102291E+04  0.11472102291E+04  0.25500000920E-02 0. -1.
    10030    2    1    2    0    0  0.00000000000E+00  0.00000000000E+00 -0.18600732578E+03  0.21084131325E+04  0.21001921845E+04 0.  0.
        2    1    3    3  502    0  0.18380080344E+03 -0.59575448045E+03  0.75528656216E+03  0.97936914762E+03  0.25500000920E-02 0.  1.
       -2    1    3    3    0  502 -0.18380080344E+03  0.59575448045E+03 -0.94129388794E+03  0.11290439849E+04  0.25500000920E-02 0. -1.
</event>
<event>
 5   0  0.1579820E-06  0.2100563E+04  0.7818609E-02  0.8560995E-01
       -1   -1    0    0    0  501  0.00000000000E+00  0.00000000000E+00  0.10875050026E+04  0.10875050026E+04  0.50400001928E-02 0.  1.
        1   -1    0    0  501    0  0.00000000000E+00  0.00000000000E+00 -0.10143325138E+04  0.10143325139E+04  0.50400001928E-02 0. -1.
    10030    2    1    2    0    0  0.00000000000E+00  0.00000000000E+00  0.73172488757E+02  0.21018375165E+04  0.21005634322E+04 0.  0.
        2    1    3    3  502    0  0.36929879819E+03  0.84711676534E+03  0.53599143310E+03  0.10683048408E+04  0.25500000920E-02 0.  1.
       -2    1    3    3    0  502 -0.36929879819E+03 -0.84711676534E+03 -0.46281894434E+03  0.10335326757E+04  0.25500000920E-02 0. -1.
</event>
<event>
 5   0  0.1579820E-06  0.2100357E+04  0.7818609E-02  0.8561086E-01
       -1   -1    0    0    0  501  0.00000000000E+00  0.00000000000E+00  0.71127337114E+03  0.71127337116E+03  0.50400001928E-02 0. -1.
        1   -1    0    0  501    0  0.00000000000E+00  0.00000000000E+00 -0.15505635662E+04  0.15505635662E+04  0.50400001928E-02 0.  1.
    10030    2    1    2    0    0  0.00000000000E+00  0.00000000000E+00 -0.83929019508E+03  0.22618369374E+04  0.21003567077E+04 0.  0.
        2    1    3    3  502    0 -0.36010754815E+03 -0.94707505650E+03 -0.12228912237E+03  0.10205798540E+04  0.25500000920E-02 0. -1.
       -2    1    3    3    0  502  0.36010754815E+03  0.94707505650E+03 -0.71700107270E+03  0.12412570834E+04  0.25500000920E-02 0.  1.
</event>
<event>
 5   0  0.1653260E-06  0.2099341E+04  0.7818609E-02  0.8561534E-01
        1   -1    0    0  501    0  0.00000000000E+00  0.00000000000E+00  0.16736685215E+04  0.16736685215E+04  0.50400001928E-02 0. -1.
       -1   -1    0    0    0  501  0.00000000000E+00  0.00000000000E+00 -0.65831917842E+03  0.65831917844E+03  0.50400001928E-02 0.  1.
    10030    2    1    2    0    0  0.00000000000E+00  0.00000000000E+00  0.10153493431E+04  0.23319876999E+04  0.20993409309E+04 0.  0.
        3    1    3    3  502    0 -0.46707855764E+03 -0.91885706266E+03  0.28733064777E+03  0.10700558826E+04  0.10100000352E+00 0.  1.
       -3    1    3    3    0  502  0.46707855764E+03  0.91885706266E+03  0.72801869532E+03  0.12619318173E+04  0.10100000352E+00 0. -1.
</event>
<event>
 5   0  0.3480134E-06  0.2100491E+04  0.7818609E-02  0.8561027E-01
        2   -1    0    0  501    0  0.00000000000E+00  0.00000000000E+00  0.88691299462E+03  0.88691299462E+03  0.25500000920E-02 0.  1.
       -2   -1    0    0    0  501  0.00000000000E+00  0.00000000000E+00 -0.12436572785E+04  0.12436572785E+04  0.25500000920E-02 0. -1.
    10030    2    1    2    0    0  0.00000000000E+00  0.00000000000E+00 -0.35674428391E+03  0.21305702731E+04  0.21004911818E+04 0.  0.
        1    1    3    3  502    0  0.13675581022E+03  0.10218695125E+04 -0.38148032201E+03  0.10992937225E+04  0.50400001928E-02 0.  1.
       -1    1    3    3    0  502 -0.13675581022E+03 -0.10218695125E+04  0.24736038105E+02  0.10312765506E+04  0.50400001928E-02 0. -1.
</event>
<event>
 5   0  0.3636435E-06  0.2098395E+04  0.7818609E-02  0.8561951E-01
       -2   -1    0    0    0  501  0.00000000000E+00  0.00000000000E+00  0.75296432999E+03  0.75296433000E+03  0.25500000920E-02 0. -1.
        2   -1    0    0  501    0  0.00000000000E+00  0.00000000000E+00 -0.14619755195E+04  0.14619755195E+04  0.25500000920E-02 0.  1.
    10030    2    1    2    0    0  0.00000000000E+00  0.00000000000E+00 -0.70901118954E+03  0.22149398495E+04  0.20983950224E+04 0.  0.
        4    1    3    3  502    0 -0.74965493399E+02  0.76118726012E+03 -0.11125772854E+04  0.13501317339E+04  0.12699999809E+01 0.  1.
       -4    1    3    3    0  502  0.74965493399E+02 -0.76118726012E+03  0.40356609584E+03  0.86480811559E+03  0.12699999809E+01 0. -1.
</event>
<event>
 5   0  0.1615098E-06  0.2100206E+04  0.7818609E-02  0.8561153E-01
       -1   -1    0    0    0  501  0.00000000000E+00  0.00000000000E+00  0.11724385190E+04  0.11724385190E+04  0.50400001928E-02 0.  1.
        1   -1    0    0  501    0  0.00000000000E+00  0.00000000000E+00 -0.94053250992E+03  0.94053250994E+03  0.50400001928E-02 0. -1.
    10030    2    1    2    0    0  0.00000000000E+00  0.00000000000E+00  0.23190600903E+03  0.21129710289E+04  0.21002062213E+04 0.  0.
        1    1    3    3  502    0 -0.92395858195E+03 -0.26599172009E+03  0.54073415454E+03  0.11031067411E+04  0.50400001928E-02 0.  1.
       -1    1    3    3    0  502  0.92395858195E+03  0.26599172009E+03 -0.30882814551E+03  0.10098642878E+04  0.50400001928E-02 0. -1.
</event>
<event>
 5   0  0.3480134E-06  0.2100901E+04  0.7818609E-02  0.8560847E-01
        2   -1    0    0  501    0  0.00000000000E+00  0.00000000000E+00  0.18339499394E+04  0.18339499394E+04  0.25500000920E-02 0.  1.
       -2   -1    0    0    0  501  0.00000000000E+00  0.00000000000E+00 -0.60167749625E+03  0.60167749626E+03  0.25500000920E-02 0. -1.
    10030    2    1    2    0    0  0.00000000000E+00  0.00000000000E+00  0.12322724431E+04  0.24356274357E+04  0.21009011474E+04 0.  0.
        1    1    3    3  502    0  0.32402843477E+03 -0.11968511978E+03 -0.53395135652E+03  0.63594261187E+03  0.50400001928E-02 0. -1.
       -1    1    3    3    0  502 -0.32402843477E+03  0.11968511978E+03  0.17662237997E+04  0.17996848238E+04  0.50400001928E-02 0.  1.
</event>
<event>
 5   0  0.3636435E-06  0.2099814E+04  0.7818609E-02  0.8561326E-01
        2   -1    0    0  501    0  0.00000000000E+00  0.00000000000E+00  0.19728656584E+04  0.19728656584E+04  0.25500000920E-02 0. -1.
       -2   -1    0    0    0  501  0.00000000000E+00  0.00000000000E+00 -0.55873252558E+03  0.55873252558E+03  0.25500000920E-02 0.  1.
    10030    2    1    2    0    0  0.00000000000E+00  0.00000000000E+00  0.14141331329E+04  0.25315981840E+04  0.20998135269E+04 0.  0.
        4    1    3    3  502    0 -0.69540881434E+03 -0.19897894258E+03 -0.21041434738E+03  0.75330063662E+03  0.12699999809E+01 0.  1.
       -4    1    3    3    0  502  0.69540881434E+03  0.19897894258E+03  0.16245474802E+04  0.17782975474E+04  0.12699999809E+01 0. -1.
</event>
<event>
 5   0  0.3705828E-06  0.2099684E+04  0.7818609E-02  0.8561382E-01
       -2   -1    0    0    0  501  0.00000000000E+00  0.00000000000E+00  0.43404157055E+03  0.43404157055E+03  0.25500000920E-02 0. -1.
        2   -1    0    0  501    0  0.00000000000E+00  0.00000000000E+00 -0.25393153771E+04  0.25393153771E+04  0.25500000920E-02 0.  1.
    10030    2    1    2    0    0  0.00000000000E+00  0.00000000000E+00 -0.21052738066E+04  0.29733569477E+04  0.20996841995E+04 0.  0.
        5    1    3    3  502    0  0.56875285197E+03  0.78656349036E+03 -0.16190481985E+04  0.18877237855E+04  0.46999998093E+01 0.  1.
       -5    1    3    3    0  502 -0.56875285197E+03 -0.78656349036E+03 -0.48622560803E+03  0.10856331622E+04  0.46999998093E+01 0. -1.
</event>
<event>
 5   0  0.3480134E-06  0.2101139E+04  0.7818609E-02  0.8560742E-01
        2   -1    0    0  501    0  0.00000000000E+00  0.00000000000E+00  0.95092406827E+03  0.95092406827E+03  0.25500000920E-02 0.  1.
       -2   -1    0    0    0  501  0.00000000000E+00  0.00000000000E+00 -0.11606563274E+04  0.11606563274E+04  0.25500000920E-02 0. -1.
    10030    2    1    2    0    0  0.00000000000E+00  0.00000000000E+00 -0.20973225911E+03  0.21115803956E+04  0.21011387738E+04 0.  0.
        1    1    3    3  502    0  0.32302893065E+03 -0.46129665422E+03 -0.99615213041E+03  0.11443169841E+04  0.50400001928E-02 0. -1.
       -1    1    3    3    0  502 -0.32302893065E+03  0.46129665422E+03  0.78641987131E+03  0.96726341151E+03  0.50400001928E-02 0.  1.
</event>
<event>
 5   0  0.3705828E-06  0.2102691E+04  0.7818609E-02  0.8560059E-01
        2   -1    0    0  501    0  0.00000000000E+00  0.00000000000E+00  0.10400720695E+04  0.10400720695E+04  0.25500000920E-02 0. -1.
       -2   -1    0    0    0  501  0.00000000000E+00  0.00000000000E+00 -0.10627412069E+04  0.10627412069E+04  0.25500000920E-02 0.  1.
    10030    2    1    2    0    0  0.00000000000E+00  0.00000000000E+00 -0.22669137443E+02  0.21028132764E+04  0.21026910819E+04 0.  0.
        5    1    3    3  502    0 -0.97378354226E+03  0.38660226380E+03 -0.98458279801E+02  0.10523458654E+04  0.46999998093E+01 0. -1.
       -5    1    3    3    0  502  0.97378354226E+03 -0.38660226380E+03  0.75789142358E+02  0.10504674110E+04  0.46999998093E+01 0.  1.
</event>
<event>
 5   0  0.3480134E-06  0.2098981E+04  0.7818609E-02  0.8561692E-01
       -2   -1    0    0    0  501  0.00000000000E+00  0.00000000000E+00  0.11561128576E+04  0.11561128576E+04  0.25500000920E-02 0.  1.
        2   -1    0    0  501    0  0.00000000000E+00  0.00000000000E+00 -0.95270165183E+03  0.95270165183E+03  0.25500000920E-02 0. -1.
    10030    2    1    2    0    0  0.00000000000E+00  0.00000000000E+00  0.20341120573E+03  0.21088145094E+04  0.20989813044E+04 0.  0.
        1    1    3    3  502    0 -0.93508565579E+03 -0.13909310063E+03 -0.35616899259E+03  0.10102417659E+04  0.50400001928E-02 0. -1.
       -1    1    3    3    0  502  0.93508565579E+03  0.13909310063E+03  0.55958019833E+03  0.10985727435E+04  0.50400001928E-02 0.  1.
</event>
<event>
 5   0  0.1646510E-06  0.2096486E+04  0.7818609E-02  0.8562793E-01
       -1   -1    0    0    0  501  0.00000000000E+00  0.00000000000E+00  0.12718849968E+04  0.12718849968E+04  0.50400001928E-02 0. -1.
        1   -1    0    0  501    0  0.00000000000E+00  0.00000000000E+00 -0.86392526064E+03  0.86392526065E+03  0.50400001928E-02 0.  1.
    10030    2    1    2    0    0  0.00000000000E+00  0.00000000000E+00  0.40795973619E+03  0.21358102575E+04  0.20964861816E+04 0.  0.
        4    1    3    3  502    0 -0.11784928163E+03 -0.84034716155E+03 -0.42298231001E+03  0.94814948852E+03  0.12699999809E+01 0.  1.
       -4    1    3    3    0  502  0.11784928163E+03  0.84034716155E+03  0.83094204619E+03  0.11876607690E+04  0.12699999809E+01 0. -1.
</event>
<event>
 5   0  0.1653260E-06  0.2099677E+04  0.7818609E-02  0.8561386E-01
        1   -1    0    0  501    0  0.00000000000E+00  0.00000000000E+00  0.23179453680E+04  0.23179453680E+04  0.50400001928E-02 0. -1.
       -1   -1    0    0    0  501  0.00000000000E+00  0.00000000000E+00 -0.47549036062E+03  0.47549036064E+03  0.50400001928E-02 0.  1.
    10030    2    1    2    0    0  0.00000000000E+00  0.00000000000E+00  0.18424550074E+04  0.27934357287E+04  0.20996768123E+04 0.  0.
        3    1    3    3  502    0  0.96790406838E+03 -0.20266575780E+03  0.13901840867E+04  0.17060256447E+04  0.10100000352E+00 0. -1.
       -3    1    3    3    0  502 -0.96790406838E+03  0.20266575780E+03  0.45227092067E+03  0.10874100840E+04  0.10100000352E+00 0.  1.
</event>
<event>
 5   0  0.3480134E-06  0.2101557E+04  0.7818609E-02  0.8560558E-01
       -2   -1    0    0    0  501  0.00000000000E+00  0.00000000000E+00  0.56607582277E+03  0.56607582277E+03  0.25500000920E-02 0.  1.
        2   -1    0    0  501    0  0.00000000000E+00  0.00000000000E+00 -0.19505075688E+04  0.19505075688E+04  0.25500000920E-02 0. -1.
    10030    2    1    2    0    0  0.00000000000E+00  0.00000000000E+00 -0.13844317460E+04  0.25165833916E+04  0.21015567343E+04 0.  0.
        1    1    3    3  502    0 -0.30819266763E+03  0.35266738531E+03 -0.18186022962E+04  0.18779433742E+04  0.50400001928E-02 0. -1.
       -1    1    3    3    0  502  0.30819266763E+03 -0.35266738531E+03  0.43417055019E+03  0.63864001732E+03  0.50400001928E-02 0.  1.
</event>
<event>
 5   0  0.1579820E-06  0.2100346E+04  0.7818609E-02  0.8561091E-01
       -1   -1    0    0    0  501  0.00000000000E+00  0.00000000000E+00  0.58379128214E+03  0.58379128217E+03  0.50400001928E-02 0.  1.
        1   -1    0    0  501    0  0.00000000000E+00  0.00000000000E+00 -0.18891393709E+04  0.18891393709E+04  0.50400001928E-02 0. -1.
    10030    2    1    2    0    0  0.00000000000E+00  0.00000000000E+00 -0.13053480887E+04  0.24729306531E+04  0.21003457768E+04 0.  0.
        2    1    3    3  502    0 -0.16167542189E+03  0.87673085326E+03  0.82332782971E+00  0.89151366169E+03  0.25500000920E-02 0.  1.
       -2    1    3    3    0  502  0.16167542189E+03 -0.87673085326E+03 -0.13061714166E+04  0.15814169914E+04  0.25500000920E-02 0. -1.
</event>
<event>
 5   0  0.3547583E-06  0.2100300E+04  0.7818609E-02  0.8561111E-01
        2   -1    0    0  501    0  0.00000000000E+00  0.00000000000E+00  0.91640652570E+03  0.91640652570E+03  0.25500000920E-02 0.  1.
       -2   -1    0    0    0  501  0.00000000000E+00  0.00000000000E+00 -0.12034123790E+04  0.12034123790E+04  0.25500000920E-02 0. -1.
    10030    2    1    2    0    0  0.00000000000E+00  0.00000000000E+00 -0.28700585326E+03  0.21198189047E+04  0.21002999378E+04 0.  0.
        2    1    3    3  502    0 -0.46693179110E+03  0.65361695039E+03  0.53922610095E+03  0.96747361893E+03  0.25500000920E-02 0.  1.
       -2    1    3    3    0  502  0.46693179110E+03 -0.65361695039E+03 -0.82623195421E+03  0.11523452857E+04  0.25500000920E-02 0. -1.
</event>
<event>
 5   0  0.1646510E-06  0.2102160E+04  0.7818609E-02  0.8560292E-01
        1   -1    0    0  501    0  0.00000000000E+00  0.00000000000E+00  0.12496087040E+04  0.12496087040E+04  0.50400001928E-02 0.  1.
       -1   -1    0    0    0  501  0.00000000000E+00  0.00000000000E+00 -0.88409214134E+03  0.88409214135E+03  0.50400001928E-02 0. -1.
    10030    2    1    2    0    0  0.00000000000E+00  0.00000000000E+00  0.36551656268E+03  0.21337008454E+04  0.21021600653E+04 0.  0.
        4    1    3    3  502    0  0.57625591185E+03  0.83683047626E+03  0.45588961177E+03  0.11136395615E+04  0.12699999809E+01 0.  1.
       -4    1    3    3    0  502 -0.57625591185E+03 -0.83683047626E+03 -0.90373049089E+02  0.10200612839E+04  0.12699999809E+01 0. -1.
</event>
<event>
 5   0  0.3705828E-06  0.2101393E+04  0.7818609E-02  0.8560630E-01
       -2   -1    0    0    0  501  0.00000000000E+00  0.00000000000E+00  0.11252442276E+04  0.11252442276E+04  0.25500000920E-02 0.  1.
        2   -1    0    0  501    0  0.00000000000E+00  0.00000000000E+00 -0.98108764316E+03  0.98108764317E+03  0.25500000920E-02 0. -1.
    10030    2    1    2    0    0  0.00000000000E+00  0.00000000000E+00  0.14415658439E+03  0.21063318707E+04  0.21013930686E+04 0.  0.
        5    1    3    3  502    0 -0.56012334296E+03  0.49788117874E+02  0.96170245540E+03  0.11140514884E+04  0.46999998093E+01 0.  1.
       -5    1    3    3    0  502  0.56012334296E+03 -0.49788117874E+02 -0.81754587101E+03  0.99228038236E+03  0.46999998093E+01 0. -1.
</event>
<event>
 5   0  0.1646510E-06  0.2098585E+04  0.7818609E-02  0.8561867E-01
        1   -1    0    0  501    0  0.00000000000E+00  0.00000000000E+00  0.70112992977E+03  0.70112992979E+03  0.50400001928E-02 0. -1.
       -1   -1    0    0    0  501  0.00000000000E+00  0.00000000000E+00 -0.15703435501E+04  0.15703435501E+04  0.50400001928E-02 0.  1.
    10030    2    1    2    0    0  0.00000000000E+00  0.00000000000E+00 -0.86921362029E+03  0.22714734798E+04  0.20985851072E+04 0.  0.
        4    1    3    3  502    0  0.86267736862E+03  0.20462879220E+03  0.17280994389E+03  0.90329954861E+03  0.12699999809E+01 0. -1.
       -4    1    3    3    0  502 -0.86267736862E+03 -0.20462879220E+03 -0.10420235642E+04  0.13681739312E+04  0.12699999809E+01 0.  1.
</event>
<event>
 5   0  0.3480134E-06  0.2100259E+04  0.7818609E-02  0.8561129E-01
       -2   -1    0    0    0  501  0.00000000000E+00  0.00000000000E+00  0.68167592281E+03  0.68167592282E+03  0.25500000920E-02 0.  1.
        2   -1    0    0  501    0  0.00000000000E+00  0.00000000000E+00 -0.16177370107E+04  0.16177370107E+04  0.25500000920E-02 0. -1.
    10030    2    1    2    0    0  0.00000000000E+00  0.00000000000E+00 -0.93606108792E+03  0.22994129336E+04  0.21002593837E+04 0.  0.
        1    1    3    3  502    0  0.84021117438E+03 -0.30549680990E+03  0.13510606948E+03  0.90417739877E+03  0.50400001928E-02 0.  1.
       -1    1    3    3    0  502 -0.84021117438E+03  0.30549680990E+03 -0.10711671574E+04  0.13952355348E+04  0.50400001928E-02 0. -1.
</event>
<event>
 5   0  0.1579820E-06  0.2098398E+04  0.7818609E-02  0.8561950E-01
        1   -1    0    0  501    0  0.00000000000E+00  0.00000000000E+00  0.74717519771E+03  0.74717519773E+03  0.50400001928E-02 0.  1.
       -1   -1    0    0    0  501  0.00000000000E+00  0.00000000000E+00 -0.14733066281E+04  0.14733066281E+04  0.50400001928E-02 0. -1.
    10030    2    1    2    0    0  0.00000000000E+00  0.00000000000E+00 -0.72613143039E+03  0.22204818258E+04  0.20983976469E+04 0.  0.
        2    1    3    3  502    0 -0.10242512787E+04 -0.56240204706E+02 -0.12987082948E+03  0.10339826279E+04  0.25500000920E-02 0. -1.
       -2    1    3    3    0  502  0.10242512787E+04  0.56240204706E+02 -0.59626060091E+03  0.11864991979E+04  0.25500000920E-02 0.  1.
</event>
<event>
 5   0  0.1579820E-06  0.2100583E+04  0.7818609E-02  0.8560986E-01
        1   -1    0    0  501    0  0.00000000000E+00  0.00000000000E+00  0.14920800831E+04  0.14920800832E+04  0.50400001928E-02 0. -1.
       -1   -1    0    0    0  501  0.00000000000E+00  0.00000000000E+00 -0.73931195103E+03  0.73931195105E+03  0.50400001928E-02 0.  1.
    10030    2    1    2    0    0  0.00000000000E+00  0.00000000000E+00  0.75276813211E+03  0.22313920342E+04  0.21005833831E+04 0.  0.
        2    1    3    3  502    0  0.41483667784E+02 -0.32967736855E+03  0.14347746428E+04  0.14727478866E+04  0.25500000920E-02 0. -1.
       -2    1    3    3    0  502 -0.41483667784E+02  0.32967736855E+03 -0.68200651067E+03  0.75864414756E+03  0.25500000920E-02 0.  1.
</event>
<event>
 5   0  0.1653260E-06  0.2100737E+04  0.7818609E-02  0.8560919E-01
        1   -1    0    0  501    0  0.00000000000E+00  0.00000000000E+00  0.13011040271E+04  0.13011040271E+04  0.50400001928E-02 0.  1.
       -1   -1    0    0    0  501  0.00000000000E+00  0.00000000000E+00 -0.84795224467E+03  0.84795224468E+03  0.50400001928E-02 0. -1.
    10030    2    1    2    0    0  0.00000000000E+00  0.00000000000E+00  0.45315178239E+03  0.21490562717E+04  0.21007370900E+04 0.  0.
        3    1    3    3  502    0  0.68082519090E+03 -0.25955085105E+03  0.10005385553E+04  0.12377265432E+04  0.10100000352E+00 0.  1.
       -3    1    3    3    0  502 -0.68082519090E+03  0.25955085105E+03 -0.54738677290E+03  0.91132972858E+03  0.10100000352E+00 0. -1.
</event>
<event>
 5   0  0.1590067E-06  0.2102945E+04  0.7818609E-02  0.8559947E-01
        1   -1    0    0  501    0  0.00000000000E+00  0.00000000000E+00  0.11891333754E+04  0.11891333754E+04  0.50400001928E-02 0. -1.
       -1   -1    0    0    0  501  0.00000000000E+00  0.00000000000E+00 -0.92974835775E+03  0.92974835776E+03  0.50400001928E-02 0.  1.
    10030    2    1    2    0    0  0.00000000000E+00  0.00000000000E+00  0.25938501761E+03  0.21188817331E+04  0.21029453658E+04 0.  0.
        5    1    3    3  502    0  0.65781805391E+03  0.69328624540E+03  0.57142365313E+03  0.11135158245E+04  0.46999998093E+01 0.  1.
       -5    1    3    3    0  502 -0.65781805391E+03 -0.69328624540E+03 -0.31203863552E+03  0.10053659086E+04  0.46999998093E+01 0. -1.
</event>
<event>
 5   0  0.1646510E-06  0.2101036E+04  0.7818609E-02  0.8560787E-01
       -1   -1    0    0    0  501  0.00000000000E+00  0.00000000000E+00  0.85837543040E+03  0.85837543041E+03  0.50400001928E-02 0.  1.
        1   -1    0    0  501    0  0.00000000000E+00  0.00000000000E+00 -0.12856701874E+04  0.12856701874E+04  0.50400001928E-02 0. -1.
    10030    2    1    2    0    0  0.00000000000E+00  0.00000000000E+00 -0.42729475703E+03  0.21440456179E+04  0.21010356499E+04 0.  0.
        4    1    3    3  502    0 -0.70043188082E+03 -0.60585802726E+03 -0.71969939231E+03  0.11728757807E+04  0.12699999809E+01 0. -1.
       -4    1    3    3    0  502  0.70043188082E+03  0.60585802726E+03  0.29240463528E+03  0.97116983711E+03  0.12699999809E+01 0.  1.
</event>
<event>
 5   0  0.3636435E-06  0.2101854E+04  0.7818609E-02  0.8560427E-01
       -2   -1    0    0    0  501  0.00000000000E+00  0.00000000000E+00  0.42396957166E+03  0.42396957167E+03  0.25500000920E-02 0.  1.
        2   -1    0    0  501    0  0.00000000000E+00  0.00000000000E+00 -0.26050172194E+04  0.26050172194E+04  0.25500000920E-02 0. -1.
    10030    2    1    2    0    0  0.00000000000E+00  0.00000000000E+00 -0.21810476477E+04  0.30289867911E+04  0.21018544523E+04 0.  0.
        4    1    3    3  502    0  0.75281980633E+03  0.32319989550E+03 -0.14196488484E+03  0.83147548050E+03  0.12699999809E+01 0.  1.
       -4    1    3    3    0  502 -0.75281980633E+03 -0.32319989550E+03 -0.20390827629E+04  0.21975113106E+04  0.12699999809E+01 0. -1.
</event>
<event>
 5   0  0.3480134E-06  0.2099937E+04  0.7818609E-02  0.8561271E-01
        2   -1    0    0  501    0  0.00000000000E+00  0.00000000000E+00  0.12847296581E+04  0.12847296581E+04  0.25500000920E-02 0.  1.
       -2   -1    0    0    0  501  0.00000000000E+00  0.00000000000E+00 -0.85810543647E+03  0.85810543648E+03  0.25500000920E-02 0. -1.
    10030    2    1    2    0    0  0.00000000000E+00  0.00000000000E+00  0.42662422163E+03  0.21428350946E+04  0.20999366695E+04 0.  0.
        1    1    3    3  502    0 -0.39296718275E+03  0.40185043933E+03  0.11182926474E+04  0.12515931558E+04  0.50400001928E-02 0.  1.
       -1    1    3    3    0  502  0.39296718275E+03 -0.40185043933E+03 -0.69166842576E+03  0.89124193883E+03  0.50400001928E-02 0. -1.
</event>
<event>
 5   0  0.3705828E-06  0.2100082E+04  0.7818609E-02  0.8561207E-01
        2   -1    0    0  501    0  0.00000000000E+00  0.00000000000E+00  0.52314274291E+03  0.52314274292E+03  0.25500000920E-02 0.  1.
       -2   -1    0    0    0  501  0.00000000000E+00  0.00000000000E+00 -0.21076193403E+04  0.21076193403E+04  0.25500000920E-02 0. -1.
    10030    2    1    2    0    0  0.00000000000E+00  0.00000000000E+00 -0.15844765974E+04  0.26307620832E+04  0.21000816772E+04 0.  0.
        5    1    3    3  502    0  0.85601785705E+03  0.58348423560E+03 -0.10068233575E+04  0.14446230609E+04  0.46999998093E+01 0. -1.
       -5    1    3    3    0  502 -0.85601785705E+03 -0.58348423560E+03 -0.57765323986E+03  0.11861390223E+04  0.46999998093E+01 0.  1.
</event>
<event>
 5   0  0.3547583E-06  0.2099827E+04  0.7818609E-02  0.8561320E-01
       -2   -1    0    0    0  501  0.00000000000E+00  0.00000000000E+00  0.14106132087E+04  0.14106132087E+04  0.25500000920E-02 0. -1.
        2   -1    0    0  501    0  0.00000000000E+00  0.00000000000E+00 -0.78144616404E+03  0.78144616405E+03  0.25500000920E-02 0.  1.
    10030    2    1    2    0    0  0.00000000000E+00  0.00000000000E+00  0.62916704461E+03  0.21920593727E+04  0.20998269270E+04 0.  0.
        2    1    3    3  502    0  0.78203994360E+03  0.64459344079E+03  0.28253077023E+02  0.10138468394E+04  0.25500000920E-02 0.  1.
       -2    1    3    3    0  502 -0.78203994360E+03 -0.64459344079E+03  0.60091396759E+03  0.11782125334E+04  0.25500000920E-02 0. -1.
</event>
<event>
 5   0  0.1579820E-06  0.2099825E+04  0.7818609E-02  0.8561320E-01
       -1   -1    0    0    0  501  0.00000000000E+00  0.00000000000E+00  0.69587425276E+03  0.69587425277E+03  0.50400001928E-02 0. -1.
        1   -1    0    0  501    0  0.00000000000E+00  0.00000000000E+00 -0.15840740057E+04  0.15840740057E+04  0.50400001928E-02 0.  1.
    10030    2    1    2    0    0  0.00000000000E+00  0.00000000000E+00 -0.88819975297E+03  0.22799482585E+04  0.20998250547E+04 0.  0.
        2    1    3    3  502    0 -0.86882061409E+02 -0.76326184903E+03 -0.12211719723E+04  0.14426982113E+04  0.25500000920E-02 0.  1.
       -2    1    3    3    0  502  0.86882061409E+02  0.76326184903E+03  0.33297221934E+03  0.83725004726E+03  0.25500000920E-02 0. -1.
</event>
<event>
 5   0  0.1615098E-06  0.2100361E+04  0.7818609E-02  0.8561084E-01
        1   -1    0    0  501    0  0.00000000000E+00  0.00000000000E+00  0.10246510691E+04  0.10246510691E+04  0.50400001928E-02 0.  1.
       -1   -1    0    0    0  501  0.00000000000E+00  0.00000000000E+00 -0.10763460775E+04  0.10763460775E+04  0.50400001928E-02 0. -1.
    10030    2    1    2    0    0  0.00000000000E+00  0.00000000000E+00 -0.51695008396E+02  0.21009971467E+04  0.21003610729E+04 0.  0.
        1    1    3    3  502    0  0.42441358660E+03 -0.25156324844E+03 -0.95320333695E+03  0.10733161520E+04  0.50400001928E-02 0. -1.
       -1    1    3    3    0  502 -0.42441358660E+03  0.25156324844E+03  0.90150832855E+03  0.10276809947E+04  0.50400001928E-02 0.  1.
</event>
<event>
 5   0  0.3705828E-06  0.2100063E+04  0.7818609E-02  0.8561216E-01
       -2   -1    0    0    0  501  0.00000000000E+00  0.00000000000E+00  0.15155794639E+04  0.15155794639E+04  0.25500000920E-02 0.  1.
        2   -1    0    0  501    0  0.00000000000E+00  0.00000000000E+00 -0.72748802820E+03  0.72748802820E+03  0.25500000920E-02 0. -1.
    10030    2    1    2    0    0  0.00000000000E+00  0.00000000000E+00  0.78809143569E+03  0.22430674921E+04  0.21000627760E+04 0.  0.
        5    1    3    3  502    0  0.24041339507E+03  0.83192920572E+03 -0.24022585657E+03  0.89868534873E+03  0.46999998093E+01 0. -1.
       -5    1    3    3    0  502 -0.24041339507E+03 -0.83192920572E+03  0.10283172923E+04  0.13443821434E+04  0.46999998093E+01 0.  1.
</event>
<event>
 5   0  0.3480134E-06  0.2099320E+04  0.7818609E-02  0.8561543E-01
       -2   -1    0    0    0  501  0.00000000000E+00  0.00000000000E+00  0.36063765472E+03  0.36063765473E+03  0.25500000920E-02 0.  1.
        2   -1    0    0  501    0  0.00000000000E+00  0.00000000000E+00 -0.30551062973E+04  0.30551062973E+04  0.25500000920E-02 0. -1.
    10030    2    1    2    0    0  0.00000000000E+00  0.00000000000E+00 -0.26944686425E+04  0.34157439520E+04  0.20993202424E+04 0.  0.
        1    1    3    3  502    0 -0.20041030146E+03  0.46688359320E+03  0.14723036494E+03  0.52898143532E+03  0.50400001928E-02 0.  1.
       -1    1    3    3    0  502  0.20041030146E+03 -0.46688359320E+03 -0.28416990075E+04  0.28867625167E+04  0.50400001928E-02 0. -1.
</event>
<event>
 5   0  0.1590067E-06  0.2102258E+04  0.7818609E-02  0.8560250E-01
       -1   -1    0    0    0  501  0.00000000000E+00  0.00000000000E+00  0.11942505577E+04  0.11942505577E+04  0.50400001928E-02 0. -1.
        1   -1    0    0  501    0  0.00000000000E+00  0.00000000000E+00 -0.92515911682E+03  0.92515911683E+03  0.50400001928E-02 0.  1.
    10030    2    1    2    0    0  0.00000000000E+00  0.00000000000E+00  0.26909144087E+03  0.21194096745E+04  0.21022576352E+04 0.  0.
        5    1    3    3  502    0 -0.43323179201E+03 -0.94446527530E+03 -0.25320620126E+02  0.10394073627E+04  0.46999998093E+01 0. -1.
       -5    1    3    3    0  502  0.43323179201E+03  0.94446527530E+03  0.29441206099E+03  0.10800023118E+04  0.46999998093E+01 0.  1.
</event>
<event>
 5   0  0.1653260E-06  0.2101452E+04  0.7818609E-02  0.8560604E-01
       -1   -1    0    0    0  501  0.00000000000E+00  0.00000000000E+00  0.46012622946E+03  0.46012622949E+03  0.50400001928E-02 0.  1.
        1   -1    0    0  501    0  0.00000000000E+00  0.00000000000E+00 -0.23993971907E+04  0.23993971908E+04  0.50400001928E-02 0. -1.
    10030    2    1    2    0    0  0.00000000000E+00  0.00000000000E+00 -0.19392709613E+04  0.28595234202E+04  0.21014524333E+04 0.  0.
        3    1    3    3  502    0 -0.10007485978E+04 -0.27054928211E+03 -0.73659208292E+03  0.12717163901E+04  0.10100000352E+00 0.  1.
       -3    1    3    3    0  502  0.10007485978E+04  0.27054928211E+03 -0.12026788784E+04  0.15878070301E+04  0.10100000352E+00 0. -1.
</event>
<event>
 5   0  0.3705828E-06  0.2101551E+04  0.7818609E-02  0.8560560E-01
        2   -1    0    0  501    0  0.00000000000E+00  0.00000000000E+00  0.21967748904E+04  0.21967748904E+04  0.25500000920E-02 0.  1.
       -2   -1    0    0    0  501  0.00000000000E+00  0.00000000000E+00 -0.50261387536E+03  0.50261387536E+03  0.25500000920E-02 0. -1.
    10030    2    1    2    0    0  0.00000000000E+00  0.00000000000E+00  0.16941610150E+04  0.26993887657E+04  0.21015513707E+04 0.  0.
        5    1    3    3  502    0  0.76586894403E+03 -0.43190461454E+03  0.15860838225E+04  0.18134996051E+04  0.46999998093E+01 0.  1.
       -5    1    3    3    0  502 -0.76586894403E+03  0.43190461454E+03  0.10807719251E+03  0.88588916069E+03  0.46999998093E+01 0. -1.
</event>
<event>
 5   0  0.1653260E-06  0.2099922E+04  0.7818609E-02  0.8561278E-01
        1   -1    0    0  501    0  0.00000000000E+00  0.00000000000E+00  0.72185715752E+03  0.72185715754E+03  0.50400001928E-02 0. -1.
       -1   -1    0    0    0  501  0.00000000000E+00  0.00000000000E+00 -0.15271967872E+04  0.15271967872E+04  0.50400001928E-02 0.  1.
    10030    2    1    2    0    0  0.00000000000E+00  0.00000000000E+00 -0.80533962963E+03  0.22490539447E+04  0.20999218383E+04 0.  0.
        3    1    3    3  502    0 -0.20663707647E+03 -0.79158244086E+03 -0.11075235349E+04  0.13769204888E+04  0.10100000352E+00 0.  1.
       -3    1    3    3    0  502  0.20663707647E+03  0.79158244086E+03  0.30218390525E+03  0.87213345587E+03  0.10100000352E+00 0. -1.
</event>
<event>
 5   0  0.3705828E-06  0.2099869E+04  0.7818609E-02  0.8561301E-01
        2   -1    0    0  501    0  0.00000000000E+00  0.00000000000E+00  0.20966348176E+04  0.20966348176E+04  0.25500000920E-02 0.  1.
       -2   -1    0    0    0  501  0.00000000000E+00  0.00000000000E+00 -0.52577714431E+03  0.52577714431E+03  0.25500000920E-02 0. -1.
    10030    2    1    2    0    0  0.00000000000E+00  0.00000000000E+00  0.15708576732E+04  0.26224119619E+04  0.20998692026E+04 0.  0.
        5    1    3    3  502    0 -0.50804114672E+02  0.56123154631E+03  0.18917526702E+04  0.19739078403E+04  0.46999998093E+01 0.  1.
       -5    1    3    3    0  502  0.50804114672E+02 -0.56123154631E+03 -0.32089499697E+03  0.64850412159E+03  0.46999998093E+01 0. -1.
</event>
<event>
 5   0  0.1579820E-06  0.2100978E+04  0.7818609E-02  0.8560813E-01
       -1   -1    0    0    0  501  0.00000000000E+00  0.00000000000E+00  0.59596213839E+03  0.59596213841E+03  0.50400001928E-02 0.  1.
        1   -1    0    0  501    0  0.00000000000E+00  0.00000000000E+00 -0.18516729337E+04  0.18516729337E+04  0.50400001928E-02 0. -1.
    10030    2    1    2    0    0  0.00000000000E+00  0.00000000000E+00 -0.12557107953E+04  0.24476350721E+04  0.21009778306E+04 0.  0.
        2    1    3    3  502    0  0.82324042662E+03  0.17063191470E+03  0.10589632372E+03  0.84738071828E+03  0.25500000920E-02 0.  1.
       -2    1    3    3    0  502 -0.82324042662E+03 -0.17063191470E+03 -0.13616071190E+04  0.16002543538E+04  0.25500000920E-02 0. -1.
</event>
<event>
 5   0  0.3480134E-06  0.2099050E+04  0.7818609E-02  0.8561662E-01
       -2   -1    0    0    0  501  0.00000000000E+00  0.00000000000E+00  0.70106118498E+03  0.70106118498E+03  0.25500000920E-02 0.  1.
        2   -1    0    0  501    0  0.00000000000E+00  0.00000000000E+00 -0.15711936505E+04  0.15711936505E+04  0.25500000920E-02 0. -1.
    10030    2    1    2    0    0  0.00000000000E+00  0.00000000000E+00 -0.87013246549E+03  0.22722548355E+04  0.20990501494E+04 0.  0.
        1    1    3    3  502    0  0.36113137387E+03  0.97874865098E+03 -0.55914582602E+03  0.11836421950E+04  0.50400001928E-02 0. -1.
       -1    1    3    3    0  502 -0.36113137387E+03 -0.97874865098E+03 -0.31098663947E+03  0.10886126405E+04  0.50400001928E-02 0.  1.
</event>
<event>
 5   0  0.1579820E-06  0.2099456E+04  0.7818609E-02  0.8561483E-01
       -1   -1    0    0    0  501  0.00000000000E+00  0.00000000000E+00  0.20591687799E+04  0.20591687799E+04  0.50400001928E-02 0. -1.
        1   -1    0    0  501    0  0.00000000000E+00  0.00000000000E+00 -0.53513295043E+03  0.53513295046E+03  0.50400001928E-02 0.  1.
    10030    2    1    2    0    0  0.00000000000E+00  0.00000000000E+00  0.15240358295E+04  0.25943017304E+04  0.20994561817E+04 0.  0.
        2    1    3    3  502    0  0.22828218126E+03  0.13698819356E+02  0.20280115122E+04  0.20408652835E+04  0.25500000920E-02 0. -1.
       -2    1    3    3    0  502 -0.22828218126E+03 -0.13698819356E+02 -0.50397568271E+03  0.55343644685E+03  0.25500000920E-02 0.  1.
</event>
<event>
 5   0  0.3636435E-06  0.2104795E+04  0.7818609E-02  0.8559134E-01
        2   -1    0    0  501    0  0.00000000000E+00  0.00000000000E+00  0.13295285928E+04  0.13295285928E+04  0.25500000920E-02 0.  1.
       -2   -1    0    0    0  501  0.00000000000E+00  0.00000000000E+00 -0.83303273870E+03  0.83303273871E+03  0.25500000920E-02 0. -1.
    10030    2    1    2    0    0  0.00000000000E+00  0.00000000000E+00  0.49649585406E+03  0.21625613315E+04  0.21047953295E+04 0.  0.
        4    1    3    3  502    0  0.87145972572E+03  0.14255555236E+03 -0.33998121472E+03  0.94623093287E+03  0.12699999809E+01 0.  1.
       -4    1    3    3    0  502 -0.87145972572E+03 -0.14255555236E+03  0.83647706878E+03  0.12163303986E+04  0.12699999809E+01 0. -1.
</event>
<event>
 5   0  0.1646510E-06  0.2099375E+04  0.7818609E-02  0.8561519E-01
       -1   -1    0    0    0  501  0.00000000000E+00  0.00000000000E+00  0.11947326640E+04  0.11947326640E+04  0.50400001928E-02 0. -1.
        1   -1    0    0  501    0  0.00000000000E+00  0.00000000000E+00 -0.92225103509E+03  0.92225103511E+03  0.50400001928E-02 0.  1.
    10030    2    1    2    0    0  0.00000000000E+00  0.00000000000E+00  0.27248162889E+03  0.21169836991E+04  0.20993746079E+04 0.  0.
        4    1    3    3  502    0  0.73677312745E+03  0.58578853004E+03  0.60474409261E+03  0.11187939371E+04  0.12699999809E+01 0. -1.
       -4    1    3    3    0  502 -0.73677312745E+03 -0.58578853004E+03 -0.33226246372E+03  0.99818976199E+03  0.12699999809E+01 0.  1.
</event>
<event>
 5   0  0.1579820E-06  0.2100910E+04  0.7818609E-02  0.8560842E-01
       -1   -1    0    0    0  501  0.00000000000E+00  0.00000000000E+00  0.78521731845E+03  0.78521731847E+03  0.50400001928E-02 0. -1.
        1   -1    0    0  501    0  0.00000000000E+00  0.00000000000E+00 -0.14052874742E+04  0.14052874742E+04  0.50400001928E-02 0.  1.
    10030    2    1    2    0    0  0.00000000000E+00  0.00000000000E+00 -0.62007015570E+03  0.21905047926E+04  0.21009103381E+04 0.  0.
        2    1    3    3  502    0  0.85762482469E+03  0.52198271172E+03  0.12123448284E+02  0.10040583993E+04  0.25500000920E-02 0. -1.
       -2    1    3    3    0  502 -0.85762482469E+03 -0.52198271172E+03 -0.63219360399E+03  0.11864463933E+04  0.25500000920E-02 0.  1.
</event>
<event>
 5   0  0.1590067E-06  0.2098875E+04  0.7818609E-02  0.8561739E-01
       -1   -1    0    0    0  501  0.00000000000E+00  0.00000000000E+00  0.11259511045E+04  0.11259511045E+04  0.50400001928E-02 0. -1.
        1   -1    0    0  501    0  0.00000000000E+00  0.00000000000E+00 -0.97812380571E+03  0.97812380572E+03  0.50400001928E-02 0.  1.
    10030    2    1    2    0    0  0.00000000000E+00  0.00000000000E+00  0.14782729878E+03  0.21040749102E+04  0.20988754888E+04 0.  0.
        5    1    3    3  502    0 -0.55862247588E+03 -0.80361249772E+03 -0.30576641366E+03  0.10253620369E+04  0.46999998093E+01 0.  1.
       -5    1    3    3    0  502  0.55862247588E+03  0.80361249772E+03  0.45359371243E+03  0.10787128733E+04  0.46999998093E+01 0. -1.
</event>
<event>
 5   0  0.1579820E-06  0.2100197E+04  0.7818609E-02  0.8561157E-01
        1   -1    0    0  501    0  0.00000000000E+00  0.00000000000E+00  0.75526582054E+03  0.75526582056E+03  0.50400001928E-02 0.  1.
       -1   -1    0    0    0  501  0.00000000000E+00  0.00000000000E+00 -0.14600250757E+04  0.14600250757E+04  0.50400001928E-02 0. -1.
    10030    2    1    2    0    0  0.00000000000E+00  0.00000000000E+00 -0.70475925519E+03  0.22152908963E+04  0.21001971687E+04 0.  0.
        2    1    3    3  502    0 -0.50932550961E+02 -0.76230636447E+03 -0.11122774078E+04  0.13493947347E+04  0.25500000920E-02 0. -1.
       -2    1    3    3    0  502  0.50932550961E+02  0.76230636447E+03  0.40751815259E+03  0.86589616164E+03  0.25500000920E-02 0.  1.
</event>
<event>
 5   0  0.1653260E-06  0.2099824E+04  0.7818609E-02  0.8561321E-01
       -1   -1    0    0    0  501  0.00000000000E+00  0.00000000000E+00  0.90667803538E+03  0.90667803539E+03  0.50400001928E-02 0.  1.
        1   -1    0    0  501    0  0.00000000000E+00  0.00000000000E+00 -0.12157730990E+04  0.12157730990E+04  0.50400001928E-02 0. -1.
    10030    2    1    2    0    0  0.00000000000E+00  0.00000000000E+00 -0.30909506361E+03  0.21224511344E+04  0.20998235782E+04 0.  0.
        3    1    3    3  502    0  0.20196526429E+03  0.98237292715E+03  0.15939273418E+03  0.10155060757E+04  0.10100000352E+00 0.  1.
       -3    1    3    3    0  502 -0.20196526429E+03 -0.98237292715E+03 -0.46848779779E+03  0.11069450586E+04  0.10100000352E+00 0. -1.
</event>
<event>
 5   0  0.1590067E-06  0.2100714E+04  0.7818609E-02  0.8560929E-01
        1   -1    0    0  501    0  0.00000000000E+00  0.00000000000E+00  0.25653011850E+04  0.25653011850E+04  0.50400001928E-02 0. -1.
       -1   -1    0    0    0  501  0.00000000000E+00  0.00000000000E+00 -0.43006642149E+03  0.43006642152E+03  0.50400001928E-02 0.  1.
    10030    2    1    2    0    0  0.00000000000E+00  0.00000000000E+00  0.21352347635E+04  0.29953676065E+04  0.21007140698E+04 0.  0.
        5    1    3    3  502    0  0.24315597944E+03 -0.10075885447E+04  0.13098841392E+04  0.16703826070E+04  0.46999998093E+01 0. -1.
       -5    1    3    3    0  502 -0.24315597944E+03  0.10075885447E+04  0.82535062435E+03  0.13249849995E+04  0.46999998093E+01 0.  1.
</event>
<event>
 5   0  0.1590067E-06  0.2099739E+04  0.7818609E-02  0.8561358E-01
        1   -1    0    0  501    0  0.00000000000E+00  0.00000000000E+00  0.20562476236E+04  0.20562476236E+04  0.50400001928E-02 0.  1.
       -1   -1    0    0    0  501  0.00000000000E+00  0.00000000000E+00 -0.53603770015E+03  0.53603770018E+03  0.50400001928E-02 0. -1.
    10030    2    1    2    0    0  0.00000000000E+00  0.00000000000E+00  0.15202099235E+04  0.25922853238E+04  0.20997392668E+04 0.  0.
        5    1    3    3  502    0  0.77571321893E+03  0.58614613694E+03  0.27107325229E+03  0.10093567704E+04  0.46999998093E+01 0. -1.
       -5    1    3    3    0  502 -0.77571321893E+03 -0.58614613694E+03  0.12491366712E+04  0.15829285534E+04  0.46999998093E+01 0.  1.
</event>
<event>
 5   0  0.1590067E-06  0.2099865E+04  0.7818609E-02  0.8561303E-01
        1   -1    0    0  501    0  0.00000000000E+00  0.00000000000E+00  0.20201349965E+04  0.20201349965E+04  0.50400001928E-02 0. -1.
       -1   -1    0    0    0  501  0.00000000000E+00  0.00000000000E+00 -0.54568532659E+03  0.54568532661E+03  0.50400001928E-02 0.  1.
    10030    2    1    2    0    0  0.00000000000E+00  0.00000000000E+00  0.14744496699E+04  0.25658203231E+04  0.20998647817E+04 0.  0.
        5    1    3    3  502    0 -0.78808045377E+03 -0.68949155955E+03  0.83081394141E+03  0.13366911788E+04  0.46999998093E+01 0. -1.
       -5    1    3    3    0  502  0.78808045377E+03  0.68949155955E+03  0.64363572845E+03  0.12291291442E+04  0.46999998093E+01 0.  1.
</event>
<event>
 5   0  0.3636435E-06  0.2095569E+04  0.7818609E-02  0.8563198E-01
       -2   -1    0    0    0  501  0.00000000000E+00  0.00000000000E+00  0.59791332500E+03  0.59791332501E+03  0.25500000920E-02 0. -1.
        2   -1    0    0  501    0  0.00000000000E+00  0.00000000000E+00 -0.18361402536E+04  0.18361402536E+04  0.25500000920E-02 0.  1.
    10030    2    1    2    0    0  0.00000000000E+00  0.00000000000E+00 -0.12382269286E+04  0.24340535786E+04  0.20955693491E+04 0.  0.
        4    1    3    3  502    0 -0.11622275388E+03  0.11433360433E+03 -0.18213164795E+04  0.18285992543E+04  0.12699999809E+01 0.  1.
       -4    1    3    3    0  502  0.11622275388E+03 -0.11433360433E+03  0.58308955086E+03  0.60545432431E+03  0.12699999809E+01 0. -1.
</event>
<event>
 5   0  0.1646510E-06  0.2098889E+04  0.7818609E-02  0.8561733E-01
        1   -1    0    0  501    0  0.00000000000E+00  0.00000000000E+00  0.86186896920E+03  0.86186896921E+03  0.50400001928E-02 0. -1.
       -1   -1    0    0    0  501  0.00000000000E+00  0.00000000000E+00 -0.12778432059E+04  0.12778432059E+04  0.50400001928E-02 0.  1.
    10030    2    1    2    0    0  0.00000000000E+00  0.00000000000E+00 -0.41597423673E+03  0.21397121751E+04  0.20988886647E+04 0.  0.
        4    1    3    3  502    0  0.95951875299E+03 -0.42493451666E+03 -0.21745281060E+03  0.10716962809E+04  0.12699999809E+01 0. -1.
       -4    1    3    3    0  502 -0.95951875299E+03  0.42493451666E+03 -0.19852142614E+03  0.10680158942E+04  0.12699999809E+01 0.  1.
</event>
<event>
 5   0  0.3574927E-06  0.2099838E+04  0.7818609E-02  0.8561315E-01
        2   -1    0    0  501    0  0.00000000000E+00  0.00000000000E+00  0.11400692354E+04  0.11400692354E+04  0.25500000920E-02 0.  1.
       -2   -1    0    0    0  501  0.00000000000E+00  0.00000000000E+00 -0.96689769433E+03  0.96689769434E+03  0.25500000920E-02 0. -1.
    10030    2    1    2    0    0  0.00000000000E+00  0.00000000000E+00  0.17317154104E+03  0.21069669297E+04  0.20998383891E+04 0.  0.
        3    1    3    3  502    0  0.16702796732E+03  0.78375331483E+03  0.76724158112E+03  0.11094265430E+04  0.10100000352E+00 0.  1.
       -3    1    3    3    0  502 -0.16702796732E+03 -0.78375331483E+03 -0.59407004008E+03  0.99754038669E+03  0.10100000352E+00 0. -1.
</event>
<event>
 5   0  0.3480134E-06  0.2100246E+04  0.7818609E-02  0.8561135E-01
       -2   -1    0    0    0  501  0.00000000000E+00  0.00000000000E+00  0.89079606372E+03  0.89079606372E+03  0.25500000920E-02 0.  1.
        2   -1    0    0  501    0  0.00000000000E+00  0.00000000000E+00 -0.12379470092E+04  0.12379470092E+04  0.25500000920E-02 0. -1.
    10030    2    1    2    0    0  0.00000000000E+00  0.00000000000E+00 -0.34715094548E+03  0.21287430729E+04  0.21002460074E+04 0.  0.
        1    1    3    3  502    0 -0.31886370196E+03  0.68777563146E+03  0.56295406572E+03  0.94425984760E+03  0.50400001928E-02 0.  1.
       -1    1    3    3    0  502  0.31886370196E+03 -0.68777563146E+03 -0.91010501119E+03  0.11844832253E+04  0.50400001928E-02 0. -1.
</event>
<event>
 5   0  0.1646510E-06  0.2100387E+04  0.7818609E-02  0.8561073E-01
       -1   -1    0    0    0  501  0.00000000000E+00  0.00000000000E+00  0.12489116940E+04  0.12489116940E+04  0.50400001928E-02 0. -1.
        1   -1    0    0  501    0  0.00000000000E+00  0.00000000000E+00 -0.88309391207E+03  0.88309391208E+03  0.50400001928E-02 0.  1.
    10030    2    1    2    0    0  0.00000000000E+00  0.00000000000E+00  0.36581778195E+03  0.21320056061E+04  0.21003869298E+04 0.  0.
        4    1    3    3  502    0 -0.42981718384E+03 -0.93595673558E+03  0.39129642837E+03  0.11017587441E+04  0.12699999809E+01 0. -1.
       -4    1    3    3    0  502  0.42981718384E+03  0.93595673558E+03 -0.25478646419E+02  0.10302468620E+04  0.12699999809E+01 0.  1.
</event>
<event>
 5   0  0.3480134E-06  0.2100701E+04  0.7818609E-02  0.8560935E-01
        2   -1    0    0  501    0  0.00000000000E+00  0.00000000000E+00  0.25659530444E+04  0.25659530444E+04  0.25500000920E-02 0.  1.
       -2   -1    0    0    0  501  0.00000000000E+00  0.00000000000E+00 -0.42995167499E+03  0.42995167500E+03  0.25500000920E-02 0. -1.
    10030    2    1    2    0    0  0.00000000000E+00  0.00000000000E+00  0.21360013695E+04  0.29959047194E+04  0.21007006540E+04 0.  0.
        1    1    3    3  502    0  0.92153739424E+03  0.50397992822E+03  0.10637526975E+04  0.14949236564E+04  0.50400001928E-02 0.  1.
       -1    1    3    3    0  502 -0.92153739424E+03 -0.50397992822E+03  0.10722486720E+04  0.15009810630E+04  0.50400001928E-02 0. -1.
</event>
<event>
 5   0  0.3574927E-06  0.2099912E+04  0.7818609E-02  0.8561282E-01
        2   -1    0    0  501    0  0.00000000000E+00  0.00000000000E+00  0.14873381598E+04  0.14873381598E+04  0.25500000920E-02 0. -1.
       -2   -1    0    0    0  501  0.00000000000E+00  0.00000000000E+00 -0.74119466703E+03  0.74119466704E+03  0.25500000920E-02 0.  1.
    10030    2    1    2    0    0  0.00000000000E+00  0.00000000000E+00  0.74614349280E+03  0.22285328269E+04  0.20999115335E+04 0.  0.
        3    1    3    3  502    0 -0.71861710647E+03 -0.56722998576E+03  0.91860700229E+03  0.12969191329E+04  0.10100000352E+00 0. -1.
       -3    1    3    3    0  502  0.71861710647E+03  0.56722998576E+03 -0.17246350949E+03  0.93161369395E+03  0.10100000352E+00 0.  1.
</event>
<event>
 5   0  0.1579820E-06  0.2100116E+04  0.7818609E-02  0.8561192E-01
        1   -1    0    0  501    0  0.00000000000E+00  0.00000000000E+00  0.25241621182E+04  0.25241621182E+04  0.50400001928E-02 0. -1.
       -1   -1    0    0    0  501  0.00000000000E+00  0.00000000000E+00 -0.43682685218E+03  0.43682685220E+03  0.50400001928E-02 0.  1.
    10030    2    1    2    0    0  0.00000000000E+00  0.00000000000E+00  0.20873352660E+04  0.29609889704E+04  0.21001159897E+04 0.  0.
        2    1    3    3  502    0 -0.49649733580E+02  0.13524503131E+03 -0.42282585734E+03  0.44669678775E+03  0.25500000920E-02 0.  1.
       -2    1    3    3    0  502  0.49649733580E+02 -0.13524503131E+03  0.25101611234E+04  0.25142921826E+04  0.25500000920E-02 0. -1.
</event>
<event>
 5   0  0.3574927E-06  0.2101260E+04  0.7818609E-02  0.8560689E-01
        2   -1    0    0  501    0  0.00000000000E+00  0.00000000000E+00  0.12204413148E+04  0.12204413148E+04  0.25500000920E-02 0.  1.
       -2   -1    0    0    0  501  0.00000000000E+00  0.00000000000E+00 -0.90444610104E+03  0.90444610104E+03  0.25500000920E-02 0. -1.
    10030    2    1    2    0    0  0.00000000000E+00  0.00000000000E+00  0.31599521376E+03  0.21248874158E+04  0.21012599922E+04 0.  0.
        3    1    3    3  502    0  0.19205916076E+03  0.88306107718E+02  0.11987143679E+04  0.12172102677E+04  0.10100000352E+00 0.  1.
       -3    1    3    3    0  502 -0.19205916076E+03 -0.88306107718E+02 -0.88271915414E+03  0.90767714810E+03  0.10100000352E+00 0. -1.
</event>
<event>
 5   0  0.1646510E-06  0.2101203E+04  0.7818609E-02  0.8560714E-01
        1   -1    0    0  501    0  0.00000000000E+00  0.00000000000E+00  0.94983327412E+03  0.94983327413E+03  0.50400001928E-02 0. -1.
       -1   -1    0    0    0  501  0.00000000000E+00  0.00000000000E+00 -0.11620602472E+04  0.11620602472E+04  0.50400001928E-02 0.  1.
    10030    2    1    2    0    0  0.00000000000E+00  0.00000000000E+00 -0.21222697310E+03  0.21118935214E+04  0.21012029786E+04 0.  0.
        4    1    3    3  502    0  0.56947023927E+02  0.53249786122E+03  0.80234632538E+03  0.96465443267E+03  0.12699999809E+01 0. -1.
       -4    1    3    3    0  502 -0.56947023927E+02 -0.53249786122E+03 -0.10145732985E+04  0.11472390887E+04  0.12699999809E+01 0.  1.
</event>
<event>
 5   0  0.1579820E-06  0.2097370E+04  0.7818609E-02  0.8562403E-01
        1   -1    0    0  501    0  0.00000000000E+00  0.00000000000E+00  0.20159584584E+04  0.20159584584E+04  0.50400001928E-02 0.  1.
       -1   -1    0    0    0  501  0.00000000000E+00  0.00000000000E+00 -0.54551723727E+03  0.54551723729E+03  0.50400001928E-02 0. -1.
    10030    2    1    2    0    0  0.00000000000E+00  0.00000000000E+00  0.14704412211E+04  0.25614756957E+04  0.20973698660E+04 0.  0.
        2    1    3    3  502    0  0.89573637259E+03  0.54287444227E+03  0.79848926905E+03  0.13170578659E+04  0.25500000920E-02 0.  1.
       -2    1    3    3    0  502 -0.89573637259E+03 -0.54287444227E+03  0.67195195204E+03  0.12444178298E+04  0.25500000920E-02 0. -1.
</event>
<event>
 5   0  0.1615098E-06  0.2100481E+04  0.7818609E-02  0.8561032E-01
       -1   -1    0    0    0  501  0.00000000000E+00  0.00000000000E+00  0.52093018570E+03  0.52093018573E+03  0.50400001928E-02 0. -1.
        1   -1    0    0  501    0  0.00000000000E+00  0.00000000000E+00 -0.21173757703E+04  0.21173757703E+04  0.50400001928E-02 0.  1.
    10030    2    1    2    0    0  0.00000000000E+00  0.00000000000E+00 -0.15964455846E+04  0.26383059561E+04  0.21004808528E+04 0.  0.
        1    1    3    3  502    0 -0.48623673473E+03 -0.56063836595E+03  0.13520250632E+03  0.75433497686E+03  0.50400001928E-02 0. -1.
       -1    1    3    3    0  502  0.48623673473E+03  0.56063836595E+03 -0.17316480910E+04  0.18839709792E+04  0.50400001928E-02 0.  1.
</event>
<event>
 5   0  0.3480134E-06  0.2100347E+04  0.7818609E-02  0.8561090E-01
        2   -1    0    0  501    0  0.00000000000E+00  0.00000000000E+00  0.31135283536E+04  0.31135283536E+04  0.25500000920E-02 0. -1.
       -2   -1    0    0    0  501  0.00000000000E+00  0.00000000000E+00 -0.35421699637E+03  0.35421699638E+03  0.25500000920E-02 0.  1.
    10030    2    1    2    0    0  0.00000000000E+00  0.00000000000E+00  0.27593113572E+04  0.34677453500E+04  0.21003472680E+04 0.  0.
        1    1    3    3  502    0  0.90833054255E+03 -0.51484039563E+03  0.11933033135E+04  0.15855906803E+04  0.50400001928E-02 0.  1.
       -1    1    3    3    0  502 -0.90833054255E+03  0.51484039563E+03  0.15660080437E+04  0.18821546697E+04  0.50400001928E-02 0. -1.
</event>
<event>
 5   0  0.1615098E-06  0.2099995E+04  0.7818609E-02  0.8561246E-01
       -1   -1    0    0    0  501  0.00000000000E+00  0.00000000000E+00  0.10736788377E+04  0.10736788377E+04  0.50400001928E-02 0.  1.
        1   -1    0    0  501    0  0.00000000000E+00  0.00000000000E+00 -0.10268385587E+04  0.10268385587E+04  0.50400001928E-02 0. -1.
    10030    2    1    2    0    0  0.00000000000E+00  0.00000000000E+00  0.46840279028E+02  0.21005173964E+04  0.20999950763E+04 0.  0.
        1    1    3    3  502    0  0.46911203831E+03 -0.92457323758E+03 -0.14273274741E+03  0.10465535884E+04  0.50400001928E-02 0. -1.
       -1    1    3    3    0  502 -0.46911203831E+03  0.92457323758E+03  0.18957302644E+03  0.10539638080E+04  0.50400001928E-02 0.  1.
</event>
<event>
 5   0  0.1646510E-06  0.2098686E+04  0.7818609E-02  0.8561823E-01
       -1   -1    0    0    0  501  0.00000000000E+00  0.00000000000E+00  0.66951528115E+03  0.66951528117E+03  0.50400001928E-02 0.  1.
        1   -1    0    0  501    0  0.00000000000E+00  0.00000000000E+00 -0.16446531297E+04  0.16446531297E+04  0.50400001928E-02 0. -1.
    10030    2    1    2    0    0  0.00000000000E+00  0.00000000000E+00 -0.97513784852E+03  0.23141684108E+04  0.20986856864E+04 0.  0.
        4    1    3    3  502    0  0.44196795575E+03 -0.37904899445E+03  0.47505124952E+03  0.75145799395E+03  0.12699999809E+01 0.  1.
       -4    1    3    3    0  502 -0.44196795575E+03  0.37904899445E+03 -0.14501890980E+04  0.15627104169E+04  0.12699999809E+01 0. -1.
</event>
<event>
 5   0  0.3547583E-06  0.2100342E+04  0.7818609E-02  0.8561093E-01
       -2   -1    0    0    0  501  0.00000000000E+00  0.00000000000E+00  0.69384186981E+03  0.69384186981E+03  0.25500000920E-02 0.  1.
        2   -1    0    0  501    0  0.00000000000E+00  0.00000000000E+00 -0.15894963452E+04  0.15894963452E+04  0.25500000920E-02 0. -1.
    10030    2    1    2    0    0  0.00000000000E+00  0.00000000000E+00 -0.89565447536E+03  0.22833382150E+04  0.21003419876E+04 0.  0.
        2    1    3    3  502    0  0.88282449180E+03 -0.17564684718E+03 -0.10359098409E+04  0.13723483875E+04  0.25500000920E-02 0. -1.
       -2    1    3    3    0  502 -0.88282449180E+03  0.17564684718E+03  0.14025536550E+03  0.91098982750E+03  0.25500000920E-02 0.  1.
</event>
<event>
 5   0  0.3547583E-06  0.2099610E+04  0.7818609E-02  0.8561415E-01
        2   -1    0    0  501    0  0.00000000000E+00  0.00000000000E+00  0.84084954833E+03  0.84084954834E+03  0.25500000920E-02 0.  1.
       -2   -1    0    0    0  501  0.00000000000E+00  0.00000000000E+00 -0.13106871324E+04  0.13106871324E+04  0.25500000920E-02 0. -1.
    10030    2    1    2    0    0  0.00000000000E+00  0.00000000000E+00 -0.46983758403E+03  0.21515366807E+04  0.20996101384E+04 0.  0.
        2    1    3    3  502    0 -0.71551359890E+02 -0.70732509365E+03 -0.10264615717E+04  0.12486199355E+04  0.25500000920E-02 0. -1.
       -2    1    3    3    0  502  0.71551359890E+02  0.70732509365E+03  0.55662398762E+03  0.90291674522E+03  0.25500000920E-02 0.  1.
</event>
<event>
 5   0  0.1257125E-06  0.2099970E+04  0.7818609E-02  0.8561257E-01
        4   -1    0    0  501    0  0.00000000000E+00  0.00000000000E+00  0.57070188124E+03  0.57070329433E+03  0.12699999809E+01 0.  1.
       -4   -1    0    0    0  501  0.00000000000E+00  0.00000000000E+00 -0.19317719842E+04  0.19317724016E+04  0.12699999809E+01 0. -1.
    10030    2    1    2    0    0  0.00000000000E+00  0.00000000000E+00 -0.13610701029E+04  0.25024756960E+04  0.20999697102E+04 0.  0.
        1    1    3    3  502    0  0.68420094174E+03  0.72190400995E+03 -0.10814612634E+04  0.14692973806E+04  0.50400001928E-02 0. -1.
       -1    1    3    3    0  502 -0.68420094174E+03 -0.72190400995E+03 -0.27960883953E+03  0.10331783154E+04  0.50400001928E-02 0.  1.
</event>
<event>
 5   0  0.3480134E-06  0.2101563E+04  0.7818609E-02  0.8560555E-01
        2   -1    0    0  501    0  0.00000000000E+00  0.00000000000E+00  0.14842882849E+04  0.14842882849E+04  0.25500000920E-02 0.  1.
       -2   -1    0    0    0  501  0.00000000000E+00  0.00000000000E+00 -0.74388657999E+03  0.74388657999E+03  0.25500000920E-02 0. -1.
    10030    2    1    2    0    0  0.00000000000E+00  0.00000000000E+00  0.74040170490E+03  0.22281748649E+04  0.21015633571E+04 0.  0.
        1    1    3    3  502    0  0.24898463902E+03  0.81157486881E+03 -0.28637763091E+03  0.89591253238E+03  0.50400001928E-02 0. -1.
       -1    1    3    3    0  502 -0.24898463902E+03 -0.81157486881E+03  0.10267793358E+04  0.13322623325E+04  0.50400001928E-02 0.  1.
</event>
<event>
 5   0  0.1653260E-06  0.2098822E+04  0.7818609E-02  0.8561762E-01
       -1   -1    0    0    0  501  0.00000000000E+00  0.00000000000E+00  0.52587800418E+03  0.52587800420E+03  0.50400001928E-02 0. -1.
        1   -1    0    0  501    0  0.00000000000E+00  0.00000000000E+00 -0.20941430727E+04  0.20941430727E+04  0.50400001928E-02 0.  1.
    10030    2    1    2    0    0  0.00000000000E+00  0.00000000000E+00 -0.15682650685E+04  0.26200210769E+04  0.20988223170E+04 0.  0.
        3    1    3    3  502    0 -0.86117856224E+03 -0.27690061944E+03 -0.12009499300E+03  0.91253782752E+03  0.10100000352E+00 0. -1.
       -3    1    3    3    0  502  0.86117856224E+03  0.27690061944E+03 -0.14481700755E+04  0.17074832494E+04  0.10100000352E+00 0.  1.
</event>
<event>
 5   0  0.3636435E-06  0.2101282E+04  0.7818609E-02  0.8560679E-01
        2   -1    0    0  501    0  0.00000000000E+00  0.00000000000E+00  0.13059318951E+04  0.13059318951E+04  0.25500000920E-02 0.  1.
       -2   -1    0    0    0  501  0.00000000000E+00  0.00000000000E+00 -0.84525599573E+03  0.84525599574E+03  0.25500000920E-02 0. -1.
    10030    2    1    2    0    0  0.00000000000E+00  0.00000000000E+00  0.46067589936E+03  0.21511878908E+04  0.21012822413E+04 0.  0.
        4    1    3    3  502    0 -0.12460459592E+03 -0.69599211046E+03 -0.56523762551E+03  0.90522180118E+03  0.12699999809E+01 0. -1.
       -4    1    3    3    0  502  0.12460459592E+03  0.69599211046E+03  0.10259135249E+04  0.12459660896E+04  0.12699999809E+01 0.  1.
</event>
<event>
 5   0  0.3705828E-06  0.2100060E+04  0.7818609E-02  0.8561217E-01
       -2   -1    0    0    0  501  0.00000000000E+00  0.00000000000E+00  0.97584332428E+03  0.97584332428E+03  0.25500000920E-02 0.  1.
        2   -1    0    0  501    0  0.00000000000E+00  0.00000000000E+00 -0.11298565617E+04  0.11298565617E+04  0.25500000920E-02 0. -1.
    10030    2    1    2    0    0  0.00000000000E+00  0.00000000000E+00 -0.15401323739E+03  0.21056998859E+04  0.21000599830E+04 0.  0.
        5    1    3    3  502    0  0.44910924548E+03  0.28417147655E+02  0.87424255171E+03  0.98327451806E+03  0.46999998093E+01 0.  1.
       -5    1    3    3    0  502 -0.44910924548E+03 -0.28417147655E+02 -0.10282557891E+04  0.11224253679E+04  0.46999998093E+01 0. -1.
</event>
<event>
 5   0  0.3574927E-06  0.2104744E+04  0.7818609E-02  0.8559157E-01
        2   -1    0    0  501    0  0.00000000000E+00  0.00000000000E+00  0.19053432930E+04  0.19053432930E+04  0.25500000920E-02 0.  1.
       -2   -1    0    0    0  501  0.00000000000E+00  0.00000000000E+00 -0.58125297379E+03  0.58125297380E+03  0.25500000920E-02 0. -1.
    10030    2    1    2    0    0  0.00000000000E+00  0.00000000000E+00  0.13240903192E+04  0.24865962668E+04  0.21047436473E+04 0.  0.
        3    1    3    3  502    0  0.73610047771E+03  0.54591680871E+03  0.50873484108E+02  0.91785467091E+03  0.10100000352E+00 0. -1.
       -3    1    3    3    0  502 -0.73610047771E+03 -0.54591680871E+03  0.12732168351E+04  0.15687415959E+04  0.10100000352E+00 0.  1.
</event>
<event>
 5   0  0.1615098E-06  0.2101540E+04  0.7818609E-02  0.8560565E-01
        1   -1    0    0  501    0  0.00000000000E+00  0.00000000000E+00  0.65002973885E+03  0.65002973886E+03  0.50400001928E-02 0. -1.
       -1   -1    0    0    0  501  0.00000000000E+00  0.00000000000E+00 -0.16985647221E+04  0.16985647221E+04  0.50400001928E-02 0.  1.
    10030    2    1    2    0    0  0.00000000000E+00  0.00000000000E+00 -0.10485349832E+04  0.23485944609E+04  0.21015399903E+04 0.  0.
        1    1    3    3  502    0 -0.50488498813E+03 -0.18804180952E+03  0.48392229430E+03  0.72418876013E+03  0.50400001928E-02 0. -1.
       -1    1    3    3    0  502  0.50488498813E+03  0.18804180952E+03 -0.15324572775E+04  0.16244057008E+04  0.50400001928E-02 0.  1.
</event>
<event>
 5   0  0.1579820E-06  0.2101908E+04  0.7818609E-02  0.8560403E-01
       -1   -1    0    0    0  501  0.00000000000E+00  0.00000000000E+00  0.60378897578E+03  0.60378897580E+03  0.50400001928E-02 0.  1.
        1   -1    0    0  501    0  0.00000000000E+00  0.00000000000E+00 -0.18292893997E+04  0.18292893997E+04  0.50400001928E-02 0. -1.
    10030    2    1    2    0    0  0.00000000000E+00  0.00000000000E+00 -0.12255004239E+04  0.24330783755E+04  0.21019084405E+04 0.  0.
        2    1    3    3  502    0  0.32427021337E+03  0.12240296710E+03  0.53572528945E+03  0.63807150335E+03  0.25500000920E-02 0.  1.
       -2    1    3    3    0  502 -0.32427021337E+03 -0.12240296710E+03 -0.17612257133E+04  0.17950068721E+04  0.25500000920E-02 0. -1.
</event>
<event>
 5   0  0.1579820E-06  0.2099803E+04  0.7818609E-02  0.8561330E-01
       -1   -1    0    0    0  501  0.00000000000E+00  0.00000000000E+00  0.13094556696E+04  0.13094556696E+04  0.50400001928E-02 0.  1.
        1   -1    0    0  501    0  0.00000000000E+00  0.00000000000E+00 -0.84179515602E+03  0.84179515603E+03  0.50400001928E-02 0. -1.
    10030    2    1    2    0    0  0.00000000000E+00  0.00000000000E+00  0.46766051354E+03  0.21512508256E+04  0.20998032667E+04 0.  0.
        2    1    3    3  502    0 -0.61528743593E+03 -0.16260885205E+03 -0.62165774101E+03  0.88965083856E+03  0.25500000920E-02 0. -1.
       -2    1    3    3    0  502  0.61528743593E+03  0.16260885205E+03  0.10893182546E+04  0.12615999870E+04  0.25500000920E-02 0.  1.
</event>
<event>
 5   0  0.3547583E-06  0.2100157E+04  0.7818609E-02  0.8561174E-01
        2   -1    0    0  501    0  0.00000000000E+00  0.00000000000E+00  0.90048691004E+03  0.90048691004E+03  0.25500000920E-02 0.  1.
       -2   -1    0    0    0  501  0.00000000000E+00  0.00000000000E+00 -0.12245204071E+04  0.12245204071E+04  0.25500000920E-02 0. -1.
    10030    2    1    2    0    0  0.00000000000E+00  0.00000000000E+00 -0.32403349710E+03  0.21250073172E+04  0.21001567539E+04 0.  0.
        2    1    3    3  502    0 -0.73944957448E+03 -0.74214078182E+03 -0.89715056212E+02  0.10514786753E+04  0.25500000920E-02 0.  1.
       -2    1    3    3    0  502  0.73944957448E+03  0.74214078182E+03 -0.23431844089E+03  0.10735286419E+04  0.25500000920E-02 0. -1.
</event>
<event>
 5   0  0.3636435E-06  0.2100346E+04  0.7818609E-02  0.8561091E-01
        2   -1    0    0  501    0  0.00000000000E+00  0.00000000000E+00  0.15593889124E+04  0.15593889124E+04  0.25500000920E-02 0. -1.
       -2   -1    0    0    0  501  0.00000000000E+00  0.00000000000E+00 -0.70724083510E+03  0.70724083511E+03  0.25500000920E-02 0.  1.
    10030    2    1    2    0    0  0.00000000000E+00  0.00000000000E+00  0.85214807732E+03  0.22666297475E+04  0.21003461778E+04 0.  0.
        4    1    3    3  502    0  0.36119963151E+02 -0.10083717715E+04  0.74022848865E+03  0.12514224345E+04  0.12699999809E+01 0. -1.
       -4    1    3    3    0  502 -0.36119963151E+02  0.10083717715E+04  0.11191958867E+03  0.10152073130E+04  0.12699999809E+01 0.  1.
</event>
<event>
 5   0  0.3705828E-06  0.2100410E+04  0.7818609E-02  0.8561063E-01
        2   -1    0    0  501    0  0.00000000000E+00  0.00000000000E+00  0.11821097710E+04  0.11821097710E+04  0.25500000920E-02 0.  1.
       -2   -1    0    0    0  501  0.00000000000E+00  0.00000000000E+00 -0.93301902671E+03  0.93301902671E+03  0.25500000920E-02 0. -1.
    10030    2    1    2    0    0  0.00000000000E+00  0.00000000000E+00  0.24909074434E+03  0.21151287978E+04  0.21004103485E+04 0.  0.
        5    1    3    3  502    0 -0.27958212104E+03 -0.45563971977E+03 -0.78574427250E+03  0.95036301928E+03  0.46999998093E+01 0. -1.
       -5    1    3    3    0  502  0.27958212104E+03  0.45563971977E+03  0.10348350168E+04  0.11647657785E+04  0.46999998093E+01 0.  1.
</event>
<event>
 5   0  0.1615098E-06  0.2098908E+04  0.7818609E-02  0.8561725E-01
       -1   -1    0    0    0  501  0.00000000000E+00  0.00000000000E+00  0.84284058470E+03  0.84284058472E+03  0.50400001928E-02 0.  1.
        1   -1    0    0  501    0  0.00000000000E+00  0.00000000000E+00 -0.13067159837E+04  0.13067159837E+04  0.50400001928E-02 0. -1.
    10030    2    1    2    0    0  0.00000000000E+00  0.00000000000E+00 -0.46387539896E+03  0.21495565684E+04  0.20989075861E+04 0.  0.
        1    1    3    3  502    0  0.10262506990E+04  0.32780179280E+02 -0.45417232589E+03  0.11227366294E+04  0.50400001928E-02 0.  1.
       -1    1    3    3    0  502 -0.10262506990E+04 -0.32780179280E+02 -0.97030730768E+01  0.10268199390E+04  0.50400001928E-02 0. -1.
</event>
<event>
 5   0  0.1646510E-06  0.2100211E+04  0.7818609E-02  0.8561150E-01
       -1   -1    0    0    0  501  0.00000000000E+00  0.00000000000E+00  0.10661229078E+04  0.10661229078E+04  0.50400001928E-02 0.  1.
        1   -1    0    0  501    0  0.00000000000E+00  0.00000000000E+00 -0.10343287698E+04  0.10343287698E+04  0.50400001928E-02 0. -1.
    10030    2    1    2    0    0  0.00000000000E+00  0.00000000000E+00  0.31794138021E+02  0.21004516776E+04  0.21002110329E+04 0.  0.
        4    1    3    3  502    0 -0.10149505439E+04  0.21472670290E+03 -0.14687236807E+03  0.10477620288E+04  0.12699999809E+01 0. -1.
       -4    1    3    3    0  502  0.10149505439E+04 -0.21472670290E+03  0.17866650609E+03  0.10526896489E+04  0.12699999809E+01 0.  1.
</event>
<event>
 5   0  0.3547583E-06  0.2099584E+04  0.7818609E-02  0.8561427E-01
       -2   -1    0    0    0  501  0.00000000000E+00  0.00000000000E+00  0.74245108832E+03  0.74245108833E+03  0.25500000920E-02 0.  1.
        2   -1    0    0  501    0  0.00000000000E+00  0.00000000000E+00 -0.14843582556E+04  0.14843582556E+04  0.25500000920E-02 0. -1.
    10030    2    1    2    0    0  0.00000000000E+00  0.00000000000E+00 -0.74190716726E+03  0.22268093439E+04  0.20995841515E+04 0.  0.
        2    1    3    3  502    0  0.10162582965E+04 -0.55283380125E+02 -0.98015115905E+02  0.10224696281E+04  0.25500000920E-02 0.  1.
       -2    1    3    3    0  502 -0.10162582965E+04  0.55283380125E+02 -0.64389205136E+03  0.12043397158E+04  0.25500000920E-02 0. -1.
</event>
<event>
 5   0  0.3480134E-06  0.2099857E+04  0.7818609E-02  0.8561306E-01
       -2   -1    0    0    0  501  0.00000000000E+00  0.00000000000E+00  0.87546459217E+03  0.87546459217E+03  0.25500000920E-02 0.  1.
        2   -1    0    0  501    0  0.00000000000E+00  0.00000000000E+00 -0.12591603082E+04  0.12591603082E+04  0.25500000920E-02 0. -1.
    10030    2    1    2    0    0  0.00000000000E+00  0.00000000000E+00 -0.38369571606E+03  0.21346249004E+04  0.20998573911E+04 0.  0.
        1    1    3    3  502    0  0.49127482683E+03 -0.43232078429E+02  0.75039160047E+03  0.89794628022E+03  0.50400001928E-02 0.  1.
       -1    1    3    3    0  502 -0.49127482683E+03  0.43232078429E+02 -0.11340873165E+04  0.12366786202E+04  0.50400001928E-02 0. -1.
</event>
<event>
 5   0  0.3480134E-06  0.2100863E+04  0.7818609E-02  0.8560863E-01
       -2   -1    0    0    0  501  0.00000000000E+00  0.00000000000E+00  0.86425232690E+03  0.86425232690E+03  0.25500000920E-02 0. -1.
        2   -1    0    0  501    0  0.00000000000E+00  0.00000000000E+00 -0.12767176821E+04  0.12767176821E+04  0.25500000920E-02 0.  1.
    10030    2    1    2    0    0  0.00000000000E+00  0.00000000000E+00 -0.41246535525E+03  0.21409700090E+04  0.21008628966E+04 0.  0.
        1    1    3    3  502    0  0.31833834557E+03  0.83619486347E+03  0.35458685451E+03  0.96244116151E+03  0.50400001928E-02 0.  1.
       -1    1    3    3    0  502 -0.31833834557E+03 -0.83619486347E+03 -0.76705220976E+03  0.11785288475E+04  0.50400001928E-02 0. -1.
</event>
<event>
 5   0  0.1579820E-06  0.2099172E+04  0.7818609E-02  0.8561608E-01
        1   -1    0    0  501    0  0.00000000000E+00  0.00000000000E+00  0.19091854720E+04  0.19091854720E+04  0.50400001928E-02 0.  1.
       -1   -1    0    0    0  501  0.00000000000E+00  0.00000000000E+00 -0.57701585887E+03  0.57701585889E+03  0.50400001928E-02 0. -1.
    10030    2    1    2    0    0  0.00000000000E+00  0.00000000000E+00  0.13321696131E+04  0.24862013309E+04  0.20991715460E+04 0.  0.
        2    1    3    3  502    0 -0.51739626451E+03 -0.16168125849E+03  0.17305654128E+04  0.18134763224E+04  0.25500000920E-02 0.  1.
       -2    1    3    3    0  502  0.51739626451E+03  0.16168125849E+03 -0.39839579967E+03  0.67272500851E+03  0.25500000920E-02 0. -1.
</event>
<event>
 5   0  0.3705828E-06  0.2099769E+04  0.7818609E-02  0.8561345E-01
       -2   -1    0    0    0  501  0.00000000000E+00  0.00000000000E+00  0.54376626737E+03  0.54376626737E+03  0.25500000920E-02 0.  1.
        2   -1    0    0  501    0  0.00000000000E+00  0.00000000000E+00 -0.20270802934E+04  0.20270802934E+04  0.25500000920E-02 0. -1.
    10030    2    1    2    0    0  0.00000000000E+00  0.00000000000E+00 -0.14833140260E+04  0.25708465607E+04  0.20997694014E+04 0.  0.
        5    1    3    3  502    0 -0.92928637458E+03  0.99537669663E+02 -0.13272417371E+04  0.16232909882E+04  0.46999998093E+01 0. -1.
       -5    1    3    3    0  502  0.92928637458E+03 -0.99537669663E+02 -0.15607228886E+03  0.94755557252E+03  0.46999998093E+01 0.  1.
</event>
<event>
 5   0  0.1646510E-06  0.2099919E+04  0.7818609E-02  0.8561279E-01
        1   -1    0    0  501    0  0.00000000000E+00  0.00000000000E+00  0.11883275030E+04  0.11883275030E+04  0.50400001928E-02 0. -1.
       -1   -1    0    0    0  501  0.00000000000E+00  0.00000000000E+00 -0.92770322349E+03  0.92770322351E+03  0.50400001928E-02 0.  1.
    10030    2    1    2    0    0  0.00000000000E+00  0.00000000000E+00  0.26062427948E+03  0.21160307265E+04  0.20999192890E+04 0.  0.
        4    1    3    3  502    0 -0.24603831713E+03 -0.29239021651E+03  0.11157656532E+04  0.11793903077E+04  0.12699999809E+01 0. -1.
       -4    1    3    3    0  502  0.24603831713E+03  0.29239021651E+03 -0.85514137369E+03  0.93664041879E+03  0.12699999809E+01 0.  1.
</event>
<event>
 5   0  0.1615098E-06  0.2100272E+04  0.7818609E-02  0.8561124E-01
        1   -1    0    0  501    0  0.00000000000E+00  0.00000000000E+00  0.11418756888E+04  0.11418756888E+04  0.50400001928E-02 0. -1.
       -1   -1    0    0    0  501  0.00000000000E+00  0.00000000000E+00 -0.96576676846E+03  0.96576676847E+03  0.50400001928E-02 0.  1.
    10030    2    1    2    0    0  0.00000000000E+00  0.00000000000E+00  0.17610892029E+03  0.21076424572E+04  0.21002719766E+04 0.  0.
        1    1    3    3  502    0 -0.28754687644E+03 -0.95192711212E+03  0.42678479991E+03  0.10821246224E+04  0.50400001928E-02 0. -1.
       -1    1    3    3    0  502  0.28754687644E+03  0.95192711212E+03 -0.25067587961E+03  0.10255178348E+04  0.50400001928E-02 0.  1.
</event>
<event>
 5   0  0.1615098E-06  0.2099657E+04  0.7818609E-02  0.8561394E-01
       -1   -1    0    0    0  501  0.00000000000E+00  0.00000000000E+00  0.48703104600E+03  0.48703104603E+03  0.50400001928E-02 0.  1.
        1   -1    0    0  501    0  0.00000000000E+00  0.00000000000E+00 -0.22629774384E+04  0.22629774384E+04  0.50400001928E-02 0. -1.
    10030    2    1    2    0    0  0.00000000000E+00  0.00000000000E+00 -0.17759463924E+04  0.27500084844E+04  0.20996573711E+04 0.  0.
        1    1    3    3  502    0 -0.13827024907E+03  0.77761058228E+02  0.47124249199E+03  0.49722724205E+03  0.50400001928E-02 0.  1.
       -1    1    3    3    0  502  0.13827024907E+03 -0.77761058228E+02 -0.22471888844E+04  0.22527812424E+04  0.50400001928E-02 0. -1.
</event>
<event>
 5   0  0.1579820E-06  0.2102690E+04  0.7818609E-02  0.8560059E-01
       -1   -1    0    0    0  501  0.00000000000E+00  0.00000000000E+00  0.89130650935E+03  0.89130650936E+03  0.50400001928E-02 0. -1.
        1   -1    0    0  501    0  0.00000000000E+00  0.00000000000E+00 -0.12401188503E+04  0.12401188503E+04  0.50400001928E-02 0.  1.
    10030    2    1    2    0    0  0.00000000000E+00  0.00000000000E+00 -0.34881234094E+03  0.21314253597E+04  0.21026897095E+04 0.  0.
        2    1    3    3  502    0  0.79644416919E+03  0.18596576025E+03 -0.84405478679E+03  0.11753021151E+04  0.25500000920E-02 0.  1.
       -2    1    3    3    0  502 -0.79644416919E+03 -0.18596576025E+03  0.49524244586E+03  0.95612324457E+03  0.25500000920E-02 0. -1.
</event>
<event>
 5   0  0.1653260E-06  0.2100625E+04  0.7818609E-02  0.8560968E-01
        1   -1    0    0  501    0  0.00000000000E+00  0.00000000000E+00  0.12533647890E+04  0.12533647891E+04  0.50400001928E-02 0.  1.
       -1   -1    0    0    0  501  0.00000000000E+00  0.00000000000E+00 -0.88015606255E+03  0.88015606256E+03  0.50400001928E-02 0. -1.
    10030    2    1    2    0    0  0.00000000000E+00  0.00000000000E+00  0.37320872650E+03  0.21335208516E+04  0.21006252571E+04 0.  0.
        3    1    3    3  502    0  0.75578466586E+03  0.17162900688E+00  0.92737222166E+03  0.11963401432E+04  0.10100000352E+00 0.  1.
       -3    1    3    3    0  502 -0.75578466586E+03 -0.17162900688E+00 -0.55416349516E+03  0.93718070839E+03  0.10100000352E+00 0. -1.
</event>
<event>
 5   0  0.3574927E-06  0.2100352E+04  0.7818609E-02  0.8561089E-01
        2   -1    0    0  501    0  0.00000000000E+00  0.00000000000E+00  0.16302963025E+04  0.16302963025E+04  0.25500000920E-02 0. -1.
       -2   -1    0    0    0  501  0.00000000000E+00  0.00000000000E+00 -0.67648385435E+03  0.67648385436E+03  0.25500000920E-02 0.  1.
    10030    2    1    2    0    0  0.00000000000E+00  0.00000000000E+00  0.95381244817E+03  0.23067801569E+04  0.21003515196E+04 0.  0.
        3    1    3    3  502    0 -0.85071203138E+03  0.10069091732E+03  0.11440798606E+04  0.14292544766E+04  0.10100000352E+00 0. -1.
       -3    1    3    3    0  502  0.85071203138E+03 -0.10069091732E+03 -0.19026741243E+03  0.87752568031E+03  0.10100000352E+00 0.  1.
</event>
<event>
 5   0  0.1653260E-06  0.2100192E+04  0.7818609E-02  0.8561159E-01
       -1   -1    0    0    0  501  0.00000000000E+00  0.00000000000E+00  0.66177779839E+03  0.66177779841E+03  0.50400001928E-02 0.  1.
        1   -1    0    0  501    0  0.00000000000E+00  0.00000000000E+00 -0.16662719488E+04  0.16662719488E+04  0.50400001928E-02 0. -1.
    10030    2    1    2    0    0  0.00000000000E+00  0.00000000000E+00 -0.10044941504E+04  0.23280497472E+04  0.21001921644E+04 0.  0.
        3    1    3    3  502    0 -0.17466480194E+03  0.98458197387E+03 -0.85764390264E+03  0.13173695496E+04  0.10100000352E+00 0. -1.
       -3    1    3    3    0  502  0.17466480194E+03 -0.98458197387E+03 -0.14685024774E+03  0.10106801976E+04  0.10100000352E+00 0.  1.
</event>
<event>
 5   0  0.3636435E-06  0.2099735E+04  0.7818609E-02  0.8561360E-01
       -2   -1    0    0    0  501  0.00000000000E+00  0.00000000000E+00  0.62140357566E+03  0.62140357567E+03  0.25500000920E-02 0.  1.
        2   -1    0    0  501    0  0.00000000000E+00  0.00000000000E+00 -0.17737614242E+04  0.17737614242E+04  0.25500000920E-02 0. -1.
    10030    2    1    2    0    0  0.00000000000E+00  0.00000000000E+00 -0.11523578486E+04  0.23951649999E+04  0.20997349275E+04 0.  0.
        4    1    3    3  502    0 -0.10221370319E+04 -0.87841469981E+02 -0.32177537383E+03  0.10751842818E+04  0.12699999809E+01 0.  1.
       -4    1    3    3    0  502  0.10221370319E+04  0.87841469981E+02 -0.83058247474E+03  0.13199807181E+04  0.12699999809E+01 0. -1.
</event>
<event>
 5   0  0.3574927E-06  0.2100523E+04  0.7818609E-02  0.8561013E-01
       -2   -1    0    0    0  501  0.00000000000E+00  0.00000000000E+00  0.63940764710E+03  0.63940764711E+03  0.25500000920E-02 0.  1.
        2   -1    0    0  501    0  0.00000000000E+00  0.00000000000E+00 -0.17251116933E+04  0.17251116933E+04  0.25500000920E-02 0. -1.
    10030    2    1    2    0    0  0.00000000000E+00  0.00000000000E+00 -0.10857040462E+04  0.23645193404E+04  0.21005233718E+04 0.  0.
        3    1    3    3  502    0  0.78443057286E+02 -0.10464824676E+04 -0.49548331264E+03  0.11605096258E+04  0.10100000352E+00 0.  1.
       -3    1    3    3    0  502 -0.78443057286E+02  0.10464824676E+04 -0.59022073357E+03  0.12040097146E+04  0.10100000352E+00 0. -1.
</event>
<event>
 5   0  0.3547583E-06  0.2099801E+04  0.7818609E-02  0.8561331E-01
       -2   -1    0    0    0  501  0.00000000000E+00  0.00000000000E+00  0.76461713501E+03  0.76461713501E+03  0.25500000920E-02 0. -1.
        2   -1    0    0  501    0  0.00000000000E+00  0.00000000000E+00 -0.14416243068E+04  0.14416243068E+04  0.25500000920E-02 0.  1.
    10030    2    1    2    0    0  0.00000000000E+00  0.00000000000E+00 -0.67700717177E+03  0.22062414418E+04  0.20998006069E+04 0.  0.
        2    1    3    3  502    0  0.90679316893E+03 -0.39527009656E+03  0.31152039844E+02  0.98968820850E+03  0.25500000920E-02 0. -1.
       -2    1    3    3    0  502 -0.90679316893E+03  0.39527009656E+03 -0.70815921162E+03  0.12165532333E+04  0.25500000920E-02 0.  1.
</event>
<event>
 5   0  0.1590067E-06  0.2097953E+04  0.7818609E-02  0.8562146E-01
        1   -1    0    0  501    0  0.00000000000E+00  0.00000000000E+00  0.11861630484E+04  0.11861630484E+04  0.50400001928E-02 0.  1.
       -1   -1    0    0    0  501  0.00000000000E+00  0.00000000000E+00 -0.92765612154E+03  0.92765612155E+03  0.50400001928E-02 0. -1.
    10030    2    1    2    0    0  0.00000000000E+00  0.00000000000E+00  0.25850692683E+03  0.21138191699E+04  0.20979527287E+04 0.  0.
        5    1    3    3  502    0 -0.10195724272E+03 -0.47970386806E+03  0.10635300414E+04  0.11711657950E+04  0.46999998093E+01 0.  1.
       -5    1    3    3    0  502  0.10195724272E+03  0.47970386806E+03 -0.80502311456E+03  0.94265337497E+03  0.46999998093E+01 0. -1.
</event>
<event>
 5   0  0.1615098E-06  0.2096364E+04  0.7818609E-02  0.8562847E-01
        1   -1    0    0  501    0  0.00000000000E+00  0.00000000000E+00  0.14813754724E+04  0.14813754724E+04  0.50400001928E-02 0.  1.
       -1   -1    0    0    0  501  0.00000000000E+00  0.00000000000E+00 -0.74166595924E+03  0.74166595926E+03  0.50400001928E-02 0. -1.
    10030    2    1    2    0    0  0.00000000000E+00  0.00000000000E+00  0.73970951318E+03  0.22230414317E+04  0.20963642439E+04 0.  0.
        1    1    3    3  502    0  0.29231043239E+03 -0.48142186081E+03 -0.56757320425E+03  0.79959473432E+03  0.50400001928E-02 0. -1.
       -1    1    3    3    0  502 -0.29231043239E+03  0.48142186081E+03  0.13072827174E+04  0.14234466974E+04  0.50400001928E-02 0.  1.
</event>
<event>
 5   0  0.3480134E-06  0.2099487E+04  0.7818609E-02  0.8561469E-01
       -2   -1    0    0    0  501  0.00000000000E+00  0.00000000000E+00  0.60351347778E+03  0.60351347778E+03  0.25500000920E-02 0. -1.
        2   -1    0    0  501    0  0.00000000000E+00  0.00000000000E+00 -0.18259097917E+04  0.18259097917E+04  0.25500000920E-02 0.  1.
    10030    2    1    2    0    0  0.00000000000E+00  0.00000000000E+00 -0.12223963140E+04  0.24294232695E+04  0.20994867645E+04 0.  0.
        1    1    3    3  502    0 -0.68277751845E+03 -0.16198096197E+03  0.29222352381E+03  0.76014311786E+03  0.50400001928E-02 0. -1.
       -1    1    3    3    0  502  0.68277751845E+03  0.16198096197E+03 -0.15146198378E+04  0.16692801517E+04  0.50400001928E-02 0.  1.
</event>
<event>
 5   0  0.3636435E-06  0.2099849E+04  0.7818609E-02  0.8561310E-01
        2   -1    0    0  501    0  0.00000000000E+00  0.00000000000E+00  0.10995465713E+04  0.10995465713E+04  0.25500000920E-02 0. -1.
       -2   -1    0    0    0  501  0.00000000000E+00  0.00000000000E+00 -0.10025415571E+04  0.10025415571E+04  0.25500000920E-02 0.  1.
    10030    2    1    2    0    0  0.00000000000E+00  0.00000000000E+00  0.97005014205E+02  0.21020881284E+04  0.20998486914E+04 0.  0.
        4    1    3    3  502    0  0.10123163369E+03 -0.10073953741E+04  0.32673098450E+03  0.10638834676E+04  0.12699999809E+01 0. -1.
       -4    1    3    3    0  502 -0.10123163369E+03  0.10073953741E+04 -0.22972597030E+03  0.10382046608E+04  0.12699999809E+01 0.  1.
</event>
<event>
 5   0  0.3705828E-06  0.2100014E+04  0.7818609E-02  0.8561237E-01
       -2   -1    0    0    0  501  0.00000000000E+00  0.00000000000E+00  0.12367689813E+04  0.12367689813E+04  0.25500000920E-02 0. -1.
        2   -1    0    0  501    0  0.00000000000E+00  0.00000000000E+00 -0.89144745093E+03  0.89144745094E+03  0.25500000920E-02 0.  1.
    10030    2    1    2    0    0  0.00000000000E+00  0.00000000000E+00  0.34532153035E+03  0.21282164322E+04  0.21000138626E+04 0.  0.
        5    1    3    3  502    0  0.85800265460E+03 -0.47459755228E+03 -0.20799114091E+03  0.10023441508E+04  0.46999998093E+01 0.  1.
       -5    1    3    3    0  502 -0.85800265460E+03  0.47459755228E+03  0.55331267127E+03  0.11258722814E+04  0.46999998093E+01 0. -1.
</event>
<event>
 5   0  0.3574927E-06  0.2098408E+04  0.7818609E-02  0.8561945E-01
        2   -1    0    0  501    0  0.00000000000E+00  0.00000000000E+00  0.86765443579E+03  0.86765443580E+03  0.25500000920E-02 0. -1.
       -2   -1    0    0    0  501  0.00000000000E+00  0.00000000000E+00 -0.12687410502E+04  0.12687410502E+04  0.25500000920E-02 0.  1.
    10030    2    1    2    0    0  0.00000000000E+00  0.00000000000E+00 -0.40108661444E+03  0.21363954860E+04  0.20984077774E+04 0.  0.
        3    1    3    3  502    0  0.65319495064E+03 -0.14179808244E+03  0.62283618316E+03  0.91361658314E+03  0.10100000352E+00 0. -1.
       -3    1    3    3    0  502 -0.65319495064E+03  0.14179808244E+03 -0.10239227976E+04  0.12227789029E+04  0.10100000352E+00 0.  1.
</event>
<event>
 5   0  0.3636435E-06  0.2100684E+04  0.7818609E-02  0.8560942E-01
       -2   -1    0    0    0  501  0.00000000000E+00  0.00000000000E+00  0.52142020440E+03  0.52142020441E+03  0.25500000920E-02 0. -1.
        2   -1    0    0  501    0  0.00000000000E+00  0.00000000000E+00 -0.21157941609E+04  0.21157941609E+04  0.25500000920E-02 0.  1.
    10030    2    1    2    0    0  0.00000000000E+00  0.00000000000E+00 -0.15943739565E+04  0.26372143653E+04  0.21006835305E+04 0.  0.
        4    1    3    3  502    0  0.14166830927E+03 -0.95525054410E+03 -0.13157823758E+04  0.16321330783E+04  0.12699999809E+01 0. -1.
       -4    1    3    3    0  502 -0.14166830927E+03  0.95525054410E+03 -0.27859158074E+03  0.10050812871E+04  0.12699999809E+01 0.  1.
</event>
<event>
 5   0  0.1590067E-06  0.2097890E+04  0.7818609E-02  0.8562173E-01
       -1   -1    0    0    0  501  0.00000000000E+00  0.00000000000E+00  0.95935437883E+03  0.95935437885E+03  0.50400001928E-02 0.  1.
        1   -1    0    0  501    0  0.00000000000E+00  0.00000000000E+00 -0.11469024565E+04  0.11469024565E+04  0.50400001928E-02 0. -1.
    10030    2    1    2    0    0  0.00000000000E+00  0.00000000000E+00 -0.18754807770E+03  0.21062568354E+04  0.20978902677E+04 0.  0.
        5    1    3    3  502    0  0.59787088093E+03  0.22817732093E+03 -0.92820189434E+03  0.11274286349E+04  0.46999998093E+01 0. -1.
       -5    1    3    3    0  502 -0.59787088093E+03 -0.22817732093E+03  0.74065381664E+03  0.97882820053E+03  0.46999998093E+01 0.  1.
</event>
<event>
 5   0  0.1579820E-06  0.2099532E+04  0.7818609E-02  0.8561450E-01
        1   -1    0    0  501    0  0.00000000000E+00  0.00000000000E+00  0.76645110517E+03  0.76645110519E+03  0.50400001928E-02 0.  1.
       -1   -1    0    0    0  501  0.00000000000E+00  0.00000000000E+00 -0.14378064111E+04  0.14378064111E+04  0.50400001928E-02 0. -1.
    10030    2    1    2    0    0  0.00000000000E+00  0.00000000000E+00 -0.67135530589E+03  0.22042575163E+04  0.20995316743E+04 0.  0.
        2    1    3    3  502    0  0.16510430059E+03 -0.29458987157E+02 -0.14236503304E+04  0.14334948641E+04  0.25500000920E-02 0. -1.
       -2    1    3    3    0  502 -0.16510430059E+03  0.29458987157E+02  0.75229502455E+03  0.77076265217E+03  0.25500000920E-02 0.  1.
</event>
<event>
 5   0  0.3636435E-06  0.2100869E+04  0.7818609E-02  0.8560861E-01
       -2   -1    0    0    0  501  0.00000000000E+00  0.00000000000E+00  0.12033983484E+04  0.12033983484E+04  0.25500000920E-02 0. -1.
        2   -1    0    0  501    0  0.00000000000E+00  0.00000000000E+00 -0.91691415069E+03  0.91691415070E+03  0.25500000920E-02 0.  1.
    10030    2    1    2    0    0  0.00000000000E+00  0.00000000000E+00  0.28648419771E+03  0.21203124991E+04  0.21008693197E+04 0.  0.
        4    1    3    3  502    0  0.75809852534E+03  0.57850183495E+03  0.58781124805E+03  0.11202238274E+04  0.12699999809E+01 0. -1.
       -4    1    3    3    0  502 -0.75809852534E+03 -0.57850183495E+03 -0.30132705034E+03  0.10000886717E+04  0.12699999809E+01 0.  1.
</event>
<event>
 5   0  0.3574927E-06  0.2100080E+04  0.7818609E-02  0.8561208E-01
        2   -1    0    0  501    0  0.00000000000E+00  0.00000000000E+00  0.96387149372E+03  0.96387149372E+03  0.25500000920E-02 0. -1.
       -2   -1    0    0    0  501  0.00000000000E+00  0.00000000000E+00 -0.11439115749E+04  0.11439115749E+04  0.25500000920E-02 0.  1.
    10030    2    1    2    0    0  0.00000000000E+00  0.00000000000E+00 -0.18004008117E+03  0.21077830686E+04  0.21000797684E+04 0.  0.
        3    1    3    3  502    0  0.16641912095E+02  0.58788346659E+03 -0.96309581368E+03  0.11284668715E+04  0.10100000352E+00 0.  1.
       -3    1    3    3    0  502 -0.16641912095E+02 -0.58788346659E+03  0.78305573251E+03  0.97931619712E+03  0.10100000352E+00 0. -1.
</event>
<event>
 5   0  0.1257125E-06  0.2100602E+04  0.7818609E-02  0.8560978E-01
        3   -1    0    0  501    0  0.00000000000E+00  0.00000000000E+00  0.87758402974E+03  0.87758403555E+03  0.10100000352E+00 0. -1.
       -3   -1    0    0    0  501  0.00000000000E+00  0.00000000000E+00 -0.12570106358E+04  0.12570106399E+04  0.10100000352E+00 0.  1.
    10030    2    1    2    0    0  0.00000000000E+00  0.00000000000E+00 -0.37942660611E+03  0.21345946755E+04  0.21006022658E+04 0.  0.
        4    1    3    3  502    0  0.10165147396E+03  0.10429378220E+04 -0.26213034471E+03  0.10801695484E+04  0.12699999809E+01 0.  1.
       -4    1    3    3    0  502 -0.10165147396E+03 -0.10429378220E+04 -0.11729626140E+03  0.10544251271E+04  0.12699999809E+01 0. -1.
</event>
<event>
 5   0  0.3547583E-06  0.2094296E+04  0.7818609E-02  0.8563760E-01
       -2   -1    0    0    0  501  0.00000000000E+00  0.00000000000E+00  0.39513869777E+03  0.39513869778E+03  0.25500000920E-02 0. -1.
        2   -1    0    0  501    0  0.00000000000E+00  0.00000000000E+00 -0.27750228417E+04  0.27750228417E+04  0.25500000920E-02 0.  1.
    10030    2    1    2    0    0  0.00000000000E+00  0.00000000000E+00 -0.23798841439E+04  0.31701615395E+04  0.20942959791E+04 0.  0.
        2    1    3    3  502    0  0.59681591434E+03 -0.83110272673E+02 -0.24862865041E+04  0.25582644768E+04  0.25500000920E-02 0.  1.
       -2    1    3    3    0  502 -0.59681591434E+03  0.83110272673E+02  0.10640236014E+03  0.61189706266E+03  0.25500000920E-02 0. -1.
</event>
<event>
 5   0  0.3636435E-06  0.2102444E+04  0.7818609E-02  0.8560168E-01
       -2   -1    0    0    0  501  0.00000000000E+00  0.00000000000E+00  0.88543493012E+03  0.88543493013E+03  0.25500000920E-02 0. -1.
        2   -1    0    0  501    0  0.00000000000E+00  0.00000000000E+00 -0.12480505293E+04  0.12480505293E+04  0.25500000920E-02 0.  1.
    10030    2    1    2    0    0  0.00000000000E+00  0.00000000000E+00 -0.36261559918E+03  0.21334854594E+04  0.21024438477E+04 0.  0.
        4    1    3    3  502    0  0.82577440010E+03  0.25407806111E+03  0.42637172356E+03  0.96345912241E+03  0.12699999809E+01 0. -1.
       -4    1    3    3    0  502 -0.82577440010E+03 -0.25407806111E+03 -0.78898732273E+03  0.11700263370E+04  0.12699999809E+01 0.  1.
</event>
<event>
 5   0  0.1615098E-06  0.2100548E+04  0.7818609E-02  0.8561002E-01
       -1   -1    0    0    0  501  0.00000000000E+00  0.00000000000E+00  0.68561565314E+03  0.68561565316E+03  0.50400001928E-02 0.  1.
        1   -1    0    0  501    0  0.00000000000E+00  0.00000000000E+00 -0.16088835709E+04  0.16088835709E+04  0.50400001928E-02 0. -1.
    10030    2    1    2    0    0  0.00000000000E+00  0.00000000000E+00 -0.92326791775E+03  0.22944992241E+04  0.21005482716E+04 0.  0.
        1    1    3    3  502    0  0.36045547775E+03 -0.21231866888E+03  0.59067977801E+03  0.72381625346E+03  0.50400001928E-02 0.  1.
       -1    1    3    3    0  502 -0.36045547775E+03  0.21231866888E+03 -0.15139476958E+04  0.15706829706E+04  0.50400001928E-02 0. -1.
</event>
<event>
 5   0  0.3547583E-06  0.2099894E+04  0.7818609E-02  0.8561290E-01
        2   -1    0    0  501    0  0.00000000000E+00  0.00000000000E+00  0.13571327998E+04  0.13571327998E+04  0.25500000920E-02 0. -1.
       -2   -1    0    0    0  501  0.00000000000E+00  0.00000000000E+00 -0.81229223694E+03  0.81229223694E+03  0.25500000920E-02 0.  1.
    10030    2    1    2    0    0  0.00000000000E+00  0.00000000000E+00  0.54484056289E+03  0.21694250368E+04  0.20998937476E+04 0.  0.
        2    1    3    3  502    0  0.65903815597E+03 -0.38840863156E+03 -0.47055584057E+03  0.89811767336E+03  0.25500000920E-02 0.  1.
       -2    1    3    3    0  502 -0.65903815597E+03  0.38840863156E+03  0.10153964035E+04  0.12713073634E+04  0.25500000920E-02 0. -1.
</event>
<event>
 5   0  0.1590067E-06  0.2100089E+04  0.7818609E-02  0.8561204E-01
        1   -1    0    0  501    0  0.00000000000E+00  0.00000000000E+00  0.13216008353E+04  0.13216008353E+04  0.50400001928E-02 0.  1.
       -1   -1    0    0    0  501  0.00000000000E+00  0.00000000000E+00 -0.83428600632E+03  0.83428600634E+03  0.50400001928E-02 0. -1.
    10030    2    1    2    0    0  0.00000000000E+00  0.00000000000E+00  0.48731482897E+03  0.21558868416E+04  0.21000886485E+04 0.  0.
        5    1    3    3  502    0 -0.28503211058E+03 -0.18501805791E+02  0.12809424064E+04  0.13124104386E+04  0.46999998093E+01 0.  1.
       -5    1    3    3    0  502  0.28503211058E+03  0.18501805791E+02 -0.79362757741E+03  0.84347640305E+03  0.46999998093E+01 0. -1.
</event>
<event>
 5   0  0.1653260E-06  0.2099661E+04  0.7818609E-02  0.8561393E-01
       -1   -1    0    0    0  501  0.00000000000E+00  0.00000000000E+00  0.92173670603E+03  0.92173670604E+03  0.50400001928E-02 0.  1.
        1   -1    0    0  501    0  0.00000000000E+00  0.00000000000E+00 -0.11957260088E+04  0.11957260088E+04  0.50400001928E-02 0. -1.
    10030    2    1    2    0    0  0.00000000000E+00  0.00000000000E+00 -0.27398930273E+03  0.21174627148E+04  0.20996614514E+04 0.  0.
        3    1    3    3  502    0  0.65589176628E+03  0.77898298981E+03  0.12038674692E+03  0.10254274653E+04  0.10100000352E+00 0.  1.
       -3    1    3    3    0  502 -0.65589176628E+03 -0.77898298981E+03 -0.39437604965E+03  0.10920352495E+04  0.10100000352E+00 0. -1.
</event>
<event>
 5   0  0.3705828E-06  0.2099312E+04  0.7818609E-02  0.8561546E-01
        2   -1    0    0  501    0  0.00000000000E+00  0.00000000000E+00  0.13244129539E+04  0.13244129539E+04  0.25500000920E-02 0. -1.
       -2   -1    0    0    0  501  0.00000000000E+00  0.00000000000E+00 -0.83189908967E+03  0.83189908967E+03  0.25500000920E-02 0.  1.
    10030    2    1    2    0    0  0.00000000000E+00  0.00000000000E+00  0.49251386420E+03  0.21563120436E+04  0.20993122023E+04 0.  0.
        5    1    3    3  502    0  0.52607424893E+03  0.55989687412E+03 -0.48836638002E+03  0.91036390316E+03  0.46999998093E+01 0.  1.
       -5    1    3    3    0  502 -0.52607424893E+03 -0.55989687412E+03  0.98088024423E+03  0.12459481404E+04  0.46999998093E+01 0. -1.
</event>
<event>
 5   0  0.1590067E-06  0.2103707E+04  0.7818609E-02  0.8559612E-01
        1   -1    0    0  501    0  0.00000000000E+00  0.00000000000E+00  0.12914351022E+04  0.12914351022E+04  0.50400001928E-02 0. -1.
       -1   -1    0    0    0  501  0.00000000000E+00  0.00000000000E+00 -0.85671791753E+03  0.85671791755E+03  0.50400001928E-02 0.  1.
    10030    2    1    2    0    0  0.00000000000E+00  0.00000000000E+00  0.43471718470E+03  0.21481530198E+04  0.21037068155E+04 0.  0.
        5    1    3    3  502    0  0.73094554614E+03 -0.26833498347E+03 -0.50475149366E+03  0.92794461857E+03  0.46999998093E+01 0.  1.
       -5    1    3    3    0  502 -0.73094554614E+03  0.26833498347E+03  0.93946867836E+03  0.12202084012E+04  0.46999998093E+01 0. -1.
</event>
<event>
 5   0  0.3574927E-06  0.2097108E+04  0.7818609E-02  0.8562518E-01
        2   -1    0    0  501    0  0.00000000000E+00  0.00000000000E+00  0.20634481745E+04  0.20634481745E+04  0.25500000920E-02 0.  1.
       -2   -1    0    0    0  501  0.00000000000E+00  0.00000000000E+00 -0.53282943584E+03  0.53282943585E+03  0.25500000920E-02 0. -1.
    10030    2    1    2    0    0  0.00000000000E+00  0.00000000000E+00  0.15306187387E+04  0.25962776104E+04  0.20971084156E+04 0.  0.
        3    1    3    3  502    0  0.27239510178E+03  0.10047615422E+04  0.92053780231E+03  0.13896527278E+04  0.10100000352E+00 0.  1.
       -3    1    3    3    0  502 -0.27239510178E+03 -0.10047615422E+04  0.61008093639E+03  0.12066248826E+04  0.10100000352E+00 0. -1.
</event>
<event>
 5   0  0.1615098E-06  0.2096367E+04  0.7818609E-02  0.8562845E-01
        1   -1    0    0  501    0  0.00000000000E+00  0.00000000000E+00  0.15498923956E+04  0.15498923956E+04  0.50400001928E-02 0. -1.
       -1   -1    0    0    0  501  0.00000000000E+00  0.00000000000E+00 -0.70888058054E+03  0.70888058056E+03  0.50400001928E-02 0.  1.
    10030    2    1    2    0    0  0.00000000000E+00  0.00000000000E+00  0.84101181505E+03  0.22587729762E+04  0.20963669728E+04 0.  0.
        1    1    3    3  502    0  0.81324298096E+01 -0.31003716884E+03 -0.65831000404E+03  0.72770958762E+03  0.50400001928E-02 0.  1.
       -1    1    3    3    0  502 -0.81324298096E+01  0.31003716884E+03  0.14993218191E+04  0.15310633885E+04  0.50400001928E-02 0. -1.
</event>
<event>
 5   0  0.1590067E-06  0.2100280E+04  0.7818609E-02  0.8561120E-01
       -1   -1    0    0    0  501  0.00000000000E+00  0.00000000000E+00  0.78280464987E+03  0.78280464989E+03  0.50400001928E-02 0.  1.
        1   -1    0    0  501    0  0.00000000000E+00  0.00000000000E+00 -0.14087723505E+04  0.14087723506E+04  0.50400001928E-02 0. -1.
    10030    2    1    2    0    0  0.00000000000E+00  0.00000000000E+00 -0.62596770068E+03  0.21915770004E+04  0.21002795496E+04 0.  0.
        5    1    3    3  502    0  0.96872824660E+03 -0.24881239067E+03  0.20974278662E+02  0.10004019352E+04  0.46999998093E+01 0.  1.
       -5    1    3    3    0  502 -0.96872824660E+03  0.24881239067E+03 -0.64694197934E+03  0.11911750653E+04  0.46999998093E+01 0. -1.
</event>
<event>
 5   0  0.3574927E-06  0.2099533E+04  0.7818609E-02  0.8561449E-01
        2   -1    0    0  501    0  0.00000000000E+00  0.00000000000E+00  0.17163607159E+04  0.17163607159E+04  0.25500000920E-02 0. -1.
       -2   -1    0    0    0  501  0.00000000000E+00  0.00000000000E+00 -0.64206200064E+03  0.64206200064E+03  0.25500000920E-02 0.  1.
    10030    2    1    2    0    0  0.00000000000E+00  0.00000000000E+00  0.10742987152E+04  0.23584227165E+04  0.20995332768E+04 0.  0.
        3    1    3    3  502    0 -0.81145913999E+03 -0.18923550651E+03 -0.18012835396E+03  0.85248005660E+03  0.10100000352E+00 0.  1.
       -3    1    3    3    0  502  0.81145913999E+03  0.18923550651E+03  0.12544270692E+04  0.15059426599E+04  0.10100000352E+00 0. -1.
</event>
<event>
 5   0  0.3705828E-06  0.2097417E+04  0.7818609E-02  0.8562382E-01
        2   -1    0    0  501    0  0.00000000000E+00  0.00000000000E+00  0.12620771802E+04  0.12620771802E+04  0.25500000920E-02 0. -1.
       -2   -1    0    0    0  501  0.00000000000E+00  0.00000000000E+00 -0.87141255717E+03  0.87141255717E+03  0.25500000920E-02 0.  1.
    10030    2    1    2    0    0  0.00000000000E+00  0.00000000000E+00  0.39066462300E+03  0.21334897373E+04  0.20974173671E+04 0.  0.
        5    1    3    3  502    0  0.96695598423E+03 -0.32992143113E+03 -0.45199719541E+02  0.10227009000E+04  0.46999998093E+01 0.  1.
       -5    1    3    3    0  502 -0.96695598423E+03  0.32992143113E+03  0.43586434254E+03  0.11107888374E+04  0.46999998093E+01 0. -1.
</event>
<event>
 5   0  0.3705828E-06  0.2099202E+04  0.7818609E-02  0.8561595E-01
       -2   -1    0    0    0  501  0.00000000000E+00  0.00000000000E+00  0.69102817655E+03  0.69102817655E+03  0.25500000920E-02 0.  1.
        2   -1    0    0  501    0  0.00000000000E+00  0.00000000000E+00 -0.15942368248E+04  0.15942368248E+04  0.25500000920E-02 0. -1.
    10030    2    1    2    0    0  0.00000000000E+00  0.00000000000E+00 -0.90320864825E+03  0.22852650014E+04  0.20992022923E+04 0.  0.
        5    1    3    3  502    0 -0.40029290475E+02  0.65404836597E+03  0.44098265290E+03  0.78985403669E+03  0.46999998093E+01 0.  1.
       -5    1    3    3    0  502  0.40029290475E+02 -0.65404836597E+03 -0.13441913012E+04  0.14954109647E+04  0.46999998093E+01 0. -1.
</event>
<event>
 5   0  0.1646510E-06  0.2100205E+04  0.7818609E-02  0.8561153E-01
       -1   -1    0    0    0  501  0.00000000000E+00  0.00000000000E+00  0.90319578210E+03  0.90319578211E+03  0.50400001928E-02 0. -1.
        1   -1    0    0  501    0  0.00000000000E+00  0.00000000000E+00 -0.12209040286E+04  0.12209040286E+04  0.50400001928E-02 0.  1.
    10030    2    1    2    0    0  0.00000000000E+00  0.00000000000E+00 -0.31770824654E+03  0.21240998108E+04  0.21002051034E+04 0.  0.
        4    1    3    3  502    0  0.67394223688E+02  0.51988608247E+03  0.76138266513E+03  0.92440721319E+03  0.12699999809E+01 0. -1.
       -4    1    3    3    0  502 -0.67394223688E+02 -0.51988608247E+03 -0.10790909117E+04  0.11996925976E+04  0.12699999809E+01 0.  1.
</event>
<event>
 5   0  0.1590067E-06  0.2100737E+04  0.7818609E-02  0.8560919E-01
        1   -1    0    0  501    0  0.00000000000E+00  0.00000000000E+00  0.11290707441E+04  0.11290707441E+04  0.50400001928E-02 0.  1.
       -1   -1    0    0    0  501  0.00000000000E+00  0.00000000000E+00 -0.97715243207E+03  0.97715243208E+03  0.50400001928E-02 0. -1.
    10030    2    1    2    0    0  0.00000000000E+00  0.00000000000E+00  0.15191831207E+03  0.21062231762E+04  0.21007372264E+04 0.  0.
        5    1    3    3  502    0  0.47228599297E+03 -0.24389518551E+03 -0.83233886608E+03  0.98759758944E+03  0.46999998093E+01 0. -1.
       -5    1    3    3    0  502 -0.47228599297E+03  0.24389518551E+03  0.98425717815E+03  0.11186255868E+04  0.46999998093E+01 0.  1.
</event>
<event>
 5   0  0.1646510E-06  0.2100228E+04  0.7818609E-02  0.8561143E-01
        1   -1    0    0  501    0  0.00000000000E+00  0.00000000000E+00  0.12457895733E+04  0.12457895733E+04  0.50400001928E-02 0.  1.
       -1   -1    0    0    0  501  0.00000000000E+00  0.00000000000E+00 -0.88517305139E+03  0.88517305140E+03  0.50400001928E-02 0. -1.
    10030    2    1    2    0    0  0.00000000000E+00  0.00000000000E+00  0.36061652194E+03  0.21309626247E+04  0.21002279477E+04 0.  0.
        4    1    3    3  502    0 -0.73040074907E+02 -0.35115259393E+03 -0.82109730345E+03  0.89601640130E+03  0.12699999809E+01 0. -1.
       -4    1    3    3    0  502  0.73040074907E+02  0.35115259393E+03  0.11817138254E+04  0.12349462234E+04  0.12699999809E+01 0.  1.
</event>
<event>
 5   0  0.1653260E-06  0.2099452E+04  0.7818609E-02  0.8561485E-01
       -1   -1    0    0    0  501  0.00000000000E+00  0.00000000000E+00  0.59163111013E+03  0.59163111015E+03  0.50400001928E-02 0.  1.
        1   -1    0    0  501    0  0.00000000000E+00  0.00000000000E+00 -0.18625195439E+04  0.18625195439E+04  0.50400001928E-02 0. -1.
    10030    2    1    2    0    0  0.00000000000E+00  0.00000000000E+00 -0.12708884337E+04  0.24541506540E+04  0.20994518384E+04 0.  0.
        3    1    3    3  502    0  0.84943775049E+02  0.94762330093E+03 -0.11539082101E+04  0.14955632828E+04  0.10100000352E+00 0.  1.
       -3    1    3    3    0  502 -0.84943775049E+02 -0.94762330093E+03 -0.11698022369E+03  0.95858737125E+03  0.10100000352E+00 0. -1.
</event>
<event>
 5   0  0.1646510E-06  0.2100100E+04  0.7818609E-02  0.8561199E-01
        1   -1    0    0  501    0  0.00000000000E+00  0.00000000000E+00  0.15073379367E+04  0.15073379367E+04  0.50400001928E-02 0.  1.
       -1   -1    0    0    0  501  0.00000000000E+00  0.00000000000E+00 -0.73149175202E+03  0.73149175204E+03  0.50400001928E-02 0. -1.
    10030    2    1    2    0    0  0.00000000000E+00  0.00000000000E+00  0.77584618465E+03  0.22388296887E+04  0.21001002530E+04 0.  0.
        4    1    3    3  502    0  0.73468499530E+03 -0.86693469888E+02 -0.40650570250E+03  0.84411272890E+03  0.12699999809E+01 0. -1.
       -4    1    3    3    0  502 -0.73468499530E+03  0.86693469888E+02  0.11823518871E+04  0.13947169598E+04  0.12699999809E+01 0.  1.
</event>
<event>
 5   0  0.3574927E-06  0.2098302E+04  0.7818609E-02  0.8561992E-01
        2   -1    0    0  501    0  0.00000000000E+00  0.00000000000E+00  0.66580623618E+03  0.66580623618E+03  0.25500000920E-02 0. -1.
       -2   -1    0    0    0  501  0.00000000000E+00  0.00000000000E+00 -0.16532103130E+04  0.16532103130E+04  0.25500000920E-02 0.  1.
    10030    2    1    2    0    0  0.00000000000E+00  0.00000000000E+00 -0.98740407679E+03  0.23190165492E+04  0.20983019193E+04 0.  0.
        3    1    3    3  502    0  0.10277855964E+04  0.14840370661E+03 -0.65892969127E+03  0.12298598459E+04  0.10100000352E+00 0.  1.
       -3    1    3    3    0  502 -0.10277855964E+04 -0.14840370661E+03 -0.32847438552E+03  0.10891567033E+04  0.10100000352E+00 0. -1.
</event>
<event>
 5   0  0.3705828E-06  0.2101997E+04  0.7818609E-02  0.8560364E-01
       -2   -1    0    0    0  501  0.00000000000E+00  0.00000000000E+00  0.80329346032E+03  0.80329346032E+03  0.25500000920E-02 0.  1.
        2   -1    0    0  501    0  0.00000000000E+00  0.00000000000E+00 -0.13750861626E+04  0.13750861626E+04  0.25500000920E-02 0. -1.
    10030    2    1    2    0    0  0.00000000000E+00  0.00000000000E+00 -0.57179270228E+03  0.21783796229E+04  0.21019968809E+04 0.  0.
        5    1    3    3  502    0 -0.79579011370E+02 -0.78791046094E+03  0.43018252445E+03  0.90122960884E+03  0.46999998093E+01 0.  1.
       -5    1    3    3    0  502  0.79579011370E+02  0.78791046094E+03 -0.10019752267E+04  0.12771500141E+04  0.46999998093E+01 0. -1.
</event>
<event>
 5   0  0.3705828E-06  0.2099706E+04  0.7818609E-02  0.8561373E-01
        2   -1    0    0  501    0  0.00000000000E+00  0.00000000000E+00  0.92860463036E+03  0.92860463036E+03  0.25500000920E-02 0. -1.
       -2   -1    0    0    0  501  0.00000000000E+00  0.00000000000E+00 -0.11869329283E+04  0.11869329283E+04  0.25500000920E-02 0.  1.
    10030    2    1    2    0    0  0.00000000000E+00  0.00000000000E+00 -0.25832829793E+03  0.21155375587E+04  0.20997060872E+04 0.  0.
        5    1    3    3  502    0  0.32054668814E+03 -0.65516013668E+03 -0.88996304744E+03  0.11506699352E+04  0.46999998093E+01 0.  1.
       -5    1    3    3    0  502 -0.32054668814E+03  0.65516013668E+03  0.63163474952E+03  0.96486762345E+03  0.46999998093E+01 0. -1.
</event>
<event>
 5   0  0.1615098E-06  0.2100274E+04  0.7818609E-02  0.8561123E-01
        1   -1    0    0  501    0  0.00000000000E+00  0.00000000000E+00  0.86986241130E+03  0.86986241132E+03  0.50400001928E-02 0.  1.
       -1   -1    0    0    0  501  0.00000000000E+00  0.00000000000E+00 -0.12677727466E+04  0.12677727466E+04  0.50400001928E-02 0. -1.
    10030    2    1    2    0    0  0.00000000000E+00  0.00000000000E+00 -0.39791033527E+03  0.21376351579E+04  0.21002741329E+04 0.  0.
        1    1    3    3  502    0  0.19293457399E+03 -0.13086374770E+03 -0.12411025451E+04  0.12628082190E+04  0.50400001928E-02 0. -1.
       -1    1    3    3    0  502 -0.19293457399E+03  0.13086374770E+03  0.84319220986E+03  0.87482693894E+03  0.50400001928E-02 0.  1.
</event>
<event>
 5   0  0.3480134E-06  0.2099899E+04  0.7818609E-02  0.8561288E-01
       -2   -1    0    0    0  501  0.00000000000E+00  0.00000000000E+00  0.96082960822E+03  0.96082960822E+03  0.25500000920E-02 0.  1.
        2   -1    0    0  501    0  0.00000000000E+00  0.00000000000E+00 -0.11473358068E+04  0.11473358068E+04  0.25500000920E-02 0. -1.
    10030    2    1    2    0    0  0.00000000000E+00  0.00000000000E+00 -0.18650619863E+03  0.21081654151E+04  0.20998992488E+04 0.  0.
        1    1    3    3  502    0  0.47588237395E+03  0.13976586531E+03 -0.10223124545E+04  0.11362751804E+04  0.50400001928E-02 0. -1.
       -1    1    3    3    0  502 -0.47588237395E+03 -0.13976586531E+03  0.83580625585E+03  0.97189023469E+03  0.50400001928E-02 0.  1.
</event>
<event>
 5   0  0.3480134E-06  0.2100392E+04  0.7818609E-02  0.8561071E-01
        2   -1    0    0  501    0  0.00000000000E+00  0.00000000000E+00  0.24645178797E+04  0.24645178797E+04  0.25500000920E-02 0.  1.
       -2   -1    0    0    0  501  0.00000000000E+00  0.00000000000E+00 -0.44751636017E+03  0.44751636017E+03  0.25500000920E-02 0. -1.
    10030    2    1    2    0    0  0.00000000000E+00  0.00000000000E+00  0.20170015196E+04  0.29120342399E+04  0.21003924120E+04 0.  0.
        1    1    3    3  502    0  0.64840658780E+03  0.56903697871E+03  0.17817533472E+03  0.88089763093E+03  0.50400001928E-02 0. -1.
       -1    1    3    3    0  502 -0.64840658780E+03 -0.56903697871E+03  0.18388261848E+04  0.20311366090E+04  0.50400001928E-02 0.  1.
</event>
<event>
 5   0  0.1653260E-06  0.2100543E+04  0.7818609E-02  0.8561004E-01
        1   -1    0    0  501    0  0.00000000000E+00  0.00000000000E+00  0.13678689172E+04  0.13678689172E+04  0.50400001928E-02 0. -1.
       -1   -1    0    0    0  501  0.00000000000E+00  0.00000000000E+00 -0.80641516416E+03  0.80641516418E+03  0.50400001928E-02 0.  1.
    10030    2    1    2    0    0  0.00000000000E+00  0.00000000000E+00  0.56145375302E+03  0.21742840814E+04  0.21005430131E+04 0.  0.
        3    1    3    3  502    0 -0.65917657116E+02  0.38348641142E+03  0.12905059339E+04  0.13478918877E+04  0.10100000352E+00 0. -1.
       -3    1    3    3    0  502  0.65917657116E+02 -0.38348641142E+03 -0.72905218084E+03  0.82639219373E+03  0.10100000352E+00 0.  1.
</event>
<event>
 5   0  0.3636435E-06  0.2097501E+04  0.7818609E-02  0.8562345E-01
       -2   -1    0    0    0  501  0.00000000000E+00  0.00000000000E+00  0.96185765678E+03  0.96185765678E+03  0.25500000920E-02 0.  1.
        2   -1    0    0  501    0  0.00000000000E+00  0.00000000000E+00 -0.11434927674E+04  0.11434927674E+04  0.25500000920E-02 0. -1.
    10030    2    1    2    0    0  0.00000000000E+00  0.00000000000E+00 -0.18163511059E+03  0.21053504242E+04  0.20975006782E+04 0.  0.
        4    1    3    3  502    0  0.88788921229E+03 -0.55781614621E+03 -0.71521808655E+02  0.10510105082E+04  0.12699999809E+01 0.  1.
       -4    1    3    3    0  502 -0.88788921229E+03  0.55781614621E+03 -0.11011330194E+03  0.10543399160E+04  0.12699999809E+01 0. -1.
</event>
<event>
 5   0  0.1579820E-06  0.2109133E+04  0.7818609E-02  0.8557231E-01
        1   -1    0    0  501    0  0.00000000000E+00  0.00000000000E+00  0.11026919674E+04  0.11026919674E+04  0.50400001928E-02 0. -1.
       -1   -1    0    0    0  501  0.00000000000E+00  0.00000000000E+00 -0.10085416363E+04  0.10085416363E+04  0.50400001928E-02 0.  1.
    10030    2    1    2    0    0  0.00000000000E+00  0.00000000000E+00  0.94150331072E+02  0.21112336037E+04  0.21091332448E+04 0.  0.
        2    1    3    3  502    0  0.71490826684E+02 -0.11730552062E+03  0.10936972101E+04  0.11022908467E+04  0.25500000920E-02 0. -1.
       -2    1    3    3    0  502 -0.71490826684E+02  0.11730552062E+03 -0.99954687899E+03  0.10089427569E+04  0.25500000920E-02 0.  1.
</event>
<event>
 5   0  0.3547583E-06  0.2100343E+04  0.7818609E-02  0.8561092E-01
       -2   -1    0    0    0  501  0.00000000000E+00  0.00000000000E+00  0.12832952431E+04  0.12832952431E+04  0.25500000920E-02 0.  1.
        2   -1    0    0  501    0  0.00000000000E+00  0.00000000000E+00 -0.85939709726E+03  0.85939709726E+03  0.25500000920E-02 0. -1.
    10030    2    1    2    0    0  0.00000000000E+00  0.00000000000E+00  0.42389814581E+03  0.21426923403E+04  0.21003430261E+04 0.  0.
        2    1    3    3  502    0  0.41539463447E+03  0.76425865605E+03  0.81221444086E+03  0.11900992789E+04  0.25500000920E-02 0.  1.
       -2    1    3    3    0  502 -0.41539463447E+03 -0.76425865605E+03 -0.38831629505E+03  0.95259306144E+03  0.25500000920E-02 0. -1.
</event>
<event>
 5   0  0.1615098E-06  0.2100849E+04  0.7818609E-02  0.8560869E-01
        1   -1    0    0  501    0  0.00000000000E+00  0.00000000000E+00  0.96484234058E+03  0.96484234059E+03  0.50400001928E-02 0. -1.
       -1   -1    0    0    0  501  0.00000000000E+00  0.00000000000E+00 -0.11435980643E+04  0.11435980643E+04  0.50400001928E-02 0.  1.
    10030    2    1    2    0    0  0.00000000000E+00  0.00000000000E+00 -0.17875572369E+03  0.21084404049E+04  0.21008491931E+04 0.  0.
        1    1    3    3  502    0 -0.40296351998E+03  0.11824858299E+03  0.87692492242E+03  0.97229606880E+03  0.50400001928E-02 0. -1.
       -1    1    3    3    0  502  0.40296351998E+03 -0.11824858299E+03 -0.10556806461E+04  0.11361443361E+04  0.50400001928E-02 0.  1.
</event>
<event>
 5   0  0.3547583E-06  0.2100291E+04  0.7818609E-02  0.8561115E-01
        2   -1    0    0  501    0  0.00000000000E+00  0.00000000000E+00  0.85582884555E+03  0.85582884555E+03  0.25500000920E-02 0.  1.
       -2   -1    0    0    0  501  0.00000000000E+00  0.00000000000E+00 -0.12885816211E+04  0.12885816211E+04  0.25500000920E-02 0. -1.
    10030    2    1    2    0    0  0.00000000000E+00  0.00000000000E+00 -0.43275277551E+03  0.21444104666E+04  0.21002907619E+04 0.  0.
        2    1    3    3  502    0 -0.96854371416E+03  0.24298598498E+03 -0.54829961923E+03  0.11391890043E+04  0.25500000920E-02 0.  1.
       -2    1    3    3    0  502  0.96854371416E+03 -0.24298598498E+03  0.11554684373E+03  0.10052214623E+04  0.25500000920E-02 0. -1.
</event>
<event>
 5   0  0.3705828E-06  0.2099854E+04  0.7818609E-02  0.8561308E-01
       -2   -1    0    0    0  501  0.00000000000E+00  0.00000000000E+00  0.88968069953E+03  0.88968069953E+03  0.25500000920E-02 0. -1.
        2   -1    0    0  501    0  0.00000000000E+00  0.00000000000E+00 -0.12390358991E+04  0.12390358991E+04  0.25500000920E-02 0.  1.
    10030    2    1    2    0    0  0.00000000000E+00  0.00000000000E+00 -0.34935519957E+03  0.21287165986E+04  0.20998536382E+04 0.  0.
        5    1    3    3  502    0 -0.71672052006E+03 -0.74555139114E+03 -0.35824403323E+03  0.10944843800E+04  0.46999998093E+01 0.  1.
       -5    1    3    3    0  502  0.71672052006E+03  0.74555139114E+03  0.88888336594E+01  0.10342322186E+04  0.46999998093E+01 0. -1.
</event>
<event>
 5   0  0.3705828E-06  0.2100812E+04  0.7818609E-02  0.8560886E-01
       -2   -1    0    0    0  501  0.00000000000E+00  0.00000000000E+00  0.69213357727E+03  0.69213357727E+03  0.25500000920E-02 0. -1.
        2   -1    0    0  501    0  0.00000000000E+00  0.00000000000E+00 -0.15941326231E+04  0.15941326231E+04  0.25500000920E-02 0.  1.
    10030    2    1    2    0    0  0.00000000000E+00  0.00000000000E+00 -0.90199904580E+03  0.22862662003E+04  0.21008119526E+04 0.  0.
        5    1    3    3  502    0  0.77327615929E+03  0.33410740149E+01  0.32264512938E+03  0.83790760279E+03  0.46999998093E+01 0. -1.
       -5    1    3    3    0  502 -0.77327615929E+03 -0.33410740149E+01 -0.12246441752E+04  0.14483585976E+04  0.46999998093E+01 0.  1.
</event>
<event>
 5   0  0.1257125E-06  0.2100743E+04  0.7818609E-02  0.8560916E-01
       -4   -1    0    0    0  501  0.00000000000E+00  0.00000000000E+00  0.85008383273E+03  0.85008478140E+03  0.12699999809E+01 0. -1.
        4   -1    0    0  501    0  0.00000000000E+00  0.00000000000E+00 -0.12978465601E+04  0.12978471815E+04  0.12699999809E+01 0.  1.
    10030    2    1    2    0    0  0.00000000000E+00  0.00000000000E+00 -0.44776272736E+03  0.21479319629E+04  0.21007427870E+04 0.  0.
        4    1    3    3  502    0 -0.51884853584E+03 -0.68535869212E+03  0.39329866000E+03  0.94530724575E+03  0.12699999809E+01 0. -1.
       -4    1    3    3    0  502  0.51884853584E+03  0.68535869212E+03 -0.84106138736E+03  0.12026247171E+04  0.12699999809E+01 0.  1.
</event>
<event>
 5   0  0.1615098E-06  0.2100374E+04  0.7818609E-02  0.8561078E-01
       -1   -1    0    0    0  501  0.00000000000E+00  0.00000000000E+00  0.10531125352E+04  0.10531125352E+04  0.50400001928E-02 0. -1.
        1   -1    0    0  501    0  0.00000000000E+00  0.00000000000E+00 -0.10472699736E+04  0.10472699736E+04  0.50400001928E-02 0.  1.
    10030    2    1    2    0    0  0.00000000000E+00  0.00000000000E+00  0.58425615211E+01  0.21003825088E+04  0.21003743828E+04 0.  0.
        1    1    3    3  502    0 -0.56357397788E+03  0.28206168462E+02  0.88863454732E+03  0.10526550124E+04  0.50400001928E-02 0. -1.
       -1    1    3    3    0  502  0.56357397788E+03 -0.28206168462E+02 -0.88279198580E+03  0.10477274964E+04  0.50400001928E-02 0.  1.
</event>
<event>
 5   0  0.1653260E-06  0.2100949E+04  0.7818609E-02  0.8560825E-01
       -1   -1    0    0    0  501  0.00000000000E+00  0.00000000000E+00  0.14223175410E+04  0.14223175410E+04  0.50400001928E-02 0.  1.
        1   -1    0    0  501    0  0.00000000000E+00  0.00000000000E+00 -0.77584432547E+03  0.77584432548E+03  0.50400001928E-02 0. -1.
    10030    2    1    2    0    0  0.00000000000E+00  0.00000000000E+00  0.64647321552E+03  0.21981618665E+04  0.21009493028E+04 0.  0.
        3    1    3    3  502    0  0.66763534672E+03  0.21165599468E+03  0.11423816177E+04  0.13399891742E+04  0.10100000352E+00 0.  1.
       -3    1    3    3    0  502 -0.66763534672E+03 -0.21165599468E+03 -0.49590840217E+03  0.85817269230E+03  0.10100000352E+00 0. -1.
</event>
<event>
 5   0  0.1653260E-06  0.2100092E+04  0.7818609E-02  0.8561203E-01
        1   -1    0    0  501    0  0.00000000000E+00  0.00000000000E+00  0.10490991901E+04  0.10490991901E+04  0.50400001928E-02 0.  1.
       -1   -1    0    0    0  501  0.00000000000E+00  0.00000000000E+00 -0.10509936179E+04  0.10509936179E+04  0.50400001928E-02 0. -1.
    10030    2    1    2    0    0  0.00000000000E+00  0.00000000000E+00 -0.18944278115E+01  0.21000928081E+04  0.21000919536E+04 0.  0.
        3    1    3    3  502    0  0.25434897070E+03  0.51499856304E+03 -0.87996954191E+03  0.10508393425E+04  0.10100000352E+00 0. -1.
       -3    1    3    3    0  502 -0.25434897070E+03 -0.51499856304E+03  0.87807511410E+03  0.10492534656E+04  0.10100000352E+00 0.  1.
</event>
<event>
 5   0  0.3480134E-06  0.2101235E+04  0.7818609E-02  0.8560699E-01
        2   -1    0    0  501    0  0.00000000000E+00  0.00000000000E+00  0.17418697798E+04  0.17418697798E+04  0.25500000920E-02 0. -1.
       -2   -1    0    0    0  501  0.00000000000E+00  0.00000000000E+00 -0.63368545727E+03  0.63368545728E+03  0.25500000920E-02 0.  1.
    10030    2    1    2    0    0  0.00000000000E+00  0.00000000000E+00  0.11081843225E+04  0.23755552371E+04  0.21012353965E+04 0.  0.
        1    1    3    3  502    0 -0.82961348774E+03  0.53726419636E+03  0.15137734565E+03  0.99991322450E+03  0.50400001928E-02 0.  1.
       -1    1    3    3    0  502  0.82961348774E+03 -0.53726419636E+03  0.95680697688E+03  0.13756420126E+04  0.50400001928E-02 0. -1.
</event>
<event>
 5   0  0.1590067E-06  0.2101162E+04  0.7818609E-02  0.8560732E-01
        1   -1    0    0  501    0  0.00000000000E+00  0.00000000000E+00  0.69632538349E+03  0.69632538351E+03  0.50400001928E-02 0.  1.
       -1   -1    0    0    0  501  0.00000000000E+00  0.00000000000E+00 -0.15850636332E+04  0.15850636332E+04  0.50400001928E-02 0. -1.
    10030    2    1    2    0    0  0.00000000000E+00  0.00000000000E+00 -0.88873824968E+03  0.22813890167E+04  0.21011616237E+04 0.  0.
        5    1    3    3  502    0 -0.13491316456E+03  0.34275074879E+02 -0.15749950583E+04  0.15811413176E+04  0.46999998093E+01 0. -1.
       -5    1    3    3    0  502  0.13491316456E+03 -0.34275074879E+02  0.68625680858E+03  0.70024769907E+03  0.46999998093E+01 0.  1.
</event>
<event>
 5   0  0.3480134E-06  0.2100315E+04  0.7818609E-02  0.8561104E-01
        2   -1    0    0  501    0  0.00000000000E+00  0.00000000000E+00  0.11380466966E+04  0.11380466966E+04  0.25500000920E-02 0.  1.
       -2   -1    0    0    0  501  0.00000000000E+00  0.00000000000E+00 -0.96905610086E+03  0.96905610087E+03  0.25500000920E-02 0. -1.
    10030    2    1    2    0    0  0.00000000000E+00  0.00000000000E+00  0.16899059572E+03  0.21071027975E+04  0.21003153043E+04 0.  0.
        1    1    3    3  502    0  0.65310903676E+03 -0.54015113217E+03 -0.53760252327E+03  0.10036588726E+04  0.50400001928E-02 0. -1.
       -1    1    3    3    0  502 -0.65310903676E+03  0.54015113217E+03  0.70659311899E+03  0.11034439249E+04  0.50400001928E-02 0.  1.
</event>
<event>
 5   0  0.3574927E-06  0.2116227E+04  0.7818609E-02  0.8554129E-01
       -2   -1    0    0    0  501  0.00000000000E+00  0.00000000000E+00  0.83410310799E+03  0.83410310799E+03  0.25500000920E-02 0.  1.
        2   -1    0    0  501    0  0.00000000000E+00  0.00000000000E+00 -0.13422853030E+04  0.13422853030E+04  0.25500000920E-02 0. -1.
    10030    2    1    2    0    0  0.00000000000E+00  0.00000000000E+00 -0.50818219499E+03  0.21763884110E+04  0.21162271551E+04 0.  0.
        3    1    3    3  502    0 -0.37938379410E+03  0.98188508940E+03 -0.14345043937E+03  0.10623598405E+04  0.10100000352E+00 0.  1.
       -3    1    3    3    0  502  0.37938379410E+03 -0.98188508940E+03 -0.36473175561E+03  0.11140285704E+04  0.10100000352E+00 0. -1.
</event>
<event>
 5   0  0.3547583E-06  0.2099284E+04  0.7818609E-02  0.8561559E-01
        2   -1    0    0  501    0  0.00000000000E+00  0.00000000000E+00  0.77587316701E+03  0.77587316702E+03  0.25500000920E-02 0. -1.
       -2   -1    0    0    0  501  0.00000000000E+00  0.00000000000E+00 -0.14200102330E+04  0.14200102330E+04  0.25500000920E-02 0.  1.
    10030    2    1    2    0    0  0.00000000000E+00  0.00000000000E+00 -0.64413706594E+03  0.21958834000E+04  0.20992835317E+04 0.  0.
        2    1    3    3  502    0  0.61447077042E+03  0.53398218201E+03  0.37101967418E+03  0.89463226917E+03  0.25500000920E-02 0. -1.
       -2    1    3    3    0  502 -0.61447077042E+03 -0.53398218201E+03 -0.10151567401E+04  0.13012511308E+04  0.25500000920E-02 0.  1.
</event>
<event>
 5   0  0.1579820E-06  0.2102137E+04  0.7818609E-02  0.8560303E-01
        1   -1    0    0  501    0  0.00000000000E+00  0.00000000000E+00  0.74033919384E+03  0.74033919386E+03  0.50400001928E-02 0. -1.
       -1   -1    0    0    0  501  0.00000000000E+00  0.00000000000E+00 -0.14922147247E+04  0.14922147247E+04  0.50400001928E-02 0.  1.
    10030    2    1    2    0    0  0.00000000000E+00  0.00000000000E+00 -0.75187553083E+03  0.22325539185E+04  0.21021370520E+04 0.  0.
        2    1    3    3  502    0  0.51349129267E+03 -0.49620982869E+03  0.44317513516E+03  0.84041757607E+03  0.25500000920E-02 0. -1.
       -2    1    3    3    0  502 -0.51349129267E+03  0.49620982869E+03 -0.11950506660E+04  0.13921363425E+04  0.25500000920E-02 0.  1.
</event>
<event>
 5   0  0.3705828E-06  0.2099053E+04  0.7818609E-02  0.8561661E-01
        2   -1    0    0  501    0  0.00000000000E+00  0.00000000000E+00  0.14642059217E+04  0.14642059217E+04  0.25500000920E-02 0.  1.
       -2   -1    0    0    0  501  0.00000000000E+00  0.00000000000E+00 -0.75228870012E+03  0.75228870012E+03  0.25500000920E-02 0. -1.
    10030    2    1    2    0    0  0.00000000000E+00  0.00000000000E+00  0.71191722158E+03  0.22164946218E+04  0.20990527097E+04 0.  0.
        5    1    3    3  502    0 -0.24209271179E+03  0.64560429639E+03 -0.47955720873E+03  0.83988748952E+03  0.46999998093E+01 0. -1.
       -5    1    3    3    0  502  0.24209271179E+03 -0.64560429639E+03  0.11914744303E+04  0.13766071323E+04  0.46999998093E+01 0.  1.
</event>
<event>
 5   0  0.1257125E-06  0.2096190E+04  0.7818609E-02  0.8562923E-01
        3   -1    0    0  501    0  0.00000000000E+00  0.00000000000E+00  0.50570194032E+03  0.50570195040E+03  0.10100000352E+00 0.  1.
       -3   -1    0    0    0  501  0.00000000000E+00  0.00000000000E+00 -0.21722351821E+04  0.21722351844E+04  0.10100000352E+00 0. -1.
    10030    2    1    2    0    0  0.00000000000E+00  0.00000000000E+00 -0.16665332418E+04  0.26779371348E+04  0.20961904141E+04 0.  0.
        1    1    3    3  502    0  0.89285919206E+03 -0.54565561263E+03 -0.90955510962E+03  0.13864444027E+04  0.50400001928E-02 0.  1.
       -1    1    3    3    0  502 -0.89285919206E+03  0.54565561263E+03 -0.75697813214E+03  0.12914927321E+04  0.50400001928E-02 0. -1.
</event>
<event>
 5   0  0.3705828E-06  0.2100190E+04  0.7818609E-02  0.8561160E-01
       -2   -1    0    0    0  501  0.00000000000E+00  0.00000000000E+00  0.98387649651E+03  0.98387649651E+03  0.25500000920E-02 0. -1.
        2   -1    0    0  501    0  0.00000000000E+00  0.00000000000E+00 -0.11207704134E+04  0.11207704134E+04  0.25500000920E-02 0.  1.
    10030    2    1    2    0    0  0.00000000000E+00  0.00000000000E+00 -0.13689391685E+03  0.21046469099E+04  0.21001901511E+04 0.  0.
        5    1    3    3  502    0 -0.51223373471E+03  0.91217134806E+03 -0.15940084354E+03  0.10582394276E+04  0.46999998093E+01 0. -1.
       -5    1    3    3    0  502  0.51223373471E+03 -0.91217134806E+03  0.22506926691E+02  0.10464074823E+04  0.46999998093E+01 0.  1.
</event>
<event>
 5   0  0.3480134E-06  0.2099748E+04  0.7818609E-02  0.8561355E-01
       -2   -1    0    0    0  501  0.00000000000E+00  0.00000000000E+00  0.83417633530E+03  0.83417633530E+03  0.25500000920E-02 0. -1.
        2   -1    0    0  501    0  0.00000000000E+00  0.00000000000E+00 -0.13213454169E+04  0.13213454169E+04  0.25500000920E-02 0.  1.
    10030    2    1    2    0    0  0.00000000000E+00  0.00000000000E+00 -0.48716908164E+03  0.21555217522E+04  0.20997476778E+04 0.  0.
        1    1    3    3  502    0  0.81211400022E+03  0.35200673850E+03 -0.82320344125E+03  0.12087604390E+04  0.50400001928E-02 0. -1.
       -1    1    3    3    0  502 -0.81211400022E+03 -0.35200673850E+03  0.33603435961E+03  0.94676131319E+03  0.50400001928E-02 0.  1.
</event>
<event>
 5   0  0.3636435E-06  0.2097922E+04  0.7818609E-02  0.8562159E-01
        2   -1    0    0  501    0  0.00000000000E+00  0.00000000000E+00  0.81752444558E+03  0.81752444559E+03  0.25500000920E-02 0. -1.
       -2   -1    0    0    0  501  0.00000000000E+00  0.00000000000E+00 -0.13459165308E+04  0.13459165308E+04  0.25500000920E-02 0.  1.
    10030    2    1    2    0    0  0.00000000000E+00  0.00000000000E+00 -0.52839208519E+03  0.21634409764E+04  0.20979224634E+04 0.  0.
        4    1    3    3  502    0 -0.93683881989E+03 -0.44524396938E+03 -0.42530867646E+03  0.11210701360E+04  0.12699999809E+01 0.  1.
       -4    1    3    3    0  502  0.93683881989E+03  0.44524396938E+03 -0.10308340873E+03  0.10423708403E+04  0.12699999809E+01 0. -1.
</event>
<event>
 5   0  0.1579820E-06  0.2099289E+04  0.7818609E-02  0.8561557E-01
        1   -1    0    0  501    0  0.00000000000E+00  0.00000000000E+00  0.15325620750E+04  0.15325620750E+04  0.50400001928E-02 0. -1.
       -1   -1    0    0    0  501  0.00000000000E+00  0.00000000000E+00 -0.71889620822E+03  0.71889620824E+03  0.50400001928E-02 0.  1.
    10030    2    1    2    0    0  0.00000000000E+00  0.00000000000E+00  0.81366586677E+03  0.22514582832E+04  0.20992885124E+04 0.  0.
        2    1    3    3  502    0  0.41190763668E+03 -0.18169085315E+03 -0.61009317441E+03  0.75821708550E+03  0.25500000920E-02 0.  1.
       -2    1    3    3    0  502 -0.41190763668E+03  0.18169085315E+03  0.14237590412E+04  0.14932411977E+04  0.25500000920E-02 0. -1.
</event>
<event>
 5   0  0.1579820E-06  0.2099219E+04  0.7818609E-02  0.8561588E-01
        1   -1    0    0  501    0  0.00000000000E+00  0.00000000000E+00  0.13386437787E+04  0.13386437788E+04  0.50400001928E-02 0.  1.
       -1   -1    0    0    0  501  0.00000000000E+00  0.00000000000E+00 -0.82298205386E+03  0.82298205387E+03  0.50400001928E-02 0. -1.
    10030    2    1    2    0    0  0.00000000000E+00  0.00000000000E+00  0.51566172489E+03  0.21616258326E+04  0.20992187179E+04 0.  0.
        2    1    3    3  502    0 -0.60232970241E+03 -0.85912139305E+03  0.28675814103E+03  0.10877135973E+04  0.25500000920E-02 0. -1.
       -2    1    3    3    0  502  0.60232970241E+03  0.85912139305E+03  0.22890358386E+03  0.10739122353E+04  0.25500000920E-02 0.  1.
</event>
<event>
 5   0  0.3705828E-06  0.2099305E+04  0.7818609E-02  0.8561550E-01
       -2   -1    0    0    0  501  0.00000000000E+00  0.00000000000E+00  0.58619391169E+03  0.58619391170E+03  0.25500000920E-02 0. -1.
        2   -1    0    0  501    0  0.00000000000E+00  0.00000000000E+00 -0.18795322817E+04  0.18795322817E+04  0.25500000920E-02 0.  1.
    10030    2    1    2    0    0  0.00000000000E+00  0.00000000000E+00 -0.12933383700E+04  0.24657261934E+04  0.20993050091E+04 0.  0.
        5    1    3    3  502    0 -0.28670215256E+03 -0.29944147162E+03 -0.17792883890E+04  0.18269517181E+04  0.46999998093E+01 0.  1.
       -5    1    3    3    0  502  0.28670215256E+03  0.29944147162E+03  0.48595001902E+03  0.63877447522E+03  0.46999998093E+01 0. -1.
</event>
<event>
 5   0  0.3574927E-06  0.2099330E+04  0.7818609E-02  0.8561539E-01
        2   -1    0    0  501    0  0.00000000000E+00  0.00000000000E+00  0.13922302700E+04  0.13922302700E+04  0.25500000920E-02 0. -1.
       -2   -1    0    0    0  501  0.00000000000E+00  0.00000000000E+00 -0.79138973869E+03  0.79138973869E+03  0.25500000920E-02 0.  1.
    10030    2    1    2    0    0  0.00000000000E+00  0.00000000000E+00  0.60084053127E+03  0.21836200087E+04  0.20993301308E+04 0.  0.
        3    1    3    3  502    0  0.13724679672E+03 -0.87147264050E+03 -0.29118283736E+03  0.92902567313E+03  0.10100000352E+00 0.  1.
       -3    1    3    3    0  502 -0.13724679672E+03  0.87147264050E+03  0.89202336863E+03  0.12545943355E+04  0.10100000352E+00 0. -1.
</event>
<event>
 5   0  0.1579820E-06  0.2099669E+04  0.7818609E-02  0.8561389E-01
       -1   -1    0    0    0  501  0.00000000000E+00  0.00000000000E+00  0.76557518189E+03  0.76557518191E+03  0.50400001928E-02 0.  1.
        1   -1    0    0  501    0  0.00000000000E+00  0.00000000000E+00 -0.14396401727E+04  0.14396401727E+04  0.50400001928E-02 0. -1.
    10030    2    1    2    0    0  0.00000000000E+00  0.00000000000E+00 -0.67406499085E+03  0.22052153547E+04  0.20996692950E+04 0.  0.
        2    1    3    3  502    0  0.47326217372E+03 -0.84715700133E+03  0.83731527850E+02  0.97399334635E+03  0.25500000920E-02 0. -1.
       -2    1    3    3    0  502 -0.47326217372E+03  0.84715700133E+03 -0.75779651870E+03  0.12312220083E+04  0.25500000920E-02 0.  1.
</event>
<event>
 5   0  0.3636435E-06  0.2101457E+04  0.7818609E-02  0.8560602E-01
        2   -1    0    0  501    0  0.00000000000E+00  0.00000000000E+00  0.17141145585E+04  0.17141145585E+04  0.25500000920E-02 0. -1.
       -2   -1    0    0    0  501  0.00000000000E+00  0.00000000000E+00 -0.64408203421E+03  0.64408203422E+03  0.25500000920E-02 0.  1.
    10030    2    1    2    0    0  0.00000000000E+00  0.00000000000E+00  0.10700325243E+04  0.23581965927E+04  0.21014570105E+04 0.  0.
        4    1    3    3  502    0  0.35626789702E+03  0.53500917117E+03  0.14677480314E+04  0.16023256612E+04  0.12699999809E+01 0. -1.
       -4    1    3    3    0  502 -0.35626789702E+03 -0.53500917117E+03 -0.39771550714E+03  0.75587093158E+03  0.12699999809E+01 0.  1.
</event>
<event>
 5   0  0.1646510E-06  0.2099966E+04  0.7818609E-02  0.8561258E-01
        1   -1    0    0  501    0  0.00000000000E+00  0.00000000000E+00  0.10069081708E+04  0.10069081708E+04  0.50400001928E-02 0.  1.
       -1   -1    0    0    0  501  0.00000000000E+00  0.00000000000E+00 -0.10949009773E+04  0.10949009773E+04  0.50400001928E-02 0. -1.
    10030    2    1    2    0    0  0.00000000000E+00  0.00000000000E+00 -0.87992806468E+02  0.21018091481E+04  0.20999664191E+04 0.  0.
        4    1    3    3  502    0  0.77573431640E+03 -0.67947061669E+03  0.15370940762E+03  0.10426275670E+04  0.12699999809E+01 0.  1.
       -4    1    3    3    0  502 -0.77573431640E+03  0.67947061669E+03 -0.24170221408E+03  0.10591815811E+04  0.12699999809E+01 0. -1.
</event>
<event>
 5   0  0.1653260E-06  0.2099979E+04  0.7818609E-02  0.8561252E-01
        1   -1    0    0  501    0  0.00000000000E+00  0.00000000000E+00  0.30968067512E+04  0.30968067512E+04  0.50400001928E-02 0. -1.
       -1   -1    0    0    0  501  0.00000000000E+00  0.00000000000E+00 -0.35600485909E+03  0.35600485912E+03  0.50400001928E-02 0.  1.
    10030    2    1    2    0    0  0.00000000000E+00  0.00000000000E+00  0.27408018921E+04  0.34528116103E+04  0.20999792867E+04 0.  0.
        3    1    3    3  502    0 -0.21553173988E+03 -0.97885169300E+03  0.85601296079E+03  0.13180905762E+04  0.10100000352E+00 0.  1.
       -3    1    3    3    0  502  0.21553173988E+03  0.97885169300E+03  0.18847889313E+04  0.21347210341E+04  0.10100000352E+00 0. -1.
</event>
<event>
 5   0  0.3480134E-06  0.2102015E+04  0.7818609E-02  0.8560356E-01
        2   -1    0    0  501    0  0.00000000000E+00  0.00000000000E+00  0.16979716262E+04  0.16979716262E+04  0.25500000920E-02 0.  1.
       -2   -1    0    0    0  501  0.00000000000E+00  0.00000000000E+00 -0.65055088037E+03  0.65055088037E+03  0.25500000920E-02 0. -1.
    10030    2    1    2    0    0  0.00000000000E+00  0.00000000000E+00  0.10474207458E+04  0.23485225065E+04  0.21020151629E+04 0.  0.
        1    1    3    3  502    0 -0.50127676451E+03 -0.92115454189E+03  0.44619994848E+03  0.11396922737E+04  0.50400001928E-02 0.  1.
       -1    1    3    3    0  502  0.50127676451E+03  0.92115454189E+03  0.60122079733E+03  0.12088302328E+04  0.50400001928E-02 0. -1.
</event>
<event>
 5   0  0.1579820E-06  0.2104161E+04  0.7818609E-02  0.8559413E-01
       -1   -1    0    0    0  501  0.00000000000E+00  0.00000000000E+00  0.93265293486E+03  0.93265293487E+03  0.50400001928E-02 0.  1.
        1   -1    0    0  501    0  0.00000000000E+00  0.00000000000E+00 -0.11868011443E+04  0.11868011443E+04  0.50400001928E-02 0. -1.
    10030    2    1    2    0    0  0.00000000000E+00  0.00000000000E+00 -0.25414820943E+03  0.21194540792E+04  0.21041611824E+04 0.  0.
        2    1    3    3  502    0 -0.66515731069E+03 -0.58134443775E+03 -0.70260937797E+03  0.11287406882E+04  0.25500000920E-02 0. -1.
       -2    1    3    3    0  502  0.66515731069E+03  0.58134443775E+03  0.44846116854E+03  0.99071339093E+03  0.25500000920E-02 0.  1.
</event>
<event>
 5   0  0.3480134E-06  0.2099700E+04  0.7818609E-02  0.8561375E-01
        2   -1    0    0  501    0  0.00000000000E+00  0.00000000000E+00  0.11097985967E+04  0.11097985967E+04  0.25500000920E-02 0.  1.
       -2   -1    0    0    0  501  0.00000000000E+00  0.00000000000E+00 -0.99313978098E+03  0.99313978098E+03  0.25500000920E-02 0. -1.
    10030    2    1    2    0    0  0.00000000000E+00  0.00000000000E+00  0.11665881574E+03  0.21029383777E+04  0.20997001074E+04 0.  0.
        1    1    3    3  502    0  0.19934915681E+03  0.43354075402E+03 -0.87825316009E+03  0.99951302390E+03  0.50400001928E-02 0. -1.
       -1    1    3    3    0  502 -0.19934915681E+03 -0.43354075402E+03  0.99491197583E+03  0.11034253538E+04  0.50400001928E-02 0.  1.
</event>
<event>
 5   0  0.3574927E-06  0.2096026E+04  0.7818609E-02  0.8562996E-01
       -2   -1    0    0    0  501  0.00000000000E+00  0.00000000000E+00  0.62026806566E+03  0.62026806566E+03  0.25500000920E-02 0.  1.
        2   -1    0    0  501    0  0.00000000000E+00  0.00000000000E+00 -0.17707371467E+04  0.17707371467E+04  0.25500000920E-02 0. -1.
    10030    2    1    2    0    0  0.00000000000E+00  0.00000000000E+00 -0.11504690811E+04  0.23910052124E+04  0.20960264357E+04 0.  0.
        3    1    3    3  502    0  0.68906702111E+03  0.20134393341E+03 -0.14462185985E+04  0.16145900359E+04  0.10100000352E+00 0. -1.
       -3    1    3    3    0  502 -0.68906702111E+03 -0.20134393341E+03  0.29574951741E+03  0.77641517653E+03  0.10100000352E+00 0.  1.
</event>
<event>
 5   0  0.1615098E-06  0.2100024E+04  0.7818609E-02  0.8561233E-01
       -1   -1    0    0    0  501  0.00000000000E+00  0.00000000000E+00  0.89552428084E+03  0.89552428085E+03  0.50400001928E-02 0. -1.
        1   -1    0    0  501    0  0.00000000000E+00  0.00000000000E+00 -0.12311510671E+04  0.12311510671E+04  0.50400001928E-02 0.  1.
    10030    2    1    2    0    0  0.00000000000E+00  0.00000000000E+00 -0.33562678630E+03  0.21266753480E+04  0.21000244513E+04 0.  0.
        1    1    3    3  502    0  0.92960055100E+03 -0.35380339970E+03 -0.50852272528E+03  0.11171076010E+04  0.50400001928E-02 0.  1.
       -1    1    3    3    0  502 -0.92960055100E+03  0.35380339970E+03  0.17289593898E+03  0.10095677470E+04  0.50400001928E-02 0. -1.
</event>
<event>
 5   0  0.1615098E-06  0.2100499E+04  0.7818609E-02  0.8561023E-01
       -1   -1    0    0    0  501  0.00000000000E+00  0.00000000000E+00  0.71017123126E+03  0.71017123128E+03  0.50400001928E-02 0. -1.
        1   -1    0    0  501    0  0.00000000000E+00  0.00000000000E+00 -0.15531807197E+04  0.15531807197E+04  0.50400001928E-02 0.  1.
    10030    2    1    2    0    0  0.00000000000E+00  0.00000000000E+00 -0.84300948846E+03  0.22633519510E+04  0.21004992398E+04 0.  0.
        1    1    3    3  502    0 -0.97428119009E+03 -0.38434879071E+03 -0.33750964477E+03  0.11003911080E+04  0.50400001928E-02 0.  1.
       -1    1    3    3    0  502  0.97428119009E+03  0.38434879071E+03 -0.50549984369E+03  0.11629608430E+04  0.50400001928E-02 0. -1.
</event>
<event>
 5   0  0.3480134E-06  0.2100635E+04  0.7818609E-02  0.8560964E-01
        2   -1    0    0  501    0  0.00000000000E+00  0.00000000000E+00  0.23225592534E+04  0.23225592534E+04  0.25500000920E-02 0.  1.
       -2   -1    0    0    0  501  0.00000000000E+00  0.00000000000E+00 -0.47497885090E+03  0.47497885090E+03  0.25500000920E-02 0. -1.
    10030    2    1    2    0    0  0.00000000000E+00  0.00000000000E+00  0.18475804025E+04  0.27975381043E+04  0.21006346901E+04 0.  0.
        1    1    3    3  502    0 -0.62146938707E+03  0.58091060075E+03  0.10339540116E+03  0.85695503624E+03  0.50400001928E-02 0. -1.
       -1    1    3    3    0  502  0.62146938707E+03 -0.58091060075E+03  0.17441850013E+04  0.19405830680E+04  0.50400001928E-02 0.  1.
</event>
<event>
 5   0  0.1579820E-06  0.2099195E+04  0.7818609E-02  0.8561598E-01
        1   -1    0    0  501    0  0.00000000000E+00  0.00000000000E+00  0.11121181932E+04  0.11121181932E+04  0.50400001928E-02 0.  1.
       -1   -1    0    0    0  501  0.00000000000E+00  0.00000000000E+00 -0.99059192226E+03  0.99059192227E+03  0.50400001928E-02 0. -1.
    10030    2    1    2    0    0  0.00000000000E+00  0.00000000000E+00  0.12152627093E+03  0.21027101155E+04  0.20991953685E+04 0.  0.
        2    1    3    3  502    0 -0.43946621360E+03  0.11304646238E+03  0.10087859736E+04  0.11061461007E+04  0.25500000920E-02 0.  1.
       -2    1    3    3    0  502  0.43946621360E+03 -0.11304646238E+03 -0.88725970267E+03  0.99656401477E+03  0.25500000920E-02 0. -1.
</event>
<event>
 5   0  0.1615098E-06  0.2100000E+04  0.7818609E-02  0.8561243E-01
        1   -1    0    0  501    0  0.00000000000E+00  0.00000000000E+00  0.73430745054E+03  0.73430745056E+03  0.50400001928E-02 0.  1.
       -1   -1    0    0    0  501  0.00000000000E+00  0.00000000000E+00 -0.15014145858E+04  0.15014145859E+04  0.50400001928E-02 0. -1.
    10030    2    1    2    0    0  0.00000000000E+00  0.00000000000E+00 -0.76710713530E+03  0.22357220364E+04  0.20999999207E+04 0.  0.
        1    1    3    3  502    0  0.97312521551E+03  0.33036373093E+03 -0.61284976122E+03  0.11965357118E+04  0.50400001928E-02 0.  1.
       -1    1    3    3    0  502 -0.97312521551E+03 -0.33036373093E+03 -0.15425737408E+03  0.10391863246E+04  0.50400001928E-02 0. -1.
</event>
<event>
 5   0  0.3574927E-06  0.2099603E+04  0.7818609E-02  0.8561418E-01
       -2   -1    0    0    0  501  0.00000000000E+00  0.00000000000E+00  0.63202278000E+03  0.63202278000E+03  0.25500000920E-02 0. -1.
        2   -1    0    0  501    0  0.00000000000E+00  0.00000000000E+00 -0.17437393679E+04  0.17437393679E+04  0.25500000920E-02 0.  1.
    10030    2    1    2    0    0  0.00000000000E+00  0.00000000000E+00 -0.11117165879E+04  0.23757621479E+04  0.20996028223E+04 0.  0.
        3    1    3    3  502    0  0.48727086240E+03  0.82037486833E+03 -0.60518266074E+02  0.95609115081E+03  0.10100000352E+00 0. -1.
       -3    1    3    3    0  502 -0.48727086240E+03 -0.82037486833E+03 -0.10511983218E+04  0.14196709970E+04  0.10100000352E+00 0.  1.
</event>
<event>
 5   0  0.1646510E-06  0.2099470E+04  0.7818609E-02  0.8561477E-01
       -1   -1    0    0    0  501  0.00000000000E+00  0.00000000000E+00  0.10013935000E+04  0.10013935001E+04  0.50400001928E-02 0.  1.
        1   -1    0    0  501    0  0.00000000000E+00  0.00000000000E+00 -0.11004096355E+04  0.11004096355E+04  0.50400001928E-02 0. -1.
    10030    2    1    2    0    0  0.00000000000E+00  0.00000000000E+00 -0.99016135417E+02  0.21018031355E+04  0.20994695105E+04 0.  0.
        4    1    3    3  502    0 -0.12162402733E+03 -0.77255054925E+02  0.99144609221E+03  0.10018621233E+04  0.12699999809E+01 0.  1.
       -4    1    3    3    0  502  0.12162402733E+03  0.77255054925E+02 -0.10904622276E+04  0.10999410122E+04  0.12699999809E+01 0. -1.
</event>
<event>
 5   0  0.1615098E-06  0.2100283E+04  0.7818609E-02  0.8561119E-01
       -1   -1    0    0    0  501  0.00000000000E+00  0.00000000000E+00  0.13591149042E+04  0.13591149042E+04  0.50400001928E-02 0.  1.
        1   -1    0    0  501    0  0.00000000000E+00  0.00000000000E+00 -0.81140841996E+03  0.81140841997E+03  0.50400001928E-02 0. -1.
    10030    2    1    2    0    0  0.00000000000E+00  0.00000000000E+00  0.54770648421E+03  0.21705233242E+04  0.21002831018E+04 0.  0.
        1    1    3    3  502    0  0.42123704599E+03 -0.34066119805E+03 -0.65584744845E+03  0.85066243389E+03  0.50400001928E-02 0. -1.
       -1    1    3    3    0  502 -0.42123704599E+03  0.34066119805E+03  0.12035539327E+04  0.13198608903E+04  0.50400001928E-02 0.  1.
</event>
<event>
 5   0  0.1615098E-06  0.2096779E+04  0.7818609E-02  0.8562664E-01
       -1   -1    0    0    0  501  0.00000000000E+00  0.00000000000E+00  0.90296880676E+03  0.90296880677E+03  0.50400001928E-02 0. -1.
        1   -1    0    0  501    0  0.00000000000E+00  0.00000000000E+00 -0.12172298556E+04  0.12172298556E+04  0.50400001928E-02 0.  1.
    10030    2    1    2    0    0  0.00000000000E+00  0.00000000000E+00 -0.31426104885E+03  0.21201986624E+04  0.20967790444E+04 0.  0.
        1    1    3    3  502    0  0.18079357307E+03 -0.12200038850E+03  0.87977428666E+03  0.90640675546E+03  0.50400001928E-02 0. -1.
       -1    1    3    3    0  502 -0.18079357307E+03  0.12200038850E+03 -0.11940353355E+04  0.12137919069E+04  0.50400001928E-02 0.  1.
</event>
<event>
 5   0  0.3547583E-06  0.2101006E+04  0.7818609E-02  0.8560800E-01
       -2   -1    0    0    0  501  0.00000000000E+00  0.00000000000E+00  0.90380002342E+03  0.90380002343E+03  0.25500000920E-02 0.  1.
        2   -1    0    0  501    0  0.00000000000E+00  0.00000000000E+00 -0.12210181449E+04  0.12210181449E+04  0.25500000920E-02 0. -1.
    10030    2    1    2    0    0  0.00000000000E+00  0.00000000000E+00 -0.31721812147E+03  0.21248181683E+04  0.21010056906E+04 0.  0.
        2    1    3    3  502    0 -0.34172062310E+03  0.76145413266E+02 -0.11602815643E+04  0.12119506660E+04  0.25500000920E-02 0. -1.
       -2    1    3    3    0  502  0.34172062310E+03 -0.76145413266E+02  0.84306344284E+03  0.91286750237E+03  0.25500000920E-02 0.  1.
</event>
<event>
 5   0  0.3636435E-06  0.2099960E+04  0.7818609E-02  0.8561261E-01
       -2   -1    0    0    0  501  0.00000000000E+00  0.00000000000E+00  0.76375645801E+03  0.76375645802E+03  0.25500000920E-02 0. -1.
        2   -1    0    0  501    0  0.00000000000E+00  0.00000000000E+00 -0.14434683634E+04  0.14434683634E+04  0.25500000920E-02 0.  1.
    10030    2    1    2    0    0  0.00000000000E+00  0.00000000000E+00 -0.67971190537E+03  0.22072248214E+04  0.20999602706E+04 0.  0.
        4    1    3    3  502    0  0.21429183508E+03  0.10234325873E+04 -0.23947143715E+03  0.10726991346E+04  0.12699999809E+01 0. -1.
       -4    1    3    3    0  502 -0.21429183508E+03 -0.10234325873E+04 -0.44024046822E+03  0.11345256868E+04  0.12699999809E+01 0.  1.
</event>
<event>
 5   0  0.3574927E-06  0.2099988E+04  0.7818609E-02  0.8561248E-01
        2   -1    0    0  501    0  0.00000000000E+00  0.00000000000E+00  0.14830453623E+04  0.14830453623E+04  0.25500000920E-02 0.  1.
       -2   -1    0    0    0  501  0.00000000000E+00  0.00000000000E+00 -0.74339453465E+03  0.74339453465E+03  0.25500000920E-02 0. -1.
    10030    2    1    2    0    0  0.00000000000E+00  0.00000000000E+00  0.73965082769E+03  0.22264398970E+04  0.20999883971E+04 0.  0.
        3    1    3    3  502    0  0.22106707828E+03 -0.90613524849E+03 -0.14143155432E+03  0.94337407025E+03  0.10100000352E+00 0. -1.
       -3    1    3    3    0  502 -0.22106707828E+03  0.90613524849E+03  0.88108238201E+03  0.12830658267E+04  0.10100000352E+00 0.  1.
</event>
<event>
 5   0  0.1653260E-06  0.2099689E+04  0.7818609E-02  0.8561380E-01
       -1   -1    0    0    0  501  0.00000000000E+00  0.00000000000E+00  0.60041522546E+03  0.60041522548E+03  0.50400001928E-02 0. -1.
        1   -1    0    0  501    0  0.00000000000E+00  0.00000000000E+00 -0.18356856560E+04  0.18356856560E+04  0.50400001928E-02 0.  1.
    10030    2    1    2    0    0  0.00000000000E+00  0.00000000000E+00 -0.12352704306E+04  0.24361008815E+04  0.20996891361E+04 0.  0.
        3    1    3    3  502    0 -0.63750092676E+03 -0.12471484606E+03 -0.15745263576E+04  0.17032599583E+04  0.10100000352E+00 0.  1.
       -3    1    3    3    0  502  0.63750092676E+03  0.12471484606E+03  0.33925592709E+03  0.73284092320E+03  0.10100000352E+00 0. -1.
</event>
<event>
 5   0  0.3705828E-06  0.2101535E+04  0.7818609E-02  0.8560568E-01
       -2   -1    0    0    0  501  0.00000000000E+00  0.00000000000E+00  0.67025602044E+03  0.67025602045E+03  0.25500000920E-02 0. -1.
        2   -1    0    0  501    0  0.00000000000E+00  0.00000000000E+00 -0.16472986450E+04  0.16472986450E+04  0.25500000920E-02 0.  1.
    10030    2    1    2    0    0  0.00000000000E+00  0.00000000000E+00 -0.97704262454E+03  0.23175546654E+04  0.21015345196E+04 0.  0.
        5    1    3    3  502    0 -0.42102903841E+03 -0.24467814995E+03 -0.15153363293E+04  0.15916655205E+04  0.46999998093E+01 0.  1.
       -5    1    3    3    0  502  0.42102903841E+03  0.24467814995E+03  0.53829370472E+03  0.72588914497E+03  0.46999998093E+01 0. -1.
</event>
<event>
 5   0  0.3547583E-06  0.2098023E+04  0.7818609E-02  0.8562115E-01
       -2   -1    0    0    0  501  0.00000000000E+00  0.00000000000E+00  0.99388957090E+03  0.99388957090E+03  0.25500000920E-02 0. -1.
        2   -1    0    0  501    0  0.00000000000E+00  0.00000000000E+00 -0.11071905120E+04  0.11071905120E+04  0.25500000920E-02 0.  1.
    10030    2    1    2    0    0  0.00000000000E+00  0.00000000000E+00 -0.11330094111E+03  0.21010800829E+04  0.20980229769E+04 0.  0.
        2    1    3    3  502    0  0.62678297460E+03  0.53965582792E+03 -0.70283465861E+03  0.10853855846E+04  0.25500000920E-02 0.  1.
       -2    1    3    3    0  502 -0.62678297460E+03 -0.53965582792E+03  0.58953371751E+03  0.10156944983E+04  0.25500000920E-02 0. -1.
</event>
<event>
 5   0  0.1653260E-06  0.2099778E+04  0.7818609E-02  0.8561341E-01
       -1   -1    0    0    0  501  0.00000000000E+00  0.00000000000E+00  0.57134950419E+03  0.57134950421E+03  0.50400001928E-02 0.  1.
        1   -1    0    0  501    0  0.00000000000E+00  0.00000000000E+00 -0.19292335833E+04  0.19292335833E+04  0.50400001928E-02 0. -1.
    10030    2    1    2    0    0  0.00000000000E+00  0.00000000000E+00 -0.13578840791E+04  0.25005830875E+04  0.20997777514E+04 0.  0.
        3    1    3    3  502    0 -0.74711690411E+03  0.12242568687E+03 -0.15451751047E+04  0.17206794680E+04  0.10100000352E+00 0. -1.
       -3    1    3    3    0  502  0.74711690411E+03 -0.12242568687E+03  0.18729102562E+03  0.77990361949E+03  0.10100000352E+00 0.  1.
</event>
<event>
 5   0  0.3705828E-06  0.2101223E+04  0.7818609E-02  0.8560705E-01
       -2   -1    0    0    0  501  0.00000000000E+00  0.00000000000E+00  0.13242118229E+04  0.13242118229E+04  0.25500000920E-02 0. -1.
        2   -1    0    0  501    0  0.00000000000E+00  0.00000000000E+00 -0.83354058641E+03  0.83354058642E+03  0.25500000920E-02 0.  1.
    10030    2    1    2    0    0  0.00000000000E+00  0.00000000000E+00  0.49067123653E+03  0.21577524094E+04  0.21012227863E+04 0.  0.
        5    1    3    3  502    0  0.24910470827E+03 -0.39468711129E+03  0.12118971164E+04  0.12986715451E+04  0.46999998093E+01 0. -1.
       -5    1    3    3    0  502 -0.24910470827E+03  0.39468711129E+03 -0.72122587985E+03  0.85908086422E+03  0.46999998093E+01 0.  1.
</event>
<event>
 5   0  0.1257125E-06  0.2103561E+04  0.7818609E-02  0.8559677E-01
        3   -1    0    0  501    0  0.00000000000E+00  0.00000000000E+00  0.18967654560E+04  0.18967654587E+04  0.10100000352E+00 0.  1.
       -3   -1    0    0    0  501  0.00000000000E+00  0.00000000000E+00 -0.58322536190E+03  0.58322537065E+03  0.10100000352E+00 0. -1.
    10030    2    1    2    0    0  0.00000000000E+00  0.00000000000E+00  0.13135400941E+04  0.24799908293E+04  0.21035605375E+04 0.  0.
        2    1    3    3  502    0  0.52313288301E+03 -0.59599524198E+03 -0.15778345526E+03  0.80856289830E+03  0.25500000920E-02 0. -1.
       -2    1    3    3    0  502 -0.52313288301E+03  0.59599524198E+03  0.14713235494E+04  0.16714279310E+04  0.25500000920E-02 0.  1.
</event>
<event>
 5   0  0.3705828E-06  0.2109978E+04  0.7818609E-02  0.8556861E-01
        2   -1    0    0  501    0  0.00000000000E+00  0.00000000000E+00  0.12910518217E+04  0.12910518217E+04  0.25500000920E-02 0.  1.
       -2   -1    0    0    0  501  0.00000000000E+00  0.00000000000E+00 -0.86208940714E+03  0.86208940715E+03  0.25500000920E-02 0. -1.
    10030    2    1    2    0    0  0.00000000000E+00  0.00000000000E+00  0.42896241452E+03  0.21531412288E+04  0.21099782933E+04 0.  0.
        5    1    3    3  502    0  0.51597715253E+03  0.19140515614E+03  0.11329554241E+04  0.12595548574E+04  0.46999998093E+01 0.  1.
       -5    1    3    3    0  502 -0.51597715253E+03 -0.19140515614E+03 -0.70399300957E+03  0.89358637146E+03  0.46999998093E+01 0. -1.
</event>
<event>
 5   0  0.3480134E-06  0.2098681E+04  0.7818609E-02  0.8561825E-01
       -2   -1    0    0    0  501  0.00000000000E+00  0.00000000000E+00  0.83683219794E+03  0.83683219794E+03  0.25500000920E-02 0.  1.
        2   -1    0    0  501    0  0.00000000000E+00  0.00000000000E+00 -0.13158138135E+04  0.13158138135E+04  0.25500000920E-02 0. -1.
    10030    2    1    2    0    0  0.00000000000E+00  0.00000000000E+00 -0.47898161556E+03  0.21526460115E+04  0.20986808863E+04 0.  0.
        1    1    3    3  502    0  0.88684801677E+03 -0.27608612654E+03  0.26131853826E+03  0.96488876694E+03  0.50400001928E-02 0.  1.
       -1    1    3    3    0  502 -0.88684801677E+03  0.27608612654E+03 -0.74030015382E+03  0.11877572445E+04  0.50400001928E-02 0. -1.
</event>
<event>
 5   0  0.3636435E-06  0.2109322E+04  0.7818609E-02  0.8557148E-01
        2   -1    0    0  501    0  0.00000000000E+00  0.00000000000E+00  0.22841117213E+04  0.22841117213E+04  0.25500000920E-02 0. -1.
       -2   -1    0    0    0  501  0.00000000000E+00  0.00000000000E+00 -0.48697698455E+03  0.48697698456E+03  0.25500000920E-02 0.  1.
    10030    2    1    2    0    0  0.00000000000E+00  0.00000000000E+00  0.17971347368E+04  0.27710887059E+04  0.21093220128E+04 0.  0.
        4    1    3    3  502    0 -0.53387576372E+03 -0.38025663750E+03  0.19840409184E+04  0.20895067409E+04  0.12699999809E+01 0. -1.
       -4    1    3    3    0  502  0.53387576372E+03  0.38025663750E+03 -0.18690618159E+03  0.68158196503E+03  0.12699999809E+01 0.  1.
</event>
<event>
 5   0  0.1653260E-06  0.2100115E+04  0.7818609E-02  0.8561193E-01
       -1   -1    0    0    0  501  0.00000000000E+00  0.00000000000E+00  0.74833210374E+03  0.74833210375E+03  0.50400001928E-02 0.  1.
        1   -1    0    0  501    0  0.00000000000E+00  0.00000000000E+00 -0.14734374371E+04  0.14734374371E+04  0.50400001928E-02 0. -1.
    10030    2    1    2    0    0  0.00000000000E+00  0.00000000000E+00 -0.72510533332E+03  0.22217695408E+04  0.21001147940E+04 0.  0.
        3    1    3    3  502    0  0.21049289961E+03  0.68249938942E+03 -0.11768875303E+04  0.13766542581E+04  0.10100000352E+00 0. -1.
       -3    1    3    3    0  502 -0.21049289961E+03 -0.68249938942E+03  0.45178219695E+03  0.84511528268E+03  0.10100000352E+00 0.  1.
</event>
<event>
 5   0  0.1646510E-06  0.2099405E+04  0.7818609E-02  0.8561506E-01
        1   -1    0    0  501    0  0.00000000000E+00  0.00000000000E+00  0.13606302873E+04  0.13606302873E+04  0.50400001928E-02 0.  1.
       -1   -1    0    0    0  501  0.00000000000E+00  0.00000000000E+00 -0.80982709293E+03  0.80982709295E+03  0.50400001928E-02 0. -1.
    10030    2    1    2    0    0  0.00000000000E+00  0.00000000000E+00  0.55080319436E+03  0.21704573803E+04  0.20994049349E+04 0.  0.
        4    1    3    3  502    0  0.93618048808E+02 -0.11277165929E+03  0.13499987920E+04  0.13579323023E+04  0.12699999809E+01 0.  1.
       -4    1    3    3    0  502 -0.93618048808E+02  0.11277165929E+03 -0.79919559764E+03  0.81252507800E+03  0.12699999809E+01 0. -1.
</event>
<event>
 5   0  0.3480134E-06  0.2101047E+04  0.7818609E-02  0.8560782E-01
        2   -1    0    0  501    0  0.00000000000E+00  0.00000000000E+00  0.20736243739E+04  0.20736243739E+04  0.25500000920E-02 0. -1.
       -2   -1    0    0    0  501  0.00000000000E+00  0.00000000000E+00 -0.53220814345E+03  0.53220814345E+03  0.25500000920E-02 0.  1.
    10030    2    1    2    0    0  0.00000000000E+00  0.00000000000E+00  0.15414162305E+04  0.26058325174E+04  0.21010471468E+04 0.  0.
        1    1    3    3  502    0  0.61913845172E+03 -0.46925435050E+02 -0.28026762032E+03  0.68123737264E+03  0.50400001928E-02 0.  1.
       -1    1    3    3    0  502 -0.61913845172E+03  0.46925435050E+02  0.18216838508E+04  0.19245951447E+04  0.50400001928E-02 0. -1.
</event>
<event>
 5   0  0.1615098E-06  0.2097381E+04  0.7818609E-02  0.8562398E-01
       -1   -1    0    0    0  501  0.00000000000E+00  0.00000000000E+00  0.78619093015E+03  0.78619093016E+03  0.50400001928E-02 0. -1.
        1   -1    0    0  501    0  0.00000000000E+00  0.00000000000E+00 -0.13988348480E+04  0.13988348480E+04  0.50400001928E-02 0.  1.
    10030    2    1    2    0    0  0.00000000000E+00  0.00000000000E+00 -0.61264391783E+03  0.21850257781E+04  0.20973805285E+04 0.  0.
        1    1    3    3  502    0 -0.19255656828E+03  0.99701110254E+03 -0.33377292024E+02  0.10159838651E+04  0.50400001928E-02 0.  1.
       -1    1    3    3    0  502  0.19255656828E+03 -0.99701110254E+03 -0.57926662581E+03  0.11690419130E+04  0.50400001928E-02 0. -1.
</event>
<event>
 5   0  0.3636435E-06  0.2099971E+04  0.7818609E-02  0.8561256E-01
        2   -1    0    0  501    0  0.00000000000E+00  0.00000000000E+00  0.17693857790E+04  0.17693857790E+04  0.25500000920E-02 0. -1.
       -2   -1    0    0    0  501  0.00000000000E+00  0.00000000000E+00 -0.62308066720E+03  0.62308066720E+03  0.25500000920E-02 0.  1.
    10030    2    1    2    0    0  0.00000000000E+00  0.00000000000E+00  0.11463051118E+04  0.23924664462E+04  0.20999714967E+04 0.  0.
        4    1    3    3  502    0  0.24238708030E+03  0.38031633417E+02 -0.58996253460E+03  0.63894859494E+03  0.12699999809E+01 0.  1.
       -4    1    3    3    0  502 -0.24238708030E+03 -0.38031633417E+02  0.17362676464E+04  0.17535178513E+04  0.12699999809E+01 0. -1.
</event>
<event>
 5   0  0.3705828E-06  0.2100334E+04  0.7818609E-02  0.8561096E-01
       -2   -1    0    0    0  501  0.00000000000E+00  0.00000000000E+00  0.10253066158E+04  0.10253066158E+04  0.25500000920E-02 0.  1.
        2   -1    0    0  501    0  0.00000000000E+00  0.00000000000E+00 -0.10756304431E+04  0.10756304431E+04  0.25500000920E-02 0. -1.
    10030    2    1    2    0    0  0.00000000000E+00  0.00000000000E+00 -0.50323827297E+02  0.21009370590E+04  0.21003342682E+04 0.  0.
        5    1    3    3  502    0 -0.14023349299E+03 -0.84997290426E+03  0.57560145427E+03  0.10360784211E+04  0.46999998093E+01 0.  1.
       -5    1    3    3    0  502  0.14023349299E+03  0.84997290426E+03 -0.62592528156E+03  0.10648586379E+04  0.46999998093E+01 0. -1.
</event>
<event>
 5   0  0.3705828E-06  0.2099735E+04  0.7818609E-02  0.8561360E-01
        2   -1    0    0  501    0  0.00000000000E+00  0.00000000000E+00  0.19537134501E+04  0.19537134501E+04  0.25500000920E-02 0. -1.
       -2   -1    0    0    0  501  0.00000000000E+00  0.00000000000E+00 -0.56416775043E+03  0.56416775043E+03  0.25500000920E-02 0.  1.
    10030    2    1    2    0    0  0.00000000000E+00  0.00000000000E+00  0.13895456997E+04  0.25178812006E+04  0.20997353377E+04 0.  0.
        5    1    3    3  502    0  0.74198912482E+03  0.53488883248E+03  0.13127047957E+04  0.15999593417E+04  0.46999998093E+01 0. -1.
       -5    1    3    3    0  502 -0.74198912482E+03 -0.53488883248E+03  0.76840904014E+02  0.91792185887E+03  0.46999998093E+01 0.  1.
</event>
<event>
 5   0  0.1646510E-06  0.2097153E+04  0.7818609E-02  0.8562498E-01
        1   -1    0    0  501    0  0.00000000000E+00  0.00000000000E+00  0.13319227559E+04  0.13319227559E+04  0.50400001928E-02 0. -1.
       -1   -1    0    0    0  501  0.00000000000E+00  0.00000000000E+00 -0.82550815663E+03  0.82550815664E+03  0.50400001928E-02 0.  1.
    10030    2    1    2    0    0  0.00000000000E+00  0.00000000000E+00  0.50641459926E+03  0.21574309125E+04  0.20971534031E+04 0.  0.
        4    1    3    3  502    0  0.50481124488E+03 -0.27108510622E+03  0.11566224734E+04  0.12907744522E+04  0.12699999809E+01 0. -1.
       -4    1    3    3    0  502 -0.50481124488E+03  0.27108510622E+03 -0.65020787409E+03  0.86665646031E+03  0.12699999809E+01 0.  1.
</event>
<event>
 5   0  0.1646510E-06  0.2100351E+04  0.7818609E-02  0.8561089E-01
       -1   -1    0    0    0  501  0.00000000000E+00  0.00000000000E+00  0.14235415842E+04  0.14235415842E+04  0.50400001928E-02 0. -1.
        1   -1    0    0  501    0  0.00000000000E+00  0.00000000000E+00 -0.77473602746E+03  0.77473602747E+03  0.50400001928E-02 0.  1.
    10030    2    1    2    0    0  0.00000000000E+00  0.00000000000E+00  0.64880555674E+03  0.21982776117E+04  0.21003513534E+04 0.  0.
        4    1    3    3  502    0 -0.15061141366E+03 -0.42732954034E+03  0.13159775695E+04  0.13917948521E+04  0.12699999809E+01 0. -1.
       -4    1    3    3    0  502  0.15061141366E+03  0.42732954034E+03 -0.66717201277E+03  0.80648275958E+03  0.12699999809E+01 0.  1.
</event>
<event>
 5   0  0.1615098E-06  0.2105478E+04  0.7818609E-02  0.8558834E-01
       -1   -1    0    0    0  501  0.00000000000E+00  0.00000000000E+00  0.47678851789E+03  0.47678851792E+03  0.50400001928E-02 0.  1.
        1   -1    0    0  501    0  0.00000000000E+00  0.00000000000E+00 -0.23244247606E+04  0.23244247606E+04  0.50400001928E-02 0. -1.
    10030    2    1    2    0    0  0.00000000000E+00  0.00000000000E+00 -0.18476362427E+04  0.28012132785E+04  0.21054776528E+04 0.  0.
        1    1    3    3  502    0 -0.36207110627E+03 -0.85232031612E+02 -0.22340821171E+04  0.22648361732E+04  0.50400001928E-02 0. -1.
       -1    1    3    3    0  502  0.36207110627E+03  0.85232031612E+02  0.38644587445E+03  0.53637710532E+03  0.50400001928E-02 0.  1.
</event>
<event>
 5   0  0.3705828E-06  0.2100580E+04  0.7818609E-02  0.8560988E-01
       -2   -1    0    0    0  501  0.00000000000E+00  0.00000000000E+00  0.13753917028E+04  0.13753917028E+04  0.25500000920E-02 0. -1.
        2   -1    0    0  501    0  0.00000000000E+00  0.00000000000E+00 -0.80203269165E+03  0.80203269166E+03  0.25500000920E-02 0.  1.
    10030    2    1    2    0    0  0.00000000000E+00  0.00000000000E+00  0.57335901112E+03  0.21774243944E+04  0.21005800241E+04 0.  0.
        5    1    3    3  502    0  0.29507594842E+03  0.82457156965E+03  0.88762823091E+03  0.12469539106E+04  0.46999998093E+01 0. -1.
       -5    1    3    3    0  502 -0.29507594842E+03 -0.82457156965E+03 -0.31426921980E+03  0.93047048385E+03  0.46999998093E+01 0.  1.
</event>
<event>
 5   0  0.3480134E-06  0.2101820E+04  0.7818609E-02  0.8560442E-01
        2   -1    0    0  501    0  0.00000000000E+00  0.00000000000E+00  0.15731310059E+04  0.15731310059E+04  0.25500000920E-02 0.  1.
       -2   -1    0    0    0  501  0.00000000000E+00  0.00000000000E+00 -0.70204705483E+03  0.70204705483E+03  0.25500000920E-02 0. -1.
    10030    2    1    2    0    0  0.00000000000E+00  0.00000000000E+00  0.87108395111E+03  0.22751780608E+04  0.21018201537E+04 0.  0.
        1    1    3    3  502    0 -0.53175268833E+03 -0.46286199235E+03 -0.40810499673E+03  0.81458690997E+03  0.50400001928E-02 0. -1.
       -1    1    3    3    0  502  0.53175268833E+03  0.46286199235E+03  0.12791889478E+04  0.14605911508E+04  0.50400001928E-02 0.  1.
</event>
<event>
 5   0  0.3480134E-06  0.2097519E+04  0.7818609E-02  0.8562337E-01
       -2   -1    0    0    0  501  0.00000000000E+00  0.00000000000E+00  0.15198965290E+04  0.15198965290E+04  0.25500000920E-02 0.  1.
        2   -1    0    0  501    0  0.00000000000E+00  0.00000000000E+00 -0.72366569332E+03  0.72366569333E+03  0.25500000920E-02 0. -1.
    10030    2    1    2    0    0  0.00000000000E+00  0.00000000000E+00  0.79623083569E+03  0.22435622223E+04  0.20975194640E+04 0.  0.
        1    1    3    3  502    0  0.22730577562E+03 -0.95975968566E+03  0.16796368264E+02  0.98645257761E+03  0.50400001928E-02 0. -1.
       -1    1    3    3    0  502 -0.22730577562E+03  0.95975968566E+03  0.77943446743E+03  0.12571096447E+04  0.50400001928E-02 0.  1.
</event>
<event>
 5   0  0.3480134E-06  0.2098424E+04  0.7818609E-02  0.8561938E-01
        2   -1    0    0  501    0  0.00000000000E+00  0.00000000000E+00  0.17653886297E+04  0.17653886297E+04  0.25500000920E-02 0. -1.
       -2   -1    0    0    0  501  0.00000000000E+00  0.00000000000E+00 -0.62357129202E+03  0.62357129202E+03  0.25500000920E-02 0.  1.
    10030    2    1    2    0    0  0.00000000000E+00  0.00000000000E+00  0.11418173376E+04  0.23889599217E+04  0.20984238549E+04 0.  0.
        1    1    3    3  502    0  0.46903985478E+02 -0.56490322088E+03  0.15760614438E+04  0.16748985962E+04  0.50400001928E-02 0. -1.
       -1    1    3    3    0  502 -0.46903985478E+02  0.56490322088E+03 -0.43424410616E+03  0.71406132550E+03  0.50400001928E-02 0.  1.
</event>
<event>
 5   0  0.1579820E-06  0.2100008E+04  0.7818609E-02  0.8561240E-01
        1   -1    0    0  501    0  0.00000000000E+00  0.00000000000E+00  0.13737619321E+04  0.13737619321E+04  0.50400001928E-02 0. -1.
       -1   -1    0    0    0  501  0.00000000000E+00  0.00000000000E+00 -0.80254674525E+03  0.80254674527E+03  0.50400001928E-02 0.  1.
    10030    2    1    2    0    0  0.00000000000E+00  0.00000000000E+00  0.57121518683E+03  0.21763086774E+04  0.21000077784E+04 0.  0.
        2    1    3    3  502    0 -0.13544251494E+02  0.12952774290E+03  0.13653594586E+04  0.13715565370E+04  0.25500000920E-02 0. -1.
       -2    1    3    3    0  502  0.13544251494E+02 -0.12952774290E+03 -0.79414427181E+03  0.80475214034E+03  0.25500000920E-02 0.  1.
</event>
<event>
 5   0  0.1590067E-06  0.2099478E+04  0.7818609E-02  0.8561473E-01
        1   -1    0    0  501    0  0.00000000000E+00  0.00000000000E+00  0.23102210419E+04  0.23102210419E+04  0.50400001928E-02 0.  1.
       -1   -1    0    0    0  501  0.00000000000E+00  0.00000000000E+00 -0.47698984788E+03  0.47698984791E+03  0.50400001928E-02 0. -1.
    10030    2    1    2    0    0  0.00000000000E+00  0.00000000000E+00  0.18332311940E+04  0.27872108898E+04  0.20994780145E+04 0.  0.
        5    1    3    3  502    0  0.61562279424E+03  0.67834089553E+03  0.15971728238E+04  0.18412280995E+04  0.46999998093E+01 0. -1.
       -5    1    3    3    0  502 -0.61562279424E+03 -0.67834089553E+03  0.23605837017E+03  0.94598279026E+03  0.46999998093E+01 0.  1.
</event>
<event>
 5   0  0.3705828E-06  0.2100609E+04  0.7818609E-02  0.8560975E-01
        2   -1    0    0  501    0  0.00000000000E+00  0.00000000000E+00  0.18743486905E+04  0.18743486905E+04  0.25500000920E-02 0.  1.
       -2   -1    0    0    0  501  0.00000000000E+00  0.00000000000E+00 -0.58854525775E+03  0.58854525775E+03  0.25500000920E-02 0. -1.
    10030    2    1    2    0    0  0.00000000000E+00  0.00000000000E+00  0.12858034328E+04  0.24628939483E+04  0.21006085149E+04 0.  0.
        5    1    3    3  502    0 -0.45324645421E+03 -0.61030341030E+03  0.14926080953E+04  0.16750533176E+04  0.46999998093E+01 0.  1.
       -5    1    3    3    0  502  0.45324645421E+03  0.61030341030E+03 -0.20680466249E+03  0.78784063064E+03  0.46999998093E+01 0. -1.
</event>
<event>
 5   0  0.1646510E-06  0.2091665E+04  0.7818609E-02  0.8564924E-01
        1   -1    0    0  501    0  0.00000000000E+00  0.00000000000E+00  0.58537605264E+03  0.58537605267E+03  0.50400001928E-02 0. -1.
       -1   -1    0    0    0  501  0.00000000000E+00  0.00000000000E+00 -0.18684841316E+04  0.18684841316E+04  0.50400001928E-02 0.  1.
    10030    2    1    2    0    0  0.00000000000E+00  0.00000000000E+00 -0.12831080790E+04  0.24538601843E+04  0.20916652365E+04 0.  0.
        4    1    3    3  502    0 -0.81722385721E+03 -0.56216943611E+01  0.12404282250E+03  0.82660430132E+03  0.12699999809E+01 0. -1.
       -4    1    3    3    0  502  0.81722385721E+03  0.56216943611E+01 -0.14071509015E+04  0.16272558830E+04  0.12699999809E+01 0.  1.
</event>
<event>
 5   0  0.3547583E-06  0.2100533E+04  0.7818609E-02  0.8561009E-01
       -2   -1    0    0    0  501  0.00000000000E+00  0.00000000000E+00  0.70689172333E+03  0.70689172334E+03  0.25500000920E-02 0. -1.
        2   -1    0    0  501    0  0.00000000000E+00  0.00000000000E+00 -0.15604360167E+04  0.15604360167E+04  0.25500000920E-02 0.  1.
    10030    2    1    2    0    0  0.00000000000E+00  0.00000000000E+00 -0.85354429339E+03  0.22673277401E+04  0.21005326039E+04 0.  0.
        2    1    3    3  502    0 -0.84917636493E+03 -0.47368098147E+03  0.17196355894E+01  0.97235648201E+03  0.25500000920E-02 0. -1.
       -2    1    3    3    0  502  0.84917636493E+03  0.47368098147E+03 -0.85526392898E+03  0.12949712580E+04  0.25500000920E-02 0.  1.
</event>
<event>
 5   0  0.1615098E-06  0.2100577E+04  0.7818609E-02  0.8560989E-01
        1   -1    0    0  501    0  0.00000000000E+00  0.00000000000E+00  0.90068131299E+03  0.90068131300E+03  0.50400001928E-02 0.  1.
       -1   -1    0    0    0  501  0.00000000000E+00  0.00000000000E+00 -0.12247463407E+04  0.12247463407E+04  0.50400001928E-02 0. -1.
    10030    2    1    2    0    0  0.00000000000E+00  0.00000000000E+00 -0.32406502772E+03  0.21254276537E+04  0.21005771990E+04 0.  0.
        1    1    3    3  502    0 -0.44706967208E+03 -0.50410694615E+03  0.65317312807E+03  0.93841901095E+03  0.50400001928E-02 0.  1.
       -1    1    3    3    0  502  0.44706967208E+03  0.50410694615E+03 -0.97723815580E+03  0.11870086428E+04  0.50400001928E-02 0. -1.
</event>
<event>
 5   0  0.3574927E-06  0.2100450E+04  0.7818609E-02  0.8561045E-01
       -2   -1    0    0    0  501  0.00000000000E+00  0.00000000000E+00  0.11765210430E+04  0.11765210431E+04  0.25500000920E-02 0. -1.
        2   -1    0    0  501    0  0.00000000000E+00  0.00000000000E+00 -0.93748680088E+03  0.93748680088E+03  0.25500000920E-02 0.  1.
    10030    2    1    2    0    0  0.00000000000E+00  0.00000000000E+00  0.23903424217E+03  0.21140078439E+04  0.21004503792E+04 0.  0.
        3    1    3    3  502    0 -0.82633404008E+03  0.47280849560E+03 -0.32673751720E+03  0.10065451975E+04  0.10100000352E+00 0. -1.
       -3    1    3    3    0  502  0.82633404008E+03 -0.47280849560E+03  0.56577175937E+03  0.11074626464E+04  0.10100000352E+00 0.  1.
</event>
<event>
 5   0  0.3705828E-06  0.2095155E+04  0.7818609E-02  0.8563381E-01
        2   -1    0    0  501    0  0.00000000000E+00  0.00000000000E+00  0.23930253907E+04  0.23930253907E+04  0.25500000920E-02 0.  1.
       -2   -1    0    0    0  501  0.00000000000E+00  0.00000000000E+00 -0.45859043212E+03  0.45859043212E+03  0.25500000920E-02 0. -1.
    10030    2    1    2    0    0  0.00000000000E+00  0.00000000000E+00  0.19344349586E+04  0.28516158229E+04  0.20951549327E+04 0.  0.
        5    1    3    3  502    0 -0.42754512837E+03  0.74269620440E+03  0.17872490240E+04  0.19820882050E+04  0.46999998093E+01 0.  1.
       -5    1    3    3    0  502  0.42754512837E+03 -0.74269620440E+03  0.14718593465E+03  0.86952761784E+03  0.46999998093E+01 0. -1.
</event>
<event>
 5   0  0.1615098E-06  0.2101028E+04  0.7818609E-02  0.8560791E-01
       -1   -1    0    0    0  501  0.00000000000E+00  0.00000000000E+00  0.94119431402E+03  0.94119431403E+03  0.50400001928E-02 0. -1.
        1   -1    0    0  501    0  0.00000000000E+00  0.00000000000E+00 -0.11725312183E+04  0.11725312183E+04  0.50400001928E-02 0.  1.
    10030    2    1    2    0    0  0.00000000000E+00  0.00000000000E+00 -0.23133690425E+03  0.21137255323E+04  0.21010280490E+04 0.  0.
        1    1    3    3  502    0  0.75357555663E+03  0.62728464010E+03 -0.49506500418E+03  0.10983858601E+04  0.50400001928E-02 0. -1.
       -1    1    3    3    0  502 -0.75357555663E+03 -0.62728464010E+03  0.26372809993E+03  0.10153396722E+04  0.50400001928E-02 0.  1.
</event>
<event>
 5   0  0.1646510E-06  0.2099557E+04  0.7818609E-02  0.8561439E-01
        1   -1    0    0  501    0  0.00000000000E+00  0.00000000000E+00  0.37334881647E+03  0.37334881650E+03  0.50400001928E-02 0.  1.
       -1   -1    0    0    0  501  0.00000000000E+00  0.00000000000E+00 -0.29517557777E+04  0.29517557777E+04  0.50400001928E-02 0. -1.
    10030    2    1    2    0    0  0.00000000000E+00  0.00000000000E+00 -0.25784069612E+04  0.33251045942E+04  0.20995566448E+04 0.  0.
        4    1    3    3  502    0 -0.95517646185E+03  0.40929934115E+03 -0.10535279617E+04  0.14798009335E+04  0.12699999809E+01 0.  1.
       -4    1    3    3    0  502  0.95517646185E+03 -0.40929934115E+03 -0.15248789996E+04  0.18453036607E+04  0.12699999809E+01 0. -1.
</event>
<event>
 5   0  0.1590067E-06  0.2100700E+04  0.7818609E-02  0.8560935E-01
       -1   -1    0    0    0  501  0.00000000000E+00  0.00000000000E+00  0.57220231181E+03  0.57220231183E+03  0.50400001928E-02 0. -1.
        1   -1    0    0  501    0  0.00000000000E+00  0.00000000000E+00 -0.19280507123E+04  0.19280507123E+04  0.50400001928E-02 0.  1.
    10030    2    1    2    0    0  0.00000000000E+00  0.00000000000E+00 -0.13558484005E+04  0.25002530241E+04  0.21006999547E+04 0.  0.
        5    1    3    3  502    0 -0.19557572343E+03 -0.32307955241E+03 -0.18444311243E+04  0.18827051079E+04  0.46999998093E+01 0.  1.
       -5    1    3    3    0  502  0.19557572343E+03  0.32307955241E+03  0.48858272388E+03  0.61754791624E+03  0.46999998093E+01 0. -1.
</event>
<event>
 5   0  0.1590067E-06  0.2101232E+04  0.7818609E-02  0.8560701E-01
       -1   -1    0    0    0  501  0.00000000000E+00  0.00000000000E+00  0.11065415103E+04  0.11065415104E+04  0.50400001928E-02 0. -1.
        1   -1    0    0  501    0  0.00000000000E+00  0.00000000000E+00 -0.99751660859E+03  0.99751660861E+03  0.50400001928E-02 0.  1.
    10030    2    1    2    0    0  0.00000000000E+00  0.00000000000E+00  0.10902490175E+03  0.21040581190E+04  0.21012315767E+04 0.  0.
        5    1    3    3  502    0  0.11629235648E+03 -0.97987754137E+03  0.41567412531E+03  0.10707431890E+04  0.46999998093E+01 0. -1.
       -5    1    3    3    0  502 -0.11629235648E+03  0.97987754137E+03 -0.30664922356E+03  0.10333149300E+04  0.46999998093E+01 0.  1.
</event>
<event>
 5   0  0.3705828E-06  0.2100196E+04  0.7818609E-02  0.8561157E-01
        2   -1    0    0  501    0  0.00000000000E+00  0.00000000000E+00  0.16433874753E+04  0.16433874753E+04  0.25500000920E-02 0. -1.
       -2   -1    0    0    0  501  0.00000000000E+00  0.00000000000E+00 -0.67099543962E+03  0.67099543963E+03  0.25500000920E-02 0.  1.
    10030    2    1    2    0    0  0.00000000000E+00  0.00000000000E+00  0.97239203570E+03  0.23143829149E+04  0.21001957066E+04 0.  0.
        5    1    3    3  502    0  0.42861761772E+03  0.76970287976E+03 -0.14350666967E+03  0.89262077030E+03  0.46999998093E+01 0.  1.
       -5    1    3    3    0  502 -0.42861761772E+03 -0.76970287976E+03  0.11158987054E+04  0.14217621447E+04  0.46999998093E+01 0. -1.
</event>
<event>
 5   0  0.3705828E-06  0.2100036E+04  0.7818609E-02  0.8561228E-01
        2   -1    0    0  501    0  0.00000000000E+00  0.00000000000E+00  0.29639686355E+04  0.29639686355E+04  0.25500000920E-02 0.  1.
       -2   -1    0    0    0  501  0.00000000000E+00  0.00000000000E+00 -0.37198017533E+03  0.37198017534E+03  0.25500000920E-02 0. -1.
    10030    2    1    2    0    0  0.00000000000E+00  0.00000000000E+00  0.25919884601E+04  0.33359488108E+04  0.21000357832E+04 0.  0.
        5    1    3    3  502    0 -0.48329049346E+02  0.10541457187E+03  0.29537482614E+04  0.29560275389E+04  0.46999998093E+01 0.  1.
       -5    1    3    3    0  502  0.48329049346E+02 -0.10541457187E+03 -0.36175980131E+03  0.37992127186E+03  0.46999998093E+01 0. -1.
</event>
<event>
 5   0  0.3574927E-06  0.2100133E+04  0.7818609E-02  0.8561185E-01
        2   -1    0    0  501    0  0.00000000000E+00  0.00000000000E+00  0.13164842782E+04  0.13164842782E+04  0.25500000920E-02 0.  1.
       -2   -1    0    0    0  501  0.00000000000E+00  0.00000000000E+00 -0.83756411150E+03  0.83756411151E+03  0.25500000920E-02 0. -1.
    10030    2    1    2    0    0  0.00000000000E+00  0.00000000000E+00  0.47892016671E+03  0.21540483897E+04  0.21001333146E+04 0.  0.
        3    1    3    3  502    0 -0.72003031202E+03  0.66467031913E+03  0.62652014681E+03  0.11630811614E+04  0.10100000352E+00 0.  1.
       -3    1    3    3    0  502  0.72003031202E+03 -0.66467031913E+03 -0.14759998010E+03  0.99096722836E+03  0.10100000352E+00 0. -1.
</event>
<event>
 5   0  0.3705828E-06  0.2100447E+04  0.7818609E-02  0.8561047E-01
        2   -1    0    0  501    0  0.00000000000E+00  0.00000000000E+00  0.13120294747E+04  0.13120294747E+04  0.25500000920E-02 0.  1.
       -2   -1    0    0    0  501  0.00000000000E+00  0.00000000000E+00 -0.84065880596E+03  0.84065880596E+03  0.25500000920E-02 0. -1.
    10030    2    1    2    0    0  0.00000000000E+00  0.00000000000E+00  0.47137066870E+03  0.21526882806E+04  0.21004467444E+04 0.  0.
        5    1    3    3  502    0 -0.29937156845E+03 -0.81853845964E+03 -0.36482166280E+03  0.94485209506E+03  0.46999998093E+01 0. -1.
       -5    1    3    3    0  502  0.29937156845E+03  0.81853845964E+03  0.83619233150E+03  0.12078361856E+04  0.46999998093E+01 0.  1.
</event>
<event>
 5   0  0.1579820E-06  0.2100083E+04  0.7818609E-02  0.8561207E-01
        1   -1    0    0  501    0  0.00000000000E+00  0.00000000000E+00  0.75502258771E+03  0.75502258773E+03  0.50400001928E-02 0. -1.
       -1   -1    0    0    0  501  0.00000000000E+00  0.00000000000E+00 -0.14603359628E+04  0.14603359628E+04  0.50400001928E-02 0.  1.
    10030    2    1    2    0    0  0.00000000000E+00  0.00000000000E+00 -0.70531337508E+03  0.22153585505E+04  0.21000825104E+04 0.  0.
        2    1    3    3  502    0 -0.24681740776E+03  0.42947866602E+03 -0.13293377605E+04  0.14186294931E+04  0.25500000920E-02 0.  1.
       -2    1    3    3    0  502  0.24681740776E+03 -0.42947866602E+03  0.62402438540E+03  0.79672905741E+03  0.25500000920E-02 0. -1.
</event>
<event>
 5   0  0.3574927E-06  0.2100598E+04  0.7818609E-02  0.8560980E-01
       -2   -1    0    0    0  501  0.00000000000E+00  0.00000000000E+00  0.47574401641E+03  0.47574401642E+03  0.25500000920E-02 0.  1.
        2   -1    0    0  501    0  0.00000000000E+00  0.00000000000E+00 -0.23187426698E+04  0.23187426698E+04  0.25500000920E-02 0. -1.
    10030    2    1    2    0    0  0.00000000000E+00  0.00000000000E+00 -0.18429986534E+04  0.27944866862E+04  0.21005979632E+04 0.  0.
        3    1    3    3  502    0 -0.11571298484E+03  0.39759319510E+02  0.46623078852E+03  0.48201810829E+03  0.10100000352E+00 0.  1.
       -3    1    3    3    0  502  0.11571298484E+03 -0.39759319510E+02 -0.23092294419E+04  0.23124685779E+04  0.10100000352E+00 0. -1.
</event>
<event>
 5   0  0.3636435E-06  0.2107207E+04  0.7818609E-02  0.8558075E-01
       -2   -1    0    0    0  501  0.00000000000E+00  0.00000000000E+00  0.79250906799E+03  0.79250906800E+03  0.25500000920E-02 0. -1.
        2   -1    0    0  501    0  0.00000000000E+00  0.00000000000E+00 -0.14007168994E+04  0.14007168994E+04  0.25500000920E-02 0.  1.
    10030    2    1    2    0    0  0.00000000000E+00  0.00000000000E+00 -0.60820783137E+03  0.21932259674E+04  0.21072074833E+04 0.  0.
        4    1    3    3  502    0 -0.24859951868E+03 -0.71876987863E+03 -0.10630097912E+04  0.13070666732E+04  0.12699999809E+01 0.  1.
       -4    1    3    3    0  502  0.24859951868E+03  0.71876987863E+03  0.45480195980E+03  0.88615929418E+03  0.12699999809E+01 0. -1.
</event>
<event>
 5   0  0.3574927E-06  0.2099638E+04  0.7818609E-02  0.8561403E-01
        2   -1    0    0  501    0  0.00000000000E+00  0.00000000000E+00  0.82642545708E+03  0.82642545709E+03  0.25500000920E-02 0.  1.
       -2   -1    0    0    0  501  0.00000000000E+00  0.00000000000E+00 -0.13335984642E+04  0.13335984642E+04  0.25500000920E-02 0. -1.
    10030    2    1    2    0    0  0.00000000000E+00  0.00000000000E+00 -0.50717300716E+03  0.21600239213E+04  0.20996377977E+04 0.  0.
        3    1    3    3  502    0  0.22503778870E+03  0.10084939554E+04 -0.44444203826E+03  0.11248247863E+04  0.10100000352E+00 0. -1.
       -3    1    3    3    0  502 -0.22503778870E+03 -0.10084939554E+04 -0.62730968900E+02  0.10351991350E+04  0.10100000352E+00 0.  1.
</event>
<event>
 5   0  0.1579820E-06  0.2095410E+04  0.7818609E-02  0.8563268E-01
       -1   -1    0    0    0  501  0.00000000000E+00  0.00000000000E+00  0.11578899870E+04  0.11578899870E+04  0.50400001928E-02 0. -1.
        1   -1    0    0  501    0  0.00000000000E+00  0.00000000000E+00 -0.94800496491E+03  0.94800496492E+03  0.50400001928E-02 0.  1.
    10030    2    1    2    0    0  0.00000000000E+00  0.00000000000E+00  0.20988502211E+03  0.21058949520E+04  0.20954097037E+04 0.  0.
        2    1    3    3  502    0  0.18450918294E+03  0.34666502503E+03 -0.87123925361E+03  0.95565585606E+03  0.25500000920E-02 0.  1.
       -2    1    3    3    0  502 -0.18450918294E+03 -0.34666502503E+03  0.10811242757E+04  0.11502390959E+04  0.25500000920E-02 0. -1.
</event>
<event>
 5   0  0.3547583E-06  0.2099547E+04  0.7818609E-02  0.8561443E-01
        2   -1    0    0  501    0  0.00000000000E+00  0.00000000000E+00  0.11245680322E+04  0.11245680322E+04  0.25500000920E-02 0.  1.
       -2   -1    0    0    0  501  0.00000000000E+00  0.00000000000E+00 -0.97995319189E+03  0.97995319190E+03  0.25500000920E-02 0. -1.
    10030    2    1    2    0    0  0.00000000000E+00  0.00000000000E+00  0.14461484026E+03  0.21045212241E+04  0.20995466488E+04 0.  0.
        2    1    3    3  502    0  0.23508132433E+03 -0.41676505015E+03 -0.86428737789E+03  0.98790131474E+03  0.25500000920E-02 0. -1.
       -2    1    3    3    0  502 -0.23508132433E+03  0.41676505015E+03  0.10089022182E+04  0.11166199093E+04  0.25500000920E-02 0.  1.
</event>
<event>
 5   0  0.1646510E-06  0.2099868E+04  0.7818609E-02  0.8561301E-01
        1   -1    0    0  501    0  0.00000000000E+00  0.00000000000E+00  0.10297295384E+04  0.10297295384E+04  0.50400001928E-02 0. -1.
       -1   -1    0    0    0  501  0.00000000000E+00  0.00000000000E+00 -0.10705352734E+04  0.10705352734E+04  0.50400001928E-02 0.  1.
    10030    2    1    2    0    0  0.00000000000E+00  0.00000000000E+00 -0.40805734962E+02  0.21002648118E+04  0.20998683701E+04 0.  0.
        4    1    3    3  502    0  0.72679222976E+03  0.73930996818E+03 -0.18642819918E+03  0.10533580876E+04  0.12699999809E+01 0.  1.
       -4    1    3    3    0  502 -0.72679222976E+03 -0.73930996818E+03  0.14562246422E+03  0.10469067242E+04  0.12699999809E+01 0. -1.
</event>
<event>
 5   0  0.1646510E-06  0.2100203E+04  0.7818609E-02  0.8561154E-01
        1   -1    0    0  501    0  0.00000000000E+00  0.00000000000E+00  0.12602156854E+04  0.12602156854E+04  0.50400001928E-02 0.  1.
       -1   -1    0    0    0  501  0.00000000000E+00  0.00000000000E+00 -0.87501903661E+03  0.87501903662E+03  0.50400001928E-02 0. -1.
    10030    2    1    2    0    0  0.00000000000E+00  0.00000000000E+00  0.38519664876E+03  0.21352347220E+04  0.21002025759E+04 0.  0.
        4    1    3    3  502    0 -0.85819736232E+03 -0.11427149622E+03  0.79677547472E+03  0.11766110052E+04  0.12699999809E+01 0.  1.
       -4    1    3    3    0  502  0.85819736232E+03  0.11427149622E+03 -0.41157882596E+03  0.95862371680E+03  0.12699999809E+01 0. -1.
</event>
<event>
 5   0  0.3636435E-06  0.2099862E+04  0.7818609E-02  0.8561304E-01
        2   -1    0    0  501    0  0.00000000000E+00  0.00000000000E+00  0.16587161508E+04  0.16587161508E+04  0.25500000920E-02 0.  1.
       -2   -1    0    0    0  501  0.00000000000E+00  0.00000000000E+00 -0.66458356668E+03  0.66458356668E+03  0.25500000920E-02 0. -1.
    10030    2    1    2    0    0  0.00000000000E+00  0.00000000000E+00  0.99413258416E+03  0.23232997175E+04  0.20998623723E+04 0.  0.
        4    1    3    3  502    0 -0.92283115956E+03 -0.22291613282E+03  0.99315686281E+03  0.13739254413E+04  0.12699999809E+01 0. -1.
       -4    1    3    3    0  502  0.92283115956E+03  0.22291613282E+03  0.97572134890E+00  0.94937427617E+03  0.12699999809E+01 0.  1.
</event>
<event>
 5   0  0.1653260E-06  0.2099831E+04  0.7818609E-02  0.8561318E-01
       -1   -1    0    0    0  501  0.00000000000E+00  0.00000000000E+00  0.72087853745E+03  0.72087853747E+03  0.50400001928E-02 0.  1.
        1   -1    0    0  501    0  0.00000000000E+00  0.00000000000E+00 -0.15291377124E+04  0.15291377124E+04  0.50400001928E-02 0. -1.
    10030    2    1    2    0    0  0.00000000000E+00  0.00000000000E+00 -0.80825917497E+03  0.22500162499E+04  0.20998310006E+04 0.  0.
        3    1    3    3  502    0  0.57286787060E+03 -0.72669005562E+03 -0.93565932791E+03  0.13159462079E+04  0.10100000352E+00 0. -1.
       -3    1    3    3    0  502 -0.57286787060E+03  0.72669005562E+03  0.12740015295E+03  0.93407004195E+03  0.10100000352E+00 0.  1.
</event>
<event>
 5   0  0.1579820E-06  0.2108023E+04  0.7818609E-02  0.8557717E-01
       -1   -1    0    0    0  501  0.00000000000E+00  0.00000000000E+00  0.11667359965E+04  0.11667359965E+04  0.50400001928E-02 0. -1.
        1   -1    0    0  501    0  0.00000000000E+00  0.00000000000E+00 -0.95217784492E+03  0.95217784493E+03  0.50400001928E-02 0.  1.
    10030    2    1    2    0    0  0.00000000000E+00  0.00000000000E+00  0.21455815154E+03  0.21189138414E+04  0.21080229285E+04 0.  0.
        2    1    3    3  502    0  0.95158131023E+02 -0.65680618153E+03  0.93034450137E+03  0.11427993355E+04  0.25500000920E-02 0. -1.
       -2    1    3    3    0  502 -0.95158131023E+02  0.65680618153E+03 -0.71578634983E+03  0.97611450589E+03  0.25500000920E-02 0.  1.
</event>
<event>
 5   0  0.3574927E-06  0.2100507E+04  0.7818609E-02  0.8561020E-01
        2   -1    0    0  501    0  0.00000000000E+00  0.00000000000E+00  0.87049202466E+03  0.87049202467E+03  0.25500000920E-02 0. -1.
       -2   -1    0    0    0  501  0.00000000000E+00  0.00000000000E+00 -0.12671363723E+04  0.12671363723E+04  0.25500000920E-02 0.  1.
    10030    2    1    2    0    0  0.00000000000E+00  0.00000000000E+00 -0.39664434760E+03  0.21376283969E+04  0.21005067067E+04 0.  0.
        3    1    3    3  502    0 -0.57937158676E+03 -0.87280042051E+03 -0.12230204508E+03  0.10547084005E+04  0.10100000352E+00 0. -1.
       -3    1    3    3    0  502  0.57937158676E+03  0.87280042051E+03 -0.27434230252E+03  0.10829199965E+04  0.10100000352E+00 0.  1.
</event>
<event>
 5   0  0.3574927E-06  0.2100125E+04  0.7818609E-02  0.8561188E-01
        2   -1    0    0  501    0  0.00000000000E+00  0.00000000000E+00  0.12784293829E+04  0.12784293829E+04  0.25500000920E-02 0. -1.
       -2   -1    0    0    0  501  0.00000000000E+00  0.00000000000E+00 -0.86248930042E+03  0.86248930042E+03  0.25500000920E-02 0.  1.
    10030    2    1    2    0    0  0.00000000000E+00  0.00000000000E+00  0.41594008251E+03  0.21409186833E+04  0.21001253907E+04 0.  0.
        3    1    3    3  502    0  0.36579235354E+03  0.94896756530E+03 -0.58425945279E+02  0.10187036307E+04  0.10100000352E+00 0.  1.
       -3    1    3    3    0  502 -0.36579235354E+03 -0.94896756530E+03  0.47436602779E+03  0.11222150527E+04  0.10100000352E+00 0. -1.
</event>
<event>
 5   0  0.3636435E-06  0.2100699E+04  0.7818609E-02  0.8560936E-01
       -2   -1    0    0    0  501  0.00000000000E+00  0.00000000000E+00  0.10287923851E+04  0.10287923851E+04  0.25500000920E-02 0.  1.
        2   -1    0    0  501    0  0.00000000000E+00  0.00000000000E+00 -0.10723579971E+04  0.10723579971E+04  0.25500000920E-02 0. -1.
    10030    2    1    2    0    0  0.00000000000E+00  0.00000000000E+00 -0.43565612047E+02  0.21011503822E+04  0.21006986853E+04 0.  0.
        4    1    3    3  502    0  0.55229806076E+03  0.83584666597E+03 -0.33738089104E+03  0.10571188559E+04  0.12699999809E+01 0. -1.
       -4    1    3    3    0  502 -0.55229806076E+03 -0.83584666597E+03  0.29381527899E+03  0.10440315263E+04  0.12699999809E+01 0.  1.
</event>
<event>
 5   0  0.1615098E-06  0.2101014E+04  0.7818609E-02  0.8560797E-01
        1   -1    0    0  501    0  0.00000000000E+00  0.00000000000E+00  0.60281603198E+03  0.60281603201E+03  0.50400001928E-02 0.  1.
       -1   -1    0    0    0  501  0.00000000000E+00  0.00000000000E+00 -0.18306824554E+04  0.18306824554E+04  0.50400001928E-02 0. -1.
    10030    2    1    2    0    0  0.00000000000E+00  0.00000000000E+00 -0.12278664234E+04  0.24334984874E+04  0.21010137873E+04 0.  0.
        1    1    3    3  502    0 -0.10949783918E+03 -0.10310603782E+04 -0.80943207465E+03  0.13153917910E+04  0.50400001928E-02 0. -1.
       -1    1    3    3    0  502  0.10949783918E+03  0.10310603782E+04 -0.41843434874E+03  0.11181066964E+04  0.50400001928E-02 0.  1.
</event>
<event>
 5   0  0.3636435E-06  0.2100759E+04  0.7818609E-02  0.8560909E-01
        2   -1    0    0  501    0  0.00000000000E+00  0.00000000000E+00  0.13599659581E+04  0.13599659581E+04  0.25500000920E-02 0.  1.
       -2   -1    0    0    0  501  0.00000000000E+00  0.00000000000E+00 -0.81126836114E+03  0.81126836114E+03  0.25500000920E-02 0. -1.
    10030    2    1    2    0    0  0.00000000000E+00  0.00000000000E+00  0.54869759699E+03  0.21712343193E+04  0.21007592476E+04 0.  0.
        4    1    3    3  502    0 -0.82282773828E+03 -0.64026809267E+03  0.14236586911E+03  0.10522634513E+04  0.12699999809E+01 0. -1.
       -4    1    3    3    0  502  0.82282773828E+03  0.64026809267E+03  0.40633172788E+03  0.11189708680E+04  0.12699999809E+01 0.  1.
</event>
<event>
 5   0  0.1653260E-06  0.2099830E+04  0.7818609E-02  0.8561318E-01
        1   -1    0    0  501    0  0.00000000000E+00  0.00000000000E+00  0.16580458151E+04  0.16580458151E+04  0.50400001928E-02 0. -1.
       -1   -1    0    0    0  501  0.00000000000E+00  0.00000000000E+00 -0.66483200256E+03  0.66483200258E+03  0.50400001928E-02 0.  1.
    10030    2    1    2    0    0  0.00000000000E+00  0.00000000000E+00  0.99321381254E+03  0.23228778177E+04  0.20998303928E+04 0.  0.
        3    1    3    3  502    0  0.25519538981E+03  0.53975303331E+03  0.14519776526E+04  0.15699353929E+04  0.10100000352E+00 0. -1.
       -3    1    3    3    0  502 -0.25519538981E+03 -0.53975303331E+03 -0.45876384006E+03  0.75294242482E+03  0.10100000352E+00 0.  1.
</event>
<event>
 5   0  0.3574927E-06  0.2098119E+04  0.7818609E-02  0.8562072E-01
        2   -1    0    0  501    0  0.00000000000E+00  0.00000000000E+00  0.10224128102E+04  0.10224128102E+04  0.25500000920E-02 0. -1.
       -2   -1    0    0    0  501  0.00000000000E+00  0.00000000000E+00 -0.10764005614E+04  0.10764005614E+04  0.25500000920E-02 0.  1.
    10030    2    1    2    0    0  0.00000000000E+00  0.00000000000E+00 -0.53987751124E+02  0.20988133716E+04  0.20981188936E+04 0.  0.
        3    1    3    3  502    0  0.11444985432E+03 -0.94326467287E+03  0.41776401988E+03  0.10379661838E+04  0.10100000352E+00 0. -1.
       -3    1    3    3    0  502 -0.11444985432E+03  0.94326467287E+03 -0.47175177101E+03  0.10608471878E+04  0.10100000352E+00 0.  1.
</event>
<event>
 5   0  0.3574927E-06  0.2097682E+04  0.7818609E-02  0.8562265E-01
       -2   -1    0    0    0  501  0.00000000000E+00  0.00000000000E+00  0.74315321994E+03  0.74315321994E+03  0.25500000920E-02 0.  1.
        2   -1    0    0  501    0  0.00000000000E+00  0.00000000000E+00 -0.14802699168E+04  0.14802699168E+04  0.25500000920E-02 0. -1.
    10030    2    1    2    0    0  0.00000000000E+00  0.00000000000E+00 -0.73711669685E+03  0.22234231367E+04  0.20976819159E+04 0.  0.
        3    1    3    3  502    0 -0.80441828518E+03  0.59990356990E+03 -0.69196129420E+03  0.12189271978E+04  0.10100000352E+00 0. -1.
       -3    1    3    3    0  502  0.80441828518E+03 -0.59990356990E+03 -0.45155402646E+02  0.10044959389E+04  0.10100000352E+00 0.  1.
</event>
<event>
 5   0  0.1615098E-06  0.2100850E+04  0.7818609E-02  0.8560869E-01
        1   -1    0    0  501    0  0.00000000000E+00  0.00000000000E+00  0.14434264821E+04  0.14434264821E+04  0.50400001928E-02 0. -1.
       -1   -1    0    0    0  501  0.00000000000E+00  0.00000000000E+00 -0.76442625764E+03  0.76442625766E+03  0.50400001928E-02 0.  1.
    10030    2    1    2    0    0  0.00000000000E+00  0.00000000000E+00  0.67900022447E+03  0.22078527398E+04  0.21008504030E+04 0.  0.
        1    1    3    3  502    0  0.98433332544E+03 -0.10717520640E+03  0.70806825262E+03  0.12172753472E+04  0.50400001928E-02 0. -1.
       -1    1    3    3    0  502 -0.98433332544E+03  0.10717520640E+03 -0.29068028155E+02  0.99057739260E+03  0.50400001928E-02 0.  1.
</event>
<event>
 5   0  0.1615098E-06  0.2099842E+04  0.7818609E-02  0.8561313E-01
       -1   -1    0    0    0  501  0.00000000000E+00  0.00000000000E+00  0.72092839217E+03  0.72092839219E+03  0.50400001928E-02 0. -1.
        1   -1    0    0  501    0  0.00000000000E+00  0.00000000000E+00 -0.15290475379E+04  0.15290475379E+04  0.50400001928E-02 0.  1.
    10030    2    1    2    0    0  0.00000000000E+00  0.00000000000E+00 -0.80811914573E+03  0.22499759301E+04  0.20998416922E+04 0.  0.
        1    1    3    3  502    0  0.53144429161E+03 -0.37210214792E+01 -0.13742752592E+04  0.14734583025E+04  0.50400001928E-02 0.  1.
       -1    1    3    3    0  502 -0.53144429161E+03  0.37210214792E+01  0.56615611349E+03  0.77651762759E+03  0.50400001928E-02 0. -1.
</event>
<event>
 5   0  0.3480134E-06  0.2097160E+04  0.7818609E-02  0.8562496E-01
       -2   -1    0    0    0  501  0.00000000000E+00  0.00000000000E+00  0.49011817938E+03  0.49011817939E+03  0.25500000920E-02 0.  1.
        2   -1    0    0  501    0  0.00000000000E+00  0.00000000000E+00 -0.22433766534E+04  0.22433766534E+04  0.25500000920E-02 0. -1.
    10030    2    1    2    0    0  0.00000000000E+00  0.00000000000E+00 -0.17532584740E+04  0.27334948328E+04  0.20971596802E+04 0.  0.
        1    1    3    3  502    0  0.16391556979E+02 -0.63490048061E+03 -0.19641533955E+04  0.20642833779E+04  0.50400001928E-02 0. -1.
       -1    1    3    3    0  502 -0.16391556979E+02  0.63490048061E+03  0.21089492144E+03  0.66921145487E+03  0.50400001928E-02 0.  1.
</event>
<event>
 5   0  0.1646510E-06  0.2099063E+04  0.7818609E-02  0.8561656E-01
       -1   -1    0    0    0  501  0.00000000000E+00  0.00000000000E+00  0.10851951793E+04  0.10851951793E+04  0.50400001928E-02 0.  1.
        1   -1    0    0  501    0  0.00000000000E+00  0.00000000000E+00 -0.10150397653E+04  0.10150397653E+04  0.50400001928E-02 0. -1.
    10030    2    1    2    0    0  0.00000000000E+00  0.00000000000E+00  0.70155413997E+02  0.21002349446E+04  0.20990628957E+04 0.  0.
        4    1    3    3  502    0  0.41106010072E+03 -0.21627227372E+02  0.10010578709E+04  0.10823846900E+04  0.12699999809E+01 0.  1.
       -4    1    3    3    0  502 -0.41106010072E+03  0.21627227372E+02 -0.93090245694E+03  0.10178502545E+04  0.12699999809E+01 0. -1.
</event>
<event>
 5   0  0.3705828E-06  0.2100192E+04  0.7818609E-02  0.8561159E-01
       -2   -1    0    0    0  501  0.00000000000E+00  0.00000000000E+00  0.88777900112E+03  0.88777900113E+03  0.25500000920E-02 0. -1.
        2   -1    0    0  501    0  0.00000000000E+00  0.00000000000E+00 -0.12420898964E+04  0.12420898964E+04  0.25500000920E-02 0.  1.
    10030    2    1    2    0    0  0.00000000000E+00  0.00000000000E+00 -0.35431089530E+03  0.21298688976E+04  0.21001917318E+04 0.  0.
        5    1    3    3  502    0  0.63010007562E+03  0.69780484320E+03  0.29712988898E+03  0.98603547878E+03  0.46999998093E+01 0.  1.
       -5    1    3    3    0  502 -0.63010007562E+03 -0.69780484320E+03 -0.65144078428E+03  0.11438334188E+04  0.46999998093E+01 0. -1.
</event>
<event>
 5   0  0.1579820E-06  0.2101343E+04  0.7818609E-02  0.8560652E-01
       -1   -1    0    0    0  501  0.00000000000E+00  0.00000000000E+00  0.88828712375E+03  0.88828712376E+03  0.50400001928E-02 0.  1.
        1   -1    0    0  501    0  0.00000000000E+00  0.00000000000E+00 -0.12427404220E+04  0.12427404220E+04  0.50400001928E-02 0. -1.
    10030    2    1    2    0    0  0.00000000000E+00  0.00000000000E+00 -0.35445329829E+03  0.21310275458E+04  0.21013427280E+04 0.  0.
        2    1    3    3  502    0  0.66589155153E+03 -0.51492526426E+03  0.46042493651E+03  0.95945333828E+03  0.25500000920E-02 0.  1.
       -2    1    3    3    0  502 -0.66589155153E+03  0.51492526426E+03 -0.81487823480E+03  0.11715742075E+04  0.25500000920E-02 0. -1.
</event>
<event>
 5   0  0.1590067E-06  0.2097348E+04  0.7818609E-02  0.8562412E-01
       -1   -1    0    0    0  501  0.00000000000E+00  0.00000000000E+00  0.88354077721E+03  0.88354077723E+03  0.50400001928E-02 0.  1.
        1   -1    0    0  501    0  0.00000000000E+00  0.00000000000E+00 -0.12446707291E+04  0.12446707291E+04  0.50400001928E-02 0. -1.
    10030    2    1    2    0    0  0.00000000000E+00  0.00000000000E+00 -0.36112995189E+03  0.21282115063E+04  0.20973481765E+04 0.  0.
        5    1    3    3  502    0 -0.52158504207E+03 -0.27914499227E+03 -0.10591716319E+04  0.12131939328E+04  0.46999998093E+01 0. -1.
       -5    1    3    3    0  502  0.52158504207E+03  0.27914499227E+03  0.69804168001E+03  0.91501757352E+03  0.46999998093E+01 0.  1.
</event>
<event>
 5   0  0.1615098E-06  0.2100297E+04  0.7818609E-02  0.8561112E-01
        1   -1    0    0  501    0  0.00000000000E+00  0.00000000000E+00  0.12163422504E+04  0.12163422504E+04  0.50400001928E-02 0.  1.
       -1   -1    0    0    0  501  0.00000000000E+00  0.00000000000E+00 -0.90666259848E+03  0.90666259849E+03  0.50400001928E-02 0. -1.
    10030    2    1    2    0    0  0.00000000000E+00  0.00000000000E+00  0.30967965191E+03  0.21230048489E+04  0.21002971460E+04 0.  0.
        1    1    3    3  502    0  0.75755513355E+03  0.27484274665E+03  0.83545746415E+03  0.11607831366E+04  0.50400001928E-02 0.  1.
       -1    1    3    3    0  502 -0.75755513355E+03 -0.27484274665E+03 -0.52577781224E+03  0.96222171230E+03  0.50400001928E-02 0. -1.
</event>
<event>
 5   0  0.3705828E-06  0.2100401E+04  0.7818609E-02  0.8561067E-01
       -2   -1    0    0    0  501  0.00000000000E+00  0.00000000000E+00  0.11644864986E+04  0.11644864986E+04  0.25500000920E-02 0.  1.
        2   -1    0    0  501    0  0.00000000000E+00  0.00000000000E+00 -0.94713062369E+03  0.94713062369E+03  0.25500000920E-02 0. -1.
    10030    2    1    2    0    0  0.00000000000E+00  0.00000000000E+00  0.21735587490E+03  0.21116171223E+04  0.21004007462E+04 0.  0.
        5    1    3    3  502    0 -0.10038188422E+04  0.20863712071E+03  0.33730611113E+03  0.10793420304E+04  0.46999998093E+01 0.  1.
       -5    1    3    3    0  502  0.10038188422E+04 -0.20863712071E+03 -0.11995023623E+03  0.10322750918E+04  0.46999998093E+01 0. -1.
</event>
<event>
 5   0  0.1579820E-06  0.2100133E+04  0.7818609E-02  0.8561185E-01
       -1   -1    0    0    0  501  0.00000000000E+00  0.00000000000E+00  0.13738345221E+04  0.13738345221E+04  0.50400001928E-02 0. -1.
        1   -1    0    0  501    0  0.00000000000E+00  0.00000000000E+00 -0.80260034047E+03  0.80260034049E+03  0.50400001928E-02 0.  1.
    10030    2    1    2    0    0  0.00000000000E+00  0.00000000000E+00  0.57123418160E+03  0.21764348626E+04  0.21001333817E+04 0.  0.
        2    1    3    3  502    0 -0.16128250878E+02 -0.48149722214E+03 -0.68130893771E+03  0.83443487704E+03  0.25500000920E-02 0.  1.
       -2    1    3    3    0  502  0.16128250878E+02  0.48149722214E+03  0.12525431193E+04  0.13419999855E+04  0.25500000920E-02 0. -1.
</event>
<event>
 5   0  0.1653260E-06  0.2101741E+04  0.7818609E-02  0.8560477E-01
        1   -1    0    0  501    0  0.00000000000E+00  0.00000000000E+00  0.15028359624E+04  0.15028359624E+04  0.50400001928E-02 0. -1.
       -1   -1    0    0    0  501  0.00000000000E+00  0.00000000000E+00 -0.73482967541E+03  0.73482967542E+03  0.50400001928E-02 0.  1.
    10030    2    1    2    0    0  0.00000000000E+00  0.00000000000E+00  0.76800628699E+03  0.22376656378E+04  0.21017406714E+04 0.  0.
        3    1    3    3  502    0  0.68828276801E+02  0.99204509433E+03  0.74573753889E+03  0.12429864392E+04  0.10100000352E+00 0. -1.
       -3    1    3    3    0  502 -0.68828276801E+02 -0.99204509433E+03  0.22268748097E+02  0.99467919864E+03  0.10100000352E+00 0.  1.
</event>
<event>
 5   0  0.3574927E-06  0.2099480E+04  0.7818609E-02  0.8561473E-01
       -2   -1    0    0    0  501  0.00000000000E+00  0.00000000000E+00  0.46677196572E+03  0.46677196572E+03  0.25500000920E-02 0. -1.
        2   -1    0    0  501    0  0.00000000000E+00  0.00000000000E+00 -0.23607971051E+04  0.23607971051E+04  0.25500000920E-02 0.  1.
    10030    2    1    2    0    0  0.00000000000E+00  0.00000000000E+00 -0.18940251394E+04  0.28275690709E+04  0.20994798455E+04 0.  0.
        3    1    3    3  502    0 -0.21815352198E+03 -0.98955857748E+03 -0.13161837060E+04  0.16610709483E+04  0.10100000352E+00 0. -1.
       -3    1    3    3    0  502  0.21815352198E+03  0.98955857748E+03 -0.57784143347E+03  0.11664981225E+04  0.10100000352E+00 0.  1.
</event>
<event>
 5   0  0.3705828E-06  0.2100109E+04  0.7818609E-02  0.8561195E-01
       -2   -1    0    0    0  501  0.00000000000E+00  0.00000000000E+00  0.14174208378E+04  0.14174208378E+04  0.25500000920E-02 0.  1.
        2   -1    0    0  501    0  0.00000000000E+00  0.00000000000E+00 -0.77790225831E+03  0.77790225832E+03  0.25500000920E-02 0. -1.
    10030    2    1    2    0    0  0.00000000000E+00  0.00000000000E+00  0.63951857946E+03  0.21953230961E+04  0.21001093978E+04 0.  0.
        5    1    3    3  502    0  0.75223621034E+03 -0.66782640988E+03  0.48690873028E+01  0.10059310254E+04  0.46999998093E+01 0. -1.
       -5    1    3    3    0  502 -0.75223621034E+03  0.66782640988E+03  0.63464949216E+03  0.11893920707E+04  0.46999998093E+01 0.  1.
</event>
<event>
 5   0  0.3480134E-06  0.2099817E+04  0.7818609E-02  0.8561324E-01
       -2   -1    0    0    0  501  0.00000000000E+00  0.00000000000E+00  0.42230045009E+03  0.42230045010E+03  0.25500000920E-02 0.  1.
        2   -1    0    0  501    0  0.00000000000E+00  0.00000000000E+00 -0.26102448521E+04  0.26102448521E+04  0.25500000920E-02 0. -1.
    10030    2    1    2    0    0  0.00000000000E+00  0.00000000000E+00 -0.21879444020E+04  0.30325453022E+04  0.20998167309E+04 0.  0.
        1    1    3    3  502    0 -0.13637644802E+03 -0.26877095209E+02  0.40895332118E+03  0.43193024061E+03  0.50400001928E-02 0.  1.
       -1    1    3    3    0  502  0.13637644802E+03  0.26877095209E+02 -0.25968977232E+04  0.26006150616E+04  0.50400001928E-02 0. -1.
</event>
<event>
 5   0  0.1646510E-06  0.2095787E+04  0.7818609E-02  0.8563102E-01
        1   -1    0    0  501    0  0.00000000000E+00  0.00000000000E+00  0.95245743194E+03  0.95245743195E+03  0.50400001928E-02 0. -1.
       -1   -1    0    0    0  501  0.00000000000E+00  0.00000000000E+00 -0.11528921578E+04  0.11528921579E+04  0.50400001928E-02 0.  1.
    10030    2    1    2    0    0  0.00000000000E+00  0.00000000000E+00 -0.20043472590E+03  0.21053495898E+04  0.20957869204E+04 0.  0.
        4    1    3    3  502    0 -0.74083790142E+03  0.47789721240E+03  0.46880566392E+03  0.99850233111E+03  0.12699999809E+01 0. -1.
       -4    1    3    3    0  502  0.74083790142E+03 -0.47789721240E+03 -0.66924038982E+03  0.11068472587E+04  0.12699999809E+01 0.  1.
</event>
<event>
 5   0  0.1653260E-06  0.2101000E+04  0.7818609E-02  0.8560803E-01
       -1   -1    0    0    0  501  0.00000000000E+00  0.00000000000E+00  0.62243443923E+03  0.62243443925E+03  0.50400001928E-02 0.  1.
        1   -1    0    0  501    0  0.00000000000E+00  0.00000000000E+00 -0.17729578661E+04  0.17729578661E+04  0.50400001928E-02 0. -1.
    10030    2    1    2    0    0  0.00000000000E+00  0.00000000000E+00 -0.11505234268E+04  0.23953923053E+04  0.21009997955E+04 0.  0.
        3    1    3    3  502    0 -0.36961406153E+03  0.54173961206E+03 -0.15108924917E+04  0.16470860613E+04  0.10100000352E+00 0. -1.
       -3    1    3    3    0  502  0.36961406153E+03 -0.54173961206E+03  0.36036906483E+03  0.74830624402E+03  0.10100000352E+00 0.  1.
</event>
<event>
 5   0  0.1615098E-06  0.2098667E+04  0.7818609E-02  0.8561831E-01
        1   -1    0    0  501    0  0.00000000000E+00  0.00000000000E+00  0.99479910916E+03  0.99479910917E+03  0.50400001928E-02 0.  1.
       -1   -1    0    0    0  501  0.00000000000E+00  0.00000000000E+00 -0.11068576901E+04  0.11068576901E+04  0.50400001928E-02 0. -1.
    10030    2    1    2    0    0  0.00000000000E+00  0.00000000000E+00 -0.11205858096E+03  0.21016567993E+04  0.20986672382E+04 0.  0.
        1    1    3    3  502    0  0.22917460880E+03  0.72294370865E+03 -0.78227435277E+03  0.10895511783E+04  0.50400001928E-02 0. -1.
       -1    1    3    3    0  502 -0.22917460880E+03 -0.72294370865E+03  0.67021577180E+03  0.10121056210E+04  0.50400001928E-02 0.  1.
</event>
<event>
 5   0  0.3547583E-06  0.2100111E+04  0.7818609E-02  0.8561194E-01
       -2   -1    0    0    0  501  0.00000000000E+00  0.00000000000E+00  0.83124330505E+03  0.83124330505E+03  0.25500000920E-02 0.  1.
        2   -1    0    0  501    0  0.00000000000E+00  0.00000000000E+00 -0.13264669993E+04  0.13264669993E+04  0.25500000920E-02 0. -1.
    10030    2    1    2    0    0  0.00000000000E+00  0.00000000000E+00 -0.49522369421E+03  0.21577103043E+04  0.21001112471E+04 0.  0.
        2    1    3    3  502    0  0.17861667794E+03 -0.45813777613E+03  0.70564006132E+03  0.86007094806E+03  0.25500000920E-02 0.  1.
       -2    1    3    3    0  502 -0.17861667794E+03  0.45813777613E+03 -0.12008637555E+04  0.12976393563E+04  0.25500000920E-02 0. -1.
</event>
<event>
 5   0  0.1615098E-06  0.2098595E+04  0.7818609E-02  0.8561863E-01
       -1   -1    0    0    0  501  0.00000000000E+00  0.00000000000E+00  0.83386041833E+03  0.83386041835E+03  0.50400001928E-02 0.  1.
        1   -1    0    0  501    0  0.00000000000E+00  0.00000000000E+00 -0.13203948627E+04  0.13203948627E+04  0.50400001928E-02 0. -1.
    10030    2    1    2    0    0  0.00000000000E+00  0.00000000000E+00 -0.48653444437E+03  0.21542552811E+04  0.20985947799E+04 0.  0.
        1    1    3    3  502    0  0.35677279359E+03 -0.89475330905E+03  0.18388800274E+03  0.98065544810E+03  0.50400001928E-02 0. -1.
       -1    1    3    3    0  502 -0.35677279359E+03  0.89475330905E+03 -0.67042244711E+03  0.11735998330E+04  0.50400001928E-02 0.  1.
</event>
<event>
 5   0  0.1579820E-06  0.2099810E+04  0.7818609E-02  0.8561327E-01
        1   -1    0    0  501    0  0.00000000000E+00  0.00000000000E+00  0.27591215986E+04  0.27591215986E+04  0.50400001928E-02 0. -1.
       -1   -1    0    0    0  501  0.00000000000E+00  0.00000000000E+00 -0.39951123822E+03  0.39951123826E+03  0.50400001928E-02 0.  1.
    10030    2    1    2    0    0  0.00000000000E+00  0.00000000000E+00  0.23596103603E+04  0.31586328368E+04  0.20998095974E+04 0.  0.
        2    1    3    3  502    0  0.97338428262E+02 -0.12996192853E+02  0.27521979552E+04  0.27539493923E+04  0.25500000920E-02 0. -1.
       -2    1    3    3    0  502 -0.97338428262E+02  0.12996192853E+02 -0.39258759486E+03  0.40468344454E+03  0.25500000920E-02 0.  1.
</event>
<event>
 5   0  0.1646510E-06  0.2100552E+04  0.7818609E-02  0.8561000E-01
       -1   -1    0    0    0  501  0.00000000000E+00  0.00000000000E+00  0.12546512716E+04  0.12546512716E+04  0.50400001928E-02 0.  1.
        1   -1    0    0  501    0  0.00000000000E+00  0.00000000000E+00 -0.87919201416E+03  0.87919201417E+03  0.50400001928E-02 0. -1.
    10030    2    1    2    0    0  0.00000000000E+00  0.00000000000E+00  0.37545925747E+03  0.21338432858E+04  0.21005517167E+04 0.  0.
        4    1    3    3  502    0  0.88768509714E+02 -0.39837550095E+03  0.11707937483E+04  0.12398961658E+04  0.12699999809E+01 0.  1.
       -4    1    3    3    0  502 -0.88768509714E+02  0.39837550095E+03 -0.79533449085E+03  0.89394711997E+03  0.12699999809E+01 0. -1.
</event>
<event>
 5   0  0.3480134E-06  0.2100064E+04  0.7818609E-02  0.8561215E-01
        2   -1    0    0  501    0  0.00000000000E+00  0.00000000000E+00  0.28499899754E+04  0.28499899754E+04  0.25500000920E-02 0. -1.
       -2   -1    0    0    0  501  0.00000000000E+00  0.00000000000E+00 -0.38686689261E+03  0.38686689261E+03  0.25500000920E-02 0.  1.
    10030    2    1    2    0    0  0.00000000000E+00  0.00000000000E+00  0.24631230828E+04  0.32368568681E+04  0.21000635855E+04 0.  0.
        1    1    3    3  502    0  0.76848786166E+03  0.29845218982E+03  0.22921040528E+03  0.85567792600E+03  0.50400001928E-02 0.  1.
       -1    1    3    3    0  502 -0.76848786166E+03 -0.29845218982E+03  0.22339126776E+04  0.23811789421E+04  0.50400001928E-02 0. -1.
</event>
<event>
 5   0  0.3574927E-06  0.2093824E+04  0.7818609E-02  0.8563969E-01
       -2   -1    0    0    0  501  0.00000000000E+00  0.00000000000E+00  0.89992774269E+03  0.89992774269E+03  0.25500000920E-02 0. -1.
        2   -1    0    0  501    0  0.00000000000E+00  0.00000000000E+00 -0.12179028186E+04  0.12179028186E+04  0.25500000920E-02 0.  1.
    10030    2    1    2    0    0  0.00000000000E+00  0.00000000000E+00 -0.31797507591E+03  0.21178305613E+04  0.20938238076E+04 0.  0.
        3    1    3    3  502    0 -0.70205817536E+03  0.17445268218E+03  0.60646206899E+03  0.94398923258E+03  0.10100000352E+00 0. -1.
       -3    1    3    3    0  502  0.70205817536E+03 -0.17445268218E+03 -0.92443714490E+03  0.11738413287E+04  0.10100000352E+00 0.  1.
</event>
<event>
 5   0  0.1579820E-06  0.2099578E+04  0.7818609E-02  0.8561429E-01
       -1   -1    0    0    0  501  0.00000000000E+00  0.00000000000E+00  0.67826985204E+03  0.67826985206E+03  0.50400001928E-02 0. -1.
        1   -1    0    0  501    0  0.00000000000E+00  0.00000000000E+00 -0.16248055298E+04  0.16248055298E+04  0.50400001928E-02 0.  1.
    10030    2    1    2    0    0  0.00000000000E+00  0.00000000000E+00 -0.94653567774E+03  0.23030753818E+04  0.20995776778E+04 0.  0.
        2    1    3    3  502    0  0.75728250136E+03 -0.33628650334E+03 -0.11803292326E+04  0.14421312341E+04  0.25500000920E-02 0.  1.
       -2    1    3    3    0  502 -0.75728250136E+03  0.33628650334E+03  0.23379355483E+03  0.86094414771E+03  0.25500000920E-02 0. -1.
</event>
<event>
 5   0  0.1257125E-06  0.2099762E+04  0.7818609E-02  0.8561348E-01
        3   -1    0    0  501    0  0.00000000000E+00  0.00000000000E+00  0.11010833931E+04  0.11010833977E+04  0.10100000352E+00 0. -1.
       -3   -1    0    0    0  501  0.00000000000E+00  0.00000000000E+00 -0.10010598513E+04  0.10010598564E+04  0.10100000352E+00 0.  1.
    10030    2    1    2    0    0  0.00000000000E+00  0.00000000000E+00  0.10002354183E+03  0.21021432541E+04  0.20997622608E+04 0.  0.
        5    1    3    3  502    0  0.19364814795E+03 -0.43367464729E+03  0.98737203214E+03  0.10956728183E+04  0.46999998093E+01 0. -1.
       -5    1    3    3    0  502 -0.19364814795E+03  0.43367464729E+03 -0.88734849031E+03  0.10064704358E+04  0.46999998093E+01 0.  1.
</event>
<event>
 5   0  0.1590067E-06  0.2099603E+04  0.7818609E-02  0.8561418E-01
        1   -1    0    0  501    0  0.00000000000E+00  0.00000000000E+00  0.13970137369E+04  0.13970137369E+04  0.50400001928E-02 0. -1.
       -1   -1    0    0    0  501  0.00000000000E+00  0.00000000000E+00 -0.78888490822E+03  0.78888490823E+03  0.50400001928E-02 0.  1.
    10030    2    1    2    0    0  0.00000000000E+00  0.00000000000E+00  0.60812882870E+03  0.21858986452E+04  0.20996028707E+04 0.  0.
        5    1    3    3  502    0  0.18363558155E+03  0.45628948649E+03 -0.66149086505E+03  0.82432662024E+03  0.46999998093E+01 0.  1.
       -5    1    3    3    0  502 -0.18363558155E+03 -0.45628948649E+03  0.12696196938E+04  0.13615720249E+04  0.46999998093E+01 0. -1.
</event>
<event>
 5   0  0.3705828E-06  0.2100925E+04  0.7818609E-02  0.8560836E-01
       -2   -1    0    0    0  501  0.00000000000E+00  0.00000000000E+00  0.60287703206E+03  0.60287703207E+03  0.25500000920E-02 0.  1.
        2   -1    0    0  501    0  0.00000000000E+00  0.00000000000E+00 -0.18303422505E+04  0.18303422505E+04  0.25500000920E-02 0. -1.
    10030    2    1    2    0    0  0.00000000000E+00  0.00000000000E+00 -0.12274652185E+04  0.24332192826E+04  0.21009248475E+04 0.  0.
        5    1    3    3  502    0  0.80358594215E+02 -0.76959105973E+03  0.20907169168E+03  0.80153662745E+03  0.46999998093E+01 0.  1.
       -5    1    3    3    0  502 -0.80358594215E+02  0.76959105973E+03 -0.14365369102E+04  0.16316826552E+04  0.46999998093E+01 0. -1.
</event>
<event>
 5   0  0.3480134E-06  0.2099059E+04  0.7818609E-02  0.8561658E-01
       -2   -1    0    0    0  501  0.00000000000E+00  0.00000000000E+00  0.10393514516E+04  0.10393514516E+04  0.25500000920E-02 0.  1.
        2   -1    0    0  501    0  0.00000000000E+00  0.00000000000E+00 -0.10598071026E+04  0.10598071026E+04  0.25500000920E-02 0. -1.
    10030    2    1    2    0    0  0.00000000000E+00  0.00000000000E+00 -0.20455650963E+02  0.20991585542E+04  0.20990588848E+04 0.  0.
        1    1    3    3  502    0  0.12832606181E+03  0.65501567287E+03 -0.82020389892E+03  0.10574722435E+04  0.50400001928E-02 0. -1.
       -1    1    3    3    0  502 -0.12832606181E+03 -0.65501567287E+03  0.79974824795E+03  0.10416863107E+04  0.50400001928E-02 0.  1.
</event>
<event>
 5   0  0.1590067E-06  0.2098158E+04  0.7818609E-02  0.8562055E-01
        1   -1    0    0  501    0  0.00000000000E+00  0.00000000000E+00  0.10544625783E+04  0.10544625783E+04  0.50400001928E-02 0. -1.
       -1   -1    0    0    0  501  0.00000000000E+00  0.00000000000E+00 -0.10437233457E+04  0.10437233457E+04  0.50400001928E-02 0.  1.
    10030    2    1    2    0    0  0.00000000000E+00  0.00000000000E+00  0.10739232607E+02  0.20981859240E+04  0.20981584403E+04 0.  0.
        5    1    3    3  502    0  0.13380884884E+03 -0.61282347523E+03 -0.83552646803E+03  0.10447889685E+04  0.46999998093E+01 0.  1.
       -5    1    3    3    0  502 -0.13380884884E+03  0.61282347523E+03  0.84626570064E+03  0.10533969555E+04  0.46999998093E+01 0. -1.
</event>
<event>
 5   0  0.1646510E-06  0.2100855E+04  0.7818609E-02  0.8560867E-01
        1   -1    0    0  501    0  0.00000000000E+00  0.00000000000E+00  0.13064081083E+04  0.13064081083E+04  0.50400001928E-02 0. -1.
       -1   -1    0    0    0  501  0.00000000000E+00  0.00000000000E+00 -0.84460427056E+03  0.84460427057E+03  0.50400001928E-02 0.  1.
    10030    2    1    2    0    0  0.00000000000E+00  0.00000000000E+00  0.46180383777E+03  0.21510123789E+04  0.21008549378E+04 0.  0.
        4    1    3    3  502    0  0.13126880878E+03  0.76765774860E+03 -0.49081457433E+03  0.92055987226E+03  0.12699999809E+01 0.  1.
       -4    1    3    3    0  502 -0.13126880878E+03 -0.76765774860E+03  0.95261841210E+03  0.12304525066E+04  0.12699999809E+01 0. -1.
</event>
<event>
 5   0  0.3636435E-06  0.2104165E+04  0.7818609E-02  0.8559411E-01
        2   -1    0    0  501    0  0.00000000000E+00  0.00000000000E+00  0.14477812676E+04  0.14477812676E+04  0.25500000920E-02 0. -1.
       -2   -1    0    0    0  501  0.00000000000E+00  0.00000000000E+00 -0.76453353433E+03  0.76453353434E+03  0.25500000920E-02 0.  1.
    10030    2    1    2    0    0  0.00000000000E+00  0.00000000000E+00  0.68324773323E+03  0.22123148019E+04  0.21041647554E+04 0.  0.
        4    1    3    3  502    0 -0.65793304012E+02  0.67907505717E+03 -0.50041671668E+03  0.84610294607E+03  0.12699999809E+01 0.  1.
       -4    1    3    3    0  502  0.65793304012E+02 -0.67907505717E+03  0.11836644499E+04  0.13662118558E+04  0.12699999809E+01 0. -1.
</event>
<event>
 5   0  0.3574927E-06  0.2099796E+04  0.7818609E-02  0.8561333E-01
        2   -1    0    0  501    0  0.00000000000E+00  0.00000000000E+00  0.17574242028E+04  0.17574242028E+04  0.25500000920E-02 0. -1.
       -2   -1    0    0    0  501  0.00000000000E+00  0.00000000000E+00 -0.62721671237E+03  0.62721671238E+03  0.25500000920E-02 0.  1.
    10030    2    1    2    0    0  0.00000000000E+00  0.00000000000E+00  0.11302074904E+04  0.23846409152E+04  0.20997960193E+04 0.  0.
        3    1    3    3  502    0  0.51467856631E+03 -0.56984490115E+03  0.13782417036E+04  0.15777095556E+04  0.10100000352E+00 0. -1.
       -3    1    3    3    0  502 -0.51467856631E+03  0.56984490115E+03 -0.24803421319E+03  0.80693135959E+03  0.10100000352E+00 0.  1.
</event>
<event>
 5   0  0.3705828E-06  0.2099995E+04  0.7818609E-02  0.8561246E-01
        2   -1    0    0  501    0  0.00000000000E+00  0.00000000000E+00  0.13025286289E+04  0.13025286289E+04  0.25500000920E-02 0. -1.
       -2   -1    0    0    0  501  0.00000000000E+00  0.00000000000E+00 -0.84642612517E+03  0.84642612517E+03  0.25500000920E-02 0.  1.
    10030    2    1    2    0    0  0.00000000000E+00  0.00000000000E+00  0.45610250377E+03  0.21489547541E+04  0.20999945336E+04 0.  0.
        5    1    3    3  502    0 -0.44153149052E+03  0.78316875043E+03  0.78306971140E+03  0.11922766506E+04  0.46999998093E+01 0. -1.
       -5    1    3    3    0  502  0.44153149052E+03 -0.78316875043E+03 -0.32696720763E+03  0.95667810346E+03  0.46999998093E+01 0.  1.
</event>
<event>
 5   0  0.3705828E-06  0.2099413E+04  0.7818609E-02  0.8561502E-01
       -2   -1    0    0    0  501  0.00000000000E+00  0.00000000000E+00  0.77637589810E+03  0.77637589810E+03  0.25500000920E-02 0.  1.
        2   -1    0    0  501    0  0.00000000000E+00  0.00000000000E+00 -0.14192654510E+04  0.14192654510E+04  0.25500000920E-02 0. -1.
    10030    2    1    2    0    0  0.00000000000E+00  0.00000000000E+00 -0.64288955291E+03  0.21956413491E+04  0.20994127647E+04 0.  0.
        5    1    3    3  502    0  0.37547933478E+03  0.45068555116E+03  0.58894878397E+03  0.83125504932E+03  0.46999998093E+01 0.  1.
       -5    1    3    3    0  502 -0.37547933478E+03 -0.45068555116E+03 -0.12318383369E+04  0.13643862998E+04  0.46999998093E+01 0. -1.
</event>
<event>
 5   0  0.3705828E-06  0.2100606E+04  0.7818609E-02  0.8560976E-01
       -2   -1    0    0    0  501  0.00000000000E+00  0.00000000000E+00  0.67836655097E+03  0.67836655098E+03  0.25500000920E-02 0. -1.
        2   -1    0    0  501    0  0.00000000000E+00  0.00000000000E+00 -0.16261656191E+04  0.16261656191E+04  0.25500000920E-02 0.  1.
    10030    2    1    2    0    0  0.00000000000E+00  0.00000000000E+00 -0.94779906810E+03  0.23045321701E+04  0.21006059719E+04 0.  0.
        5    1    3    3  502    0 -0.39740636475E+03 -0.89056802440E+03 -0.46079174935E+02  0.97631378419E+03  0.46999998093E+01 0. -1.
       -5    1    3    3    0  502  0.39740636475E+03  0.89056802440E+03 -0.90171989317E+03  0.13282183859E+04  0.46999998093E+01 0.  1.
</event>
<event>
 5   0  0.1590067E-06  0.2088979E+04  0.7818609E-02  0.8566114E-01
       -1   -1    0    0    0  501  0.00000000000E+00  0.00000000000E+00  0.97671367321E+03  0.97671367323E+03  0.50400001928E-02 0.  1.
        1   -1    0    0  501    0  0.00000000000E+00  0.00000000000E+00 -0.11169686572E+04  0.11169686572E+04  0.50400001928E-02 0. -1.
    10030    2    1    2    0    0  0.00000000000E+00  0.00000000000E+00 -0.14025498396E+03  0.20936823304E+04  0.20889792340E+04 0.  0.
        5    1    3    3  502    0  0.75374018894E+03 -0.64228931443E+03  0.26269940516E+03  0.10245452178E+04  0.46999998093E+01 0.  1.
       -5    1    3    3    0  502 -0.75374018894E+03  0.64228931443E+03 -0.40295438912E+03  0.10691371126E+04  0.46999998093E+01 0. -1.
</event>
<event>
 5   0  0.3480134E-06  0.2097061E+04  0.7818609E-02  0.8562539E-01
        2   -1    0    0  501    0  0.00000000000E+00  0.00000000000E+00  0.17990907970E+04  0.17990907970E+04  0.25500000920E-02 0.  1.
       -2   -1    0    0    0  501  0.00000000000E+00  0.00000000000E+00 -0.61109541271E+03  0.61109541272E+03  0.25500000920E-02 0. -1.
    10030    2    1    2    0    0  0.00000000000E+00  0.00000000000E+00  0.11879953843E+04  0.24101862097E+04  0.20970609272E+04 0.  0.
        1    1    3    3  502    0 -0.37154008031E+03 -0.67765259027E+03 -0.22044600876E+03  0.80364887058E+03  0.50400001928E-02 0. -1.
       -1    1    3    3    0  502  0.37154008031E+03  0.67765259027E+03  0.14084413931E+04  0.16065373392E+04  0.50400001928E-02 0.  1.
</event>
<event>
 5   0  0.1579820E-06  0.2099602E+04  0.7818609E-02  0.8561419E-01
        1   -1    0    0  501    0  0.00000000000E+00  0.00000000000E+00  0.14419889204E+04  0.14419889204E+04  0.50400001928E-02 0.  1.
       -1   -1    0    0    0  501  0.00000000000E+00  0.00000000000E+00 -0.76427935519E+03  0.76427935521E+03  0.50400001928E-02 0. -1.
    10030    2    1    2    0    0  0.00000000000E+00  0.00000000000E+00  0.67770956521E+03  0.22062682756E+04  0.20996022121E+04 0.  0.
        2    1    3    3  502    0  0.83144478966E+03 -0.49182087484E+02  0.10103524618E+04  0.13094011658E+04  0.25500000920E-02 0.  1.
       -2    1    3    3    0  502 -0.83144478966E+03  0.49182087484E+02 -0.33264289659E+03  0.89686710980E+03  0.25500000920E-02 0. -1.
</event>
<event>
 5   0  0.1579820E-06  0.2100159E+04  0.7818609E-02  0.8561174E-01
       -1   -1    0    0    0  501  0.00000000000E+00  0.00000000000E+00  0.38271319297E+03  0.38271319301E+03  0.50400001928E-02 0. -1.
        1   -1    0    0  501    0  0.00000000000E+00  0.00000000000E+00 -0.28811822813E+04  0.28811822813E+04  0.50400001928E-02 0.  1.
    10030    2    1    2    0    0  0.00000000000E+00  0.00000000000E+00 -0.24984690883E+04  0.32638954743E+04  0.21001585373E+04 0.  0.
        2    1    3    3  502    0  0.34098716244E+03  0.96695880536E+03 -0.16015258258E+04  0.19016220831E+04  0.25500000920E-02 0. -1.
       -2    1    3    3    0  502 -0.34098716244E+03 -0.96695880536E+03 -0.89694326257E+03  0.13622733912E+04  0.25500000920E-02 0.  1.
</event>
<event>
 5   0  0.1653260E-06  0.2100606E+04  0.7818609E-02  0.8560976E-01
       -1   -1    0    0    0  501  0.00000000000E+00  0.00000000000E+00  0.76824525089E+03  0.76824525091E+03  0.50400001928E-02 0. -1.
        1   -1    0    0  501    0  0.00000000000E+00  0.00000000000E+00 -0.14359170320E+04  0.14359170320E+04  0.50400001928E-02 0.  1.
    10030    2    1    2    0    0  0.00000000000E+00  0.00000000000E+00 -0.66767178109E+03  0.22041622829E+04  0.21006060464E+04 0.  0.
        3    1    3    3  502    0 -0.87687084728E+03 -0.55367555109E+03 -0.15926932639E+03  0.10492024720E+04  0.10100000352E+00 0.  1.
       -3    1    3    3    0  502  0.87687084728E+03  0.55367555109E+03 -0.50840245469E+03  0.11549598109E+04  0.10100000352E+00 0. -1.
</event>
<event>
 5   0  0.3480134E-06  0.2099994E+04  0.7818609E-02  0.8561246E-01
       -2   -1    0    0    0  501  0.00000000000E+00  0.00000000000E+00  0.60089199628E+03  0.60089199629E+03  0.25500000920E-02 0. -1.
        2   -1    0    0  501    0  0.00000000000E+00  0.00000000000E+00 -0.18347614321E+04  0.18347614321E+04  0.25500000920E-02 0.  1.
    10030    2    1    2    0    0  0.00000000000E+00  0.00000000000E+00 -0.12338694358E+04  0.24356534284E+04  0.20999937711E+04 0.  0.
        1    1    3    3  502    0  0.52720054516E+02 -0.79156974304E+03 -0.14147243173E+04  0.16219762502E+04  0.50400001928E-02 0.  1.
       -1    1    3    3    0  502 -0.52720054516E+02  0.79156974304E+03  0.18085488142E+03  0.81367717825E+03  0.50400001928E-02 0. -1.
</event>
<event>
 5   0  0.1646510E-06  0.2100058E+04  0.7818609E-02  0.8561218E-01
        1   -1    0    0  501    0  0.00000000000E+00  0.00000000000E+00  0.13661926475E+04  0.13661926475E+04  0.50400001928E-02 0.  1.
       -1   -1    0    0    0  501  0.00000000000E+00  0.00000000000E+00 -0.80703147844E+03  0.80703147845E+03  0.50400001928E-02 0. -1.
    10030    2    1    2    0    0  0.00000000000E+00  0.00000000000E+00  0.55916116901E+03  0.21732241259E+04  0.21000575917E+04 0.  0.
        4    1    3    3  502    0  0.10109861692E+04  0.25264780070E+03  0.14611060659E+03  0.10522708149E+04  0.12699999809E+01 0. -1.
       -4    1    3    3    0  502 -0.10109861692E+04 -0.25264780070E+03  0.41305056242E+03  0.11209533111E+04  0.12699999809E+01 0.  1.
</event>
<event>
 5   0  0.1646510E-06  0.2099009E+04  0.7818609E-02  0.8561680E-01
       -1   -1    0    0    0  501  0.00000000000E+00  0.00000000000E+00  0.89790248369E+03  0.89790248370E+03  0.50400001928E-02 0.  1.
        1   -1    0    0  501    0  0.00000000000E+00  0.00000000000E+00 -0.12267026637E+04  0.12267026637E+04  0.50400001928E-02 0. -1.
    10030    2    1    2    0    0  0.00000000000E+00  0.00000000000E+00 -0.32880017997E+03  0.21246051474E+04  0.20990086884E+04 0.  0.
        4    1    3    3  502    0  0.27666073118E+03  0.60392595555E+03  0.65802902343E+03  0.93502488124E+03  0.12699999809E+01 0.  1.
       -4    1    3    3    0  502 -0.27666073118E+03 -0.60392595555E+03 -0.98682920340E+03  0.11895802661E+04  0.12699999809E+01 0. -1.
</event>
<event>
 5   0  0.1590067E-06  0.2100680E+04  0.7818609E-02  0.8560944E-01
        1   -1    0    0  501    0  0.00000000000E+00  0.00000000000E+00  0.77320160485E+03  0.77320160487E+03  0.50400001928E-02 0.  1.
       -1   -1    0    0    0  501  0.00000000000E+00  0.00000000000E+00 -0.14268130263E+04  0.14268130263E+04  0.50400001928E-02 0. -1.
    10030    2    1    2    0    0  0.00000000000E+00  0.00000000000E+00 -0.65361142148E+03  0.22000146312E+04  0.21006800059E+04 0.  0.
        5    1    3    3  502    0  0.63049062136E+03 -0.50133901027E+03 -0.10327212064E+04  0.13097306620E+04  0.46999998093E+01 0. -1.
       -5    1    3    3    0  502 -0.63049062136E+03  0.50133901027E+03  0.37910978491E+03  0.89028396922E+03  0.46999998093E+01 0.  1.
</event>
<event>
 5   0  0.3547583E-06  0.2100948E+04  0.7818609E-02  0.8560826E-01
        2   -1    0    0  501    0  0.00000000000E+00  0.00000000000E+00  0.15670258284E+04  0.15670258284E+04  0.25500000920E-02 0. -1.
       -2   -1    0    0    0  501  0.00000000000E+00  0.00000000000E+00 -0.70419767475E+03  0.70419767475E+03  0.25500000920E-02 0.  1.
    10030    2    1    2    0    0  0.00000000000E+00  0.00000000000E+00  0.86282815368E+03  0.22712235032E+04  0.21009483046E+04 0.  0.
        2    1    3    3  502    0  0.85982773492E+03 -0.16523922434E+03  0.10588760535E+04  0.13739818891E+04  0.25500000920E-02 0. -1.
       -2    1    3    3    0  502 -0.85982773492E+03  0.16523922434E+03 -0.19604789979E+03  0.89724161407E+03  0.25500000920E-02 0.  1.
</event>
<event>
 5   0  0.3636435E-06  0.2099914E+04  0.7818609E-02  0.8561281E-01
        2   -1    0    0  501    0  0.00000000000E+00  0.00000000000E+00  0.14655932328E+04  0.14655932328E+04  0.25500000920E-02 0.  1.
       -2   -1    0    0    0  501  0.00000000000E+00  0.00000000000E+00 -0.75219360518E+03  0.75219360518E+03  0.25500000920E-02 0. -1.
    10030    2    1    2    0    0  0.00000000000E+00  0.00000000000E+00  0.71339962759E+03  0.22177868380E+04  0.20999141482E+04 0.  0.
        4    1    3    3  502    0  0.75999816720E+03 -0.42494410995E+03 -0.26294789718E+03  0.90957018435E+03  0.12699999809E+01 0. -1.
       -4    1    3    3    0  502 -0.75999816720E+03  0.42494410995E+03  0.97634752477E+03  0.13082166536E+04  0.12699999809E+01 0.  1.
</event>
<event>
 5   0  0.3705828E-06  0.2099279E+04  0.7818609E-02  0.8561561E-01
        2   -1    0    0  501    0  0.00000000000E+00  0.00000000000E+00  0.81864764002E+03  0.81864764002E+03  0.25500000920E-02 0.  1.
       -2   -1    0    0    0  501  0.00000000000E+00  0.00000000000E+00 -0.13458091282E+04  0.13458091282E+04  0.25500000920E-02 0. -1.
    10030    2    1    2    0    0  0.00000000000E+00  0.00000000000E+00 -0.52716148820E+03  0.21644567682E+04  0.20992793685E+04 0.  0.
        5    1    3    3  502    0  0.35740885812E+03 -0.90128314091E+03  0.15098368337E+03  0.98125967745E+03  0.46999998093E+01 0.  1.
       -5    1    3    3    0  502 -0.35740885812E+03  0.90128314091E+03 -0.67814517156E+03  0.11831970908E+04  0.46999998093E+01 0. -1.
</event>
<event>
 5   0  0.3574927E-06  0.2099663E+04  0.7818609E-02  0.8561392E-01
        2   -1    0    0  501    0  0.00000000000E+00  0.00000000000E+00  0.15705875755E+04  0.15705875755E+04  0.25500000920E-02 0.  1.
       -2   -1    0    0    0  501  0.00000000000E+00  0.00000000000E+00 -0.70174131633E+03  0.70174131634E+03  0.25500000920E-02 0. -1.
    10030    2    1    2    0    0  0.00000000000E+00  0.00000000000E+00  0.86884625914E+03  0.22723288918E+04  0.20996630136E+04 0.  0.
        3    1    3    3  502    0  0.62736501701E+03  0.81937594917E+03  0.64310760255E+03  0.12159569110E+04  0.10100000352E+00 0.  1.
       -3    1    3    3    0  502 -0.62736501701E+03 -0.81937594917E+03  0.22573865658E+03  0.10563719809E+04  0.10100000352E+00 0. -1.
</event>
<event>
 5   0  0.3705828E-06  0.2100324E+04  0.7818609E-02  0.8561101E-01
        2   -1    0    0  501    0  0.00000000000E+00  0.00000000000E+00  0.16006028731E+04  0.16006028731E+04  0.25500000920E-02 0. -1.
       -2   -1    0    0    0  501  0.00000000000E+00  0.00000000000E+00 -0.68901576031E+03  0.68901576031E+03  0.25500000920E-02 0.  1.
    10030    2    1    2    0    0  0.00000000000E+00  0.00000000000E+00  0.91158711282E+03  0.22896186334E+04  0.21003243612E+04 0.  0.
        5    1    3    3  502    0 -0.14188166704E+03  0.11057053370E+03 -0.67208531852E+03  0.69575643420E+03  0.46999998093E+01 0.  1.
       -5    1    3    3    0  502  0.14188166704E+03 -0.11057053370E+03  0.15836724313E+04  0.15938621992E+04  0.46999998093E+01 0. -1.
</event>
<event>
 5   0  0.3547583E-06  0.2099787E+04  0.7818609E-02  0.8561337E-01
       -2   -1    0    0    0  501  0.00000000000E+00  0.00000000000E+00  0.66574602702E+03  0.66574602702E+03  0.25500000920E-02 0.  1.
        2   -1    0    0  501    0  0.00000000000E+00  0.00000000000E+00 -0.16557003166E+04  0.16557003166E+04  0.25500000920E-02 0. -1.
    10030    2    1    2    0    0  0.00000000000E+00  0.00000000000E+00 -0.98995428962E+03  0.23214463437E+04  0.20997865679E+04 0.  0.
        2    1    3    3  502    0  0.50384449034E+03  0.81594448250E+03 -0.22484765975E+02  0.95923419125E+03  0.25500000920E-02 0.  1.
       -2    1    3    3    0  502 -0.50384449034E+03 -0.81594448250E+03 -0.96746952364E+03  0.13622121524E+04  0.25500000920E-02 0. -1.
</event>
<event>
 5   0  0.1615098E-06  0.2099478E+04  0.7818609E-02  0.8561473E-01
        1   -1    0    0  501    0  0.00000000000E+00  0.00000000000E+00  0.15502178308E+04  0.15502178308E+04  0.50400001928E-02 0. -1.
       -1   -1    0    0    0  501  0.00000000000E+00  0.00000000000E+00 -0.71083703779E+03  0.71083703781E+03  0.50400001928E-02 0.  1.
    10030    2    1    2    0    0  0.00000000000E+00  0.00000000000E+00  0.83938079304E+03  0.22610548687E+04  0.20994782693E+04 0.  0.
        1    1    3    3  502    0 -0.69020548867E+02  0.30190643878E+03 -0.66051797767E+03  0.72951719156E+03  0.50400001928E-02 0.  1.
       -1    1    3    3    0  502  0.69020548867E+02 -0.30190643878E+03  0.14998987707E+04  0.15315376771E+04  0.50400001928E-02 0. -1.
</event>
<event>
 5   0  0.1646510E-06  0.2100485E+04  0.7818609E-02  0.8561030E-01
        1   -1    0    0  501    0  0.00000000000E+00  0.00000000000E+00  0.14487211102E+04  0.14487211102E+04  0.50400001928E-02 0. -1.
       -1   -1    0    0    0  501  0.00000000000E+00  0.00000000000E+00 -0.76136736699E+03  0.76136736701E+03  0.50400001928E-02 0.  1.
    10030    2    1    2    0    0  0.00000000000E+00  0.00000000000E+00  0.68735374320E+03  0.22100884772E+04  0.21004846843E+04 0.  0.
        4    1    3    3  502    0 -0.74297342436E+02  0.81950627749E+03  0.10303377331E+04  0.13186008081E+04  0.12699999809E+01 0. -1.
       -4    1    3    3    0  502  0.74297342436E+02 -0.81950627749E+03 -0.34298398991E+03  0.89148766911E+03  0.12699999809E+01 0.  1.
</event>
<event>
 5   0  0.3636435E-06  0.2099874E+04  0.7818609E-02  0.8561299E-01
       -2   -1    0    0    0  501  0.00000000000E+00  0.00000000000E+00  0.14188864096E+04  0.14188864096E+04  0.25500000920E-02 0.  1.
        2   -1    0    0  501    0  0.00000000000E+00  0.00000000000E+00 -0.77692469210E+03  0.77692469210E+03  0.25500000920E-02 0. -1.
    10030    2    1    2    0    0  0.00000000000E+00  0.00000000000E+00  0.64196171755E+03  0.21958111018E+04  0.20998741743E+04 0.  0.
        4    1    3    3  502    0 -0.27533100797E+03 -0.90400824240E+03 -0.15744603179E+03  0.95803388881E+03  0.12699999809E+01 0. -1.
       -4    1    3    3    0  502  0.27533100797E+03  0.90400824240E+03  0.79940774934E+03  0.12377772129E+04  0.12699999809E+01 0.  1.
</event>
<event>
 5   0  0.3636435E-06  0.2098128E+04  0.7818609E-02  0.8562068E-01
        2   -1    0    0  501    0  0.00000000000E+00  0.00000000000E+00  0.12988441224E+04  0.12988441224E+04  0.25500000920E-02 0. -1.
       -2   -1    0    0    0  501  0.00000000000E+00  0.00000000000E+00 -0.84731927368E+03  0.84731927368E+03  0.25500000920E-02 0.  1.
    10030    2    1    2    0    0  0.00000000000E+00  0.00000000000E+00  0.45152484875E+03  0.21461633961E+04  0.20981283645E+04 0.  0.
        4    1    3    3  502    0  0.68483589411E+03  0.59345009354E+03 -0.31487450977E+03  0.95933872287E+03  0.12699999809E+01 0.  1.
       -4    1    3    3    0  502 -0.68483589411E+03 -0.59345009354E+03  0.76639935853E+03  0.11868246733E+04  0.12699999809E+01 0. -1.
</event>
<event>
 5   0  0.1579820E-06  0.2100871E+04  0.7818609E-02  0.8560860E-01
       -1   -1    0    0    0  501  0.00000000000E+00  0.00000000000E+00  0.10983432738E+04  0.10983432738E+04  0.50400001928E-02 0.  1.
        1   -1    0    0  501    0  0.00000000000E+00  0.00000000000E+00 -0.10046174321E+04  0.10046174321E+04  0.50400001928E-02 0. -1.
    10030    2    1    2    0    0  0.00000000000E+00  0.00000000000E+00  0.93725841692E+02  0.21029607059E+04  0.21008710568E+04 0.  0.
        2    1    3    3  502    0 -0.95399006223E+03 -0.43357856639E+03 -0.26198630950E+02  0.10482241079E+04  0.25500000920E-02 0. -1.
       -2    1    3    3    0  502  0.95399006223E+03  0.43357856639E+03  0.11992447264E+03  0.10547365980E+04  0.25500000920E-02 0.  1.
</event>
<event>
 5   0  0.1579820E-06  0.2100194E+04  0.7818609E-02  0.8561158E-01
        1   -1    0    0  501    0  0.00000000000E+00  0.00000000000E+00  0.13427372736E+04  0.13427372736E+04  0.50400001928E-02 0. -1.
       -1   -1    0    0    0  501  0.00000000000E+00  0.00000000000E+00 -0.82123560906E+03  0.82123560907E+03  0.50400001928E-02 0.  1.
    10030    2    1    2    0    0  0.00000000000E+00  0.00000000000E+00  0.52150166457E+03  0.21639728827E+04  0.21001939556E+04 0.  0.
        2    1    3    3  502    0 -0.33228231112E+03 -0.24991392280E+03 -0.73281212624E+03  0.84254502281E+03  0.25500000920E-02 0.  1.
       -2    1    3    3    0  502  0.33228231112E+03  0.24991392280E+03  0.12543137908E+04  0.13214278599E+04  0.25500000920E-02 0. -1.
</event>
<event>
 5   0  0.3547583E-06  0.2100873E+04  0.7818609E-02  0.8560859E-01
        2   -1    0    0  501    0  0.00000000000E+00  0.00000000000E+00  0.21226862330E+04  0.21226862330E+04  0.25500000920E-02 0. -1.
       -2   -1    0    0    0  501  0.00000000000E+00  0.00000000000E+00 -0.51982080061E+03  0.51982080061E+03  0.25500000920E-02 0.  1.
    10030    2    1    2    0    0  0.00000000000E+00  0.00000000000E+00  0.16028654323E+04  0.26425070336E+04  0.21008726349E+04 0.  0.
        2    1    3    3  502    0 -0.86364163421E+03  0.58374845365E+03  0.63851143375E+03  0.12224303581E+04  0.25500000920E-02 0.  1.
       -2    1    3    3    0  502  0.86364163421E+03 -0.58374845365E+03  0.96435399860E+03  0.14200766754E+04  0.25500000920E-02 0. -1.
</event>
<event>
 5   0  0.3574927E-06  0.2099930E+04  0.7818609E-02  0.8561274E-01
       -2   -1    0    0    0  501  0.00000000000E+00  0.00000000000E+00  0.94659450605E+03  0.94659450606E+03  0.25500000920E-02 0. -1.
        2   -1    0    0  501    0  0.00000000000E+00  0.00000000000E+00 -0.11646238821E+04  0.11646238821E+04  0.25500000920E-02 0.  1.
    10030    2    1    2    0    0  0.00000000000E+00  0.00000000000E+00 -0.21802937606E+03  0.21112183882E+04  0.20999300640E+04 0.  0.
        3    1    3    3  502    0  0.85499854040E+03 -0.42666945189E+03 -0.54650584389E+03  0.11007897042E+04  0.10100000352E+00 0.  1.
       -3    1    3    3    0  502 -0.85499854040E+03  0.42666945189E+03  0.32847646783E+03  0.10104286840E+04  0.10100000352E+00 0. -1.
</event>
<event>
 5   0  0.3547583E-06  0.2100847E+04  0.7818609E-02  0.8560870E-01
       -2   -1    0    0    0  501  0.00000000000E+00  0.00000000000E+00  0.75106796125E+03  0.75106796125E+03  0.25500000920E-02 0. -1.
        2   -1    0    0  501    0  0.00000000000E+00  0.00000000000E+00 -0.14690945308E+04  0.14690945308E+04  0.25500000920E-02 0.  1.
    10030    2    1    2    0    0  0.00000000000E+00  0.00000000000E+00 -0.71802656958E+03  0.22201624921E+04  0.21008472902E+04 0.  0.
        2    1    3    3  502    0  0.56311163770E+03 -0.88672931379E+03 -0.36165351404E+03  0.11109351271E+04  0.25500000920E-02 0. -1.
       -2    1    3    3    0  502 -0.56311163770E+03  0.88672931379E+03 -0.35637305554E+03  0.11092273650E+04  0.25500000920E-02 0.  1.
</event>
<event>
 5   0  0.3480134E-06  0.2100240E+04  0.7818609E-02  0.8561138E-01
       -2   -1    0    0    0  501  0.00000000000E+00  0.00000000000E+00  0.12207395196E+04  0.12207395196E+04  0.25500000920E-02 0. -1.
        2   -1    0    0  501    0  0.00000000000E+00  0.00000000000E+00 -0.90334743999E+03  0.90334743999E+03  0.25500000920E-02 0.  1.
    10030    2    1    2    0    0  0.00000000000E+00  0.00000000000E+00  0.31739207959E+03  0.21240869596E+04  0.21002399100E+04 0.  0.
        1    1    3    3  502    0 -0.13324915146E+03  0.34842528460E+03  0.11514713573E+04  0.12103891119E+04  0.50400001928E-02 0. -1.
       -1    1    3    3    0  502  0.13324915146E+03 -0.34842528460E+03 -0.83407927775E+03  0.91369784771E+03  0.50400001928E-02 0.  1.
</event>
<event>
 5   0  0.1590067E-06  0.2098632E+04  0.7818609E-02  0.8561846E-01
        1   -1    0    0  501    0  0.00000000000E+00  0.00000000000E+00  0.13728869229E+04  0.13728869229E+04  0.50400001928E-02 0. -1.
       -1   -1    0    0    0  501  0.00000000000E+00  0.00000000000E+00 -0.80200654832E+03  0.80200654834E+03  0.50400001928E-02 0.  1.
    10030    2    1    2    0    0  0.00000000000E+00  0.00000000000E+00  0.57088037457E+03  0.21748934712E+04  0.20986322234E+04 0.  0.
        5    1    3    3  502    0 -0.86758145759E+03 -0.20164025992E+03  0.86029133427E+03  0.12383374539E+04  0.46999998093E+01 0. -1.
       -5    1    3    3    0  502  0.86758145759E+03  0.20164025992E+03 -0.28941095971E+03  0.93655601732E+03  0.46999998093E+01 0.  1.
</event>
<event>
 5   0  0.3705828E-06  0.2100216E+04  0.7818609E-02  0.8561148E-01
       -2   -1    0    0    0  501  0.00000000000E+00  0.00000000000E+00  0.69748705464E+03  0.69748705465E+03  0.25500000920E-02 0. -1.
        2   -1    0    0  501    0  0.00000000000E+00  0.00000000000E+00 -0.15809995836E+04  0.15809995836E+04  0.25500000920E-02 0.  1.
    10030    2    1    2    0    0  0.00000000000E+00  0.00000000000E+00 -0.88351252900E+03  0.22784866383E+04  0.21002159346E+04 0.  0.
        5    1    3    3  502    0  0.86448587149E+03  0.39410898319E+02 -0.10870701840E+04  0.13894720997E+04  0.46999998093E+01 0.  1.
       -5    1    3    3    0  502 -0.86448587149E+03 -0.39410898319E+02  0.20355765500E+03  0.88901453859E+03  0.46999998093E+01 0. -1.
</event>
<event>
 5   0  0.3636435E-06  0.2100324E+04  0.7818609E-02  0.8561100E-01
       -2   -1    0    0    0  501  0.00000000000E+00  0.00000000000E+00  0.60421637194E+03  0.60421637194E+03  0.25500000920E-02 0.  1.
        2   -1    0    0  501    0  0.00000000000E+00  0.00000000000E+00 -0.18252412799E+04  0.18252412799E+04  0.25500000920E-02 0. -1.
    10030    2    1    2    0    0  0.00000000000E+00  0.00000000000E+00 -0.12210249079E+04  0.24294576518E+04  0.21003244169E+04 0.  0.
        4    1    3    3  502    0  0.83860374646E+03 -0.20679186307E+03 -0.13014638611E+04  0.15619951706E+04  0.12699999809E+01 0.  1.
       -4    1    3    3    0  502 -0.83860374646E+03  0.20679186307E+03  0.80438953225E+02  0.86746248121E+03  0.12699999809E+01 0. -1.
</event>
<event>
 5   0  0.3547583E-06  0.2099474E+04  0.7818609E-02  0.8561475E-01
        2   -1    0    0  501    0  0.00000000000E+00  0.00000000000E+00  0.11549990742E+04  0.11549990742E+04  0.25500000920E-02 0. -1.
       -2   -1    0    0    0  501  0.00000000000E+00  0.00000000000E+00 -0.95406809142E+03  0.95406809143E+03  0.25500000920E-02 0.  1.
    10030    2    1    2    0    0  0.00000000000E+00  0.00000000000E+00  0.20093098279E+03  0.21090671656E+04  0.20994739935E+04 0.  0.
        2    1    3    3  502    0  0.26922129825E+01  0.10495708926E+04  0.81902535355E+02  0.10527650886E+04  0.25500000920E-02 0. -1.
       -2    1    3    3    0  502 -0.26922129825E+01 -0.10495708926E+04  0.11902844744E+03  0.10563020770E+04  0.25500000920E-02 0.  1.
</event>
<event>
 5   0  0.1653260E-06  0.2100601E+04  0.7818609E-02  0.8560979E-01
       -1   -1    0    0    0  501  0.00000000000E+00  0.00000000000E+00  0.11105255345E+04  0.11105255345E+04  0.50400001928E-02 0.  1.
        1   -1    0    0  501    0  0.00000000000E+00  0.00000000000E+00 -0.99334168490E+03  0.99334168491E+03  0.50400001928E-02 0. -1.
    10030    2    1    2    0    0  0.00000000000E+00  0.00000000000E+00  0.11718384958E+03  0.21038672194E+04  0.21006011574E+04 0.  0.
        3    1    3    3  502    0  0.71140716014E+03 -0.47346563324E+03  0.67016515029E+03  0.10859977865E+04  0.10100000352E+00 0.  1.
       -3    1    3    3    0  502 -0.71140716014E+03  0.47346563324E+03 -0.55298130070E+03  0.10178694329E+04  0.10100000352E+00 0. -1.
</event>
<event>
 5   0  0.1590067E-06  0.2100188E+04  0.7818609E-02  0.8561161E-01
        1   -1    0    0  501    0  0.00000000000E+00  0.00000000000E+00  0.71849457226E+03  0.71849457228E+03  0.50400001928E-02 0.  1.
       -1   -1    0    0    0  501  0.00000000000E+00  0.00000000000E+00 -0.15347329371E+04  0.15347329371E+04  0.50400001928E-02 0. -1.
    10030    2    1    2    0    0  0.00000000000E+00  0.00000000000E+00 -0.81623836485E+03  0.22532275094E+04  0.21001878823E+04 0.  0.
        5    1    3    3  502    0 -0.42119005046E+03 -0.91994163428E+03 -0.70963469234E+03  0.12358386447E+04  0.46999998093E+01 0.  1.
       -5    1    3    3    0  502  0.42119005046E+03  0.91994163428E+03 -0.10660367251E+03  0.10173888647E+04  0.46999998093E+01 0. -1.
</event>
<event>
 5   0  0.3480134E-06  0.2097695E+04  0.7818609E-02  0.8562259E-01
       -2   -1    0    0    0  501  0.00000000000E+00  0.00000000000E+00  0.11750730167E+04  0.11750730167E+04  0.25500000920E-02 0.  1.
        2   -1    0    0  501    0  0.00000000000E+00  0.00000000000E+00 -0.93618140952E+03  0.93618140952E+03  0.25500000920E-02 0. -1.
    10030    2    1    2    0    0  0.00000000000E+00  0.00000000000E+00  0.23889160715E+03  0.21112544262E+04  0.20976954145E+04 0.  0.
        1    1    3    3  502    0  0.40832104922E+03 -0.65438236373E+03  0.83477122809E+03  0.11365673585E+04  0.50400001928E-02 0.  1.
       -1    1    3    3    0  502 -0.40832104922E+03  0.65438236373E+03 -0.59587962094E+03  0.97468706767E+03  0.50400001928E-02 0. -1.
</event>
<event>
 5   0  0.3705828E-06  0.2099753E+04  0.7818609E-02  0.8561352E-01
        2   -1    0    0  501    0  0.00000000000E+00  0.00000000000E+00  0.11154693303E+04  0.11154693303E+04  0.25500000920E-02 0.  1.
       -2   -1    0    0    0  501  0.00000000000E+00  0.00000000000E+00 -0.98814085105E+03  0.98814085105E+03  0.25500000920E-02 0. -1.
    10030    2    1    2    0    0  0.00000000000E+00  0.00000000000E+00  0.12732847928E+03  0.21036101814E+04  0.20997531411E+04 0.  0.
        5    1    3    3  502    0  0.24003356009E+03 -0.10185927425E+04  0.14791055323E+03  0.10569043981E+04  0.46999998093E+01 0.  1.
       -5    1    3    3    0  502 -0.24003356009E+03  0.10185927425E+04 -0.20582073947E+02  0.10467057833E+04  0.46999998093E+01 0. -1.
</event>
<event>
 5   0  0.3705828E-06  0.2100391E+04  0.7818609E-02  0.8561071E-01
        2   -1    0    0  501    0  0.00000000000E+00  0.00000000000E+00  0.18178884416E+04  0.18178884416E+04  0.25500000920E-02 0. -1.
       -2   -1    0    0    0  501  0.00000000000E+00  0.00000000000E+00 -0.60669862314E+03  0.60669862315E+03  0.25500000920E-02 0.  1.
    10030    2    1    2    0    0  0.00000000000E+00  0.00000000000E+00  0.12111898184E+04  0.24245870647E+04  0.21003908346E+04 0.  0.
        5    1    3    3  502    0 -0.44786688531E+03 -0.20247983213E+03  0.16769076710E+04  0.17474622331E+04  0.46999998093E+01 0. -1.
       -5    1    3    3    0  502  0.44786688531E+03  0.20247983213E+03 -0.46571785252E+03  0.67712483157E+03  0.46999998093E+01 0.  1.
</event>
<event>
 5   0  0.1646510E-06  0.2100187E+04  0.7818609E-02  0.8561161E-01
       -1   -1    0    0    0  501  0.00000000000E+00  0.00000000000E+00  0.26339588301E+04  0.26339588301E+04  0.50400001928E-02 0.  1.
        1   -1    0    0  501    0  0.00000000000E+00  0.00000000000E+00 -0.41864603153E+03  0.41864603156E+03  0.50400001928E-02 0. -1.
    10030    2    1    2    0    0  0.00000000000E+00  0.00000000000E+00  0.22153127986E+04  0.30526048617E+04  0.21001870502E+04 0.  0.
        4    1    3    3  502    0 -0.56886595833E+03  0.73864890269E+03  0.40532628874E+03  0.10166128532E+04  0.12699999809E+01 0. -1.
       -4    1    3    3    0  502  0.56886595833E+03 -0.73864890269E+03  0.18099865099E+04  0.20359920085E+04  0.12699999809E+01 0.  1.
</event>
<event>
 5   0  0.1646510E-06  0.2101074E+04  0.7818609E-02  0.8560770E-01
        1   -1    0    0  501    0  0.00000000000E+00  0.00000000000E+00  0.10546923764E+04  0.10546923765E+04  0.50400001928E-02 0.  1.
       -1   -1    0    0    0  501  0.00000000000E+00  0.00000000000E+00 -0.10463982394E+04  0.10463982394E+04  0.50400001928E-02 0. -1.
    10030    2    1    2    0    0  0.00000000000E+00  0.00000000000E+00  0.82941370040E+01  0.21010906159E+04  0.21010742451E+04 0.  0.
        4    1    3    3  502    0 -0.38644603768E+03  0.54157755196E+03 -0.80886593779E+03  0.10473359075E+04  0.12699999809E+01 0. -1.
       -4    1    3    3    0  502  0.38644603768E+03 -0.54157755196E+03  0.81716007480E+03  0.10537547084E+04  0.12699999809E+01 0.  1.
</event>
<event>
 5   0  0.1579820E-06  0.2099683E+04  0.7818609E-02  0.8561383E-01
        1   -1    0    0  501    0  0.00000000000E+00  0.00000000000E+00  0.14567636995E+04  0.14567636995E+04  0.50400001928E-02 0. -1.
       -1   -1    0    0    0  501  0.00000000000E+00  0.00000000000E+00 -0.75658629129E+03  0.75658629131E+03  0.50400001928E-02 0.  1.
    10030    2    1    2    0    0  0.00000000000E+00  0.00000000000E+00  0.70017740818E+03  0.22133499908E+04  0.20996832568E+04 0.  0.
        2    1    3    3  502    0  0.85169495942E+02 -0.85399812049E+03  0.98747083490E+03  0.13083062648E+04  0.25500000920E-02 0. -1.
       -2    1    3    3    0  502 -0.85169495942E+02  0.85399812049E+03 -0.28729342672E+03  0.90504372595E+03  0.25500000920E-02 0.  1.
</event>
<event>
 5   0  0.3480134E-06  0.2101501E+04  0.7818609E-02  0.8560582E-01
        2   -1    0    0  501    0  0.00000000000E+00  0.00000000000E+00  0.14657066112E+04  0.14657066112E+04  0.25500000920E-02 0.  1.
       -2   -1    0    0    0  501  0.00000000000E+00  0.00000000000E+00 -0.75327254029E+03  0.75327254030E+03  0.25500000920E-02 0. -1.
    10030    2    1    2    0    0  0.00000000000E+00  0.00000000000E+00  0.71243407090E+03  0.22189791515E+04  0.21015009325E+04 0.  0.
        1    1    3    3  502    0  0.33492559247E+03 -0.43337663019E+03  0.13030533545E+04  0.14134845244E+04  0.50400001928E-02 0.  1.
       -1    1    3    3    0  502 -0.33492559247E+03  0.43337663019E+03 -0.59061928359E+03  0.80549462708E+03  0.50400001928E-02 0. -1.
</event>
<event>
 5   0  0.3705828E-06  0.2100256E+04  0.7818609E-02  0.8561131E-01
       -2   -1    0    0    0  501  0.00000000000E+00  0.00000000000E+00  0.10750315864E+04  0.10750315864E+04  0.25500000920E-02 0.  1.
        2   -1    0    0  501    0  0.00000000000E+00  0.00000000000E+00 -0.10258008476E+04  0.10258008476E+04  0.25500000920E-02 0. -1.
    10030    2    1    2    0    0  0.00000000000E+00  0.00000000000E+00  0.49230738822E+02  0.21008324340E+04  0.21002555202E+04 0.  0.
        5    1    3    3  502    0 -0.62741571066E+03  0.37768589611E+03  0.77745024379E+03  0.10680580891E+04  0.46999998093E+01 0. -1.
       -5    1    3    3    0  502  0.62741571066E+03 -0.37768589611E+03 -0.72821950497E+03  0.10327743449E+04  0.46999998093E+01 0.  1.
</event>
<event>
 5   0  0.3574927E-06  0.2100349E+04  0.7818609E-02  0.8561090E-01
       -2   -1    0    0    0  501  0.00000000000E+00  0.00000000000E+00  0.66941756441E+03  0.66941756442E+03  0.25500000920E-02 0. -1.
        2   -1    0    0  501    0  0.00000000000E+00  0.00000000000E+00 -0.16475015110E+04  0.16475015110E+04  0.25500000920E-02 0.  1.
    10030    2    1    2    0    0  0.00000000000E+00  0.00000000000E+00 -0.97808394655E+03  0.23169190754E+04  0.21003489699E+04 0.  0.
        3    1    3    3  502    0  0.52255351062E+02 -0.49850025360E+03 -0.15070371678E+04  0.15882046971E+04  0.10100000352E+00 0.  1.
       -3    1    3    3    0  502 -0.52255351062E+02  0.49850025360E+03  0.52895322128E+03  0.72871437825E+03  0.10100000352E+00 0. -1.
</event>
<event>
 5   0  0.1646510E-06  0.2099345E+04  0.7818609E-02  0.8561532E-01
        1   -1    0    0  501    0  0.00000000000E+00  0.00000000000E+00  0.23682536646E+04  0.23682536646E+04  0.50400001928E-02 0.  1.
       -1   -1    0    0    0  501  0.00000000000E+00  0.00000000000E+00 -0.46524241698E+03  0.46524241701E+03  0.50400001928E-02 0. -1.
    10030    2    1    2    0    0  0.00000000000E+00  0.00000000000E+00  0.19030112477E+04  0.28334960816E+04  0.20993447159E+04 0.  0.
        4    1    3    3  502    0  0.34888237924E+03  0.98922736636E+03  0.89887146837E+03  0.13813982867E+04  0.12699999809E+01 0.  1.
       -4    1    3    3    0  502 -0.34888237924E+03 -0.98922736636E+03  0.10041397793E+04  0.14520977950E+04  0.12699999809E+01 0. -1.
</event>
<event>
 5   0  0.3480134E-06  0.2098633E+04  0.7818609E-02  0.8561846E-01
        2   -1    0    0  501    0  0.00000000000E+00  0.00000000000E+00  0.81175245267E+03  0.81175245267E+03  0.25500000920E-02 0. -1.
       -2   -1    0    0    0  501  0.00000000000E+00  0.00000000000E+00 -0.13564048414E+04  0.13564048414E+04  0.25500000920E-02 0.  1.
    10030    2    1    2    0    0  0.00000000000E+00  0.00000000000E+00 -0.54465238876E+03  0.21681572941E+04  0.20986328472E+04 0.  0.
        1    1    3    3  502    0  0.49133840177E+03 -0.27453651898E+03 -0.11872611723E+04  0.13139150720E+04  0.50400001928E-02 0.  1.
       -1    1    3    3    0  502 -0.49133840177E+03  0.27453651898E+03  0.64260878350E+03  0.85424222207E+03  0.50400001928E-02 0. -1.
</event>
<event>
 5   0  0.1646510E-06  0.2101102E+04  0.7818609E-02  0.8560758E-01
       -1   -1    0    0    0  501  0.00000000000E+00  0.00000000000E+00  0.12779641062E+04  0.12779641063E+04  0.50400001928E-02 0.  1.
        1   -1    0    0  501    0  0.00000000000E+00  0.00000000000E+00 -0.86360603302E+03  0.86360603303E+03  0.50400001928E-02 0. -1.
    10030    2    1    2    0    0  0.00000000000E+00  0.00000000000E+00  0.41435807322E+03  0.21415701393E+04  0.21011021033E+04 0.  0.
        4    1    3    3  502    0  0.66434158758E+03  0.64376791088E+03  0.71463256883E+03  0.11689688573E+04  0.12699999809E+01 0.  1.
       -4    1    3    3    0  502 -0.66434158758E+03 -0.64376791088E+03 -0.30027449561E+03  0.97260128196E+03  0.12699999809E+01 0. -1.
</event>
<event>
 5   0  0.3574927E-06  0.2099067E+04  0.7818609E-02  0.8561655E-01
       -2   -1    0    0    0  501  0.00000000000E+00  0.00000000000E+00  0.86563805393E+03  0.86563805393E+03  0.25500000920E-02 0. -1.
        2   -1    0    0  501    0  0.00000000000E+00  0.00000000000E+00 -0.12724954545E+04  0.12724954545E+04  0.25500000920E-02 0.  1.
    10030    2    1    2    0    0  0.00000000000E+00  0.00000000000E+00 -0.40685740060E+03  0.21381335085E+04  0.20990669250E+04 0.  0.
        3    1    3    3  502    0  0.24071135699E+03 -0.87906440216E+03  0.32666463918E+03  0.96819728218E+03  0.10100000352E+00 0. -1.
       -3    1    3    3    0  502 -0.24071135699E+03  0.87906440216E+03 -0.73352203978E+03  0.11699362263E+04  0.10100000352E+00 0.  1.
</event>
<event>
 5   0  0.3636435E-06  0.2098679E+04  0.7818609E-02  0.8561825E-01
       -2   -1    0    0    0  501  0.00000000000E+00  0.00000000000E+00  0.66581246050E+03  0.66581246051E+03  0.25500000920E-02 0. -1.
        2   -1    0    0  501    0  0.00000000000E+00  0.00000000000E+00 -0.16537893094E+04  0.16537893094E+04  0.25500000920E-02 0.  1.
    10030    2    1    2    0    0  0.00000000000E+00  0.00000000000E+00 -0.98797684894E+03  0.23196017700E+04  0.20986791363E+04 0.  0.
        4    1    3    3  502    0 -0.82710518127E+03 -0.64553709915E+03 -0.47514080699E+03  0.11517732097E+04  0.12699999809E+01 0.  1.
       -4    1    3    3    0  502  0.82710518127E+03  0.64553709915E+03 -0.51283604194E+03  0.11678285602E+04  0.12699999809E+01 0. -1.
</event>
<event>
 5   0  0.1615098E-06  0.2102814E+04  0.7818609E-02  0.8560005E-01
        1   -1    0    0  501    0  0.00000000000E+00  0.00000000000E+00  0.12473964558E+04  0.12473964558E+04  0.50400001928E-02 0. -1.
       -1   -1    0    0    0  501  0.00000000000E+00  0.00000000000E+00 -0.88621127891E+03  0.88621127892E+03  0.50400001928E-02 0.  1.
    10030    2    1    2    0    0  0.00000000000E+00  0.00000000000E+00  0.36118517688E+03  0.21336077347E+04  0.21028141225E+04 0.  0.
        1    1    3    3  502    0  0.29266375221E+03  0.62217692338E+03  0.98766559012E+03  0.12034282337E+04  0.50400001928E-02 0. -1.
       -1    1    3    3    0  502 -0.29266375221E+03 -0.62217692338E+03 -0.62648041324E+03  0.93017950098E+03  0.50400001928E-02 0.  1.
</event>
<event>
 5   0  0.3480134E-06  0.2099032E+04  0.7818609E-02  0.8561670E-01
       -2   -1    0    0    0  501  0.00000000000E+00  0.00000000000E+00  0.10336619872E+04  0.10336619872E+04  0.25500000920E-02 0.  1.
        2   -1    0    0  501    0  0.00000000000E+00  0.00000000000E+00 -0.10656134374E+04  0.10656134374E+04  0.25500000920E-02 0. -1.
    10030    2    1    2    0    0  0.00000000000E+00  0.00000000000E+00 -0.31951450287E+02  0.20992754246E+04  0.20990322563E+04 0.  0.
        1    1    3    3  502    0 -0.39419105526E+03 -0.80890529935E+03  0.52424398717E+03  0.10414154452E+04  0.50400001928E-02 0.  1.
       -1    1    3    3    0  502  0.39419105526E+03  0.80890529935E+03 -0.55619543746E+03  0.10578599794E+04  0.50400001928E-02 0. -1.
</event>
<event>
 5   0  0.1590067E-06  0.2100323E+04  0.7818609E-02  0.8561101E-01
        1   -1    0    0  501    0  0.00000000000E+00  0.00000000000E+00  0.11623093537E+04  0.11623093537E+04  0.50400001928E-02 0.  1.
       -1   -1    0    0    0  501  0.00000000000E+00  0.00000000000E+00 -0.94883443944E+03  0.94883443946E+03  0.50400001928E-02 0. -1.
    10030    2    1    2    0    0  0.00000000000E+00  0.00000000000E+00  0.21347491421E+03  0.21111437931E+04  0.21003229695E+04 0.  0.
        5    1    3    3  502    0  0.81430727265E+03  0.64606356417E+03 -0.43439753055E+02  0.10403862578E+04  0.46999998093E+01 0. -1.
       -5    1    3    3    0  502 -0.81430727265E+03 -0.64606356417E+03  0.25691466727E+03  0.10707575353E+04  0.46999998093E+01 0.  1.
</event>
<event>
 5   0  0.1590067E-06  0.2100008E+04  0.7818609E-02  0.8561240E-01
        1   -1    0    0  501    0  0.00000000000E+00  0.00000000000E+00  0.11385116865E+04  0.11385116865E+04  0.50400001928E-02 0. -1.
       -1   -1    0    0    0  501  0.00000000000E+00  0.00000000000E+00 -0.96837693031E+03  0.96837693032E+03  0.50400001928E-02 0.  1.
    10030    2    1    2    0    0  0.00000000000E+00  0.00000000000E+00  0.17013475616E+03  0.21068886168E+04  0.21000080496E+04 0.  0.
        5    1    3    3  502    0  0.23100636798E+03  0.10208513097E+04  0.16891766559E+03  0.10602153584E+04  0.46999998093E+01 0. -1.
       -5    1    3    3    0  502 -0.23100636798E+03 -0.10208513097E+04  0.12170905709E+01  0.10466732584E+04  0.46999998093E+01 0.  1.
</event>
<event>
 5   0  0.1646510E-06  0.2113871E+04  0.7818609E-02  0.8555158E-01
        1   -1    0    0  501    0  0.00000000000E+00  0.00000000000E+00  0.96773191317E+03  0.96773191318E+03  0.50400001928E-02 0.  1.
       -1   -1    0    0    0  501  0.00000000000E+00  0.00000000000E+00 -0.11543612857E+04  0.11543612857E+04  0.50400001928E-02 0. -1.
    10030    2    1    2    0    0  0.00000000000E+00  0.00000000000E+00 -0.18662937249E+03  0.21220931989E+04  0.21138706256E+04 0.  0.
        4    1    3    3  502    0  0.15916509798E+03  0.52613186554E+03  0.81294952287E+03  0.98134438807E+03  0.12699999809E+01 0.  1.
       -4    1    3    3    0  502 -0.15916509798E+03 -0.52613186554E+03 -0.99957889537E+03  0.11407488108E+04  0.12699999809E+01 0. -1.
</event>
<event>
 5   0  0.1653260E-06  0.2099910E+04  0.7818609E-02  0.8561283E-01
        1   -1    0    0  501    0  0.00000000000E+00  0.00000000000E+00  0.10350048068E+04  0.10350048068E+04  0.50400001928E-02 0. -1.
       -1   -1    0    0    0  501  0.00000000000E+00  0.00000000000E+00 -0.10651207179E+04  0.10651207179E+04  0.50400001928E-02 0.  1.
    10030    2    1    2    0    0  0.00000000000E+00  0.00000000000E+00 -0.30115911093E+02  0.21001255247E+04  0.20999095817E+04 0.  0.
        3    1    3    3  502    0 -0.77527414160E+03  0.10962944458E+03 -0.71465576095E+03  0.10600950319E+04  0.10100000352E+00 0.  1.
       -3    1    3    3    0  502  0.77527414160E+03 -0.10962944458E+03  0.68453984986E+03  0.10400304928E+04  0.10100000352E+00 0. -1.
</event>
<event>
 5   0  0.1653260E-06  0.2100195E+04  0.7818609E-02  0.8561157E-01
        1   -1    0    0  501    0  0.00000000000E+00  0.00000000000E+00  0.19666956128E+04  0.19666956128E+04  0.50400001928E-02 0.  1.
       -1   -1    0    0    0  501  0.00000000000E+00  0.00000000000E+00 -0.56068907113E+03  0.56068907116E+03  0.50400001928E-02 0. -1.
    10030    2    1    2    0    0  0.00000000000E+00  0.00000000000E+00  0.14060065417E+04  0.25273846840E+04  0.21001949780E+04 0.  0.
        3    1    3    3  502    0  0.35499354079E+03 -0.46969144703E+02  0.18909522817E+04  0.19245589252E+04  0.10100000352E+00 0.  1.
       -3    1    3    3    0  502 -0.35499354079E+03  0.46969144703E+02 -0.48494574001E+03  0.60282575883E+03  0.10100000352E+00 0. -1.
</event>
<event>
 5   0  0.1646510E-06  0.2101211E+04  0.7818609E-02  0.8560710E-01
       -1   -1    0    0    0  501  0.00000000000E+00  0.00000000000E+00  0.75205106532E+03  0.75205106534E+03  0.50400001928E-02 0.  1.
        1   -1    0    0  501    0  0.00000000000E+00  0.00000000000E+00 -0.14676814627E+04  0.14676814627E+04  0.50400001928E-02 0. -1.
    10030    2    1    2    0    0  0.00000000000E+00  0.00000000000E+00 -0.71563039737E+03  0.22197325280E+04  0.21012105155E+04 0.  0.
        4    1    3    3  502    0  0.74724912431E+03  0.17211036529E+03 -0.11164935163E+04  0.13544602676E+04  0.12699999809E+01 0. -1.
       -4    1    3    3    0  502 -0.74724912431E+03 -0.17211036529E+03  0.40086311897E+03  0.86527226043E+03  0.12699999809E+01 0.  1.
</event>
<event>
 5   0  0.1653260E-06  0.2100001E+04  0.7818609E-02  0.8561243E-01
        1   -1    0    0  501    0  0.00000000000E+00  0.00000000000E+00  0.86752158338E+03  0.86752158340E+03  0.50400001928E-02 0.  1.
       -1   -1    0    0    0  501  0.00000000000E+00  0.00000000000E+00 -0.12708629584E+04  0.12708629584E+04  0.50400001928E-02 0. -1.
    10030    2    1    2    0    0  0.00000000000E+00  0.00000000000E+00 -0.40334137503E+03  0.21383845418E+04  0.21000009962E+04 0.  0.
        3    1    3    3  502    0  0.36092099499E+03 -0.33119979954E+03 -0.11473782792E+04  0.12475713196E+04  0.10100000352E+00 0. -1.
       -3    1    3    3    0  502 -0.36092099499E+03  0.33119979954E+03  0.74403690416E+03  0.89081322217E+03  0.10100000352E+00 0.  1.
</event>
<event>
 5   0  0.1615098E-06  0.2099442E+04  0.7818609E-02  0.8561489E-01
        1   -1    0    0  501    0  0.00000000000E+00  0.00000000000E+00  0.13306833692E+04  0.13306833692E+04  0.50400001928E-02 0.  1.
       -1   -1    0    0    0  501  0.00000000000E+00  0.00000000000E+00 -0.82808128550E+03  0.82808128552E+03  0.50400001928E-02 0. -1.
    10030    2    1    2    0    0  0.00000000000E+00  0.00000000000E+00  0.50260208372E+03  0.21587646548E+04  0.20994418258E+04 0.  0.
        1    1    3    3  502    0  0.11431437990E+03 -0.36607431649E+03  0.12560690609E+04  0.13133117179E+04  0.50400001928E-02 0.  1.
       -1    1    3    3    0  502 -0.11431437990E+03  0.36607431649E+03 -0.75346697719E+03  0.84545293683E+03  0.50400001928E-02 0. -1.
</event>
<event>
 5   0  0.1590067E-06  0.2098507E+04  0.7818609E-02  0.8561901E-01
        1   -1    0    0  501    0  0.00000000000E+00  0.00000000000E+00  0.14644327034E+04  0.14644327035E+04  0.50400001928E-02 0.  1.
       -1   -1    0    0    0  501  0.00000000000E+00  0.00000000000E+00 -0.75178108713E+03  0.75178108715E+03  0.50400001928E-02 0. -1.
    10030    2    1    2    0    0  0.00000000000E+00  0.00000000000E+00  0.71265161632E+03  0.22162137906E+04  0.20985069072E+04 0.  0.
        5    1    3    3  502    0  0.36096981064E+03 -0.89131778999E+03  0.79958726611E+03  0.12506432317E+04  0.46999998093E+01 0.  1.
       -5    1    3    3    0  502 -0.36096981064E+03  0.89131778999E+03 -0.86935649797E+02  0.96557055887E+03  0.46999998093E+01 0. -1.
</event>
<event>
 5   0  0.3574927E-06  0.2099740E+04  0.7818609E-02  0.8561358E-01
       -2   -1    0    0    0  501  0.00000000000E+00  0.00000000000E+00  0.66044406319E+03  0.66044406320E+03  0.25500000920E-02 0.  1.
        2   -1    0    0  501    0  0.00000000000E+00  0.00000000000E+00 -0.16689186042E+04  0.16689186042E+04  0.25500000920E-02 0. -1.
    10030    2    1    2    0    0  0.00000000000E+00  0.00000000000E+00 -0.10084745410E+04  0.23293626674E+04  0.20997403498E+04 0.  0.
        3    1    3    3  502    0  0.58474121232E+03 -0.62458061191E+03  0.17074467581E+03  0.87245457227E+03  0.10100000352E+00 0.  1.
       -3    1    3    3    0  502 -0.58474121232E+03  0.62458061191E+03 -0.11792192168E+04  0.14569080952E+04  0.10100000352E+00 0. -1.
</event>
<event>
 5   0  0.3547583E-06  0.2096843E+04  0.7818609E-02  0.8562636E-01
        2   -1    0    0  501    0  0.00000000000E+00  0.00000000000E+00  0.12636104471E+04  0.12636104471E+04  0.25500000920E-02 0. -1.
       -2   -1    0    0    0  501  0.00000000000E+00  0.00000000000E+00 -0.86987816285E+03  0.86987816286E+03  0.25500000920E-02 0.  1.
    10030    2    1    2    0    0  0.00000000000E+00  0.00000000000E+00  0.39373228427E+03  0.21334886100E+04  0.20968425161E+04 0.  0.
        2    1    3    3  502    0 -0.92663427764E+03  0.42550555994E+03 -0.51283637944E+02  0.10209486165E+04  0.25500000920E-02 0.  1.
       -2    1    3    3    0  502  0.92663427764E+03 -0.42550555994E+03  0.44501592221E+03  0.11125399935E+04  0.25500000920E-02 0. -1.
</event>
<event>
 5   0  0.1590067E-06  0.2098857E+04  0.7818609E-02  0.8561747E-01
       -1   -1    0    0    0  501  0.00000000000E+00  0.00000000000E+00  0.60902208438E+03  0.60902208441E+03  0.50400001928E-02 0. -1.
        1   -1    0    0  501    0  0.00000000000E+00  0.00000000000E+00 -0.18083083896E+04  0.18083083896E+04  0.50400001928E-02 0.  1.
    10030    2    1    2    0    0  0.00000000000E+00  0.00000000000E+00 -0.11992863052E+04  0.24173304740E+04  0.20988565884E+04 0.  0.
        5    1    3    3  502    0  0.97802786300E+02  0.51770061162E+03 -0.16449345089E+04  0.17272553189E+04  0.46999998093E+01 0.  1.
       -5    1    3    3    0  502 -0.97802786300E+02 -0.51770061162E+03  0.44564820364E+03  0.69007515510E+03  0.46999998093E+01 0. -1.
</event>
<event>
 5   0  0.3574927E-06  0.2102301E+04  0.7818609E-02  0.8560230E-01
        2   -1    0    0  501    0  0.00000000000E+00  0.00000000000E+00  0.19361748623E+04  0.19361748623E+04  0.25500000920E-02 0.  1.
       -2   -1    0    0    0  501  0.00000000000E+00  0.00000000000E+00 -0.57067021161E+03  0.57067021162E+03  0.25500000920E-02 0. -1.
    10030    2    1    2    0    0  0.00000000000E+00  0.00000000000E+00  0.13655046507E+04  0.25068450739E+04  0.21023009474E+04 0.  0.
        3    1    3    3  502    0  0.31436147967E+03 -0.20632466869E+03  0.18532321835E+04  0.18909951203E+04  0.10100000352E+00 0.  1.
       -3    1    3    3    0  502 -0.31436147967E+03  0.20632466869E+03 -0.48772753286E+03  0.61584995358E+03  0.10100000352E+00 0. -1.
</event>
<event>
 5   0  0.3480134E-06  0.2099789E+04  0.7818609E-02  0.8561336E-01
       -2   -1    0    0    0  501  0.00000000000E+00  0.00000000000E+00  0.58975857672E+03  0.58975857672E+03  0.25500000920E-02 0.  1.
        2   -1    0    0  501    0  0.00000000000E+00  0.00000000000E+00 -0.18690335332E+04  0.18690335332E+04  0.25500000920E-02 0. -1.
    10030    2    1    2    0    0  0.00000000000E+00  0.00000000000E+00 -0.12792749565E+04  0.24587921100E+04  0.20997890908E+04 0.  0.
        1    1    3    3  502    0  0.55002124971E+03  0.20988239747E+03 -0.16575774244E+04  0.17590158935E+04  0.50400001928E-02 0. -1.
       -1    1    3    3    0  502 -0.55002124971E+03 -0.20988239747E+03  0.37830246783E+03  0.69977621644E+03  0.50400001928E-02 0.  1.
</event>
<event>
 5   0  0.3636435E-06  0.2100119E+04  0.7818609E-02  0.8561191E-01
        2   -1    0    0  501    0  0.00000000000E+00  0.00000000000E+00  0.10942244807E+04  0.10942244807E+04  0.25500000920E-02 0.  1.
       -2   -1    0    0    0  501  0.00000000000E+00  0.00000000000E+00 -0.10076770557E+04  0.10076770557E+04  0.25500000920E-02 0. -1.
    10030    2    1    2    0    0  0.00000000000E+00  0.00000000000E+00  0.86547425007E+02  0.21019015365E+04  0.21001189519E+04 0.  0.
        4    1    3    3  502    0 -0.64843547706E+03 -0.69190577290E+03 -0.40813142554E+03  0.10323638118E+04  0.12699999809E+01 0. -1.
       -4    1    3    3    0  502  0.64843547706E+03  0.69190577290E+03  0.49467885055E+03  0.10695377247E+04  0.12699999809E+01 0.  1.
</event>
<event>
 5   0  0.3547583E-06  0.2100220E+04  0.7818609E-02  0.8561146E-01
       -2   -1    0    0    0  501  0.00000000000E+00  0.00000000000E+00  0.11293356117E+04  0.11293356117E+04  0.25500000920E-02 0. -1.
        2   -1    0    0  501    0  0.00000000000E+00  0.00000000000E+00 -0.97644250915E+03  0.97644250916E+03  0.25500000920E-02 0.  1.
    10030    2    1    2    0    0  0.00000000000E+00  0.00000000000E+00  0.15289310251E+03  0.21057781208E+04  0.21002202726E+04 0.  0.
        2    1    3    3  502    0  0.53974174238E+03  0.85539724611E+03  0.35951564613E+03  0.10734417064E+04  0.25500000920E-02 0. -1.
       -2    1    3    3    0  502 -0.53974174238E+03 -0.85539724611E+03 -0.20662254362E+03  0.10323364145E+04  0.25500000920E-02 0.  1.
</event>
<event>
 5   0  0.1590067E-06  0.2097678E+04  0.7818609E-02  0.8562267E-01
        1   -1    0    0  501    0  0.00000000000E+00  0.00000000000E+00  0.14393587784E+04  0.14393587784E+04  0.50400001928E-02 0.  1.
       -1   -1    0    0    0  501  0.00000000000E+00  0.00000000000E+00 -0.76427322596E+03  0.76427322598E+03  0.50400001928E-02 0. -1.
    10030    2    1    2    0    0  0.00000000000E+00  0.00000000000E+00  0.67508555243E+03  0.22036320044E+04  0.20976781230E+04 0.  0.
        5    1    3    3  502    0  0.82996992661E+03  0.64124127869E+03  0.33850002671E+03  0.11021092571E+04  0.46999998093E+01 0. -1.
       -5    1    3    3    0  502 -0.82996992661E+03 -0.64124127869E+03  0.33658552573E+03  0.11015227472E+04  0.46999998093E+01 0.  1.
</event>
<event>
 5   0  0.3547583E-06  0.2100964E+04  0.7818609E-02  0.8560819E-01
       -2   -1    0    0    0  501  0.00000000000E+00  0.00000000000E+00  0.65679598695E+03  0.65679598696E+03  0.25500000920E-02 0. -1.
        2   -1    0    0  501    0  0.00000000000E+00  0.00000000000E+00 -0.16801451552E+04  0.16801451553E+04  0.25500000920E-02 0.  1.
    10030    2    1    2    0    0  0.00000000000E+00  0.00000000000E+00 -0.10233491683E+04  0.23369411422E+04  0.21009641553E+04 0.  0.
        2    1    3    3  502    0 -0.68186066623E+03  0.79750225040E+03 -0.56805045429E+03  0.11931576284E+04  0.25500000920E-02 0. -1.
       -2    1    3    3    0  502  0.68186066623E+03 -0.79750225040E+03 -0.45529871401E+03  0.11437835138E+04  0.25500000920E-02 0.  1.
</event>
<event>
 5   0  0.1590067E-06  0.2103465E+04  0.7818609E-02  0.8559718E-01
        1   -1    0    0  501    0  0.00000000000E+00  0.00000000000E+00  0.21179225640E+04  0.21179225640E+04  0.50400001928E-02 0. -1.
       -1   -1    0    0    0  501  0.00000000000E+00  0.00000000000E+00 -0.52227671535E+03  0.52227671538E+03  0.50400001928E-02 0.  1.
    10030    2    1    2    0    0  0.00000000000E+00  0.00000000000E+00  0.15956458486E+04  0.26401992794E+04  0.21034653695E+04 0.  0.
        5    1    3    3  502    0  0.48453938782E+03 -0.65743038978E+03 -0.33933420819E+02  0.81741464558E+03  0.46999998093E+01 0.  1.
       -5    1    3    3    0  502 -0.48453938782E+03  0.65743038978E+03  0.16295792695E+04  0.18227846338E+04  0.46999998093E+01 0. -1.
</event>
<event>
 5   0  0.1646510E-06  0.2102243E+04  0.7818609E-02  0.8560256E-01
       -1   -1    0    0    0  501  0.00000000000E+00  0.00000000000E+00  0.55715153339E+03  0.55715153341E+03  0.50400001928E-02 0. -1.
        1   -1    0    0  501    0  0.00000000000E+00  0.00000000000E+00 -0.19830444954E+04  0.19830444954E+04  0.50400001928E-02 0.  1.
    10030    2    1    2    0    0  0.00000000000E+00  0.00000000000E+00 -0.14258929621E+04  0.25401960289E+04  0.21022428798E+04 0.  0.
        4    1    3    3  502    0 -0.63078912447E+03 -0.68362810283E+03 -0.12146798991E+03  0.93808229277E+03  0.12699999809E+01 0. -1.
       -4    1    3    3    0  502  0.63078912447E+03  0.68362810283E+03 -0.13044249721E+04  0.16021137361E+04  0.12699999809E+01 0.  1.
</event>
<event>
 5   0  0.1579820E-06  0.2099490E+04  0.7818609E-02  0.8561468E-01
       -1   -1    0    0    0  501  0.00000000000E+00  0.00000000000E+00  0.79362558552E+03  0.79362558554E+03  0.50400001928E-02 0. -1.
        1   -1    0    0  501    0  0.00000000000E+00  0.00000000000E+00 -0.13885193315E+04  0.13885193315E+04  0.50400001928E-02 0.  1.
    10030    2    1    2    0    0  0.00000000000E+00  0.00000000000E+00 -0.59489374594E+03  0.21821449170E+04  0.20994899071E+04 0.  0.
        2    1    3    3  502    0 -0.99001492365E+03 -0.28490755374E+03 -0.87858400498E+02  0.10339346990E+04  0.25500000920E-02 0. -1.
       -2    1    3    3    0  502  0.99001492365E+03  0.28490755374E+03 -0.50703534544E+03  0.11482102180E+04  0.25500000920E-02 0.  1.
</event>
<event>
 5   0  0.1646510E-06  0.2099979E+04  0.7818609E-02  0.8561253E-01
       -1   -1    0    0    0  501  0.00000000000E+00  0.00000000000E+00  0.63504064045E+03  0.63504064047E+03  0.50400001928E-02 0. -1.
        1   -1    0    0  501    0  0.00000000000E+00  0.00000000000E+00 -0.17360739167E+04  0.17360739167E+04  0.50400001928E-02 0.  1.
    10030    2    1    2    0    0  0.00000000000E+00  0.00000000000E+00 -0.11010332763E+04  0.23711145572E+04  0.20999785637E+04 0.  0.
        4    1    3    3  502    0 -0.10486913496E+04  0.26474762440E+02 -0.49975146261E+03  0.11619843359E+04  0.12699999809E+01 0. -1.
       -4    1    3    3    0  502  0.10486913496E+04 -0.26474762440E+02 -0.60128181367E+03  0.12091302213E+04  0.12699999809E+01 0.  1.
</event>
<event>
 5   0  0.3480134E-06  0.2102307E+04  0.7818609E-02  0.8560228E-01
        2   -1    0    0  501    0  0.00000000000E+00  0.00000000000E+00  0.76346815615E+03  0.76346815615E+03  0.25500000920E-02 0. -1.
       -2   -1    0    0    0  501  0.00000000000E+00  0.00000000000E+00 -0.14472423848E+04  0.14472423848E+04  0.25500000920E-02 0.  1.
    10030    2    1    2    0    0  0.00000000000E+00  0.00000000000E+00 -0.68377422863E+03  0.22107105409E+04  0.21023068045E+04 0.  0.
        1    1    3    3  502    0  0.43666120348E+03  0.89075476522E+03 -0.70738156481E+03  0.12184029451E+04  0.50400001928E-02 0.  1.
       -1    1    3    3    0  502 -0.43666120348E+03 -0.89075476522E+03  0.23607336186E+02  0.99230759583E+03  0.50400001928E-02 0. -1.
</event>
<event>
 5   0  0.3636435E-06  0.2100135E+04  0.7818609E-02  0.8561184E-01
       -2   -1    0    0    0  501  0.00000000000E+00  0.00000000000E+00  0.21185964042E+04  0.21185964042E+04  0.25500000920E-02 0.  1.
        2   -1    0    0  501    0  0.00000000000E+00  0.00000000000E+00 -0.52045837060E+03  0.52045837061E+03  0.25500000920E-02 0. -1.
    10030    2    1    2    0    0  0.00000000000E+00  0.00000000000E+00  0.15981380336E+04  0.26390547748E+04  0.21001345028E+04 0.  0.
        4    1    3    3  502    0 -0.99872627146E+02 -0.98339270477E+03  0.12444203923E+04  0.15892197705E+04  0.12699999809E+01 0. -1.
       -4    1    3    3    0  502  0.99872627146E+02  0.98339270477E+03  0.35371764128E+03  0.10498350042E+04  0.12699999809E+01 0.  1.
</event>
<event>
 5   0  0.1653260E-06  0.2100283E+04  0.7818609E-02  0.8561119E-01
       -1   -1    0    0    0  501  0.00000000000E+00  0.00000000000E+00  0.75290361579E+03  0.75290361581E+03  0.50400001928E-02 0.  1.
        1   -1    0    0  501    0  0.00000000000E+00  0.00000000000E+00 -0.14647262360E+04  0.14647262360E+04  0.50400001928E-02 0. -1.
    10030    2    1    2    0    0  0.00000000000E+00  0.00000000000E+00 -0.71182262021E+03  0.22176298518E+04  0.21002834849E+04 0.  0.
        3    1    3    3  502    0  0.23061022674E+03 -0.91622855638E+03 -0.83993586173E+03  0.12641788268E+04  0.10100000352E+00 0. -1.
       -3    1    3    3    0  502 -0.23061022674E+03  0.91622855638E+03  0.12811324152E+03  0.95345102499E+03  0.10100000352E+00 0.  1.
</event>
<event>
 5   0  0.3574927E-06  0.2100103E+04  0.7818609E-02  0.8561198E-01
       -2   -1    0    0    0  501  0.00000000000E+00  0.00000000000E+00  0.82309455094E+03  0.82309455094E+03  0.25500000920E-02 0. -1.
        2   -1    0    0  501    0  0.00000000000E+00  0.00000000000E+00 -0.13395881010E+04  0.13395881010E+04  0.25500000920E-02 0.  1.
    10030    2    1    2    0    0  0.00000000000E+00  0.00000000000E+00 -0.51649355002E+03  0.21626826519E+04  0.21001025369E+04 0.  0.
        3    1    3    3  502    0  0.87508649001E+03 -0.57642123836E+03 -0.18863172565E+03  0.10647158058E+04  0.10100000352E+00 0. -1.
       -3    1    3    3    0  502 -0.87508649001E+03  0.57642123836E+03 -0.32786182436E+03  0.10979668461E+04  0.10100000352E+00 0.  1.
</event>
<event>
 5   0  0.1653260E-06  0.2098677E+04  0.7818609E-02  0.8561826E-01
       -1   -1    0    0    0  501  0.00000000000E+00  0.00000000000E+00  0.70370041779E+03  0.70370041781E+03  0.50400001928E-02 0. -1.
        1   -1    0    0  501    0  0.00000000000E+00  0.00000000000E+00 -0.15647449800E+04  0.15647449801E+04  0.50400001928E-02 0.  1.
    10030    2    1    2    0    0  0.00000000000E+00  0.00000000000E+00 -0.86104456226E+03  0.22684453979E+04  0.20986773894E+04 0.  0.
        3    1    3    3  502    0 -0.72390723310E+03  0.74303909602E+03 -0.60129960918E+03  0.11990454581E+04  0.10100000352E+00 0.  1.
       -3    1    3    3    0  502  0.72390723310E+03 -0.74303909602E+03 -0.25974495308E+03  0.10693999398E+04  0.10100000352E+00 0. -1.
</event>
<event>
 5   0  0.1579820E-06  0.2100449E+04  0.7818609E-02  0.8561046E-01
       -1   -1    0    0    0  501  0.00000000000E+00  0.00000000000E+00  0.83144827870E+03  0.83144827872E+03  0.50400001928E-02 0.  1.
        1   -1    0    0  501    0  0.00000000000E+00  0.00000000000E+00 -0.13265664568E+04  0.13265664568E+04  0.50400001928E-02 0. -1.
    10030    2    1    2    0    0  0.00000000000E+00  0.00000000000E+00 -0.49511817808E+03  0.21580147355E+04  0.21004489016E+04 0.  0.
        2    1    3    3  502    0 -0.34081363981E+02  0.93573751143E+03 -0.73620418654E+03  0.11911183123E+04  0.25500000920E-02 0. -1.
       -2    1    3    3    0  502  0.34081363981E+02 -0.93573751143E+03  0.24108600846E+03  0.96689642318E+03  0.25500000920E-02 0.  1.
</event>
<event>
 5   0  0.3547583E-06  0.2099160E+04  0.7818609E-02  0.8561613E-01
        2   -1    0    0  501    0  0.00000000000E+00  0.00000000000E+00  0.21758061042E+04  0.21758061042E+04  0.25500000920E-02 0. -1.
       -2   -1    0    0    0  501  0.00000000000E+00  0.00000000000E+00 -0.50630355045E+03  0.50630355046E+03  0.25500000920E-02 0.  1.
    10030    2    1    2    0    0  0.00000000000E+00  0.00000000000E+00  0.16695025537E+04  0.26821096547E+04  0.20991601708E+04 0.  0.
        2    1    3    3  502    0  0.35037331245E+03 -0.45025599737E+02 -0.42806553772E+03  0.55500348404E+03  0.25500000920E-02 0.  1.
       -2    1    3    3    0  502 -0.35037331245E+03  0.45025599737E+02  0.20975680915E+04  0.21271061706E+04  0.25500000920E-02 0. -1.
</event>
<event>
 5   0  0.1590067E-06  0.2099826E+04  0.7818609E-02  0.8561320E-01
        1   -1    0    0  501    0  0.00000000000E+00  0.00000000000E+00  0.92076444558E+03  0.92076444559E+03  0.50400001928E-02 0.  1.
       -1   -1    0    0    0  501  0.00000000000E+00  0.00000000000E+00 -0.11971761567E+04  0.11971761567E+04  0.50400001928E-02 0. -1.
    10030    2    1    2    0    0  0.00000000000E+00  0.00000000000E+00 -0.27641171110E+03  0.21179406023E+04  0.20998259358E+04 0.  0.
        5    1    3    3  502    0 -0.10284679004E+04 -0.19876822810E+03 -0.20981210092E+03  0.10683156080E+04  0.46999998093E+01 0.  1.
       -5    1    3    3    0  502  0.10284679004E+04  0.19876822810E+03 -0.66599610176E+02  0.10496249943E+04  0.46999998093E+01 0. -1.
</event>
<event>
 5   0  0.1615098E-06  0.2099741E+04  0.7818609E-02  0.8561357E-01
        1   -1    0    0  501    0  0.00000000000E+00  0.00000000000E+00  0.12144085683E+04  0.12144085683E+04  0.50400001928E-02 0. -1.
       -1   -1    0    0    0  501  0.00000000000E+00  0.00000000000E+00 -0.90762553929E+03  0.90762553930E+03  0.50400001928E-02 0.  1.
    10030    2    1    2    0    0  0.00000000000E+00  0.00000000000E+00  0.30678302904E+03  0.21220341076E+04  0.20997411572E+04 0.  0.
        1    1    3    3  502    0  0.33029613031E+02 -0.78964675460E+03 -0.54502839624E+03  0.96004630364E+03  0.50400001928E-02 0.  1.
       -1    1    3    3    0  502 -0.33029613031E+02  0.78964675460E+03  0.85181142528E+03  0.11619878040E+04  0.50400001928E-02 0. -1.
</event>
<event>
 5   0  0.3636435E-06  0.2099760E+04  0.7818609E-02  0.8561349E-01
       -2   -1    0    0    0  501  0.00000000000E+00  0.00000000000E+00  0.11624250512E+04  0.11624250512E+04  0.25500000920E-02 0.  1.
        2   -1    0    0  501    0  0.00000000000E+00  0.00000000000E+00 -0.94823181251E+03  0.94823181252E+03  0.25500000920E-02 0. -1.
    10030    2    1    2    0    0  0.00000000000E+00  0.00000000000E+00  0.21419323873E+03  0.21106568638E+04  0.20997603799E+04 0.  0.
        4    1    3    3  502    0 -0.63976471523E+03  0.83195621604E+03  0.78723128265E+02  0.10524490392E+04  0.12699999809E+01 0.  1.
       -4    1    3    3    0  502  0.63976471523E+03 -0.83195621604E+03  0.13547011046E+03  0.10582078246E+04  0.12699999809E+01 0. -1.
</event>
<event>
 5   0  0.1615098E-06  0.2098383E+04  0.7818609E-02  0.8561956E-01
       -1   -1    0    0    0  501  0.00000000000E+00  0.00000000000E+00  0.27121262261E+04  0.27121262261E+04  0.50400001928E-02 0. -1.
        1   -1    0    0  501    0  0.00000000000E+00  0.00000000000E+00 -0.40588189887E+03  0.40588189890E+03  0.50400001928E-02 0.  1.
    10030    2    1    2    0    0  0.00000000000E+00  0.00000000000E+00  0.23062443272E+04  0.31180081250E+04  0.20983831325E+04 0.  0.
        1    1    3    3  502    0 -0.30816573642E+03  0.47143329969E+03 -0.16221229002E+03  0.58611287669E+03  0.50400001928E-02 0.  1.
       -1    1    3    3    0  502  0.30816573642E+03 -0.47143329969E+03  0.24684566173E+04  0.25318952483E+04  0.50400001928E-02 0. -1.
</event>
<event>
 5   0  0.3636435E-06  0.2098217E+04  0.7818609E-02  0.8562029E-01
        2   -1    0    0  501    0  0.00000000000E+00  0.00000000000E+00  0.90105750169E+03  0.90105750169E+03  0.25500000920E-02 0.  1.
       -2   -1    0    0    0  501  0.00000000000E+00  0.00000000000E+00 -0.12214859443E+04  0.12214859443E+04  0.25500000920E-02 0. -1.
    10030    2    1    2    0    0  0.00000000000E+00  0.00000000000E+00 -0.32042844261E+03  0.21225434460E+04  0.20982174085E+04 0.  0.
        4    1    3    3  502    0  0.12333443197E+03  0.87445538171E+03 -0.73312274113E+03  0.11477604990E+04  0.12699999809E+01 0. -1.
       -4    1    3    3    0  502 -0.12333443197E+03 -0.87445538171E+03  0.41269429852E+03  0.97478294694E+03  0.12699999809E+01 0.  1.
</event>
<event>
 5   0  0.3705828E-06  0.2097434E+04  0.7818609E-02  0.8562375E-01
        2   -1    0    0  501    0  0.00000000000E+00  0.00000000000E+00  0.18512134311E+04  0.18512134311E+04  0.25500000920E-02 0.  1.
       -2   -1    0    0    0  501  0.00000000000E+00  0.00000000000E+00 -0.59410066751E+03  0.59410066751E+03  0.25500000920E-02 0. -1.
    10030    2    1    2    0    0  0.00000000000E+00  0.00000000000E+00  0.12571127636E+04  0.24453140986E+04  0.20974337988E+04 0.  0.
        5    1    3    3  502    0  0.47251120547E+03  0.84739082370E+03  0.16448114280E+03  0.98408037462E+03  0.46999998093E+01 0. -1.
       -5    1    3    3    0  502 -0.47251120547E+03 -0.84739082370E+03  0.10926316208E+04  0.14612337240E+04  0.46999998093E+01 0.  1.
</event>
<event>
 5   0  0.1646510E-06  0.2101132E+04  0.7818609E-02  0.8560745E-01
       -1   -1    0    0    0  501  0.00000000000E+00  0.00000000000E+00  0.35146853425E+03  0.35146853429E+03  0.50400001928E-02 0.  1.
        1   -1    0    0  501    0  0.00000000000E+00  0.00000000000E+00 -0.31402219558E+04  0.31402219558E+04  0.50400001928E-02 0. -1.
    10030    2    1    2    0    0  0.00000000000E+00  0.00000000000E+00 -0.27887534216E+04  0.34916904901E+04  0.21011322739E+04 0.  0.
        4    1    3    3  502    0 -0.60646652106E+02  0.54128839841E+03 -0.28872520352E+04  0.29381792107E+04  0.12699999809E+01 0. -1.
       -4    1    3    3    0  502  0.60646652106E+02 -0.54128839841E+03  0.98498613598E+02  0.55351127942E+03  0.12699999809E+01 0.  1.
</event>
<event>
 5   0  0.3705828E-06  0.2101918E+04  0.7818609E-02  0.8560399E-01
        2   -1    0    0  501    0  0.00000000000E+00  0.00000000000E+00  0.22784576656E+04  0.22784576656E+04  0.25500000920E-02 0. -1.
       -2   -1    0    0    0  501  0.00000000000E+00  0.00000000000E+00 -0.48476439634E+03  0.48476439635E+03  0.25500000920E-02 0.  1.
    10030    2    1    2    0    0  0.00000000000E+00  0.00000000000E+00  0.17936932693E+04  0.27632220620E+04  0.21019183189E+04 0.  0.
        5    1    3    3  502    0 -0.63497200803E+03  0.62331888927E+03  0.16320669176E+04  0.18588653534E+04  0.46999998093E+01 0. -1.
       -5    1    3    3    0  502  0.63497200803E+03 -0.62331888927E+03  0.16162635169E+03  0.90435670853E+03  0.46999998093E+01 0.  1.
</event>
<event>
 5   0  0.1579820E-06  0.2100503E+04  0.7818609E-02  0.8561022E-01
       -1   -1    0    0    0  501  0.00000000000E+00  0.00000000000E+00  0.12586680590E+04  0.12586680590E+04  0.50400001928E-02 0. -1.
        1   -1    0    0  501    0  0.00000000000E+00  0.00000000000E+00 -0.87634523482E+03  0.87634523484E+03  0.50400001928E-02 0.  1.
    10030    2    1    2    0    0  0.00000000000E+00  0.00000000000E+00  0.38232282416E+03  0.21350132938E+04  0.21005025644E+04 0.  0.
        2    1    3    3  502    0  0.67818756305E+02  0.45447905238E+03 -0.76874720272E+03  0.89561311651E+03  0.25500000920E-02 0.  1.
       -2    1    3    3    0  502 -0.67818756305E+02 -0.45447905238E+03  0.11510700269E+04  0.12394001773E+04  0.25500000920E-02 0. -1.
</event>
<event>
 5   0  0.3547583E-06  0.2099786E+04  0.7818609E-02  0.8561338E-01
        2   -1    0    0  501    0  0.00000000000E+00  0.00000000000E+00  0.14564637775E+04  0.14564637775E+04  0.25500000920E-02 0.  1.
       -2   -1    0    0    0  501  0.00000000000E+00  0.00000000000E+00 -0.75681581720E+03  0.75681581720E+03  0.25500000920E-02 0. -1.
    10030    2    1    2    0    0  0.00000000000E+00  0.00000000000E+00  0.69964796033E+03  0.22132795947E+04  0.20997855357E+04 0.  0.
        2    1    3    3  502    0 -0.69390865573E+03 -0.40488558962E+03  0.10622506983E+04  0.13318476298E+04  0.25500000920E-02 0.  1.
       -2    1    3    3    0  502  0.69390865573E+03  0.40488558962E+03 -0.36260273792E+03  0.88143196489E+03  0.25500000920E-02 0. -1.
</event>
<event>
 5   0  0.1590067E-06  0.2098815E+04  0.7818609E-02  0.8561766E-01
        1   -1    0    0  501    0  0.00000000000E+00  0.00000000000E+00  0.18926992486E+04  0.18926992486E+04  0.50400001928E-02 0. -1.
       -1   -1    0    0    0  501  0.00000000000E+00  0.00000000000E+00 -0.58184421629E+03  0.58184421632E+03  0.50400001928E-02 0.  1.
    10030    2    1    2    0    0  0.00000000000E+00  0.00000000000E+00  0.13108550323E+04  0.24745434649E+04  0.20988150095E+04 0.  0.
        5    1    3    3  502    0  0.54039744492E+03  0.16526149449E+01 -0.40516698172E+03  0.67543652751E+03  0.46999998093E+01 0.  1.
       -5    1    3    3    0  502 -0.54039744492E+03 -0.16526149449E+01  0.17160220140E+04  0.17991069374E+04  0.46999998093E+01 0. -1.
</event>
</LesHouchesEvents>
